                         Program Version 3.0.3 - RELEASE   -
|  1> ! RI PBE def2-SVP def2-SVP/J NBO PAL2
|  2> % maxcore 2000
|  3> % output
|  4>     # printlevel mini
|  5>     print[ P_Basis ] 0
|  6>     print[ P_SCFInfo ] 1
|  7>     print[ P_SCFIterInfo ] 1
|  8>     print[ P_OrbEn ] 0
|  9>     print[ P_Cartesian ] 0
| 10> end
| 11> *xyz 0 1
| 12>  C        1.0416820000    -0.0562000000    -0.0714810000
| 13>  H        2.1308940000    -0.0562020000    -0.0714960000
| 14>  H        0.6785980000     0.1749410000    -1.0720440000
| 15>  H        0.6786130000     0.6947460000     0.6289800000
| 16>  H        0.6786140000    -1.0382850000     0.2286410000
| 17> *
| 18>
| 19>                          ****END OF INPUT****
 Total Charge           Charge          ....    0
 Multiplicity           Mult            ....    1
 Number of Electrons    NEL             ....   10
 Basis Dimension        Dim             ....   34

MULLIKEN ATOMIC CHARGES
-----------------------
   0 C :   -0.159561
   1 H :    0.042421
   2 H :    0.038651
   3 H :    0.039849
   4 H :    0.038640
Sum of atomic charges:   -0.0000000

LOEWDIN ATOMIC CHARGES
----------------------
   0 C :   -0.123524
   1 H :    0.031056
   2 H :    0.030825
   3 H :    0.030831
   4 H :    0.030811

  Mayer bond orders larger than 0.1
B(  0-C ,  1-H ) :   0.9980 B(  0-C ,  2-H ) :   0.9979 B(  0-C ,  3-H ) :   0.9977
B(  0-C ,  4-H ) :   0.9980

FINAL SINGLE POINT ENERGY       -40.414529261476

DIPOLE MOMENT
-------------
                                X             Y             Z
Electronic contribution:     -0.00113       0.00002      -0.00039
Nuclear contribution   :     -0.00001       0.00000       0.00000
                        -----------------------------------------
Total Dipole Moment    :     -0.00113       0.00002      -0.00039
                        -----------------------------------------
Magnitude (a.u.)       :      0.00120
Magnitude (Debye)      :      0.00305

                             ****ORCA TERMINATED NORMALLY****
TOTAL RUN TIME: 0 days 0 hours 0 minutes 3 seconds 461 msec
