                         Program Version 3.0.3 - RELEASE   -
|  1> ! RI PBE def2-SVP def2-SVP/J NBO PAL2
|  2> % maxcore 2000
|  3> % output
|  4>     # printlevel mini
|  5>     print[ P_Basis ] 0
|  6>     print[ P_SCFInfo ] 1
|  7>     print[ P_SCFIterInfo ] 1
|  8>     print[ P_OrbEn ] 0
|  9>     print[ P_Cartesian ] 0
| 10> end
| 11> *xyz 0 1
| 12>  C        0.9959140000     0.0115110000    -0.0992210000
| 13>  C        2.5146860000     0.0114660000    -0.0992260000
| 14>  H        0.5972590000     0.7298770000    -0.8195960000
| 15>  H        0.5972590000     0.2761700000     0.8831060000
| 16>  H        0.5972780000    -0.9715310000    -0.3611670000
| 17>  H        2.9133220000     0.9945090000     0.1627190000
| 18>  H        2.9133410000    -0.2531920000    -1.0815530000
| 19>  H        2.9133410000    -0.7069000000     0.6211480000
| 20> *
| 21>
| 22>                          ****END OF INPUT****
 Total Charge           Charge          ....    0
 Multiplicity           Mult            ....    1
 Number of Electrons    NEL             ....   18
 Basis Dimension        Dim             ....   58

MULLIKEN ATOMIC CHARGES
-----------------------
   0 C :   -0.070332
   1 C :   -0.070332
   2 H :    0.024997
   3 H :    0.022671
   4 H :    0.022664
   5 H :    0.022665
   6 H :    0.022670
   7 H :    0.024997
Sum of atomic charges:   -0.0000000

LOEWDIN ATOMIC CHARGES
----------------------
   0 C :   -0.074064
   1 C :   -0.074064
   2 H :    0.025003
   3 H :    0.024533
   4 H :    0.024528
   5 H :    0.024528
   6 H :    0.024533
   7 H :    0.025003

  Mayer bond orders larger than 0.1
B(  0-C ,  1-C ) :   1.1329 B(  0-C ,  2-H ) :   0.9749 B(  0-C ,  3-H ) :   0.9743
B(  0-C ,  4-H ) :   0.9743 B(  1-C ,  5-H ) :   0.9743 B(  1-C ,  6-H ) :   0.9743
B(  1-C ,  7-H ) :   0.9749

FINAL SINGLE POINT ENERGY       -79.640729868552

DIPOLE MOMENT
-------------
                                X             Y             Z
Electronic contribution:      0.00000      -0.00000       0.00000
Nuclear contribution   :     -0.00000       0.00000      -0.00000
                        -----------------------------------------
Total Dipole Moment    :      0.00000      -0.00000      -0.00000
                        -----------------------------------------
Magnitude (a.u.)       :      0.00000
Magnitude (Debye)      :      0.00000

                             ****ORCA TERMINATED NORMALLY****
TOTAL RUN TIME: 0 days 0 hours 0 minutes 2 seconds 790 msec
