                         Program Version 3.0.3 - RELEASE   -
|  1> ! RI PBE def2-SVP def2-SVP/J NBO PAL2
|  2> % maxcore 2000
|  3> % output
|  4>     # printlevel mini
|  5>     print[ P_Basis ] 0
|  6>     print[ P_SCFInfo ] 1
|  7>     print[ P_SCFIterInfo ] 1
|  8>     print[ P_OrbEn ] 0
|  9>     print[ P_Cartesian ] 0
| 10> end
| 11> *xyz 0 1
| 12>  C        0.9361290000     0.0308330000    -0.0743300000
| 13>  C        2.2591410000     0.0308330000    -0.0743300000
| 14>  H        0.3666170000     0.9529410000    -0.1182520000
| 15>  H        0.3666170000    -0.8912750000    -0.0304180000
| 16>  H        2.8286530000     0.9529410000    -0.1182520000
| 17>  H        2.8286530000    -0.8912750000    -0.0304180000
| 18> *
| 19>
| 20>                          ****END OF INPUT****
 Total Charge           Charge          ....    0
 Multiplicity           Mult            ....    1
 Number of Electrons    NEL             ....   16
 Basis Dimension        Dim             ....   48

MULLIKEN ATOMIC CHARGES
-----------------------
   0 C :   -0.067131
   1 C :   -0.067131
   2 H :    0.033565
   3 H :    0.033565
   4 H :    0.033565
   5 H :    0.033565
Sum of atomic charges:   -0.0000000

LOEWDIN ATOMIC CHARGES
----------------------
   0 C :   -0.050987
   1 C :   -0.050987
   2 H :    0.025494
   3 H :    0.025494
   4 H :    0.025494
   5 H :    0.025494

  Mayer bond orders larger than 0.1
B(  0-C ,  1-C ) :   2.0951 B(  0-C ,  2-H ) :   0.9577 B(  0-C ,  3-H ) :   0.9577
B(  1-C ,  4-H ) :   0.9577 B(  1-C ,  5-H ) :   0.9577

FINAL SINGLE POINT ENERGY       -78.410525429649

DIPOLE MOMENT
-------------
                                X             Y             Z
Electronic contribution:     -0.00000      -0.00000       0.00001
Nuclear contribution   :     -0.00000      -0.00000      -0.00002
                        -----------------------------------------
Total Dipole Moment    :     -0.00000      -0.00000      -0.00001
                        -----------------------------------------
Magnitude (a.u.)       :      0.00001
Magnitude (Debye)      :      0.00001

                             ****ORCA TERMINATED NORMALLY****
TOTAL RUN TIME: 0 days 0 hours 0 minutes 2 seconds 538 msec
