                         Program Version 3.0.3 - RELEASE   -
|  1> ! RI PBE def2-SVP def2-SVP/J NBO PAL2
|  2> % maxcore 2000
|  3> % output
|  4>     # printlevel mini
|  5>     print[ P_Basis ] 0
|  6>     print[ P_SCFInfo ] 1
|  7>     print[ P_SCFIterInfo ] 1
|  8>     print[ P_OrbEn ] 0
|  9>     print[ P_Cartesian ] 0
| 10> end
| 11> *xyz 0 1
| 12>  C        0.8992310000    -0.0226000000     0.0041000000
| 13>  C        2.0962690000    -0.0226000000     0.0041000000
| 14>  H       -0.1655500000    -0.0226000000     0.0041000000
| 15>  H        3.1610500000    -0.0226000000     0.0041000000
| 16> *
| 17>
| 18>                          ****END OF INPUT****
 Total Charge           Charge          ....    0
 Multiplicity           Mult            ....    1
 Number of Electrons    NEL             ....   14
 Basis Dimension        Dim             ....   38

MULLIKEN ATOMIC CHARGES
-----------------------
   0 C :   -0.014750
   1 C :   -0.014750
   2 H :    0.014750
   3 H :    0.014750
Sum of atomic charges:   -0.0000000

LOEWDIN ATOMIC CHARGES
----------------------
   0 C :   -0.037814
   1 C :   -0.037814
   2 H :    0.037814
   3 H :    0.037814

  Mayer bond orders larger than 0.1
B(  0-C ,  1-C ) :   2.5426 B(  0-C ,  2-H ) :   1.0599 B(  1-C ,  3-H ) :   1.0599

FINAL SINGLE POINT ENERGY       -77.161262915010

DIPOLE MOMENT
-------------
                                X             Y             Z
Electronic contribution:     -0.00000       0.00000      -0.00000
Nuclear contribution   :     -0.00000       0.00000      -0.00000
                        -----------------------------------------
Total Dipole Moment    :     -0.00000       0.00000      -0.00000
                        -----------------------------------------
Magnitude (a.u.)       :      0.00000
Magnitude (Debye)      :      0.00000

                             ****ORCA TERMINATED NORMALLY****
TOTAL RUN TIME: 0 days 0 hours 0 minutes 1 seconds 994 msec
