                         Program Version 3.0.3 - RELEASE   -
|  1> ! RI PBE def2-SVP def2-SVP/J NBO PAL2
|  2> % maxcore 2000
|  3> % output
|  4>     # printlevel mini
|  5>     print[ P_Basis ] 0
|  6>     print[ P_SCFInfo ] 1
|  7>     print[ P_SCFIterInfo ] 1
|  8>     print[ P_OrbEn ] 0
|  9>     print[ P_Cartesian ] 0
| 10> end
| 11> *xyz 0 1
| 12>  C       -0.0263760000     0.8602450000     0.0533800000
| 13>  C       -0.7357780000    -0.4526890000    -0.0692050000
| 14>  C        0.7610370000    -0.4074930000    -0.0695270000
| 15>  H       -0.0416000000     1.3583440000     1.0149830000
| 16>  H       -0.0471690000     1.5305670000    -0.7970650000
| 17>  H       -1.2378450000    -0.6743040000    -1.0029490000
| 18>  H       -1.2322530000    -0.8465420000     0.8091210000
| 19>  H        1.2756080000    -0.5975760000    -1.0034140000
| 20>  H        1.2811760000    -0.7698420000     0.8086650000
| 21> *
| 22>
| 23>                          ****END OF INPUT****
 Total Charge           Charge          ....    0
 Multiplicity           Mult            ....    1
 Number of Electrons    NEL             ....   24
 Basis Dimension        Dim             ....   72

MULLIKEN ATOMIC CHARGES
-----------------------
   0 C :   -0.086101
   1 C :   -0.074465
   2 C :   -0.072783
   3 H :    0.039052
   4 H :    0.041527
   5 H :    0.037860
   6 H :    0.038393
   7 H :    0.038100
   8 H :    0.038417
Sum of atomic charges:   -0.0000000

LOEWDIN ATOMIC CHARGES
----------------------
   0 C :   -0.054087
   1 C :   -0.051762
   2 C :   -0.051617
   3 H :    0.026205
   4 H :    0.026738
   5 H :    0.026026
   6 H :    0.026189
   7 H :    0.026110
   8 H :    0.026199

  Mayer bond orders larger than 0.1
B(  0-C ,  1-C ) :   1.0346 B(  0-C ,  2-C ) :   1.0351 B(  0-C ,  3-H ) :   0.9588
B(  0-C ,  4-H ) :   0.9586 B(  1-C ,  2-C ) :   1.0365 B(  1-C ,  5-H ) :   0.9590
B(  1-C ,  6-H ) :   0.9588 B(  2-C ,  7-H ) :   0.9589 B(  2-C ,  8-H ) :   0.9586

FINAL SINGLE POINT ENERGY      -117.638534720548

DIPOLE MOMENT
-------------
                                X             Y             Z
Electronic contribution:     -0.00032      -0.00319      -0.00074
Nuclear contribution   :      0.00012       0.00042       0.00004
                        -----------------------------------------
Total Dipole Moment    :     -0.00020      -0.00277      -0.00071
                        -----------------------------------------
Magnitude (a.u.)       :      0.00287
Magnitude (Debye)      :      0.00729

                             ****ORCA TERMINATED NORMALLY****
TOTAL RUN TIME: 0 days 0 hours 0 minutes 3 seconds 415 msec
