                         Program Version 3.0.3 - RELEASE   -
|  1> ! RI PBE def2-SVP def2-SVP/J NBO PAL2
|  2> % maxcore 2000
|  3> % output
|  4>     # printlevel mini
|  5>     print[ P_Basis ] 0
|  6>     print[ P_SCFInfo ] 1
|  7>     print[ P_SCFIterInfo ] 1
|  8>     print[ P_OrbEn ] 0
|  9>     print[ P_Cartesian ] 0
| 10> end
| 11> *xyz 0 1
| 12>  C        1.0582000000    -0.0465970000    -0.0071260000
| 13>  C        2.5780470000    -0.0864970000    -0.0202260000
| 14>  C        3.1242410000    -1.4344960000    -0.4632470000
| 15>  H        0.6843710000     0.9283520000     0.3132930000
| 16>  H        0.6519270000    -0.7996590000     0.6737400000
| 17>  H        0.6519420000    -0.2489220000    -1.0019910000
| 18>  H        2.9577460000     0.1503840000     0.9788710000
| 19>  H        2.9577600000     0.6968930000    -0.6840010000
| 20>  H        2.7855760000    -2.2329740000     0.2026950000
| 21>  H        4.2164100000    -1.4443560000    -0.4664800000
| 22>  H        2.7855890000    -1.6822380000    -1.4730370000
| 23> *
| 24>
| 25>                          ****END OF INPUT****
 Total Charge           Charge          ....    0
 Multiplicity           Mult            ....    1
 Number of Electrons    NEL             ....   26
 Basis Dimension        Dim             ....   82

MULLIKEN ATOMIC CHARGES
-----------------------
   0 C :   -0.029747
   1 C :   -0.065891
   2 C :   -0.049004
   3 H :    0.017531
   4 H :    0.017855
   5 H :    0.016025
   6 H :    0.013044
   7 H :    0.016605
   8 H :    0.020400
   9 H :    0.026626
  10 H :    0.016556
Sum of atomic charges:   -0.0000000

LOEWDIN ATOMIC CHARGES
----------------------
   0 C :   -0.067397
   1 C :   -0.052416
   2 C :   -0.071459
   3 H :    0.024914
   4 H :    0.023393
   5 H :    0.022941
   6 H :    0.022685
   7 H :    0.023327
   8 H :    0.024032
   9 H :    0.026499
  10 H :    0.023481

  Mayer bond orders larger than 0.1
B(  0-C ,  1-C ) :   1.1152 B(  0-C ,  3-H ) :   0.9644 B(  0-C ,  4-H ) :   0.9702
B(  0-C ,  5-H ) :   0.9700 B(  1-C ,  2-C ) :   1.1200 B(  1-C ,  6-H ) :   0.9446
B(  1-C ,  7-H ) :   0.9457 B(  2-C ,  8-H ) :   0.9686 B(  2-C ,  9-H ) :   0.9647
B(  2-C , 10-H ) :   0.9676

FINAL SINGLE POINT ENERGY      -118.869021993145

DIPOLE MOMENT
-------------
                                X             Y             Z
Electronic contribution:      0.26999       0.36749       0.12153
Nuclear contribution   :     -0.25808      -0.34672      -0.11395
                        -----------------------------------------
Total Dipole Moment    :      0.01192       0.02077       0.00758
                        -----------------------------------------
Magnitude (a.u.)       :      0.02511
Magnitude (Debye)      :      0.06383

                             ****ORCA TERMINATED NORMALLY****
TOTAL RUN TIME: 0 days 0 hours 0 minutes 3 seconds 991 msec
