                         Program Version 3.0.3 - RELEASE   -
|  1> ! RI PBE def2-SVP def2-SVP/J NBO PAL2
|  2> % maxcore 2000
|  3> % output
|  4>     # printlevel mini
|  5>     print[ P_Basis ] 0
|  6>     print[ P_SCFInfo ] 1
|  7>     print[ P_SCFIterInfo ] 1
|  8>     print[ P_OrbEn ] 0
|  9>     print[ P_Cartesian ] 0
| 10> end
| 11> *xyz 0 1
| 12>  C        1.0471310000    -0.0428150000    -0.0710170000
| 13>  C        2.5456410000    -0.0629630000    -0.0090370000
| 14>  C        3.2570940000    -0.4086630000     1.0547360000
| 15>  H        0.6893540000     0.2755760000    -1.0507380000
| 16>  H        0.6280940000     0.6414010000     0.6715800000
| 17>  H        0.6280870000    -1.0328640000     0.1274780000
| 18>  H        3.0765530000     0.2303860000    -0.9117350000
| 19>  H        2.7835860000    -0.7108440000     1.9846080000
| 20>  H        4.3405710000    -0.4028150000     1.0367250000
| 21> *
| 22>
| 23>                          ****END OF INPUT****
 Total Charge           Charge          ....    0
 Multiplicity           Mult            ....    1
 Number of Electrons    NEL             ....   24
 Basis Dimension        Dim             ....   72

MULLIKEN ATOMIC CHARGES
-----------------------
   0 C :    0.012084
   1 C :   -0.123568
   2 C :   -0.040419
   3 H :    0.019556
   4 H :    0.043436
   5 H :    0.040591
   6 H :    0.009645
   7 H :    0.011510
   8 H :    0.027165
Sum of atomic charges:   -0.0000000

LOEWDIN ATOMIC CHARGES
----------------------
   0 C :   -0.072326
   1 C :   -0.038198
   2 C :   -0.069435
   3 H :    0.030544
   4 H :    0.040177
   5 H :    0.039760
   6 H :    0.024917
   7 H :    0.019894
   8 H :    0.024668

  Mayer bond orders larger than 0.1
B(  0-C ,  1-C ) :   1.0685 B(  0-C ,  3-H ) :   0.9616 B(  0-C ,  4-H ) :   0.9601
B(  0-C ,  5-H ) :   0.9599 B(  1-C ,  2-C ) :   2.0383 B(  1-C ,  6-H ) :   0.9565
B(  2-C ,  7-H ) :   0.9549 B(  2-C ,  8-H ) :   0.9470

FINAL SINGLE POINT ENERGY      -117.641997729805

DIPOLE MOMENT
-------------
                                X             Y             Z
Electronic contribution:      1.10031      -0.00597       0.01795
Nuclear contribution   :     -1.24798       0.02388      -0.07346
                        -----------------------------------------
Total Dipole Moment    :     -0.14767       0.01791      -0.05551
                        -----------------------------------------
Magnitude (a.u.)       :      0.15877
Magnitude (Debye)      :      0.40355

                             ****ORCA TERMINATED NORMALLY****
TOTAL RUN TIME: 0 days 0 hours 0 minutes 3 seconds 560 msec
