                         Program Version 3.0.3 - RELEASE   -
|  1> ! RI PBE def2-SVP def2-SVP/J NBO PAL2
|  2> % maxcore 2000
|  3> % output
|  4>     # printlevel mini
|  5>     print[ P_Basis ] 0
|  6>     print[ P_SCFInfo ] 1
|  7>     print[ P_SCFIterInfo ] 1
|  8>     print[ P_OrbEn ] 0
|  9>     print[ P_Cartesian ] 0
| 10> end
| 11> *xyz 0 1
| 12>  C        1.0258910000     0.0842970000     0.0424690000
| 13>  C        2.4755120000     0.0842010000     0.0424470000
| 14>  C        3.6755110000     0.0842920000     0.0424930000
| 15>  H        0.6364800000    -0.6783080000     0.7210310000
| 16>  H        0.6364890000    -0.1219760000    -0.9572670000
| 17>  H        0.6366780000     1.0533080000     0.3636840000
| 18>  H        4.7395480000     0.0843960000     0.0425420000
| 19> *
| 20>
| 21>                          ****END OF INPUT****
 Total Charge           Charge          ....    0
 Multiplicity           Mult            ....    1
 Number of Electrons    NEL             ....   22
 Basis Dimension        Dim             ....   62

MULLIKEN ATOMIC CHARGES
-----------------------
   0 C :    0.048039
   1 C :    0.228536
   2 C :   -0.430604
   3 H :    0.053898
   4 H :    0.051914
   5 H :    0.052014
   6 H :   -0.003797
Sum of atomic charges:   -0.0000000

LOEWDIN ATOMIC CHARGES
----------------------
   0 C :   -0.067613
   1 C :   -0.030762
   2 C :   -0.092849
   3 H :    0.053164
   4 H :    0.052789
   5 H :    0.052841
   6 H :    0.032431

  Mayer bond orders larger than 0.1
B(  0-C ,  1-C ) :   1.1300 B(  0-C ,  3-H ) :   0.9338 B(  0-C ,  4-H ) :   0.9338
B(  0-C ,  5-H ) :   0.9335 B(  1-C ,  2-C ) :   2.4045 B(  1-C ,  6-H ) :  -0.1024
B(  2-C ,  6-H ) :   1.0951

FINAL SINGLE POINT ENERGY      -116.402902273377

DIPOLE MOMENT
-------------
                                X             Y             Z
Electronic contribution:      2.13884      -0.00084      -0.00008
Nuclear contribution   :     -2.46380       0.00031       0.00009
                        -----------------------------------------
Total Dipole Moment    :     -0.32496      -0.00054       0.00001
                        -----------------------------------------
Magnitude (a.u.)       :      0.32496
Magnitude (Debye)      :      0.82599

                             ****ORCA TERMINATED NORMALLY****
TOTAL RUN TIME: 0 days 0 hours 0 minutes 2 seconds 978 msec
