                         Program Version 3.0.3 - RELEASE   -
|  1> ! RI PBE def2-SVP def2-SVP/J NBO PAL2
|  2> % maxcore 2000
|  3> % output
|  4>     # printlevel mini
|  5>     print[ P_Basis ] 0
|  6>     print[ P_SCFInfo ] 1
|  7>     print[ P_SCFIterInfo ] 1
|  8>     print[ P_OrbEn ] 0
|  9>     print[ P_Cartesian ] 0
| 10> end
| 11> *xyz 0 1
| 12>  C       -0.0616340000     0.8577240000     0.0600460000
| 13>  C       -0.7661020000    -0.4302090000    -0.0728000000
| 14>  N        0.6841430000    -0.3953870000     0.0768290000
| 15>  H       -0.0826730000     1.3893310000     1.0050950000
| 16>  H        0.0035310000     1.4939510000    -0.8170500000
| 17>  H       -1.1865270000    -0.6817070000    -1.0414710000
| 18>  H       -1.3029850000    -0.8415500000     0.7749810000
| 19>  H        1.1341380000    -0.5490540000    -0.8183310000
| 20> *
| 21>
| 22>                          ****END OF INPUT****
 Total Charge           Charge          ....    0
 Multiplicity           Mult            ....    1
 Number of Electrons    NEL             ....   24
 Basis Dimension        Dim             ....   67

MULLIKEN ATOMIC CHARGES
-----------------------
   0 C :   -0.022890
   1 C :   -0.016216
   2 N :   -0.225196
   3 H :    0.042273
   4 H :    0.036480
   5 H :    0.032718
   6 H :    0.042665
   7 H :    0.110166
Sum of atomic charges:   -0.0000000

LOEWDIN ATOMIC CHARGES
----------------------
   0 C :   -0.007076
   1 C :   -0.005250
   2 N :   -0.113778
   3 H :    0.020859
   4 H :    0.015033
   5 H :    0.014295
   6 H :    0.021040
   7 H :    0.054878

  Mayer bond orders larger than 0.1
B(  0-C ,  1-C ) :   1.0931 B(  0-C ,  2-N ) :   0.9988 B(  0-C ,  3-H ) :   0.9502
B(  0-C ,  4-H ) :   0.9532 B(  1-C ,  2-N ) :   1.0009 B(  1-C ,  5-H ) :   0.9540
B(  1-C ,  6-H ) :   0.9504 B(  2-N ,  7-H ) :   0.9512

FINAL SINGLE POINT ENERGY      -133.645930519199

DIPOLE MOMENT
-------------
                                X             Y             Z
Electronic contribution:      0.89085      -0.52140       0.29807
Nuclear contribution   :     -1.14522       0.71350      -0.84298
                        -----------------------------------------
Total Dipole Moment    :     -0.25437       0.19209      -0.54491
                        -----------------------------------------
Magnitude (a.u.)       :      0.63130
Magnitude (Debye)      :      1.60462

                             ****ORCA TERMINATED NORMALLY****
TOTAL RUN TIME: 0 days 0 hours 0 minutes 3 seconds 222 msec
