                         Program Version 3.0.3 - RELEASE   -
|  1> ! RI PBE def2-SVP def2-SVP/J NBO PAL2
|  2> % maxcore 2000
|  3> % output
|  4>     # printlevel mini
|  5>     print[ P_Basis ] 0
|  6>     print[ P_SCFInfo ] 1
|  7>     print[ P_SCFIterInfo ] 1
|  8>     print[ P_OrbEn ] 0
|  9>     print[ P_Cartesian ] 0
| 10> end
| 11> *xyz 0 1
| 12>  C        0.9675190000     0.0642160000     0.0691870000
| 13>  C        2.4816190000     0.0402460000     0.0816470000
| 14>  N        2.9738200000    -1.2422340000    -0.4020610000
| 15>  H        0.5865060000     1.0351570000     0.3938440000
| 16>  H        0.5587660000    -0.6938830000     0.7443810000
| 17>  H        0.5901020000    -0.1430090000    -0.9342750000
| 18>  H        2.8402460000     0.2963950000     1.0912820000
| 19>  H        2.8624040000     0.8164610000    -0.5894200000
| 20>  H        2.6667150000    -1.9878970000     0.2118180000
| 21>  H        3.9861040000    -1.2618510000    -0.4022930000
| 22> *
| 23>
| 24>                          ****END OF INPUT****
 Total Charge           Charge          ....    0
 Multiplicity           Mult            ....    1
 Number of Electrons    NEL             ....   26
 Basis Dimension        Dim             ....   77

MULLIKEN ATOMIC CHARGES
-----------------------
   0 C :   -0.039519
   1 C :    0.041170
   2 N :   -0.229092
   3 H :    0.015799
   4 H :    0.015000
   5 H :    0.025035
   6 H :   -0.010832
   7 H :    0.009933
   8 H :    0.084879
   9 H :    0.087627
Sum of atomic charges:   -0.0000000

LOEWDIN ATOMIC CHARGES
----------------------
   0 C :   -0.072934
   1 C :    0.000872
   2 N :   -0.117912
   3 H :    0.026521
   4 H :    0.021542
   5 H :    0.026650
   6 H :   -0.003336
   7 H :    0.019529
   8 H :    0.047936
   9 H :    0.051132

  Mayer bond orders larger than 0.1
B(  0-C ,  1-C ) :   1.1214 B(  0-C ,  3-H ) :   0.9607 B(  0-C ,  4-H ) :   0.9699
B(  0-C ,  5-H ) :   0.9644 B(  1-C ,  2-N ) :   1.0804 B(  1-C ,  6-H ) :   0.9325
B(  1-C ,  7-H ) :   0.9426 B(  2-N ,  8-H ) :   0.9723 B(  2-N ,  9-H ) :   0.9689

FINAL SINGLE POINT ENERGY      -134.881585468735

DIPOLE MOMENT
-------------
                                X             Y             Z
Electronic contribution:      1.17822      -0.82085      -0.53694
Nuclear contribution   :     -0.94674       0.81302       0.96243
                        -----------------------------------------
Total Dipole Moment    :      0.23147      -0.00783       0.42549
                        -----------------------------------------
Magnitude (a.u.)       :      0.48444
Magnitude (Debye)      :      1.23136

                             ****ORCA TERMINATED NORMALLY****
TOTAL RUN TIME: 0 days 0 hours 0 minutes 3 seconds 763 msec
