                         Program Version 3.0.3 - RELEASE   -
|  1> ! RI PBE def2-SVP def2-SVP/J NBO PAL2
|  2> % maxcore 2000
|  3> % output
|  4>     # printlevel mini
|  5>     print[ P_Basis ] 0
|  6>     print[ P_SCFInfo ] 1
|  7>     print[ P_SCFIterInfo ] 1
|  8>     print[ P_OrbEn ] 0
|  9>     print[ P_Cartesian ] 0
| 10> end
| 11> *xyz 0 1
| 12>  C        0.9132540000     0.0515330000     0.0408780000
| 13>  C        2.3632300000     0.0515100000     0.0408750000
| 14>  N        3.5122380000     0.0514990000     0.0409000000
| 15>  H        0.5393490000    -0.3335060000    -0.9087910000
| 16>  H        0.5393340000     1.0664700000     0.1823210000
| 17>  H        0.5393040000    -0.5784060000     0.8491160000
| 18> *
| 19>
| 20>                          ****END OF INPUT****
 Total Charge           Charge          ....    0
 Multiplicity           Mult            ....    1
 Number of Electrons    NEL             ....   22
 Basis Dimension        Dim             ....   57

MULLIKEN ATOMIC CHARGES
-----------------------
   0 C :    0.055032
   1 C :   -0.307291
   2 N :    0.036470
   3 H :    0.071576
   4 H :    0.071131
   5 H :    0.073083
Sum of atomic charges:   -0.0000000

LOEWDIN ATOMIC CHARGES
----------------------
   0 C :   -0.074457
   1 C :   -0.051470
   2 N :   -0.067124
   3 H :    0.064338
   4 H :    0.064181
   5 H :    0.064532

  Mayer bond orders larger than 0.1
B(  0-C ,  1-C ) :   1.1603 B(  0-C ,  3-H ) :   0.9291 B(  0-C ,  4-H ) :   0.9297
B(  0-C ,  5-H ) :   0.9295 B(  1-C ,  2-N ) :   3.0442

FINAL SINGLE POINT ENERGY      -132.482672607296

DIPOLE MOMENT
-------------
                                X             Y             Z
Electronic contribution:      3.20162       0.00052       0.00044
Nuclear contribution   :     -4.65745       0.00002      -0.00001
                        -----------------------------------------
Total Dipole Moment    :     -1.45583       0.00053       0.00043
                        -----------------------------------------
Magnitude (a.u.)       :      1.45583
Magnitude (Debye)      :      3.70042

                             ****ORCA TERMINATED NORMALLY****
TOTAL RUN TIME: 0 days 0 hours 0 minutes 3 seconds 69 msec
