                         Program Version 3.0.3 - RELEASE   -
|  1> ! RI PBE def2-SVP def2-SVP/J NBO PAL2
|  2> % maxcore 2000
|  3> % output
|  4>     # printlevel mini
|  5>     print[ P_Basis ] 0
|  6>     print[ P_SCFInfo ] 1
|  7>     print[ P_SCFIterInfo ] 1
|  8>     print[ P_OrbEn ] 0
|  9>     print[ P_Cartesian ] 0
| 10> end
| 11> *xyz 0 1
| 12>  C        0.9222800000     0.0283620000    -0.0419920000
| 13>  N        2.3655540000    -0.0258770000    -0.0726580000
| 14>  C        2.8879310000    -1.3071560000     0.3425110000
| 15>  H        0.5810740000     1.0308550000    -0.3082240000
| 16>  H        0.4829330000    -0.2390850000     0.9347500000
| 17>  H        0.5155170000    -0.6658170000    -0.7834350000
| 18>  H        2.7490390000     0.7063320000     0.5101290000
| 19>  H        2.5880570000    -2.0739520000    -0.3780290000
| 20>  H        2.5373500000    -1.6349220000     1.3366150000
| 21>  H        3.9793750000    -1.2780420000     0.3565330000
| 22> *
| 23>
| 24>                          ****END OF INPUT****
 Total Charge           Charge          ....    0
 Multiplicity           Mult            ....    1
 Number of Electrons    NEL             ....   26
 Basis Dimension        Dim             ....   77

MULLIKEN ATOMIC CHARGES
-----------------------
   0 C :    0.058206
   1 N :   -0.272902
   2 C :    0.050833
   3 H :    0.018975
   4 H :   -0.010069
   5 H :    0.019523
   6 H :    0.101133
   7 H :    0.020846
   8 H :   -0.012483
   9 H :    0.025939
Sum of atomic charges:   -0.0000000

LOEWDIN ATOMIC CHARGES
----------------------
   0 C :   -0.008541
   1 N :   -0.110159
   2 C :   -0.010627
   3 H :    0.021451
   4 H :   -0.005039
   5 H :    0.020714
   6 H :    0.053832
   7 H :    0.020986
   8 H :   -0.005278
   9 H :    0.022661

  Mayer bond orders larger than 0.1
B(  0-C ,  1-N ) :   1.0769 B(  0-C ,  3-H ) :   0.9734 B(  0-C ,  4-H ) :   0.9444
B(  0-C ,  5-H ) :   0.9701 B(  1-N ,  2-C ) :   1.0803 B(  1-N ,  6-H ) :   0.9555
B(  2-C ,  7-H ) :   0.9695 B(  2-C ,  8-H ) :   0.9418 B(  2-C ,  9-H ) :   0.9735

FINAL SINGLE POINT ENERGY      -134.872276181555

DIPOLE MOMENT
-------------
                                X             Y             Z
Electronic contribution:      0.83038       1.05196      -0.60844
Nuclear contribution   :     -0.86048      -0.99534       0.94178
                        -----------------------------------------
Total Dipole Moment    :     -0.03010       0.05662       0.33334
                        -----------------------------------------
Magnitude (a.u.)       :      0.33946
Magnitude (Debye)      :      0.86283

                             ****ORCA TERMINATED NORMALLY****
TOTAL RUN TIME: 0 days 0 hours 0 minutes 3 seconds 446 msec
