                         Program Version 3.0.3 - RELEASE   -
|  1> ! RI PBE def2-SVP def2-SVP/J NBO PAL2
|  2> % maxcore 2000
|  3> % output
|  4>     # printlevel mini
|  5>     print[ P_Basis ] 0
|  6>     print[ P_SCFInfo ] 1
|  7>     print[ P_SCFIterInfo ] 1
|  8>     print[ P_OrbEn ] 0
|  9>     print[ P_Cartesian ] 0
| 10> end
| 11> *xyz 0 1
| 12>  C       -0.1101470000     0.8818270000     0.0685060000
| 13>  C       -0.7949670000    -0.3978420000    -0.0685020000
| 14>  O        0.6179140000    -0.3308730000    -0.0000130000
| 15>  H       -0.0941480000     1.3798830000     1.0346200000
| 16>  H       -0.0125880000     1.5323340000    -0.7969510000
| 17>  H       -1.2005080000    -0.6874340000    -1.0346100000
| 18>  H       -1.2820660000    -0.8398850000     0.7969610000
| 19> *
| 20>
| 21>                          ****END OF INPUT****
 Total Charge           Charge          ....    0
 Multiplicity           Mult            ....    1
 Number of Electrons    NEL             ....   24
 Basis Dimension        Dim             ....   62

MULLIKEN ATOMIC CHARGES
-----------------------
   0 C :    0.073006
   1 C :    0.081772
   2 O :   -0.302008
   3 H :    0.036528
   4 H :    0.038585
   5 H :    0.035140
   6 H :    0.036977
Sum of atomic charges:   -0.0000000

LOEWDIN ATOMIC CHARGES
----------------------
   0 C :    0.049028
   1 C :    0.050557
   2 O :   -0.161106
   3 H :    0.015253
   4 H :    0.015742
   5 H :    0.015077
   6 H :    0.015448

  Mayer bond orders larger than 0.1
B(  0-C ,  1-C ) :   1.1296 B(  0-C ,  2-O ) :   0.9948 B(  0-C ,  3-H ) :   0.9458
B(  0-C ,  4-H ) :   0.9457 B(  1-C ,  2-O ) :   0.9934 B(  1-C ,  5-H ) :   0.9460
B(  1-C ,  6-H ) :   0.9462

FINAL SINGLE POINT ENERGY      -153.485947819559

DIPOLE MOMENT
-------------
                                X             Y             Z
Electronic contribution:      1.51396      -0.81197      -0.00024
Nuclear contribution   :     -2.11261       1.13057       0.00003
                        -----------------------------------------
Total Dipole Moment    :     -0.59865       0.31860      -0.00021
                        -----------------------------------------
Magnitude (a.u.)       :      0.67815
Magnitude (Debye)      :      1.72372

                             ****ORCA TERMINATED NORMALLY****
TOTAL RUN TIME: 0 days 0 hours 0 minutes 3 seconds 43 msec
