                         Program Version 3.0.3 - RELEASE   -
|  1> ! RI PBE def2-SVP def2-SVP/J NBO PAL2
|  2> % maxcore 2000
|  3> % output
|  4>     # printlevel mini
|  5>     print[ P_Basis ] 0
|  6>     print[ P_SCFInfo ] 1
|  7>     print[ P_SCFIterInfo ] 1
|  8>     print[ P_OrbEn ] 0
|  9>     print[ P_Cartesian ] 0
| 10> end
| 11> *xyz 0 1
| 12>  C        1.0412700000    -0.0919930000    -0.0101300000
| 13>  C        2.5544040000    -0.0853010000    -0.0412960000
| 14>  O        3.0840120000     0.9630770000    -0.8272540000
| 15>  H        0.6697410000    -0.8841950000     0.6453720000
| 16>  H        0.6278610000    -0.2684500000    -1.0081730000
| 17>  H        0.6600420000     0.8649980000     0.3522530000
| 18>  H        2.9304930000    -1.0589770000    -0.3858740000
| 19>  H        2.9525340000     0.0742100000     0.9635300000
| 20>  H        2.7507530000     0.8648220000    -1.7228180000
| 21> *
| 22>
| 23>                          ****END OF INPUT****
 Total Charge           Charge          ....    0
 Multiplicity           Mult            ....    1
 Number of Electrons    NEL             ....   26
 Basis Dimension        Dim             ....   72

MULLIKEN ATOMIC CHARGES
-----------------------
   0 C :   -0.063577
   1 C :    0.132737
   2 O :   -0.296336
   3 H :    0.019313
   4 H :    0.013923
   5 H :    0.031093
   6 H :   -0.003007
   7 H :    0.015654
   8 H :    0.150200
Sum of atomic charges:   -0.0000000

LOEWDIN ATOMIC CHARGES
----------------------
   0 C :   -0.089267
   1 C :    0.050365
   2 O :   -0.128855
   3 H :    0.030679
   4 H :    0.020889
   5 H :    0.028045
   6 H :    0.002125
   7 H :    0.020939
   8 H :    0.065080

  Mayer bond orders larger than 0.1
B(  0-C ,  1-C ) :   1.1086 B(  0-C ,  3-H ) :   0.9499 B(  0-C ,  4-H ) :   0.9652
B(  0-C ,  5-H ) :   0.9637 B(  1-C ,  2-O ) :   1.0536 B(  1-C ,  6-H ) :   0.9428
B(  1-C ,  7-H ) :   0.9468 B(  2-O ,  8-H ) :   0.9883

FINAL SINGLE POINT ENERGY      -154.721910855962

DIPOLE MOMENT
-------------
                                X             Y             Z
Electronic contribution:      2.27066       1.55228      -0.97709
Nuclear contribution   :     -2.66125      -1.94458       0.74332
                        -----------------------------------------
Total Dipole Moment    :     -0.39059      -0.39230      -0.23376
                        -----------------------------------------
Magnitude (a.u.)       :      0.60092
Magnitude (Debye)      :      1.52742

                             ****ORCA TERMINATED NORMALLY****
TOTAL RUN TIME: 0 days 0 hours 0 minutes 3 seconds 116 msec
