                         Program Version 3.0.3 - RELEASE   -
|  1> ! RI PBE def2-SVP def2-SVP/J NBO PAL2
|  2> % maxcore 2000
|  3> % output
|  4>     # printlevel mini
|  5>     print[ P_Basis ] 0
|  6>     print[ P_SCFInfo ] 1
|  7>     print[ P_SCFIterInfo ] 1
|  8>     print[ P_OrbEn ] 0
|  9>     print[ P_Cartesian ] 0
| 10> end
| 11> *xyz 0 1
| 12>  C        0.9641960000    -0.0511480000     0.0804560000
| 13>  C        2.4646250000    -0.0002920000     0.1032870000
| 14>  O        3.0904270000     0.9330560000     0.5238570000
| 15>  H        0.5895710000    -0.9844280000    -0.3398900000
| 16>  H        0.5858620000     0.7908290000    -0.5045510000
| 17>  H        0.5859310000     0.0686960000     1.0987130000
| 18>  H        2.9946890000    -0.8915330000    -0.2979730000
| 19> *
| 20>
| 21>                          ****END OF INPUT****
 Total Charge           Charge          ....    0
 Multiplicity           Mult            ....    1
 Number of Electrons    NEL             ....   24
 Basis Dimension        Dim             ....   62

MULLIKEN ATOMIC CHARGES
-----------------------
   0 C :   -0.021584
   1 C :    0.048831
   2 O :   -0.171089
   3 H :    0.024638
   4 H :    0.062799
   5 H :    0.060367
   6 H :   -0.003962
Sum of atomic charges:   -0.0000000

LOEWDIN ATOMIC CHARGES
----------------------
   0 C :   -0.105766
   1 C :    0.086335
   2 O :   -0.107989
   3 H :    0.031663
   4 H :    0.054895
   5 H :    0.054485
   6 H :   -0.013625

  Mayer bond orders larger than 0.1
B(  0-C ,  1-C ) :   0.9992 B(  0-C ,  3-H ) :   0.9515 B(  0-C ,  4-H ) :   0.9466
B(  0-C ,  5-H ) :   0.9468 B(  1-C ,  2-O ) :   2.1609 B(  1-C ,  6-H ) :   0.9259

FINAL SINGLE POINT ENERGY      -153.524986588399

DIPOLE MOMENT
-------------
                                X             Y             Z
Electronic contribution:      2.97963       1.51820       0.68441
Nuclear contribution   :     -3.65290      -2.07600      -0.93500
                        -----------------------------------------
Total Dipole Moment    :     -0.67326      -0.55780      -0.25059
                        -----------------------------------------
Magnitude (a.u.)       :      0.90952
Magnitude (Debye)      :      2.31181

                             ****ORCA TERMINATED NORMALLY****
TOTAL RUN TIME: 0 days 0 hours 0 minutes 2 seconds 738 msec
