                         Program Version 3.0.3 - RELEASE   -
|  1> ! RI PBE def2-SVP def2-SVP/J NBO PAL2
|  2> % maxcore 2000
|  3> % output
|  4>     # printlevel mini
|  5>     print[ P_Basis ] 0
|  6>     print[ P_SCFInfo ] 1
|  7>     print[ P_SCFIterInfo ] 1
|  8>     print[ P_OrbEn ] 0
|  9>     print[ P_Cartesian ] 0
| 10> end
| 11> *xyz 0 1
| 12>  C        1.0979680000     0.0128980000     0.0138240000
| 13>  O        2.4970600000     0.0314600000    -0.0133400000
| 14>  C        2.9944200000     0.7700440000    -1.0930010000
| 15>  H        0.7909970000    -0.5778050000     0.8773010000
| 16>  H        0.6823630000    -0.4436710000    -0.8960800000
| 17>  H        0.6823850000     1.0264190000     0.1096140000
| 18>  H        4.0831060000     0.7365510000    -1.0440690000
| 19>  H        2.6679640000     1.8191480000    -1.0492310000
| 20>  H        2.6679370000     0.3490540000    -2.0549180000
| 21> *
| 22>
| 23>                          ****END OF INPUT****
 Total Charge           Charge          ....    0
 Multiplicity           Mult            ....    1
 Number of Electrons    NEL             ....   26
 Basis Dimension        Dim             ....   72

MULLIKEN ATOMIC CHARGES
-----------------------
   0 C :    0.139262
   1 O :   -0.350824
   2 C :    0.135527
   3 H :    0.032929
   4 H :    0.001779
   5 H :    0.001498
   6 H :    0.037320
   7 H :    0.003414
   8 H :   -0.000904
Sum of atomic charges:   -0.0000000

LOEWDIN ATOMIC CHARGES
----------------------
   0 C :    0.048225
   1 O :   -0.154067
   2 C :    0.047072
   3 H :    0.022746
   4 H :    0.003079
   5 H :    0.003155
   6 H :    0.023351
   7 H :    0.003617
   8 H :    0.002821

  Mayer bond orders larger than 0.1
B(  0-C ,  1-O ) :   1.0275 B(  0-C ,  3-H ) :   0.9770 B(  0-C ,  4-H ) :   0.9549
B(  0-C ,  5-H ) :   0.9549 B(  1-O ,  2-C ) :   1.0289 B(  2-C ,  6-H ) :   0.9770
B(  2-C ,  7-H ) :   0.9552 B(  2-C ,  8-H ) :   0.9538

FINAL SINGLE POINT ENERGY      -154.706774946050

DIPOLE MOMENT
-------------
                                X             Y             Z
Electronic contribution:      1.18783      -0.94692       1.38920
Nuclear contribution   :     -1.44928       1.15724      -1.69160
                        -----------------------------------------
Total Dipole Moment    :     -0.26145       0.21032      -0.30239
                        -----------------------------------------
Magnitude (a.u.)       :      0.45170
Magnitude (Debye)      :      1.14813

                             ****ORCA TERMINATED NORMALLY****
TOTAL RUN TIME: 0 days 0 hours 0 minutes 3 seconds 163 msec
