                         Program Version 3.0.3 - RELEASE   -
|  1> ! RI PBE def2-SVP def2-SVP/J NBO PAL2
|  2> % maxcore 2000
|  3> % output
|  4>     # printlevel mini
|  5>     print[ P_Basis ] 0
|  6>     print[ P_SCFInfo ] 1
|  7>     print[ P_SCFIterInfo ] 1
|  8>     print[ P_OrbEn ] 0
|  9>     print[ P_Cartesian ] 0
| 10> end
| 11> *xyz 0 1
| 12>  C        0.3336540000     1.0063870000    -0.1504250000
| 13>  C        1.0181330000    -0.3400740000     0.1554300000
| 14>  C       -0.3413580000    -1.0299540000    -0.0701090000
| 15>  C       -1.0196320000     0.3354020000     0.1552050000
| 16>  H        0.4187260000     1.2629340000    -1.2092240000
| 17>  H        0.6222330000     1.8767600000     0.4413280000
| 18>  H        1.3243690000    -0.4001890000     1.2026720000
| 19>  H        1.8595600000    -0.6437830000    -0.4696770000
| 20>  H       -0.6153330000    -1.8558490000     0.5885520000
| 21>  H       -0.4508900000    -1.3610000000    -1.1057350000
| 22>  H       -1.3013960000     0.4700200000     1.2023900000
| 23>  H       -1.8756660000     0.5946340000    -0.4700960000
| 24> *
| 25>
| 26>                          ****END OF INPUT****
 Total Charge           Charge          ....    0
 Multiplicity           Mult            ....    1
 Number of Electrons    NEL             ....   32
 Basis Dimension        Dim             ....   96

MULLIKEN ATOMIC CHARGES
-----------------------
   0 C :   -0.026230
   1 C :   -0.028029
   2 C :   -0.027381
   3 C :   -0.023648
   4 H :    0.013021
   5 H :    0.012781
   6 H :    0.013466
   7 H :    0.013818
   8 H :    0.014095
   9 H :    0.013008
  10 H :    0.012060
  11 H :    0.013038
Sum of atomic charges:    0.0000000

LOEWDIN ATOMIC CHARGES
----------------------
   0 C :   -0.037465
   1 C :   -0.037920
   2 C :   -0.037778
   3 C :   -0.037188
   4 H :    0.022983
   5 H :    0.014567
   6 H :    0.022994
   7 H :    0.014778
   8 H :    0.014876
   9 H :    0.022806
  10 H :    0.022707
  11 H :    0.014640

  Mayer bond orders larger than 0.1
B(  0-C ,  1-C ) :   1.1086 B(  0-C ,  3-C ) :   1.1084 B(  0-C ,  4-H ) :   0.9374
B(  0-C ,  5-H ) :   0.9428 B(  1-C ,  2-C ) :   1.1082 B(  1-C ,  6-H ) :   0.9375
B(  1-C ,  7-H ) :   0.9427 B(  2-C ,  3-C ) :   1.1079 B(  2-C ,  8-H ) :   0.9426
B(  2-C ,  9-H ) :   0.9379 B(  3-C , 10-H ) :   0.9375 B(  3-C , 11-H ) :   0.9427

FINAL SINGLE POINT ENERGY      -156.870317587587

DIPOLE MOMENT
-------------
                                X             Y             Z
Electronic contribution:     -0.00023       0.00056      -0.00006
Nuclear contribution   :      0.00001       0.00000       0.00001
                        -----------------------------------------
Total Dipole Moment    :     -0.00022       0.00056      -0.00006
                        -----------------------------------------
Magnitude (a.u.)       :      0.00061
Magnitude (Debye)      :      0.00154

                             ****ORCA TERMINATED NORMALLY****
TOTAL RUN TIME: 0 days 0 hours 0 minutes 4 seconds 315 msec
