                         Program Version 3.0.3 - RELEASE   -
|  1> ! RI PBE def2-SVP def2-SVP/J NBO PAL2
|  2> % maxcore 2000
|  3> % output
|  4>     # printlevel mini
|  5>     print[ P_Basis ] 0
|  6>     print[ P_SCFInfo ] 1
|  7>     print[ P_SCFIterInfo ] 1
|  8>     print[ P_OrbEn ] 0
|  9>     print[ P_Cartesian ] 0
| 10> end
| 11> *xyz 0 1
| 12>  C        1.1724360000    -0.0555370000     0.1513390000
| 13>  C        2.6537390000     0.0107700000    -0.0885400000
| 14>  C        3.2510160000    -0.6609840000    -1.2858640000
| 15>  C        3.1953910000     0.8367950000    -1.2137110000
| 16>  H        0.6258690000    -0.0313570000    -0.7956140000
| 17>  H        0.8924300000    -0.9758350000     0.6717950000
| 18>  H        0.8277920000     0.7892510000     0.7544150000
| 19>  H        3.2611930000    -0.0099220000     0.8112480000
| 20>  H        2.5736760000    -1.1595220000    -1.9697890000
| 21>  H        4.2157900000    -1.1425820000    -1.1842460000
| 22>  H        2.4804170000     1.3474630000    -1.8486360000
| 23>  H        4.1225420000     1.3761490000    -1.0635060000
| 24> *
| 25>
| 26>                          ****END OF INPUT****
 Total Charge           Charge          ....    0
 Multiplicity           Mult            ....    1
 Number of Electrons    NEL             ....   32
 Basis Dimension        Dim             ....   96

MULLIKEN ATOMIC CHARGES
-----------------------
   0 C :    0.063662
   1 C :   -0.183245
   2 C :   -0.043486
   3 C :   -0.039706
   4 H :    0.002800
   5 H :    0.023869
   6 H :    0.025146
   7 H :    0.023345
   8 H :    0.031567
   9 H :    0.032437
  10 H :    0.030859
  11 H :    0.032752
Sum of atomic charges:   -0.0000000

LOEWDIN ATOMIC CHARGES
----------------------
   0 C :   -0.057509
   1 C :   -0.049467
   2 C :   -0.050822
   3 C :   -0.050583
   4 H :    0.025863
   5 H :    0.028439
   6 H :    0.028574
   7 H :    0.025629
   8 H :    0.024269
   9 H :    0.025679
  10 H :    0.024178
  11 H :    0.025749

  Mayer bond orders larger than 0.1
B(  0-C ,  1-C ) :   1.1073 B(  0-C ,  4-H ) :   0.9480 B(  0-C ,  5-H ) :   0.9617
B(  0-C ,  6-H ) :   0.9619 B(  1-C ,  2-C ) :   1.0021 B(  1-C ,  3-C ) :   1.0023
B(  1-C ,  7-H ) :   0.9469 B(  2-C ,  3-C ) :   1.0287 B(  2-C ,  8-H ) :   0.9540
B(  2-C ,  9-H ) :   0.9508 B(  3-C , 10-H ) :   0.9535 B(  3-C , 11-H ) :   0.9505

FINAL SINGLE POINT ENERGY      -156.870310307780

DIPOLE MOMENT
-------------
                                X             Y             Z
Electronic contribution:      1.22052       0.05064      -0.14611
Nuclear contribution   :     -1.24152      -0.05498       0.20021
                        -----------------------------------------
Total Dipole Moment    :     -0.02100      -0.00435       0.05410
                        -----------------------------------------
Magnitude (a.u.)       :      0.05819
Magnitude (Debye)      :      0.14791

                             ****ORCA TERMINATED NORMALLY****
TOTAL RUN TIME: 0 days 0 hours 0 minutes 4 seconds 414 msec
