                         Program Version 3.0.3 - RELEASE   -
|  1> ! RI PBE def2-SVP def2-SVP/J NBO PAL2
|  2> % maxcore 2000
|  3> % output
|  4>     # printlevel mini
|  5>     print[ P_Basis ] 0
|  6>     print[ P_SCFInfo ] 1
|  7>     print[ P_SCFIterInfo ] 1
|  8>     print[ P_OrbEn ] 0
|  9>     print[ P_Cartesian ] 0
| 10> end
| 11> *xyz 0 1
| 12>  C        0.9250740000     0.1382630000     0.0779230000
| 13>  C        2.4421530000     0.0650970000     0.0422100000
| 14>  C        2.9660490000    -1.1769240000    -0.6616290000
| 15>  C        4.4831270000    -1.2500960000    -0.6973300000
| 16>  H        0.5774790000     1.0393100000     0.5886310000
| 17>  H        0.5009730000    -0.7238830000     0.6005280000
| 18>  H        0.5069030000     0.1474230000    -0.9326830000
| 19>  H        2.8360910000     0.0914040000     1.0651170000
| 20>  H        2.8419780000     0.9560660000    -0.4563200000
| 21>  H        2.5721170000    -1.2032260000    -1.6845380000
| 22>  H        2.5662170000    -2.0678930000    -0.1631040000
| 23>  H        4.9072360000    -0.3879250000    -1.2198880000
| 24>  H        4.8307230000    -2.1511170000    -1.2080840000
| 25>  H        4.9012900000    -1.2593090000     0.3132780000
| 26> *
| 27>
| 28>                          ****END OF INPUT****
 Total Charge           Charge          ....    0
 Multiplicity           Mult            ....    1
 Number of Electrons    NEL             ....   34
 Basis Dimension        Dim             ....  106

MULLIKEN ATOMIC CHARGES
-----------------------
   0 C :   -0.006790
   1 C :   -0.056010
   2 C :   -0.056010
   3 C :   -0.006790
   4 H :    0.017206
   5 H :    0.015972
   6 H :    0.014460
   7 H :    0.008004
   8 H :    0.007159
   9 H :    0.008004
  10 H :    0.007158
  11 H :    0.015971
  12 H :    0.017206
  13 H :    0.014460
Sum of atomic charges:   -0.0000000

LOEWDIN ATOMIC CHARGES
----------------------
   0 C :   -0.066537
   1 C :   -0.048785
   2 C :   -0.048785
   3 C :   -0.066537
   4 H :    0.025688
   5 H :    0.023715
   6 H :    0.023379
   7 H :    0.021285
   8 H :    0.021255
   9 H :    0.021285
  10 H :    0.021255
  11 H :    0.023715
  12 H :    0.025689
  13 H :    0.023379

  Mayer bond orders larger than 0.1
B(  0-C ,  1-C ) :   1.1146 B(  0-C ,  4-H ) :   0.9622 B(  0-C ,  5-H ) :   0.9667
B(  0-C ,  6-H ) :   0.9660 B(  1-C ,  2-C ) :   1.0934 B(  1-C ,  7-H ) :   0.9414
B(  1-C ,  8-H ) :   0.9413 B(  2-C ,  3-C ) :   1.1146 B(  2-C ,  9-H ) :   0.9414
B(  2-C , 10-H ) :   0.9413 B(  3-C , 11-H ) :   0.9667 B(  3-C , 12-H ) :   0.9622
B(  3-C , 13-H ) :   0.9660

FINAL SINGLE POINT ENERGY      -158.097453765958

DIPOLE MOMENT
-------------
                                X             Y             Z
Electronic contribution:      0.00000       0.00000      -0.00000
Nuclear contribution   :     -0.00000      -0.00000       0.00000
                        -----------------------------------------
Total Dipole Moment    :      0.00000       0.00000      -0.00000
                        -----------------------------------------
Magnitude (a.u.)       :      0.00000
Magnitude (Debye)      :      0.00000

                             ****ORCA TERMINATED NORMALLY****
TOTAL RUN TIME: 0 days 0 hours 0 minutes 5 seconds 52 msec
