                         Program Version 3.0.3 - RELEASE   -
|  1> ! RI PBE def2-SVP def2-SVP/J NBO PAL2
|  2> % maxcore 2000
|  3> % output
|  4>     # printlevel mini
|  5>     print[ P_Basis ] 0
|  6>     print[ P_SCFInfo ] 1
|  7>     print[ P_SCFIterInfo ] 1
|  8>     print[ P_OrbEn ] 0
|  9>     print[ P_Cartesian ] 0
| 10> end
| 11> *xyz 0 1
| 12>  C        1.4575000000     0.6767360000    -0.0389240000
| 13>  C        2.9292560000     0.4085060000     0.2417550000
| 14>  C        3.0969060000    -0.7475250000     1.2178090000
| 15>  C        3.6232520000     1.6617550000     0.7563860000
| 16>  H        1.3301700000     1.4869530000    -0.7617390000
| 17>  H        0.9360900000     0.9662730000     0.8794150000
| 18>  H        0.9588820000    -0.2107470000    -0.4374710000
| 19>  H        3.4065800000     0.1230100000    -0.7045730000
| 20>  H        2.6364610000    -0.5081350000     2.1820550000
| 21>  H        2.6245830000    -1.6592000000     0.8423630000
| 22>  H        4.1523560000    -0.9665070000     1.4001000000
| 23>  H        3.5318690000     2.4885790000     0.0470580000
| 24>  H        4.6878130000     1.4855420000     0.9318900000
| 25>  H        3.1801910000     1.9866600000     1.7035860000
| 26> *
| 27>
| 28>                          ****END OF INPUT****
 Total Charge           Charge          ....    0
 Multiplicity           Mult            ....    1
 Number of Electrons    NEL             ....   34
 Basis Dimension        Dim             ....  106

MULLIKEN ATOMIC CHARGES
-----------------------
   0 C :    0.004735
   1 C :   -0.160467
   2 C :    0.016836
   3 C :    0.000633
   4 H :    0.018027
   5 H :    0.012053
   6 H :    0.015557
   7 H :    0.008534
   8 H :    0.009272
   9 H :    0.012017
  10 H :    0.015160
  11 H :    0.020582
  12 H :    0.017350
  13 H :    0.009712
Sum of atomic charges:   -0.0000000

LOEWDIN ATOMIC CHARGES
----------------------
   0 C :   -0.061331
   1 C :   -0.052957
   2 C :   -0.059125
   3 C :   -0.062470
   4 H :    0.024204
   5 H :    0.022800
   6 H :    0.023843
   7 H :    0.023829
   8 H :    0.022365
   9 H :    0.023312
  10 H :    0.023721
  11 H :    0.024702
  12 H :    0.024298
  13 H :    0.022809

  Mayer bond orders larger than 0.1
B(  0-C ,  1-C ) :   1.0858 B(  0-C ,  4-H ) :   0.9636 B(  0-C ,  5-H ) :   0.9614
B(  0-C ,  6-H ) :   0.9617 B(  1-C ,  2-C ) :   1.0867 B(  1-C ,  3-C ) :   1.0880
B(  1-C ,  7-H ) :   0.9169 B(  2-C ,  8-H ) :   0.9614 B(  2-C ,  9-H ) :   0.9618
B(  2-C , 10-H ) :   0.9632 B(  3-C , 11-H ) :   0.9632 B(  3-C , 12-H ) :   0.9616
B(  3-C , 13-H ) :   0.9601

FINAL SINGLE POINT ENERGY      -158.098362701107

DIPOLE MOMENT
-------------
                                X             Y             Z
Electronic contribution:      0.26859      -0.16247      -0.52773
Nuclear contribution   :     -0.24993       0.15025       0.49640
                        -----------------------------------------
Total Dipole Moment    :      0.01866      -0.01222      -0.03133
                        -----------------------------------------
Magnitude (a.u.)       :      0.03846
Magnitude (Debye)      :      0.09776

                             ****ORCA TERMINATED NORMALLY****
TOTAL RUN TIME: 0 days 0 hours 0 minutes 5 seconds 105 msec
