                         Program Version 3.0.3 - RELEASE   -
|  1> ! RI PBE def2-SVP def2-SVP/J NBO PAL2
|  2> % maxcore 2000
|  3> % output
|  4>     # printlevel mini
|  5>     print[ P_Basis ] 0
|  6>     print[ P_SCFInfo ] 1
|  7>     print[ P_SCFIterInfo ] 1
|  8>     print[ P_OrbEn ] 0
|  9>     print[ P_Cartesian ] 0
| 10> end
| 11> *xyz 0 1
| 12>  C        0.8567280000    -0.3434190000    -0.0122160000
| 13>  C        2.0535880000     0.2372410000    -0.0861890000
| 14>  C        2.7076340000     0.8959960000     1.0266710000
| 15>  C        3.9044900000     1.4766630000     0.9526970000
| 16>  H        0.4043850000    -0.8251890000    -0.8702680000
| 17>  H        0.2926340000    -0.3528980000     0.9150160000
| 18>  H        2.5952210000     0.2305240000    -1.0299100000
| 19>  H        2.1660040000     0.9027040000     1.9703940000
| 20>  H        4.4685850000     1.4861440000     0.0254650000
| 21>  H        4.3568310000     1.9584330000     1.8107500000
| 22> *
| 23>
| 24>                          ****END OF INPUT****
 Total Charge           Charge          ....    0
 Multiplicity           Mult            ....    1
 Number of Electrons    NEL             ....   30
 Basis Dimension        Dim             ....   86

MULLIKEN ATOMIC CHARGES
-----------------------
   0 C :   -0.029817
   1 C :   -0.015264
   2 C :   -0.015264
   3 C :   -0.029817
   4 H :    0.028042
   5 H :    0.021695
   6 H :   -0.004656
   7 H :   -0.004656
   8 H :    0.021695
   9 H :    0.028042
Sum of atomic charges:   -0.0000000

LOEWDIN ATOMIC CHARGES
----------------------
   0 C :   -0.048021
   1 C :   -0.032130
   2 C :   -0.032130
   3 C :   -0.048021
   4 H :    0.026540
   5 H :    0.023930
   6 H :    0.029680
   7 H :    0.029680
   8 H :    0.023930
   9 H :    0.026540

  Mayer bond orders larger than 0.1
B(  0-C ,  1-C ) :   1.8968 B(  0-C ,  3-C ) :   0.1477 B(  0-C ,  4-H ) :   0.9429
B(  0-C ,  5-H ) :   0.9484 B(  1-C ,  2-C ) :   1.1415 B(  1-C ,  6-H ) :   0.9601
B(  2-C ,  3-C ) :   1.8968 B(  2-C ,  7-H ) :   0.9601 B(  3-C ,  8-H ) :   0.9484
B(  3-C ,  9-H ) :   0.9429

FINAL SINGLE POINT ENERGY      -155.656946639722

DIPOLE MOMENT
-------------
                                X             Y             Z
Electronic contribution:      0.00000       0.00000      -0.00000
Nuclear contribution   :      0.00000      -0.00000       0.00000
                        -----------------------------------------
Total Dipole Moment    :      0.00000      -0.00000       0.00000
                        -----------------------------------------
Magnitude (a.u.)       :      0.00000
Magnitude (Debye)      :      0.00000

                             ****ORCA TERMINATED NORMALLY****
TOTAL RUN TIME: 0 days 0 hours 0 minutes 3 seconds 957 msec
