                         Program Version 3.0.3 - RELEASE   -
|  1> ! RI PBE def2-SVP def2-SVP/J NBO PAL2
|  2> % maxcore 2000
|  3> % output
|  4>     # printlevel mini
|  5>     print[ P_Basis ] 0
|  6>     print[ P_SCFInfo ] 1
|  7>     print[ P_SCFIterInfo ] 1
|  8>     print[ P_OrbEn ] 0
|  9>     print[ P_Cartesian ] 0
| 10> end
| 11> *xyz 0 1
| 12>  C        1.0067180000     0.0746830000     0.0481630000
| 13>  C        2.3361700000     0.0886640000    -0.0345380000
| 14>  C        3.0593810000     0.2923030000    -1.2373760000
| 15>  C        3.7031930000     0.4619760000    -2.2395720000
| 16>  H        0.5127840000    -0.0861830000     0.9983410000
| 17>  H        0.3840760000     0.2226910000    -0.8259680000
| 18>  H        2.9343710000    -0.0628700000     0.8604220000
| 19>  H        4.2644980000     0.6129280000    -3.1310610000
| 20> *
| 21>
| 22>                          ****END OF INPUT****
 Total Charge           Charge          ....    0
 Multiplicity           Mult            ....    1
 Number of Electrons    NEL             ....   28
 Basis Dimension        Dim             ....   76

MULLIKEN ATOMIC CHARGES
-----------------------
   0 C :   -0.007594
   1 C :   -0.086793
   2 C :    0.358789
   3 C :   -0.385716
   4 H :    0.035918
   5 H :    0.039155
   6 H :    0.038027
   7 H :    0.008215
Sum of atomic charges:   -0.0000000

LOEWDIN ATOMIC CHARGES
----------------------
   0 C :   -0.018356
   1 C :   -0.046564
   2 C :   -0.019854
   3 C :   -0.059642
   4 H :    0.029605
   5 H :    0.032041
   6 H :    0.045892
   7 H :    0.036877

  Mayer bond orders larger than 0.1
B(  0-C ,  1-C ) :   1.9222 B(  0-C ,  3-C ) :   0.1393 B(  0-C ,  4-H ) :   0.9439
B(  0-C ,  5-H ) :   0.9527 B(  1-C ,  2-C ) :   1.0635 B(  1-C ,  6-H ) :   0.9460
B(  2-C ,  3-C ) :   2.3082 B(  3-C ,  7-H ) :   1.0845

FINAL SINGLE POINT ENERGY      -154.409650854590

DIPOLE MOMENT
-------------
                                X             Y             Z
Electronic contribution:      1.64960       0.18148      -1.08446
Nuclear contribution   :     -1.73950      -0.19999       1.18151
                        -----------------------------------------
Total Dipole Moment    :     -0.08990      -0.01851       0.09705
                        -----------------------------------------
Magnitude (a.u.)       :      0.13358
Magnitude (Debye)      :      0.33953

                             ****ORCA TERMINATED NORMALLY****
TOTAL RUN TIME: 0 days 0 hours 0 minutes 3 seconds 644 msec
