                         Program Version 3.0.3 - RELEASE   -
|  1> ! RI PBE def2-SVP def2-SVP/J NBO PAL2
|  2> % maxcore 2000
|  3> % output
|  4>     # printlevel mini
|  5>     print[ P_Basis ] 0
|  6>     print[ P_SCFInfo ] 1
|  7>     print[ P_SCFIterInfo ] 1
|  8>     print[ P_OrbEn ] 0
|  9>     print[ P_Cartesian ] 0
| 10> end
| 11> *xyz 0 1
| 12>  C        0.9903750000    -0.0630000000     0.0776000000
| 13>  C        2.1950460000    -0.0630000000     0.0776000000
| 14>  C        3.5591540000    -0.0630000000     0.0776000000
| 15>  C        4.7638250000    -0.0630000000     0.0776000000
| 16>  H       -0.0740650000    -0.0630000000     0.0776000000
| 17>  H        5.8282650000    -0.0630000000     0.0776000000
| 18> *
| 19>
| 20>                          ****END OF INPUT****
 Total Charge           Charge          ....    0
 Multiplicity           Mult            ....    1
 Number of Electrons    NEL             ....   26
 Basis Dimension        Dim             ....   66

MULLIKEN ATOMIC CHARGES
-----------------------
   0 C :   -0.391088
   1 C :    0.370659
   2 C :    0.370660
   3 C :   -0.391088
   4 H :    0.020429
   5 H :    0.020429
Sum of atomic charges:   -0.0000000

LOEWDIN ATOMIC CHARGES
----------------------
   0 C :   -0.013142
   1 C :   -0.028913
   2 C :   -0.028913
   3 C :   -0.013142
   4 H :    0.042055
   5 H :    0.042055

  Mayer bond orders larger than 0.1
B(  0-C ,  1-C ) :   2.1705 B(  0-C ,  3-C ) :   0.2890 B(  0-C ,  4-H ) :   1.0862
B(  1-C ,  2-C ) :   0.9503 B(  2-C ,  3-C ) :   2.1705 B(  3-C ,  5-H ) :   1.0862

FINAL SINGLE POINT ENERGY      -153.170069634029

DIPOLE MOMENT
-------------
                                X             Y             Z
Electronic contribution:      0.00000       0.00000      -0.00000
Nuclear contribution   :     -0.00000      -0.00000       0.00000
                        -----------------------------------------
Total Dipole Moment    :      0.00000       0.00000      -0.00000
                        -----------------------------------------
Magnitude (a.u.)       :      0.00000
Magnitude (Debye)      :      0.00000

                             ****ORCA TERMINATED NORMALLY****
TOTAL RUN TIME: 0 days 0 hours 0 minutes 3 seconds 52 msec
