                         Program Version 3.0.3 - RELEASE   -
|  1> ! RI PBE def2-SVP def2-SVP/J NBO PAL2
|  2> % maxcore 2000
|  3> % output
|  4>     # printlevel mini
|  5>     print[ P_Basis ] 0
|  6>     print[ P_SCFInfo ] 1
|  7>     print[ P_SCFIterInfo ] 1
|  8>     print[ P_OrbEn ] 0
|  9>     print[ P_Cartesian ] 0
| 10> end
| 11> *xyz 0 1
| 12>  C        0.9890690000     0.0380520000    -0.1061760000
| 13>  C        2.4891940000     0.0289070000    -0.0725300000
| 14>  C        3.2244730000    -0.2610130000     0.9939610000
| 15>  C        4.7143280000    -0.2710360000     1.0308410000
| 16>  H        0.6144650000     0.3067780000    -1.0946900000
| 17>  H        0.5752410000     0.7568740000     0.6063760000
| 18>  H        0.5752440000    -0.9425920000     0.1443780000
| 19>  H        3.0050740000     0.2804670000    -0.9979050000
| 20>  H        2.7174990000    -0.5142790000     1.9256150000
| 21>  H        5.1375090000    -0.0069380000     0.0593390000
| 22>  H        5.0981030000    -1.2569550000     1.3128210000
| 23>  H        5.0981010000     0.4364340000     1.7731600000
| 24> *
| 25>
| 26>                          ****END OF INPUT****
 Total Charge           Charge          ....    0
 Multiplicity           Mult            ....    1
 Number of Electrons    NEL             ....   32
 Basis Dimension        Dim             ....   96

MULLIKEN ATOMIC CHARGES
-----------------------
   0 C :    0.020811
   1 C :   -0.104603
   2 C :   -0.102023
   3 C :    0.040977
   4 H :    0.016286
   5 H :    0.038216
   6 H :    0.035341
   7 H :   -0.005909
   8 H :   -0.013057
   9 H :    0.014726
  10 H :    0.028458
  11 H :    0.030776
Sum of atomic charges:   -0.0000000

LOEWDIN ATOMIC CHARGES
----------------------
   0 C :   -0.071488
   1 C :   -0.057316
   2 C :   -0.048580
   3 C :   -0.064751
   4 H :    0.029954
   5 H :    0.037358
   6 H :    0.036909
   7 H :    0.019778
   8 H :    0.019613
   9 H :    0.029533
  10 H :    0.034224
  11 H :    0.034766

  Mayer bond orders larger than 0.1
B(  0-C ,  1-C ) :   1.0642 B(  0-C ,  4-H ) :   0.9603 B(  0-C ,  5-H ) :   0.9613
B(  0-C ,  6-H ) :   0.9608 B(  1-C ,  2-C ) :   1.9576 B(  1-C ,  7-H ) :   0.9474
B(  2-C ,  3-C ) :   1.0899 B(  2-C ,  8-H ) :   0.9576 B(  3-C ,  9-H ) :   0.9601
B(  3-C , 10-H ) :   0.9482 B(  3-C , 11-H ) :   0.9483

FINAL SINGLE POINT ENERGY      -156.875856920229

DIPOLE MOMENT
-------------
                                X             Y             Z
Electronic contribution:     -0.00070      -0.00173       0.01150
Nuclear contribution   :     -0.01036      -0.00806       0.02964
                        -----------------------------------------
Total Dipole Moment    :     -0.01106      -0.00979       0.04115
                        -----------------------------------------
Magnitude (a.u.)       :      0.04372
Magnitude (Debye)      :      0.11112

                             ****ORCA TERMINATED NORMALLY****
TOTAL RUN TIME: 0 days 0 hours 0 minutes 4 seconds 296 msec
