                         Program Version 3.0.3 - RELEASE   -
|  1> ! RI PBE def2-SVP def2-SVP/J NBO PAL2
|  2> % maxcore 2000
|  3> % output
|  4>     # printlevel mini
|  5>     print[ P_Basis ] 0
|  6>     print[ P_SCFInfo ] 1
|  7>     print[ P_SCFIterInfo ] 1
|  8>     print[ P_OrbEn ] 0
|  9>     print[ P_Cartesian ] 0
| 10> end
| 11> *xyz 0 1
| 12>  C        0.9817520000    -0.0942270000     0.0138330000
| 13>  C        2.4894780000    -0.1144060000    -0.0036650000
| 14>  C        3.2202160000     0.8822170000     0.8604620000
| 15>  C        3.1541100000    -0.9841740000    -0.7578030000
| 16>  H        0.5934080000     0.6758000000     0.6814780000
| 17>  H        0.5771360000    -1.0537080000     0.3460880000
| 18>  H        0.5771340000     0.0987070000    -0.9830490000
| 19>  H        2.5317710000     1.5213340000     1.4146070000
| 20>  H        3.8618440000     1.5315390000     0.2592920000
| 21>  H        3.8618360000     0.3791150000     1.5884210000
| 22>  H        2.6374080000    -1.7049170000    -1.3827270000
| 23>  H        4.2385970000    -1.0064600000    -0.7771270000
| 24> *
| 25>
| 26>                          ****END OF INPUT****
 Total Charge           Charge          ....    0
 Multiplicity           Mult            ....    1
 Number of Electrons    NEL             ....   32
 Basis Dimension        Dim             ....   96

MULLIKEN ATOMIC CHARGES
-----------------------
   0 C :    0.044012
   1 C :   -0.236283
   2 C :    0.041581
   3 C :   -0.036013
   4 H :    0.011167
   5 H :    0.038039
   6 H :    0.037989
   7 H :    0.010332
   8 H :    0.039687
   9 H :    0.038956
  10 H :    0.004336
  11 H :    0.006195
Sum of atomic charges:   -0.0000000

LOEWDIN ATOMIC CHARGES
----------------------
   0 C :   -0.061841
   1 C :   -0.037409
   2 C :   -0.062741
   3 C :   -0.084180
   4 H :    0.025977
   5 H :    0.039373
   6 H :    0.039354
   7 H :    0.025954
   8 H :    0.039632
   9 H :    0.039403
  10 H :    0.018089
  11 H :    0.018390

  Mayer bond orders larger than 0.1
B(  0-C ,  1-C ) :   1.0722 B(  0-C ,  4-H ) :   0.9529 B(  0-C ,  5-H ) :   0.9558
B(  0-C ,  6-H ) :   0.9559 B(  1-C ,  2-C ) :   1.0661 B(  1-C ,  3-C ) :   1.9993
B(  2-C ,  7-H ) :   0.9529 B(  2-C ,  8-H ) :   0.9559 B(  2-C ,  9-H ) :   0.9570
B(  3-C , 10-H ) :   0.9452 B(  3-C , 11-H ) :   0.9448

FINAL SINGLE POINT ENERGY      -156.871574502850

DIPOLE MOMENT
-------------
                                X             Y             Z
Electronic contribution:      0.54581      -0.71982      -0.62382
Nuclear contribution   :     -0.65229       0.85362       0.74014
                        -----------------------------------------
Total Dipole Moment    :     -0.10648       0.13380       0.11632
                        -----------------------------------------
Magnitude (a.u.)       :      0.20681
Magnitude (Debye)      :      0.52568

                             ****ORCA TERMINATED NORMALLY****
TOTAL RUN TIME: 0 days 0 hours 0 minutes 4 seconds 494 msec
