                         Program Version 3.0.3 - RELEASE   -
|  1> ! RI PBE def2-SVP def2-SVP/J NBO PAL2
|  2> % maxcore 2000
|  3> % output
|  4>     # printlevel mini
|  5>     print[ P_Basis ] 0
|  6>     print[ P_SCFInfo ] 1
|  7>     print[ P_SCFIterInfo ] 1
|  8>     print[ P_OrbEn ] 0
|  9>     print[ P_Cartesian ] 0
| 10> end
| 11> *xyz 0 1
| 12>  C        0.8925640000     0.0341150000     0.0015840000
| 13>  C        2.3440870000     0.0337480000     0.0019280000
| 14>  C        3.5461220000     0.0340960000     0.0019900000
| 15>  C        4.9976330000     0.0342140000     0.0016240000
| 16>  H        0.4985830000    -0.2672220000     0.9755790000
| 17>  H        0.4989430000    -0.6585840000    -0.7467060000
| 18>  H        0.4993680000     1.0286010000    -0.2244290000
| 19>  H        5.3909270000     0.6716710000    -0.7944210000
| 20>  H        5.3912590000    -0.9737560000    -0.1525340000
| 21>  H        5.3915130000     0.4048070000     0.9514860000
| 22> *
| 23>
| 24>                          ****END OF INPUT****
 Total Charge           Charge          ....    0
 Multiplicity           Mult            ....    1
 Number of Electrons    NEL             ....   30
 Basis Dimension        Dim             ....   86

MULLIKEN ATOMIC CHARGES
-----------------------
   0 C :    0.051618
   1 C :   -0.184115
   2 C :   -0.183460
   3 C :    0.051614
   4 H :    0.043418
   5 H :    0.045453
   6 H :    0.043419
   7 H :    0.045399
   8 H :    0.043185
   9 H :    0.043467
Sum of atomic charges:    0.0000000

LOEWDIN ATOMIC CHARGES
----------------------
   0 C :   -0.068707
   1 C :   -0.076424
   2 C :   -0.076266
   3 C :   -0.068637
   4 H :    0.048223
   5 H :    0.048613
   6 H :    0.048211
   7 H :    0.048598
   8 H :    0.048148
   9 H :    0.048242

  Mayer bond orders larger than 0.1
B(  0-C ,  1-C ) :   1.1312 B(  0-C ,  4-H ) :   0.9341 B(  0-C ,  5-H ) :   0.9345
B(  0-C ,  6-H ) :   0.9345 B(  1-C ,  2-C ) :   2.6022 B(  2-C ,  3-C ) :   1.1312
B(  3-C ,  7-H ) :   0.9346 B(  3-C ,  8-H ) :   0.9346 B(  3-C ,  9-H ) :   0.9340

FINAL SINGLE POINT ENERGY      -155.642699398640

DIPOLE MOMENT
-------------
                                X             Y             Z
Electronic contribution:      0.00029      -0.00136      -0.00023
Nuclear contribution   :     -0.00001       0.00105      -0.00143
                        -----------------------------------------
Total Dipole Moment    :      0.00028      -0.00031      -0.00166
                        -----------------------------------------
Magnitude (a.u.)       :      0.00171
Magnitude (Debye)      :      0.00435

                             ****ORCA TERMINATED NORMALLY****
TOTAL RUN TIME: 0 days 0 hours 0 minutes 3 seconds 774 msec
