                         Program Version 3.0.3 - RELEASE   -
|  1> ! RI PBE def2-SVP def2-SVP/J NBO PAL2
|  2> % maxcore 2000
|  3> % output
|  4>     # printlevel mini
|  5>     print[ P_Basis ] 0
|  6>     print[ P_SCFInfo ] 1
|  7>     print[ P_SCFIterInfo ] 1
|  8>     print[ P_OrbEn ] 0
|  9>     print[ P_Cartesian ] 0
| 10> end
| 11> *xyz 0 1
| 12>  C        1.0115300000    -0.0542450000     0.1869480000
| 13>  C        2.5060130000     0.0313220000    -0.1040770000
| 14>  C        2.9253120000    -0.8641900000    -1.2224130000
| 15>  C        3.5007460000    -0.4664460000    -2.3485010000
| 16>  H        0.7374430000     0.5831270000     1.0306770000
| 17>  H        0.7159270000    -1.0777290000     0.4330510000
| 18>  H        0.4264720000     0.2595810000    -0.6805590000
| 19>  H        3.0597250000    -0.2455130000     0.8016660000
| 20>  H        2.7861440000     1.0627040000    -0.3388810000
| 21>  H        2.7202670000    -1.9253680000    -1.0831900000
| 22>  H        3.7203050000     0.5812370000    -2.5319400000
| 23>  H        3.7759050000    -1.1693610000    -3.1263810000
| 24> *
| 25>
| 26>                          ****END OF INPUT****
 Total Charge           Charge          ....    0
 Multiplicity           Mult            ....    1
 Number of Electrons    NEL             ....   32
 Basis Dimension        Dim             ....   96

MULLIKEN ATOMIC CHARGES
-----------------------
   0 C :   -0.042353
   1 C :    0.029645
   2 C :   -0.095611
   3 C :   -0.038554
   4 H :    0.022837
   5 H :    0.021612
   6 H :    0.029976
   7 H :    0.023514
   8 H :    0.007359
   9 H :    0.003432
  10 H :    0.014439
  11 H :    0.023705
Sum of atomic charges:    0.0000000

LOEWDIN ATOMIC CHARGES
----------------------
   0 C :   -0.062955
   1 C :   -0.046431
   2 C :   -0.030772
   3 C :   -0.069365
   4 H :    0.026946
   5 H :    0.024908
   6 H :    0.027551
   7 H :    0.034267
   8 H :    0.027394
   9 H :    0.024040
  10 H :    0.020515
  11 H :    0.023902

  Mayer bond orders larger than 0.1
B(  0-C ,  1-C ) :   1.0968 B(  0-C ,  4-H ) :   0.9619 B(  0-C ,  5-H ) :   0.9698
B(  0-C ,  6-H ) :   0.9696 B(  1-C ,  2-C ) :   1.0656 B(  1-C ,  7-H ) :   0.9203
B(  1-C ,  8-H ) :   0.9365 B(  2-C ,  3-C ) :   2.0218 B(  2-C ,  9-H ) :   0.9545
B(  3-C , 10-H ) :   0.9479 B(  3-C , 11-H ) :   0.9444

FINAL SINGLE POINT ENERGY      -156.872865272892

DIPOLE MOMENT
-------------
                                X             Y             Z
Electronic contribution:      1.49460      -0.60669      -1.04913
Nuclear contribution   :     -1.56251       0.62323       1.18937
                        -----------------------------------------
Total Dipole Moment    :     -0.06791       0.01654       0.14024
                        -----------------------------------------
Magnitude (a.u.)       :      0.15669
Magnitude (Debye)      :      0.39828

                             ****ORCA TERMINATED NORMALLY****
TOTAL RUN TIME: 0 days 0 hours 0 minutes 4 seconds 444 msec
