                         Program Version 3.0.3 - RELEASE   -
|  1> ! RI PBE def2-SVP def2-SVP/J NBO PAL2
|  2> % maxcore 2000
|  3> % output
|  4>     # printlevel mini
|  5>     print[ P_Basis ] 0
|  6>     print[ P_SCFInfo ] 1
|  7>     print[ P_SCFIterInfo ] 1
|  8>     print[ P_OrbEn ] 0
|  9>     print[ P_Cartesian ] 0
| 10> end
| 11> *xyz 0 1
| 12>  C        1.0368530000     0.1023610000    -0.0145050000
| 13>  C        2.5620140000     0.0565370000    -0.0613600000
| 14>  C        3.0717110000    -0.8977070000    -1.0326480000
| 15>  C        3.4720420000    -1.6905510000    -1.8406610000
| 16>  H        0.7014550000     0.8304230000     0.7268490000
| 17>  H        0.6273810000    -0.8735260000     0.2514540000
| 18>  H        0.6271860000     0.3858150000    -0.9853720000
| 19>  H        2.9581600000    -0.2002380000     0.9267390000
| 20>  H        2.9579570000     1.0491670000    -0.3004150000
| 21>  H        3.8335410000    -2.3915910000    -2.5547820000
| 22> *
| 23>
| 24>                          ****END OF INPUT****
 Total Charge           Charge          ....    0
 Multiplicity           Mult            ....    1
 Number of Electrons    NEL             ....   30
 Basis Dimension        Dim             ....   86

MULLIKEN ATOMIC CHARGES
-----------------------
   0 C :   -0.034559
   1 C :    0.037147
   2 C :    0.301245
   3 C :   -0.474529
   4 H :    0.025178
   5 H :    0.035939
   6 H :    0.036020
   7 H :    0.038648
   8 H :    0.038977
   9 H :   -0.004065
Sum of atomic charges:   -0.0000000

LOEWDIN ATOMIC CHARGES
----------------------
   0 C :   -0.052542
   1 C :   -0.051012
   2 C :   -0.022730
   3 C :   -0.094408
   4 H :    0.028338
   5 H :    0.031244
   6 H :    0.031263
   7 H :    0.048431
   8 H :    0.048472
   9 H :    0.032943

  Mayer bond orders larger than 0.1
B(  0-C ,  1-C ) :   1.1018 B(  0-C ,  4-H ) :   0.9612 B(  0-C ,  5-H ) :   0.9704
B(  0-C ,  6-H ) :   0.9704 B(  1-C ,  2-C ) :   1.0797 B(  1-C ,  7-H ) :   0.9055
B(  1-C ,  8-H ) :   0.9057 B(  2-C ,  3-C ) :   2.3655 B(  2-C ,  9-H ) :  -0.1091
B(  3-C ,  9-H ) :   1.1006

FINAL SINGLE POINT ENERGY      -155.630228837359

DIPOLE MOMENT
-------------
                                X             Y             Z
Electronic contribution:      2.78716      -1.83888      -1.87241
Nuclear contribution   :     -2.92335       2.03661       2.07339
                        -----------------------------------------
Total Dipole Moment    :     -0.13619       0.19773       0.20099
                        -----------------------------------------
Magnitude (a.u.)       :      0.31311
Magnitude (Debye)      :      0.79586

                             ****ORCA TERMINATED NORMALLY****
TOTAL RUN TIME: 0 days 0 hours 0 minutes 3 seconds 717 msec
