                         Program Version 3.0.3 - RELEASE   -
|  1> ! RI PBE def2-SVP def2-SVP/J NBO PAL2
|  2> % maxcore 2000
|  3> % output
|  4>     # printlevel mini
|  5>     print[ P_Basis ] 0
|  6>     print[ P_SCFInfo ] 1
|  7>     print[ P_SCFIterInfo ] 1
|  8>     print[ P_OrbEn ] 0
|  9>     print[ P_Cartesian ] 0
| 10> end
| 11> *xyz 0 1
| 12>  C        0.3409420000     1.0274510000    -0.1364810000
| 13>  C        0.9896130000    -0.3346870000     0.1572090000
| 14>  N       -0.3201770000    -0.9661530000    -0.0691940000
| 15>  C       -0.9935920000     0.3229170000     0.1552350000
| 16>  H        0.4356450000     1.3099050000    -1.1849790000
| 17>  H        0.6192490000     1.8686740000     0.4963600000
| 18>  H        1.3449110000    -0.3987740000     1.1949550000
| 19>  H        1.7857210000    -0.6777450000    -0.5088560000
| 20>  H       -0.5682200000    -1.7122890000     0.5676130000
| 21>  H       -1.3186480000     0.4844260000     1.1923050000
| 22>  H       -1.8357550000     0.5230850000    -0.5124580000
| 23> *
| 24>
| 25>                          ****END OF INPUT****
 Total Charge           Charge          ....    0
 Multiplicity           Mult            ....    1
 Number of Electrons    NEL             ....   32
 Basis Dimension        Dim             ....   91

MULLIKEN ATOMIC CHARGES
-----------------------
   0 C :   -0.091536
   1 C :    0.108861
   2 N :   -0.285886
   3 C :    0.111075
   4 H :    0.025316
   5 H :    0.022649
   6 H :   -0.004981
   7 H :    0.014288
   8 H :    0.093193
   9 H :   -0.006593
  10 H :    0.013613
Sum of atomic charges:    0.0000000

LOEWDIN ATOMIC CHARGES
----------------------
   0 C :   -0.043753
   1 C :    0.024883
   2 N :   -0.119151
   3 C :    0.025228
   4 H :    0.027991
   5 H :    0.018751
   6 H :    0.002055
   7 H :    0.009144
   8 H :    0.044019
   9 H :    0.001811
  10 H :    0.009020

  Mayer bond orders larger than 0.1
B(  0-C ,  1-C ) :   1.1003 B(  0-C ,  3-C ) :   1.0995 B(  0-C ,  4-H ) :   0.9280
B(  0-C ,  5-H ) :   0.9519 B(  1-C ,  2-N ) :   1.0500 B(  1-C ,  6-H ) :   0.9297
B(  1-C ,  7-H ) :   0.9460 B(  2-N ,  3-C ) :   1.0491 B(  2-N ,  8-H ) :   0.9491
B(  3-C ,  9-H ) :   0.9300 B(  3-C , 10-H ) :   0.9453

FINAL SINGLE POINT ENERGY      -172.878597302175

DIPOLE MOMENT
-------------
                                X             Y             Z
Electronic contribution:     -0.38956      -1.17969      -0.47284
Nuclear contribution   :      0.42917       1.29695       0.89140
                        -----------------------------------------
Total Dipole Moment    :      0.03961       0.11727       0.41856
                        -----------------------------------------
Magnitude (a.u.)       :      0.43648
Magnitude (Debye)      :      1.10944

                             ****ORCA TERMINATED NORMALLY****
TOTAL RUN TIME: 0 days 0 hours 0 minutes 4 seconds 334 msec
