                         Program Version 3.0.3 - RELEASE   -
|  1> ! RI PBE def2-SVP def2-SVP/J NBO PAL2
|  2> % maxcore 2000
|  3> % output
|  4>     # printlevel mini
|  5>     print[ P_Basis ] 0
|  6>     print[ P_SCFInfo ] 1
|  7>     print[ P_SCFIterInfo ] 1
|  8>     print[ P_OrbEn ] 0
|  9>     print[ P_Cartesian ] 0
| 10> end
| 11> *xyz 0 1
| 12>  C        0.9387240000     0.0897880000     0.0160010000
| 13>  C        2.4365110000     0.0275840000     0.0295490000
| 14>  C        3.1661170000    -0.7558050000    -0.9835550000
| 15>  N        3.2100940000     0.7065960000    -1.0046210000
| 16>  H        0.5064430000    -0.6911010000     0.6475020000
| 17>  H        0.5521430000    -0.0481710000    -0.9982570000
| 18>  H        0.5808300000     1.0544700000     0.3869570000
| 19>  H        2.8887870000     0.1128510000     1.0147230000
| 20>  H        2.5765290000    -1.2686810000    -1.7381820000
| 21>  H        4.1046700000    -1.2394970000    -0.7349070000
| 22>  H        2.5850610000     1.0599660000    -1.7225000000
| 23> *
| 24>
| 25>                          ****END OF INPUT****
 Total Charge           Charge          ....    0
 Multiplicity           Mult            ....    1
 Number of Electrons    NEL             ....   32
 Basis Dimension        Dim             ....   91

MULLIKEN ATOMIC CHARGES
-----------------------
   0 C :    0.069259
   1 C :   -0.142350
   2 C :    0.020413
   3 N :   -0.196023
   4 H :    0.031618
   5 H :   -0.003114
   6 H :    0.030867
   7 H :    0.026814
   8 H :    0.027458
   9 H :    0.035245
  10 H :    0.099814
Sum of atomic charges:   -0.0000000

LOEWDIN ATOMIC CHARGES
----------------------
   0 C :   -0.067855
   1 C :   -0.014206
   2 C :   -0.004736
   3 N :   -0.107539
   4 H :    0.035035
   5 H :    0.024306
   6 H :    0.031500
   7 H :    0.021425
   8 H :    0.012924
   9 H :    0.020097
  10 H :    0.049050

  Mayer bond orders larger than 0.1
B(  0-C ,  1-C ) :   1.0965 B(  0-C ,  4-H ) :   0.9536 B(  0-C ,  5-H ) :   0.9408
B(  0-C ,  6-H ) :   0.9577 B(  1-C ,  2-C ) :   1.0576 B(  1-C ,  3-N ) :   0.9850
B(  1-C ,  7-H ) :   0.9344 B(  2-C ,  3-N ) :   1.0060 B(  2-C ,  8-H ) :   0.9453
B(  2-C ,  9-H ) :   0.9436 B(  3-N , 10-H ) :   0.9514

FINAL SINGLE POINT ENERGY      -172.880455060823

DIPOLE MOMENT
-------------
                                X             Y             Z
Electronic contribution:      2.26296       0.80138      -0.40517
Nuclear contribution   :     -2.86204      -1.09143       0.32598
                        -----------------------------------------
Total Dipole Moment    :     -0.59908      -0.29005      -0.07919
                        -----------------------------------------
Magnitude (a.u.)       :      0.67030
Magnitude (Debye)      :      1.70377

                             ****ORCA TERMINATED NORMALLY****
TOTAL RUN TIME: 0 days 0 hours 0 minutes 4 seconds 3 msec
