                         Program Version 3.0.3 - RELEASE   -
|  1> ! RI PBE def2-SVP def2-SVP/J NBO PAL2
|  2> % maxcore 2000
|  3> % output
|  4>     # printlevel mini
|  5>     print[ P_Basis ] 0
|  6>     print[ P_SCFInfo ] 1
|  7>     print[ P_SCFIterInfo ] 1
|  8>     print[ P_OrbEn ] 0
|  9>     print[ P_Cartesian ] 0
| 10> end
| 11> *xyz 0 1
| 12>  C        0.9176340000     0.0260770000    -0.0693120000
| 13>  C        2.4349590000    -0.0371550000    -0.0739340000
| 14>  C        2.9662600000    -1.4420660000     0.1389620000
| 15>  N        4.4209570000    -1.4476770000     0.1666770000
| 16>  H        0.5606960000     1.0455990000    -0.2298200000
| 17>  H        0.5110120000    -0.3196660000     0.8852980000
| 18>  H        0.4896800000    -0.6017560000    -0.8560370000
| 19>  H        2.8485310000     0.6112360000     0.7044090000
| 20>  H        2.8163470000     0.3470070000    -1.0282960000
| 21>  H        2.5344510000    -2.1058280000    -0.6288980000
| 22>  H        2.6103450000    -1.8151220000     1.1057130000
| 23>  H        4.7896980000    -1.1536480000    -0.7301530000
| 24>  H        4.7737190000    -2.3810990000     0.3360800000
| 25> *
| 26>
| 27>                          ****END OF INPUT****
 Total Charge           Charge          ....    0
 Multiplicity           Mult            ....    1
 Number of Electrons    NEL             ....   34
 Basis Dimension        Dim             ....  101

MULLIKEN ATOMIC CHARGES
-----------------------
   0 C :   -0.013382
   1 C :   -0.060527
   2 C :    0.048835
   3 N :   -0.203854
   4 H :    0.018342
   5 H :    0.015801
   6 H :    0.015368
   7 H :    0.019260
   8 H :    0.001869
   9 H :   -0.010616
  10 H :    0.000287
  11 H :    0.083681
  12 H :    0.084934
Sum of atomic charges:   -0.0000000

LOEWDIN ATOMIC CHARGES
----------------------
   0 C :   -0.065128
   1 C :   -0.054455
   2 C :    0.003358
   3 N :   -0.113401
   4 H :    0.026577
   5 H :    0.023992
   6 H :    0.022803
   7 H :    0.025330
   8 H :    0.018502
   9 H :   -0.003674
  10 H :    0.017342
  11 H :    0.047816
  12 H :    0.050939

  Mayer bond orders larger than 0.1
B(  0-C ,  1-C ) :   1.1115 B(  0-C ,  4-H ) :   0.9633 B(  0-C ,  5-H ) :   0.9669
B(  0-C ,  6-H ) :   0.9650 B(  1-C ,  2-C ) :   1.0901 B(  1-C ,  7-H ) :   0.9364
B(  1-C ,  8-H ) :   0.9403 B(  2-C ,  3-N ) :   1.0953 B(  2-C ,  9-H ) :   0.9331
B(  2-C , 10-H ) :   0.9364 B(  3-N , 11-H ) :   0.9687 B(  3-N , 12-H ) :   0.9655

FINAL SINGLE POINT ENERGY      -174.109910557929

DIPOLE MOMENT
-------------
                                X             Y             Z
Electronic contribution:      2.21342      -0.63613       0.32840
Nuclear contribution   :     -2.25663       0.32409      -0.67618
                        -----------------------------------------
Total Dipole Moment    :     -0.04321      -0.31204      -0.34779
                        -----------------------------------------
Magnitude (a.u.)       :      0.46925
Magnitude (Debye)      :      1.19274

                             ****ORCA TERMINATED NORMALLY****
TOTAL RUN TIME: 0 days 0 hours 0 minutes 4 seconds 311 msec
