                         Program Version 3.0.3 - RELEASE   -
|  1> ! RI PBE def2-SVP def2-SVP/J NBO PAL2
|  2> % maxcore 2000
|  3> % output
|  4>     # printlevel mini
|  5>     print[ P_Basis ] 0
|  6>     print[ P_SCFInfo ] 1
|  7>     print[ P_SCFIterInfo ] 1
|  8>     print[ P_OrbEn ] 0
|  9>     print[ P_Cartesian ] 0
| 10> end
| 11> *xyz 0 1
| 12>  C        0.9251560000     0.0615220000    -0.0561150000
| 13>  C        2.2541000000     0.0614750000    -0.0858250000
| 14>  C        2.9978870000     0.0585680000    -1.2998580000
| 15>  N        3.6202430000     0.0562480000    -2.2691920000
| 16>  H        0.3955630000     0.0637840000     0.8882460000
| 17>  H        0.3372220000     0.0593210000    -0.9657560000
| 18>  H        2.8404280000     0.0636830000     0.8270980000
| 19> *
| 20>
| 21>                          ****END OF INPUT****
 Total Charge           Charge          ....    0
 Multiplicity           Mult            ....    1
 Number of Electrons    NEL             ....   28
 Basis Dimension        Dim             ....   71

MULLIKEN ATOMIC CHARGES
-----------------------
   0 C :    0.014795
   1 C :   -0.112482
   2 C :   -0.109631
   3 N :    0.038237
   4 H :    0.053045
   5 H :    0.056672
   6 H :    0.059364
Sum of atomic charges:   -0.0000000

LOEWDIN ATOMIC CHARGES
----------------------
   0 C :    0.016138
   1 C :   -0.061187
   2 C :   -0.041327
   3 N :   -0.046835
   4 H :    0.037714
   5 H :    0.040694
   6 H :    0.054803

  Mayer bond orders larger than 0.1
B(  0-C ,  1-C ) :   1.9516 B(  0-C ,  3-N ) :   0.1177 B(  0-C ,  4-H ) :   0.9459
B(  0-C ,  5-H ) :   0.9515 B(  1-C ,  2-C ) :   1.1152 B(  1-C ,  6-H ) :   0.9502
B(  2-C ,  3-N ) :   2.9683

FINAL SINGLE POINT ENERGY      -170.485320875440

DIPOLE MOMENT
-------------
                                X             Y             Z
Electronic contribution:      2.58442      -0.00502      -2.12979
Nuclear contribution   :     -3.45699       0.00778       3.26007
                        -----------------------------------------
Total Dipole Moment    :     -0.87258       0.00276       1.13029
                        -----------------------------------------
Magnitude (a.u.)       :      1.42792
Magnitude (Debye)      :      3.62948

                             ****ORCA TERMINATED NORMALLY****
TOTAL RUN TIME: 0 days 0 hours 0 minutes 3 seconds 446 msec
