                         Program Version 3.0.3 - RELEASE   -
|  1> ! RI PBE def2-SVP def2-SVP/J NBO PAL2
|  2> % maxcore 2000
|  3> % output
|  4>     # printlevel mini
|  5>     print[ P_Basis ] 0
|  6>     print[ P_SCFInfo ] 1
|  7>     print[ P_SCFIterInfo ] 1
|  8>     print[ P_OrbEn ] 0
|  9>     print[ P_Cartesian ] 0
| 10> end
| 11> *xyz 0 1
| 12>  C        0.9145130000    -0.0345000000     0.0178000000
| 13>  C        2.1157220000    -0.0345000000     0.0178000000
| 14>  C        3.4847880000    -0.0345000000     0.0178000000
| 15>  N        4.6388790000    -0.0345000000     0.0178000000
| 16>  H       -0.1511020000    -0.0345000000     0.0178000000
| 17> *
| 18>
| 19>                          ****END OF INPUT****
 Total Charge           Charge          ....    0
 Multiplicity           Mult            ....    1
 Number of Electrons    NEL             ....   26
 Basis Dimension        Dim             ....   61

MULLIKEN ATOMIC CHARGES
-----------------------
   0 C :   -0.443823
   1 C :    0.389487
   2 C :   -0.078702
   3 N :    0.093981
   4 H :    0.039057
Sum of atomic charges:    0.0000000

LOEWDIN ATOMIC CHARGES
----------------------
   0 C :    0.041570
   1 C :   -0.043122
   2 C :   -0.041562
   3 N :   -0.007861
   4 H :    0.050975

  Mayer bond orders larger than 0.1
B(  0-C ,  1-C ) :   2.1352 B(  0-C ,  2-C ) :  -0.1427 B(  0-C ,  3-N ) :   0.2140
B(  0-C ,  4-H ) :   1.0866 B(  1-C ,  2-C ) :   1.0026 B(  1-C ,  4-H ) :  -0.1004
B(  2-C ,  3-N ) :   2.8786

FINAL SINGLE POINT ENERGY      -169.239416704608

DIPOLE MOMENT
-------------
                                X             Y             Z
Electronic contribution:      1.35370       0.00000      -0.00000
Nuclear contribution   :     -2.76115       0.00000       0.00000
                        -----------------------------------------
Total Dipole Moment    :     -1.40745       0.00000      -0.00000
                        -----------------------------------------
Magnitude (a.u.)       :      1.40745
Magnitude (Debye)      :      3.57746

                             ****ORCA TERMINATED NORMALLY****
TOTAL RUN TIME: 0 days 0 hours 0 minutes 2 seconds 791 msec
