                         Program Version 3.0.3 - RELEASE   -
|  1> ! RI PBE def2-SVP def2-SVP/J NBO PAL2
|  2> % maxcore 2000
|  3> % output
|  4>     # printlevel mini
|  5>     print[ P_Basis ] 0
|  6>     print[ P_SCFInfo ] 1
|  7>     print[ P_SCFIterInfo ] 1
|  8>     print[ P_OrbEn ] 0
|  9>     print[ P_Cartesian ] 0
| 10> end
| 11> *xyz 0 1
| 12>  C        1.0185430000    -0.0002480000     0.0832680000
| 13>  C        2.5359860000    -0.0324180000     0.1112150000
| 14>  C        3.0557380000    -0.5132930000     1.4615240000
| 15>  N        3.0102180000    -0.8198850000    -1.0215640000
| 16>  H        0.6215870000     0.6345770000     0.8783920000
| 17>  H        0.6116400000    -1.0070620000     0.2290540000
| 18>  H        0.6598920000     0.3728490000    -0.8773380000
| 19>  H        2.8991040000     0.9902820000    -0.0496250000
| 20>  H        2.7023440000    -1.5289380000     1.6688180000
| 21>  H        2.7174470000     0.1323490000     2.2773240000
| 22>  H        4.1490760000    -0.5285970000     1.4781640000
| 23>  H        2.6697220000    -1.7728300000    -0.9436840000
| 24>  H        4.0222130000    -0.8737870000    -1.0152460000
| 25> *
| 26>
| 27>                          ****END OF INPUT****
 Total Charge           Charge          ....    0
 Multiplicity           Mult            ....    1
 Number of Electrons    NEL             ....   34
 Basis Dimension        Dim             ....  101

MULLIKEN ATOMIC CHARGES
-----------------------
   0 C :    0.017014
   1 C :   -0.076815
   2 C :    0.003936
   3 N :   -0.184405
   4 H :    0.015716
   5 H :    0.004810
   6 H :    0.025675
   7 H :    0.006736
   8 H :    0.002548
   9 H :    0.011965
  10 H :    0.013357
  11 H :    0.078174
  12 H :    0.081290
Sum of atomic charges:   -0.0000000

LOEWDIN ATOMIC CHARGES
----------------------
   0 C :   -0.062943
   1 C :   -0.009856
   2 C :   -0.081887
   3 N :   -0.099023
   4 H :    0.025958
   5 H :    0.020363
   6 H :    0.028297
   7 H :    0.021346
   8 H :    0.019363
   9 H :    0.024641
  10 H :    0.020352
  11 H :    0.045612
  12 H :    0.047778

  Mayer bond orders larger than 0.1
B(  0-C ,  1-C ) :   1.0919 B(  0-C ,  4-H ) :   0.9634 B(  0-C ,  5-H ) :   0.9576
B(  0-C ,  6-H ) :   0.9592 B(  1-C ,  2-C ) :   1.0709 B(  1-C ,  3-N ) :   1.0808
B(  1-C ,  7-H ) :   0.9168 B(  2-C ,  8-H ) :   0.9536 B(  2-C ,  9-H ) :   0.9478
B(  2-C , 10-H ) :   0.9604 B(  3-N , 11-H ) :   0.9700 B(  3-N , 12-H ) :   0.9715

FINAL SINGLE POINT ENERGY      -174.113844541219

DIPOLE MOMENT
-------------
                                X             Y             Z
Electronic contribution:      0.83058       0.05973      -1.75741
Nuclear contribution   :     -0.64025      -0.26955       2.09180
                        -----------------------------------------
Total Dipole Moment    :      0.19033      -0.20982       0.33439
                        -----------------------------------------
Magnitude (a.u.)       :      0.43825
Magnitude (Debye)      :      1.11395

                             ****ORCA TERMINATED NORMALLY****
TOTAL RUN TIME: 0 days 0 hours 0 minutes 4 seconds 425 msec
