                         Program Version 3.0.3 - RELEASE   -
|  1> ! RI PBE def2-SVP def2-SVP/J NBO PAL2
|  2> % maxcore 2000
|  3> % output
|  4>     # printlevel mini
|  5>     print[ P_Basis ] 0
|  6>     print[ P_SCFInfo ] 1
|  7>     print[ P_SCFIterInfo ] 1
|  8>     print[ P_OrbEn ] 0
|  9>     print[ P_Cartesian ] 0
| 10> end
| 11> *xyz 0 1
| 12>  C        1.0483040000    -0.0415400000    -0.0083080000
| 13>  C        2.5736190000    -0.0615590000     0.0370310000
| 14>  C        3.0881280000    -0.6107680000     1.2825610000
| 15>  N        3.4785760000    -1.0479080000     2.2715590000
| 16>  H        0.7121540000     0.3774840000    -0.9576280000
| 17>  H        0.6426560000     0.5667760000     0.8006790000
| 18>  H        0.6425520000    -1.0491400000     0.0874480000
| 19>  H        2.9778920000     0.9481970000    -0.0772820000
| 20>  H        2.9778190000    -0.6575420000    -0.7861590000
| 21> *
| 22>
| 23>                          ****END OF INPUT****
 Total Charge           Charge          ....    0
 Multiplicity           Mult            ....    1
 Number of Electrons    NEL             ....   30
 Basis Dimension        Dim             ....   81

MULLIKEN ATOMIC CHARGES
-----------------------
   0 C :   -0.042985
   1 C :    0.038406
   2 C :   -0.284960
   3 N :    0.041442
   4 H :    0.037040
   5 H :    0.050594
   6 H :    0.047531
   7 H :    0.056278
   8 H :    0.056653
Sum of atomic charges:   -0.0000000

LOEWDIN ATOMIC CHARGES
----------------------
   0 C :   -0.047264
   1 C :   -0.061187
   2 C :   -0.046711
   3 N :   -0.068828
   4 H :    0.034140
   5 H :    0.036805
   6 H :    0.036150
   7 H :    0.058363
   8 H :    0.058531

  Mayer bond orders larger than 0.1
B(  0-C ,  1-C ) :   1.1082 B(  0-C ,  4-H ) :   0.9624 B(  0-C ,  5-H ) :   0.9707
B(  0-C ,  6-H ) :   0.9704 B(  1-C ,  2-C ) :   1.1215 B(  1-C ,  7-H ) :   0.9000
B(  1-C ,  8-H ) :   0.8995 B(  2-C ,  3-N ) :   3.0561

FINAL SINGLE POINT ENERGY      -171.709968648352

DIPOLE MOMENT
-------------
                                X             Y             Z
Electronic contribution:      3.63803      -1.58643       3.59677
Nuclear contribution   :     -4.22935       2.13516      -4.83841
                        -----------------------------------------
Total Dipole Moment    :     -0.59133       0.54873      -1.24164
                        -----------------------------------------
Magnitude (a.u.)       :      1.48069
Magnitude (Debye)      :      3.76362

                             ****ORCA TERMINATED NORMALLY****
TOTAL RUN TIME: 0 days 0 hours 0 minutes 3 seconds 553 msec
