                         Program Version 3.0.3 - RELEASE   -
|  1> ! RI PBE def2-SVP def2-SVP/J NBO PAL2
|  2> % maxcore 2000
|  3> % output
|  4>     # printlevel mini
|  5>     print[ P_Basis ] 0
|  6>     print[ P_SCFInfo ] 1
|  7>     print[ P_SCFIterInfo ] 1
|  8>     print[ P_OrbEn ] 0
|  9>     print[ P_Cartesian ] 0
| 10> end
| 11> *xyz 0 1
| 12>  C        0.9893860000    -0.0550180000    -0.0085590000
| 13>  C        2.5027670000    -0.0812750000     0.0239250000
| 14>  N        2.9921730000    -1.2236680000     0.7658570000
| 15>  C        4.4334290000    -1.3250650000     0.7725310000
| 16>  H        0.6252810000     0.8255640000    -0.5419830000
| 17>  H        0.5831640000    -0.0411400000     1.0048740000
| 18>  H        0.5915540000    -0.9376010000    -0.5189910000
| 19>  H        2.8773620000     0.8226360000     0.5183490000
| 20>  H        2.8979820000    -0.0514710000    -1.0085400000
| 21>  H        2.5886700000    -2.0703290000     0.3833740000
| 22>  H        4.8572160000    -0.4759890000     1.3167680000
| 23>  H        4.8884960000    -1.3320940000    -0.2328640000
| 24>  H        4.7400990000    -2.2345600000     1.2930580000
| 25> *
| 26>
| 27>                          ****END OF INPUT****
 Total Charge           Charge          ....    0
 Multiplicity           Mult            ....    1
 Number of Electrons    NEL             ....   34
 Basis Dimension        Dim             ....  101

MULLIKEN ATOMIC CHARGES
-----------------------
   0 C :   -0.030302
   1 C :    0.068866
   2 N :   -0.275115
   3 C :    0.066962
   4 H :    0.019549
   5 H :    0.026681
   6 H :    0.016402
   7 H :    0.003389
   8 H :   -0.018983
   9 H :    0.095296
  10 H :    0.017569
  11 H :   -0.009784
  12 H :    0.019471
Sum of atomic charges:    0.0000000

LOEWDIN ATOMIC CHARGES
----------------------
   0 C :   -0.071399
   1 C :    0.006839
   2 N :   -0.109339
   3 C :   -0.007659
   4 H :    0.029181
   5 H :    0.027474
   6 H :    0.022253
   7 H :    0.018184
   8 H :   -0.005481
   9 H :    0.051278
  10 H :    0.020714
  11 H :   -0.003855
  12 H :    0.021811

  Mayer bond orders larger than 0.1
B(  0-C ,  1-C ) :   1.1157 B(  0-C ,  4-H ) :   0.9591 B(  0-C ,  5-H ) :   0.9635
B(  0-C ,  6-H ) :   0.9680 B(  1-C ,  2-N ) :   1.0418 B(  1-C ,  7-H ) :   0.9369
B(  1-C ,  8-H ) :   0.9203 B(  2-N ,  3-C ) :   1.0697 B(  2-N ,  9-H ) :   0.9483
B(  3-C , 10-H ) :   0.9688 B(  3-C , 11-H ) :   0.9434 B(  3-C , 12-H ) :   0.9735

FINAL SINGLE POINT ENERGY      -174.103605983224

DIPOLE MOMENT
-------------
                                X             Y             Z
Electronic contribution:      0.04470      -0.70812       0.82778
Nuclear contribution   :     -0.00611       0.58839      -1.12355
                        -----------------------------------------
Total Dipole Moment    :      0.03859      -0.11973      -0.29578
                        -----------------------------------------
Magnitude (a.u.)       :      0.32141
Magnitude (Debye)      :      0.81697

                             ****ORCA TERMINATED NORMALLY****
TOTAL RUN TIME: 0 days 0 hours 0 minutes 4 seconds 503 msec
