                         Program Version 3.0.3 - RELEASE   -
|  1> ! RI PBE def2-SVP def2-SVP/J NBO PAL2
|  2> % maxcore 2000
|  3> % output
|  4>     # printlevel mini
|  5>     print[ P_Basis ] 0
|  6>     print[ P_SCFInfo ] 1
|  7>     print[ P_SCFIterInfo ] 1
|  8>     print[ P_OrbEn ] 0
|  9>     print[ P_Cartesian ] 0
| 10> end
| 11> *xyz 0 1
| 12>  C        1.0500740000     0.0522890000    -0.1390010000
| 13>  N        2.4944430000     0.0823590000    -0.1543710000
| 14>  C        3.1294650000    -0.7434200000    -1.1579690000
| 15>  C        3.0970510000     0.7296800000    -1.2989500000
| 16>  H        0.7103030000    -0.7862040000     0.4734670000
| 17>  H        0.6110120000    -0.0529180000    -1.1447400000
| 18>  H        0.6716390000     0.9755170000     0.3060730000
| 19>  H        2.4849940000    -1.3168430000    -1.8211160000
| 20>  H        4.0407990000    -1.2470250000    -0.8539370000
| 21>  H        2.4309370000     1.1383110000    -2.0560760000
| 22>  H        3.9841730000     1.3211450000    -1.0995800000
| 23> *
| 24>
| 25>                          ****END OF INPUT****
 Total Charge           Charge          ....    0
 Multiplicity           Mult            ....    1
 Number of Electrons    NEL             ....   32
 Basis Dimension        Dim             ....   91

MULLIKEN ATOMIC CHARGES
-----------------------
   0 C :    0.089576
   1 N :   -0.293956
   2 C :    0.018073
   3 C :    0.011420
   4 H :    0.028776
   5 H :   -0.010618
   6 H :    0.027438
   7 H :    0.025911
   8 H :    0.037979
   9 H :    0.025684
  10 H :    0.039718
Sum of atomic charges:    0.0000000

LOEWDIN ATOMIC CHARGES
----------------------
   0 C :   -0.000882
   1 N :   -0.112519
   2 C :    0.000235
   3 C :   -0.000847
   4 H :    0.024837
   5 H :   -0.000390
   6 H :    0.024680
   7 H :    0.011766
   8 H :    0.020650
   9 H :    0.011503
  10 H :    0.020966

  Mayer bond orders larger than 0.1
B(  0-C ,  1-N ) :   1.0262 B(  0-C ,  4-H ) :   0.9715 B(  0-C ,  5-H ) :   0.9343
B(  0-C ,  6-H ) :   0.9715 B(  1-N ,  2-C ) :   0.9716 B(  1-N ,  3-C ) :   0.9740
B(  2-C ,  3-C ) :   1.0805 B(  2-C ,  7-H ) :   0.9386 B(  2-C ,  8-H ) :   0.9512
B(  3-C ,  9-H ) :   0.9395 B(  3-C , 10-H ) :   0.9513

FINAL SINGLE POINT ENERGY      -172.870288709726

DIPOLE MOMENT
-------------
                                X             Y             Z
Electronic contribution:      1.59131       0.11772       0.87622
Nuclear contribution   :     -1.79189      -0.15935      -1.25651
                        -----------------------------------------
Total Dipole Moment    :     -0.20059      -0.04163      -0.38029
                        -----------------------------------------
Magnitude (a.u.)       :      0.43196
Magnitude (Debye)      :      1.09795

                             ****ORCA TERMINATED NORMALLY****
TOTAL RUN TIME: 0 days 0 hours 0 minutes 4 seconds 162 msec
