                         Program Version 3.0.3 - RELEASE   -
|  1> ! RI PBE def2-SVP def2-SVP/J NBO PAL2
|  2> % maxcore 2000
|  3> % output
|  4>     # printlevel mini
|  5>     print[ P_Basis ] 0
|  6>     print[ P_SCFInfo ] 1
|  7>     print[ P_SCFIterInfo ] 1
|  8>     print[ P_OrbEn ] 0
|  9>     print[ P_Cartesian ] 0
| 10> end
| 11> *xyz 0 1
| 12>  C        1.0777590000     0.0460810000    -0.0581520000
| 13>  N        2.5190360000     0.0981540000    -0.0482990000
| 14>  C        3.0245890000     0.9415130000    -1.1034810000
| 15>  C        3.0244500000     0.5032830000     1.2403690000
| 16>  H        0.7245450000    -0.3185470000    -1.0255990000
| 17>  H        0.6107830000     1.0324040000     0.1253780000
| 18>  H        0.7245350000    -0.6419380000     0.7135240000
| 19>  H        2.6723860000     0.5785050000    -2.0718920000
| 20>  H        4.1168630000     0.9176030000    -1.1091840000
| 21>  H        2.7074080000     1.9966040000    -0.9994390000
| 22>  H        2.6731110000    -0.1859130000     2.0118700000
| 23>  H        2.7064880000     1.5242010000     1.5252900000
| 24>  H        4.1167470000     0.4799480000     1.2366060000
| 25> *
| 26>
| 27>                          ****END OF INPUT****
 Total Charge           Charge          ....    0
 Multiplicity           Mult            ....    1
 Number of Electrons    NEL             ....   34
 Basis Dimension        Dim             ....  101

MULLIKEN ATOMIC CHARGES
-----------------------
   0 C :    0.093767
   1 N :   -0.343362
   2 C :    0.090617
   3 C :    0.088551
   4 H :    0.017652
   5 H :   -0.016253
   6 H :    0.019496
   7 H :    0.016324
   8 H :    0.023649
   9 H :   -0.015447
  10 H :    0.020071
  11 H :   -0.017604
  12 H :    0.022540
Sum of atomic charges:   -0.0000000

LOEWDIN ATOMIC CHARGES
----------------------
   0 C :    0.002123
   1 N :   -0.117430
   2 C :    0.001100
   3 C :    0.000371
   4 H :    0.021058
   5 H :   -0.004960
   6 H :    0.021172
   7 H :    0.020951
   8 H :    0.021852
   9 H :   -0.004687
  10 H :    0.021606
  11 H :   -0.004958
  12 H :    0.021801

  Mayer bond orders larger than 0.1
B(  0-C ,  1-N ) :   1.0436 B(  0-C ,  4-H ) :   0.9684 B(  0-C ,  5-H ) :   0.9363
B(  0-C ,  6-H ) :   0.9687 B(  1-N ,  2-C ) :   1.0417 B(  1-N ,  3-C ) :   1.0451
B(  2-C ,  7-H ) :   0.9676 B(  2-C ,  8-H ) :   0.9690 B(  2-C ,  9-H ) :   0.9358
B(  3-C , 10-H ) :   0.9672 B(  3-C , 11-H ) :   0.9346 B(  3-C , 12-H ) :   0.9680

FINAL SINGLE POINT ENERGY      -174.096344715847

DIPOLE MOMENT
-------------
                                X             Y             Z
Electronic contribution:      0.49457      -1.38099      -0.25909
Nuclear contribution   :     -0.54647       1.51906       0.28410
                        -----------------------------------------
Total Dipole Moment    :     -0.05190       0.13807       0.02501
                        -----------------------------------------
Magnitude (a.u.)       :      0.14960
Magnitude (Debye)      :      0.38026

                             ****ORCA TERMINATED NORMALLY****
TOTAL RUN TIME: 0 days 0 hours 0 minutes 4 seconds 724 msec
