                         Program Version 3.0.3 - RELEASE   -
|  1> ! RI PBE def2-SVP def2-SVP/J NBO PAL2
|  2> % maxcore 2000
|  3> % output
|  4>     # printlevel mini
|  5>     print[ P_Basis ] 0
|  6>     print[ P_SCFInfo ] 1
|  7>     print[ P_SCFIterInfo ] 1
|  8>     print[ P_OrbEn ] 0
|  9>     print[ P_Cartesian ] 0
| 10> end
| 11> *xyz 0 1
| 12>  N        1.0762530000    -0.0075640000     0.0015480000
| 13>  C        2.5072600000    -0.0149210000    -0.0894920000
| 14>  C        3.2649470000    -0.8007360000    -1.1246890000
| 15>  C        3.1732920000     0.6993770000    -1.2123400000
| 16>  H        0.7285760000    -0.9058540000     0.3150260000
| 17>  H        0.6567130000     0.1820560000    -0.8995400000
| 18>  H        2.9877240000     0.0760370000     0.8798830000
| 19>  H        2.6818320000    -1.3764420000    -1.8341980000
| 20>  H        4.2162230000    -1.2441340000    -0.8550890000
| 21>  H        2.5354390000     1.1168510000    -1.9836450000
| 22>  H        4.0576400000     1.2886490000    -1.0055740000
| 23> *
| 24>
| 25>                          ****END OF INPUT****
 Total Charge           Charge          ....    0
 Multiplicity           Mult            ....    1
 Number of Electrons    NEL             ....   32
 Basis Dimension        Dim             ....   91

MULLIKEN ATOMIC CHARGES
-----------------------
   0 N :   -0.128692
   1 C :   -0.093094
   2 C :   -0.037394
   3 C :   -0.059337
   4 H :    0.093212
   5 H :    0.076264
   6 H :    0.024565
   7 H :    0.021626
   8 H :    0.028160
   9 H :    0.034660
  10 H :    0.040031
Sum of atomic charges:   -0.0000000

LOEWDIN ATOMIC CHARGES
----------------------
   0 N :   -0.087133
   1 C :   -0.009664
   2 C :   -0.073626
   3 C :   -0.053544
   4 H :    0.054655
   5 H :    0.050441
   6 H :    0.021123
   7 H :    0.020697
   8 H :    0.023604
   9 H :    0.024969
  10 H :    0.028478

  Mayer bond orders larger than 0.1
B(  0-N ,  1-C ) :   1.1566 B(  0-N ,  4-H ) :   0.9699 B(  0-N ,  5-H ) :   0.9608
B(  1-C ,  2-C ) :   0.9638 B(  1-C ,  3-C ) :   1.0079 B(  1-C ,  6-H ) :   0.9442
B(  2-C ,  3-C ) :   1.0163 B(  2-C ,  7-H ) :   0.9499 B(  2-C ,  8-H ) :   0.9446
B(  3-C ,  9-H ) :   0.9546 B(  3-C , 10-H ) :   0.9510

FINAL SINGLE POINT ENERGY      -172.882549099150

DIPOLE MOMENT
-------------
                                X             Y             Z
Electronic contribution:     -0.61076       0.20832       0.80003
Nuclear contribution   :      0.58860      -0.53644      -1.07308
                        -----------------------------------------
Total Dipole Moment    :     -0.02215      -0.32811      -0.27305
                        -----------------------------------------
Magnitude (a.u.)       :      0.42744
Magnitude (Debye)      :      1.08646

                             ****ORCA TERMINATED NORMALLY****
TOTAL RUN TIME: 0 days 0 hours 0 minutes 3 seconds 901 msec
