                         Program Version 3.0.3 - RELEASE   -
|  1> ! RI PBE def2-SVP def2-SVP/J NBO PAL2
|  2> % maxcore 2000
|  3> % output
|  4>     # printlevel mini
|  5>     print[ P_Basis ] 0
|  6>     print[ P_SCFInfo ] 1
|  7>     print[ P_SCFIterInfo ] 1
|  8>     print[ P_OrbEn ] 0
|  9>     print[ P_Cartesian ] 0
| 10> end
| 11> *xyz 0 1
| 12>  N        0.9704640000    -0.1767640000    -0.1613300000
| 13>  C        2.3862350000     0.1377770000     0.0065600000
| 14>  C        2.8025830000     1.2339890000    -0.9175470000
| 15>  C        3.3841760000     2.3638680000    -0.5456880000
| 16>  H        0.7170430000    -0.9667800000     0.4194990000
| 17>  H        0.7858060000    -0.4512350000    -1.1193420000
| 18>  H        3.0457380000    -0.7296780000    -0.1686680000
| 19>  H        2.5504380000     0.4562460000     1.0399460000
| 20>  H        2.6158130000     1.0568220000    -1.9765610000
| 21>  H        3.5827820000     2.5800940000     0.4995600000
| 22>  H        3.6838230000     3.1140620000    -1.2683210000
| 23> *
| 24>
| 25>                          ****END OF INPUT****
 Total Charge           Charge          ....    0
 Multiplicity           Mult            ....    1
 Number of Electrons    NEL             ....   32
 Basis Dimension        Dim             ....   91

MULLIKEN ATOMIC CHARGES
-----------------------
   0 N :   -0.225362
   1 C :    0.137765
   2 C :   -0.097257
   3 C :   -0.038860
   4 H :    0.087354
   5 H :    0.083998
   6 H :    0.005466
   7 H :    0.001358
   8 H :    0.002466
   9 H :    0.017712
  10 H :    0.025358
Sum of atomic charges:    0.0000000

LOEWDIN ATOMIC CHARGES
----------------------
   0 N :   -0.114533
   1 C :    0.005762
   2 C :   -0.033809
   3 C :   -0.058616
   4 H :    0.051834
   5 H :    0.047812
   6 H :    0.008715
   7 H :    0.023022
   8 H :    0.022716
   9 H :    0.022359
  10 H :    0.024738

  Mayer bond orders larger than 0.1
B(  0-N ,  1-C ) :   1.0471 B(  0-N ,  4-H ) :   0.9638 B(  0-N ,  5-H ) :   0.9703
B(  1-C ,  2-C ) :   1.0506 B(  1-C ,  6-H ) :   0.9097 B(  1-C ,  7-H ) :   0.9336
B(  2-C ,  3-C ) :   2.0441 B(  2-C ,  8-H ) :   0.9502 B(  3-C ,  9-H ) :   0.9480
B(  3-C , 10-H ) :   0.9449

FINAL SINGLE POINT ENERGY      -172.881947785415

DIPOLE MOMENT
-------------
                                X             Y             Z
Electronic contribution:     -0.39742       0.20017      -0.27468
Nuclear contribution   :      0.54795      -0.72148       0.15727
                        -----------------------------------------
Total Dipole Moment    :      0.15053      -0.52131      -0.11742
                        -----------------------------------------
Magnitude (a.u.)       :      0.55517
Magnitude (Debye)      :      1.41113

                             ****ORCA TERMINATED NORMALLY****
TOTAL RUN TIME: 0 days 0 hours 0 minutes 4 seconds 132 msec
