                         Program Version 3.0.3 - RELEASE   -
|  1> ! RI PBE def2-SVP def2-SVP/J NBO PAL2
|  2> % maxcore 2000
|  3> % output
|  4>     # printlevel mini
|  5>     print[ P_Basis ] 0
|  6>     print[ P_SCFInfo ] 1
|  7>     print[ P_SCFIterInfo ] 1
|  8>     print[ P_OrbEn ] 0
|  9>     print[ P_Cartesian ] 0
| 10> end
| 11> *xyz 0 1
| 12>  N        1.0158970000    -0.0684440000    -0.0964120000
| 13>  C        2.4726690000    -0.0688530000    -0.0513990000
| 14>  C        2.9696400000    -0.8842010000     1.0474210000
| 15>  C        3.3806160000    -1.5340110000     1.9685990000
| 16>  H        0.6953480000     0.5577480000    -0.8245540000
| 17>  H        0.6420310000     0.2700850000     0.7814760000
| 18>  H        2.9224710000     0.9321130000     0.0433400000
| 19>  H        2.8452870000    -0.4883080000    -0.9920350000
| 20>  H        3.7438310000    -2.1199380000     2.7793540000
| 21> *
| 22>
| 23>                          ****END OF INPUT****
 Total Charge           Charge          ....    0
 Multiplicity           Mult            ....    1
 Number of Electrons    NEL             ....   30
 Basis Dimension        Dim             ....   81

MULLIKEN ATOMIC CHARGES
-----------------------
   0 N :   -0.217483
   1 C :    0.166493
   2 C :    0.279785
   3 C :   -0.465729
   4 H :    0.091002
   5 H :    0.096340
   6 H :    0.020983
   7 H :    0.028630
   8 H :   -0.000020
Sum of atomic charges:    0.0000000

LOEWDIN ATOMIC CHARGES
----------------------
   0 N :   -0.104418
   1 C :    0.001545
   2 C :   -0.026552
   3 C :   -0.081224
   4 H :    0.054039
   5 H :    0.054585
   6 H :    0.023460
   7 H :    0.044058
   8 H :    0.034507

  Mayer bond orders larger than 0.1
B(  0-N ,  1-C ) :   1.0782 B(  0-N ,  4-H ) :   0.9640 B(  0-N ,  5-H ) :   0.9676
B(  1-C ,  2-C ) :   1.0714 B(  1-C ,  6-H ) :   0.9019 B(  1-C ,  7-H ) :   0.8924
B(  2-C ,  3-C ) :   2.3874 B(  2-C ,  8-H ) :  -0.1050 B(  3-C ,  8-H ) :   1.0962

FINAL SINGLE POINT ENERGY      -171.638598059250

DIPOLE MOMENT
-------------
                                X             Y             Z
Electronic contribution:      0.98558      -1.28930       1.30730
Nuclear contribution   :     -0.99759       1.90546      -1.39807
                        -----------------------------------------
Total Dipole Moment    :     -0.01201       0.61616      -0.09078
                        -----------------------------------------
Magnitude (a.u.)       :      0.62293
Magnitude (Debye)      :      1.58337

                             ****ORCA TERMINATED NORMALLY****
TOTAL RUN TIME: 0 days 0 hours 0 minutes 3 seconds 649 msec
