                         Program Version 3.0.3 - RELEASE   -
|  1> ! RI PBE def2-SVP def2-SVP/J NBO PAL2
|  2> % maxcore 2000
|  3> % output
|  4>     # printlevel mini
|  5>     print[ P_Basis ] 0
|  6>     print[ P_SCFInfo ] 1
|  7>     print[ P_SCFIterInfo ] 1
|  8>     print[ P_OrbEn ] 0
|  9>     print[ P_Cartesian ] 0
| 10> end
| 11> *xyz 0 1
| 12>  C        0.3508120000     1.0581090000    -0.0897580000
| 13>  C        0.9800420000    -0.3143030000     0.1687500000
| 14>  O       -0.3033430000    -0.9145090000     0.3909510000
| 15>  C       -0.9738020000     0.3335780000     0.1685540000
| 16>  H        0.4800010000     1.4474040000    -1.0986730000
| 17>  H        0.6077550000     1.8332030000     0.6308940000
| 18>  H        1.6198230000    -0.3846970000     1.0545400000
| 19>  H        1.4988220000    -0.7684010000    -0.6817820000
| 20>  H       -1.5290470000     0.6594460000     1.0542240000
| 21>  H       -1.6609630000     0.2793610000    -0.6820990000
| 22> *
| 23>
| 24>                          ****END OF INPUT****
 Total Charge           Charge          ....    0
 Multiplicity           Mult            ....    1
 Number of Electrons    NEL             ....   32
 Basis Dimension        Dim             ....   86

MULLIKEN ATOMIC CHARGES
-----------------------
   0 C :   -0.113562
   1 C :    0.183022
   2 O :   -0.371545
   3 C :    0.180930
   4 H :    0.027234
   5 H :    0.031763
   6 H :    0.016340
   7 H :    0.014516
   8 H :    0.014179
   9 H :    0.017122
Sum of atomic charges:   -0.0000000

LOEWDIN ATOMIC CHARGES
----------------------
   0 C :   -0.060497
   1 C :    0.082081
   2 O :   -0.192625
   3 C :    0.081701
   4 H :    0.026348
   5 H :    0.027157
   6 H :    0.009023
   7 H :    0.008851
   8 H :    0.008635
   9 H :    0.009326

  Mayer bond orders larger than 0.1
B(  0-C ,  1-C ) :   1.1206 B(  0-C ,  3-C ) :   1.1202 B(  0-C ,  4-H ) :   0.9430
B(  0-C ,  5-H ) :   0.9426 B(  1-C ,  2-O ) :   1.0377 B(  1-C ,  6-H ) :   0.9387
B(  1-C ,  7-H ) :   0.9390 B(  2-O ,  3-C ) :   1.0386 B(  3-C ,  8-H ) :   0.9382
B(  3-C ,  9-H ) :   0.9392

FINAL SINGLE POINT ENERGY      -192.717869622409

DIPOLE MOMENT
-------------
                                X             Y             Z
Electronic contribution:     -0.68421      -2.06540       0.49729
Nuclear contribution   :      0.90438       2.72717      -0.65812
                        -----------------------------------------
Total Dipole Moment    :      0.22016       0.66177      -0.16083
                        -----------------------------------------
Magnitude (a.u.)       :      0.71573
Magnitude (Debye)      :      1.81924

                             ****ORCA TERMINATED NORMALLY****
TOTAL RUN TIME: 0 days 0 hours 0 minutes 3 seconds 960 msec
