                         Program Version 3.0.3 - RELEASE   -
|  1> ! RI PBE def2-SVP def2-SVP/J NBO PAL2
|  2> % maxcore 2000
|  3> % output
|  4>     # printlevel mini
|  5>     print[ P_Basis ] 0
|  6>     print[ P_SCFInfo ] 1
|  7>     print[ P_SCFIterInfo ] 1
|  8>     print[ P_OrbEn ] 0
|  9>     print[ P_Cartesian ] 0
| 10> end
| 11> *xyz 0 1
| 12>  C        0.8795000000    -0.0068480000    -0.0193290000
| 13>  C        2.3722960000    -0.0979680000    -0.0203110000
| 14>  C        3.1053520000    -0.8727750000    -1.0158130000
| 15>  O        3.0510120000     0.5423680000    -1.0910580000
| 16>  H        0.4503000000    -0.7499700000     0.6579730000
| 17>  H        0.4840150000    -0.1782590000    -1.0221370000
| 18>  H        0.5536580000     0.9814530000     0.3141610000
| 19>  H        2.8547500000     0.0496970000     0.9458500000
| 20>  H        2.5503550000    -1.3995810000    -1.7892600000
| 21>  H        4.0798620000    -1.2895170000    -0.7725670000
| 22> *
| 23>
| 24>                          ****END OF INPUT****
 Total Charge           Charge          ....    0
 Multiplicity           Mult            ....    1
 Number of Electrons    NEL             ....   32
 Basis Dimension        Dim             ....   86

MULLIKEN ATOMIC CHARGES
-----------------------
   0 C :    0.069654
   1 C :   -0.054040
   2 C :    0.132559
   3 O :   -0.296769
   4 H :    0.028875
   5 H :    0.013772
   6 H :    0.032713
   7 H :    0.019580
   8 H :    0.025472
   9 H :    0.028184
Sum of atomic charges:    0.0000000

LOEWDIN ATOMIC CHARGES
----------------------
   0 C :   -0.068902
   1 C :    0.033730
   2 C :    0.050871
   3 O :   -0.161305
   4 H :    0.035498
   5 H :    0.033031
   6 H :    0.035394
   7 H :    0.014529
   8 H :    0.012744
   9 H :    0.014410

  Mayer bond orders larger than 0.1
B(  0-C ,  1-C ) :   1.0888 B(  0-C ,  4-H ) :   0.9525 B(  0-C ,  5-H ) :   0.9452
B(  0-C ,  6-H ) :   0.9536 B(  1-C ,  2-C ) :   1.0992 B(  1-C ,  3-O ) :   0.9786
B(  1-C ,  7-H ) :   0.9347 B(  2-C ,  3-O ) :   0.9956 B(  2-C ,  8-H ) :   0.9343
B(  2-C ,  9-H ) :   0.9387

FINAL SINGLE POINT ENERGY      -192.722981582145

DIPOLE MOMENT
-------------
                                X             Y             Z
Electronic contribution:      2.61900       1.32863      -1.16523
Nuclear contribution   :     -2.89825      -1.86716       1.51219
                        -----------------------------------------
Total Dipole Moment    :     -0.27925      -0.53853       0.34696
                        -----------------------------------------
Magnitude (a.u.)       :      0.69884
Magnitude (Debye)      :      1.77631

                             ****ORCA TERMINATED NORMALLY****
TOTAL RUN TIME: 0 days 0 hours 0 minutes 4 seconds 15 msec
