                         Program Version 3.0.3 - RELEASE   -
|  1> ! RI PBE def2-SVP def2-SVP/J NBO PAL2
|  2> % maxcore 2000
|  3> % output
|  4>     # printlevel mini
|  5>     print[ P_Basis ] 0
|  6>     print[ P_SCFInfo ] 1
|  7>     print[ P_SCFIterInfo ] 1
|  8>     print[ P_OrbEn ] 0
|  9>     print[ P_Cartesian ] 0
| 10> end
| 11> *xyz 0 1
| 12>  C        1.0242200000     0.0992090000    -0.0740110000
| 13>  C        2.5425500000     0.0436440000    -0.0655940000
| 14>  C        3.0762540000    -1.0712950000     0.8127460000
| 15>  O        4.4862280000    -1.1047800000     0.8788200000
| 16>  H        0.6589340000     0.9006550000    -0.7190700000
| 17>  H        0.6302340000     0.2778340000     0.9302100000
| 18>  H        0.5930360000    -0.8386250000    -0.4353530000
| 19>  H        2.9584930000     0.9930240000     0.2856780000
| 20>  H        2.9124580000    -0.0999220000    -1.0888770000
| 21>  H        2.6753120000    -2.0379030000     0.4721530000
| 22>  H        2.7358480000    -0.9301550000     1.8425110000
| 23>  H        4.8258420000    -1.2271970000    -0.0113130000
| 24> *
| 25>
| 26>                          ****END OF INPUT****
 Total Charge           Charge          ....    0
 Multiplicity           Mult            ....    1
 Number of Electrons    NEL             ....   34
 Basis Dimension        Dim             ....   96

MULLIKEN ATOMIC CHARGES
-----------------------
   0 C :   -0.036406
   1 C :   -0.071854
   2 C :    0.154732
   3 O :   -0.286048
   4 H :    0.024369
   5 H :    0.022408
   6 H :    0.019430
   7 H :    0.016525
   8 H :    0.003467
   9 H :   -0.007513
  10 H :    0.010433
  11 H :    0.150457
Sum of atomic charges:    0.0000000

LOEWDIN ATOMIC CHARGES
----------------------
   0 C :   -0.064695
   1 C :   -0.070115
   2 C :    0.051638
   3 O :   -0.124358
   4 H :    0.028624
   5 H :    0.026056
   6 H :    0.024269
   7 H :    0.024611
   8 H :    0.017870
   9 H :    0.000853
  10 H :    0.019739
  11 H :    0.065507

  Mayer bond orders larger than 0.1
B(  0-C ,  1-C ) :   1.0957 B(  0-C ,  4-H ) :   0.9612 B(  0-C ,  5-H ) :   0.9690
B(  0-C ,  6-H ) :   0.9675 B(  1-C ,  2-C ) :   1.0757 B(  1-C ,  7-H ) :   0.9349
B(  1-C ,  8-H ) :   0.9368 B(  2-C ,  3-O ) :   1.0642 B(  2-C ,  9-H ) :   0.9411
B(  2-C , 10-H ) :   0.9406 B(  3-O , 11-H ) :   0.9871

FINAL SINGLE POINT ENERGY      -193.950378006903

DIPOLE MOMENT
-------------
                                X             Y             Z
Electronic contribution:      4.00266      -1.19590       1.18419
Nuclear contribution   :     -4.29119       1.18546      -1.72208
                        -----------------------------------------
Total Dipole Moment    :     -0.28853      -0.01044      -0.53789
                        -----------------------------------------
Magnitude (a.u.)       :      0.61048
Magnitude (Debye)      :      1.55172

                             ****ORCA TERMINATED NORMALLY****
TOTAL RUN TIME: 0 days 0 hours 0 minutes 4 seconds 30 msec
