                         Program Version 3.0.3 - RELEASE   -
|  1> ! RI PBE def2-SVP def2-SVP/J NBO PAL2
|  2> % maxcore 2000
|  3> % output
|  4>     # printlevel mini
|  5>     print[ P_Basis ] 0
|  6>     print[ P_SCFInfo ] 1
|  7>     print[ P_SCFIterInfo ] 1
|  8>     print[ P_OrbEn ] 0
|  9>     print[ P_Cartesian ] 0
| 10> end
| 11> *xyz 0 1
| 12>  C        0.9116030000     0.0878800000    -0.0227060000
| 13>  C        2.2384160000     0.0068150000    -0.0146200000
| 14>  C        2.9759960000    -0.2850020000    -1.2498510000
| 15>  O        4.1742670000    -0.3741770000    -1.3217640000
| 16>  H        0.3382410000     0.3015710000     0.8713420000
| 17>  H        0.3533170000    -0.0604840000    -0.9428340000
| 18>  H        2.8275990000     0.1493160000     0.8857170000
| 19>  H        2.3344710000    -0.4240080000    -2.1479850000
| 20> *
| 21>
| 22>                          ****END OF INPUT****
 Total Charge           Charge          ....    0
 Multiplicity           Mult            ....    1
 Number of Electrons    NEL             ....   30
 Basis Dimension        Dim             ....   76

MULLIKEN ATOMIC CHARGES
-----------------------
   0 C :   -0.001582
   1 C :   -0.044375
   2 C :    0.119499
   3 O :   -0.162827
   4 H :    0.049436
   5 H :    0.041908
   6 H :    0.019659
   7 H :   -0.021718
Sum of atomic charges:   -0.0000000

LOEWDIN ATOMIC CHARGES
----------------------
   0 C :    0.008268
   1 C :   -0.064244
   2 C :    0.071295
   3 O :   -0.105633
   4 H :    0.034698
   5 H :    0.030666
   6 H :    0.037114
   7 H :   -0.012163

  Mayer bond orders larger than 0.1
B(  0-C ,  1-C ) :   1.8761 B(  0-C ,  3-O ) :   0.1096 B(  0-C ,  4-H ) :   0.9446
B(  0-C ,  5-H ) :   0.9464 B(  1-C ,  2-C ) :   1.0328 B(  1-C ,  6-H ) :   0.9601
B(  2-C ,  3-O ) :   2.1134 B(  2-C ,  7-H ) :   0.9284

FINAL SINGLE POINT ENERGY      -191.534964999924

DIPOLE MOMENT
-------------
                                X             Y             Z
Electronic contribution:      3.20489      -0.38885      -0.95496
Nuclear contribution   :     -4.27546       0.52111       1.27949
                        -----------------------------------------
Total Dipole Moment    :     -1.07057       0.13226       0.32453
                        -----------------------------------------
Magnitude (a.u.)       :      1.12647
Magnitude (Debye)      :      2.86326

                             ****ORCA TERMINATED NORMALLY****
TOTAL RUN TIME: 0 days 0 hours 0 minutes 3 seconds 311 msec
