                         Program Version 3.0.3 - RELEASE   -
|  1> ! RI PBE def2-SVP def2-SVP/J NBO PAL2
|  2> % maxcore 2000
|  3> % output
|  4>     # printlevel mini
|  5>     print[ P_Basis ] 0
|  6>     print[ P_SCFInfo ] 1
|  7>     print[ P_SCFIterInfo ] 1
|  8>     print[ P_OrbEn ] 0
|  9>     print[ P_Cartesian ] 0
| 10> end
| 11> *xyz 0 1
| 12>  C        0.9870220000     0.0778190000     0.0780910000
| 13>  C        2.5037680000     0.0751190000     0.0332580000
| 14>  C        3.0454010000    -0.7588930000    -1.1128630000
| 15>  O        3.0177830000     1.3968800000    -0.0069590000
| 16>  H        0.5929610000    -0.9335830000     0.2058950000
| 17>  H        0.5750910000     0.4792490000    -0.8543720000
| 18>  H        0.6309550000     0.6962110000     0.9038740000
| 19>  H        2.8846100000    -0.3303020000     0.9763150000
| 20>  H        2.6809320000    -0.3767570000    -2.0727860000
| 21>  H        2.7271820000    -1.8011250000    -1.0289390000
| 22>  H        4.1363030000    -0.7286810000    -1.1242790000
| 23>  H        2.7138730000     1.8085530000    -0.8214350000
| 24> *
| 25>
| 26>                          ****END OF INPUT****
 Total Charge           Charge          ....    0
 Multiplicity           Mult            ....    1
 Number of Electrons    NEL             ....   34
 Basis Dimension        Dim             ....   96

MULLIKEN ATOMIC CHARGES
-----------------------
   0 C :    0.001871
   1 C :    0.048263
   2 C :   -0.015113
   3 O :   -0.286486
   4 H :    0.013733
   5 H :    0.001503
   6 H :    0.029252
   7 H :    0.003926
   8 H :    0.003331
   9 H :    0.017341
  10 H :    0.035808
  11 H :    0.146573
Sum of atomic charges:   -0.0000000

LOEWDIN ATOMIC CHARGES
----------------------
   0 C :   -0.077938
   1 C :    0.037945
   2 C :   -0.081294
   3 O :   -0.118981
   4 H :    0.028226
   5 H :    0.019599
   6 H :    0.028830
   7 H :    0.021997
   8 H :    0.020192
   9 H :    0.029079
  10 H :    0.029901
  11 H :    0.062442

  Mayer bond orders larger than 0.1
B(  0-C ,  1-C ) :   1.0836 B(  0-C ,  4-H ) :   0.9514 B(  0-C ,  5-H ) :   0.9552
B(  0-C ,  6-H ) :   0.9598 B(  1-C ,  2-C ) :   1.0839 B(  1-C ,  3-O ) :   1.0244
B(  1-C ,  7-H ) :   0.9153 B(  2-C ,  8-H ) :   0.9540 B(  2-C ,  9-H ) :   0.9508
B(  2-C , 10-H ) :   0.9601 B(  3-O , 11-H ) :   0.9871

FINAL SINGLE POINT ENERGY      -193.955998312527

DIPOLE MOMENT
-------------
                                X             Y             Z
Electronic contribution:      1.73169       2.59795       1.17392
Nuclear contribution   :     -2.06365      -2.82865      -1.57940
                        -----------------------------------------
Total Dipole Moment    :     -0.33196      -0.23070      -0.40548
                        -----------------------------------------
Magnitude (a.u.)       :      0.57257
Magnitude (Debye)      :      1.45535

                             ****ORCA TERMINATED NORMALLY****
TOTAL RUN TIME: 0 days 0 hours 0 minutes 4 seconds 209 msec
