                         Program Version 3.0.3 - RELEASE   -
|  1> ! RI PBE def2-SVP def2-SVP/J NBO PAL2
|  2> % maxcore 2000
|  3> % output
|  4>     # printlevel mini
|  5>     print[ P_Basis ] 0
|  6>     print[ P_SCFInfo ] 1
|  7>     print[ P_SCFIterInfo ] 1
|  8>     print[ P_OrbEn ] 0
|  9>     print[ P_Cartesian ] 0
| 10> end
| 11> *xyz 0 1
| 12>  C        0.8895290000     0.0175930000     0.0420910000
| 13>  C        2.4003810000     0.0109300000     0.0537690000
| 14>  C        3.1441520000     0.6673090000    -1.0858920000
| 15>  O        3.0033120000    -0.5104060000     0.9586250000
| 16>  H        0.4614510000     0.5174570000    -0.8256840000
| 17>  H        0.5353640000     0.5048930000     0.9534110000
| 18>  H        0.5354190000    -1.0152360000     0.0777400000
| 19>  H        2.4909040000     1.1022760000    -1.8410210000
| 20>  H        3.7944100000    -0.0760900000    -1.5527140000
| 21>  H        3.7944780000     1.4440850000    -0.6771230000
| 22> *
| 23>
| 24>                          ****END OF INPUT****
 Total Charge           Charge          ....    0
 Multiplicity           Mult            ....    1
 Number of Electrons    NEL             ....   32
 Basis Dimension        Dim             ....   86

MULLIKEN ATOMIC CHARGES
-----------------------
   0 C :    0.022279
   1 C :   -0.109068
   2 C :    0.015422
   3 O :   -0.178744
   4 H :    0.016975
   5 H :    0.053362
   6 H :    0.052234
   7 H :    0.017365
   8 H :    0.055491
   9 H :    0.054684
Sum of atomic charges:    0.0000000

LOEWDIN ATOMIC CHARGES
----------------------
   0 C :   -0.092963
   1 C :    0.054348
   2 C :   -0.094717
   3 O :   -0.130679
   4 H :    0.026799
   5 H :    0.052560
   6 H :    0.052210
   7 H :    0.026928
   8 H :    0.052956
   9 H :    0.052558

  Mayer bond orders larger than 0.1
B(  0-C ,  1-C ) :   1.0188 B(  0-C ,  4-H ) :   0.9489 B(  0-C ,  5-H ) :   0.9436
B(  0-C ,  6-H ) :   0.9443 B(  1-C ,  2-C ) :   1.0158 B(  1-C ,  3-O ) :   2.1508
B(  2-C ,  7-H ) :   0.9486 B(  2-C ,  8-H ) :   0.9436 B(  2-C ,  9-H ) :   0.9444

FINAL SINGLE POINT ENERGY      -192.763375538830

DIPOLE MOMENT
-------------
                                X             Y             Z
Electronic contribution:      1.90217      -1.64887       2.85985
Nuclear contribution   :     -2.37760       2.05539      -3.56846
                        -----------------------------------------
Total Dipole Moment    :     -0.47543       0.40652      -0.70861
                        -----------------------------------------
Magnitude (a.u.)       :      0.94521
Magnitude (Debye)      :      2.40253

                             ****ORCA TERMINATED NORMALLY****
TOTAL RUN TIME: 0 days 0 hours 0 minutes 3 seconds 836 msec
