                         Program Version 3.0.3 - RELEASE   -
|  1> ! RI PBE def2-SVP def2-SVP/J NBO PAL2
|  2> % maxcore 2000
|  3> % output
|  4>     # printlevel mini
|  5>     print[ P_Basis ] 0
|  6>     print[ P_SCFInfo ] 1
|  7>     print[ P_SCFIterInfo ] 1
|  8>     print[ P_OrbEn ] 0
|  9>     print[ P_Cartesian ] 0
| 10> end
| 11> *xyz 0 1
| 12>  C        0.9319330000    -0.1421550000    -0.0605620000
| 13>  C        2.4469790000    -0.0028480000     0.0305450000
| 14>  C        2.9586840000     1.0845120000    -0.8660590000
| 15>  O        3.6630320000     1.9922680000    -0.5206090000
| 16>  H        0.5846270000    -0.9893570000     0.5325430000
| 17>  H        0.6093990000    -0.3050600000    -1.0923240000
| 18>  H        0.4312040000     0.7550720000     0.3093940000
| 19>  H        2.9189190000    -0.9367460000    -0.3017950000
| 20>  H        2.7813760000     0.1976390000     1.0500890000
| 21>  H        2.6278460000     1.0026640000    -1.9275240000
| 22> *
| 23>
| 24>                          ****END OF INPUT****
 Total Charge           Charge          ....    0
 Multiplicity           Mult            ....    1
 Number of Electrons    NEL             ....   32
 Basis Dimension        Dim             ....   86

MULLIKEN ATOMIC CHARGES
-----------------------
   0 C :   -0.058800
   1 C :   -0.009045
   2 C :    0.066067
   3 O :   -0.156933
   4 H :    0.036378
   5 H :    0.030644
   6 H :    0.040956
   7 H :    0.038881
   8 H :    0.028601
   9 H :   -0.016750
Sum of atomic charges:   -0.0000000

LOEWDIN ATOMIC CHARGES
----------------------
   0 C :   -0.058882
   1 C :   -0.082223
   2 C :    0.088580
   3 O :   -0.105394
   4 H :    0.033591
   5 H :    0.028001
   6 H :    0.031748
   7 H :    0.046023
   8 H :    0.033953
   9 H :   -0.015398

  Mayer bond orders larger than 0.1
B(  0-C ,  1-C ) :   1.0856 B(  0-C ,  4-H ) :   0.9630 B(  0-C ,  5-H ) :   0.9680
B(  0-C ,  6-H ) :   0.9712 B(  1-C ,  2-C ) :   0.9781 B(  1-C ,  7-H ) :   0.9127
B(  1-C ,  8-H ) :   0.9304 B(  2-C ,  3-O ) :   2.1901 B(  2-C ,  9-H ) :   0.9155

FINAL SINGLE POINT ENERGY      -192.754369133332

DIPOLE MOMENT
-------------
                                X             Y             Z
Electronic contribution:      4.07707       3.59550      -0.70577
Nuclear contribution   :     -4.67455      -4.39615       0.64634
                        -----------------------------------------
Total Dipole Moment    :     -0.59748      -0.80066      -0.05943
                        -----------------------------------------
Magnitude (a.u.)       :      1.00078
Magnitude (Debye)      :      2.54379

                             ****ORCA TERMINATED NORMALLY****
TOTAL RUN TIME: 0 days 0 hours 0 minutes 3 seconds 713 msec
