                         Program Version 3.0.3 - RELEASE   -
|  1> ! RI PBE def2-SVP def2-SVP/J NBO PAL2
|  2> % maxcore 2000
|  3> % output
|  4>     # printlevel mini
|  5>     print[ P_Basis ] 0
|  6>     print[ P_SCFInfo ] 1
|  7>     print[ P_SCFIterInfo ] 1
|  8>     print[ P_OrbEn ] 0
|  9>     print[ P_Cartesian ] 0
| 10> end
| 11> *xyz 0 1
| 12>  C        0.9914980000    -0.0350400000     0.0900130000
| 13>  C        2.4977850000    -0.0844280000     0.0595400000
| 14>  O        2.9041990000    -1.1060710000    -0.8156890000
| 15>  C        4.2964470000    -1.2176100000    -0.8995030000
| 16>  H        0.6507040000     0.7532300000     0.7648980000
| 17>  H        0.5831720000    -0.9866100000     0.4355300000
| 18>  H        0.5938610000     0.1668870000    -0.9063350000
| 19>  H        2.8992560000    -0.2732010000     1.0679820000
| 20>  H        2.9099470000     0.8811270000    -0.2745230000
| 21>  H        4.5226880000    -2.0267440000    -1.5943670000
| 22>  H        4.7431630000    -1.4524550000     0.0773010000
| 23>  H        4.7550500000    -0.2903870000    -1.2720570000
| 24> *
| 25>
| 26>                          ****END OF INPUT****
 Total Charge           Charge          ....    0
 Multiplicity           Mult            ....    1
 Number of Electrons    NEL             ....   34
 Basis Dimension        Dim             ....   96

MULLIKEN ATOMIC CHARGES
-----------------------
   0 C :   -0.021922
   1 C :    0.132332
   2 O :   -0.351115
   3 C :    0.145646
   4 H :    0.019207
   5 H :    0.030139
   6 H :    0.029554
   7 H :   -0.007522
   8 H :   -0.010381
   9 H :    0.031768
  10 H :    0.001088
  11 H :    0.001206
Sum of atomic charges:   -0.0000000

LOEWDIN ATOMIC CHARGES
----------------------
   0 C :   -0.073515
   1 C :    0.055761
   2 O :   -0.153571
   3 C :    0.048258
   4 H :    0.031510
   5 H :    0.029866
   6 H :    0.029710
   7 H :    0.001735
   8 H :    0.001325
   9 H :    0.022329
  10 H :    0.003333
  11 H :    0.003258

  Mayer bond orders larger than 0.1
B(  0-C ,  1-C ) :   1.1159 B(  0-C ,  4-H ) :   0.9554 B(  0-C ,  5-H ) :   0.9650
B(  0-C ,  6-H ) :   0.9649 B(  1-C ,  2-O ) :   1.0175 B(  1-C ,  7-H ) :   0.9311
B(  1-C ,  8-H ) :   0.9294 B(  2-O ,  3-C ) :   1.0275 B(  3-C ,  9-H ) :   0.9769
B(  3-C , 10-H ) :   0.9550 B(  3-C , 11-H ) :   0.9549

FINAL SINGLE POINT ENERGY      -193.940487533813

DIPOLE MOMENT
-------------
                                X             Y             Z
Electronic contribution:      0.13482      -1.34140      -1.15167
Nuclear contribution   :      0.11352       1.58632       1.36644
                        -----------------------------------------
Total Dipole Moment    :      0.24834       0.24492       0.21476
                        -----------------------------------------
Magnitude (a.u.)       :      0.40961
Magnitude (Debye)      :      1.04116

                             ****ORCA TERMINATED NORMALLY****
TOTAL RUN TIME: 0 days 0 hours 0 minutes 4 seconds 272 msec
