                         Program Version 3.0.3 - RELEASE   -
|  1> ! RI PBE def2-SVP def2-SVP/J NBO PAL2
|  2> % maxcore 2000
|  3> % output
|  4>     # printlevel mini
|  5>     print[ P_Basis ] 0
|  6>     print[ P_SCFInfo ] 1
|  7>     print[ P_SCFIterInfo ] 1
|  8>     print[ P_OrbEn ] 0
|  9>     print[ P_Cartesian ] 0
| 10> end
| 11> *xyz 0 1
| 12>  C        1.0535470000     0.0500330000     0.1274280000
| 13>  O        2.4192690000    -0.1257000000    -0.1730860000
| 14>  C        2.9307760000     0.7536030000    -1.0598140000
| 15>  C        4.1973830000     0.7260730000    -1.4504480000
| 16>  H        0.7856980000    -0.7217830000     0.8473730000
| 17>  H        0.4306260000    -0.0645470000    -0.7666970000
| 18>  H        0.8666690000     1.0335770000     0.5727790000
| 19>  H        2.2292630000     1.4958290000    -1.4385570000
| 20>  H        4.8910100000    -0.0136610000    -1.0711980000
| 21>  H        4.5506480000     1.4566850000    -2.1636910000
| 22> *
| 23>
| 24>                          ****END OF INPUT****
 Total Charge           Charge          ....    0
 Multiplicity           Mult            ....    1
 Number of Electrons    NEL             ....   32
 Basis Dimension        Dim             ....   86

MULLIKEN ATOMIC CHARGES
-----------------------
   0 C :    0.134148
   1 O :   -0.269838
   2 C :    0.082364
   3 C :   -0.080754
   4 H :    0.041676
   5 H :    0.025128
   6 H :    0.023830
   7 H :   -0.007226
   8 H :    0.027008
   9 H :    0.023663
Sum of atomic charges:   -0.0000000

LOEWDIN ATOMIC CHARGES
----------------------
   0 C :    0.058296
   1 O :   -0.081419
   2 C :    0.027351
   3 C :   -0.129949
   4 H :    0.028533
   5 H :    0.014225
   6 H :    0.013897
   7 H :    0.010492
   8 H :    0.028352
   9 H :    0.030223

  Mayer bond orders larger than 0.1
B(  0-C ,  1-O ) :   0.9834 B(  0-C ,  4-H ) :   0.9775 B(  0-C ,  5-H ) :   0.9626
B(  0-C ,  6-H ) :   0.9629 B(  1-O ,  2-C ) :   1.1304 B(  2-C ,  3-C ) :   1.9261
B(  2-C ,  7-H ) :   0.9423 B(  3-C ,  8-H ) :   0.9484 B(  3-C ,  9-H ) :   0.9389

FINAL SINGLE POINT ENERGY      -192.721934112778

DIPOLE MOMENT
-------------
                                X             Y             Z
Electronic contribution:      1.05963      -0.87067       0.37050
Nuclear contribution   :     -1.71833       1.08520      -0.33003
                        -----------------------------------------
Total Dipole Moment    :     -0.65870       0.21453       0.04047
                        -----------------------------------------
Magnitude (a.u.)       :      0.69394
Magnitude (Debye)      :      1.76386

                             ****ORCA TERMINATED NORMALLY****
TOTAL RUN TIME: 0 days 0 hours 0 minutes 4 seconds 72 msec
