                         Program Version 3.0.3 - RELEASE   -
|  1> ! RI PBE def2-SVP def2-SVP/J NBO PAL2
|  2> % maxcore 2000
|  3> % output
|  4>     # printlevel mini
|  5>     print[ P_Basis ] 0
|  6>     print[ P_SCFInfo ] 1
|  7>     print[ P_SCFIterInfo ] 1
|  8>     print[ P_OrbEn ] 0
|  9>     print[ P_Cartesian ] 0
| 10> end
| 11> *xyz 0 1
| 12>  O        0.9998600000     0.0552690000    -0.0288520000
| 13>  C        2.3893030000    -0.0404750000    -0.0478200000
| 14>  C        3.0556580000    -0.8458290000    -1.1182390000
| 15>  C        3.0770010000     0.6597750000    -1.1607200000
| 16>  H        0.6464390000    -0.7774720000     0.2953950000
| 17>  H        2.8630300000    -0.0146980000     0.9314550000
| 18>  H        2.4061970000    -1.3446480000    -1.8271000000
| 19>  H        3.9695360000    -1.3755240000    -0.8785800000
| 20>  H        2.4340470000     1.1379500000    -1.8886340000
| 21>  H        4.0054200000     1.1767520000    -0.9545060000
| 22> *
| 23>
| 24>                          ****END OF INPUT****
 Total Charge           Charge          ....    0
 Multiplicity           Mult            ....    1
 Number of Electrons    NEL             ....   32
 Basis Dimension        Dim             ....   86

MULLIKEN ATOMIC CHARGES
-----------------------
   0 O :   -0.241192
   1 C :    0.027681
   2 C :   -0.066821
   3 C :   -0.047262
   4 H :    0.159691
   5 H :    0.013305
   6 H :    0.036369
   7 H :    0.034111
   8 H :    0.045973
   9 H :    0.038144
Sum of atomic charges:   -0.0000000

LOEWDIN ATOMIC CHARGES
----------------------
   0 O :   -0.101372
   1 C :    0.029102
   2 C :   -0.071042
   3 C :   -0.053300
   4 H :    0.074018
   5 H :    0.007250
   6 H :    0.028362
   7 H :    0.025590
   8 H :    0.033547
   9 H :    0.027844

  Mayer bond orders larger than 0.1
B(  0-O ,  1-C ) :   1.1335 B(  0-O ,  4-H ) :   0.9823 B(  1-C ,  2-C ) :   0.9857
B(  1-C ,  3-C ) :   0.9948 B(  1-C ,  5-H ) :   0.9455 B(  2-C ,  3-C ) :   1.0259
B(  2-C ,  6-H ) :   0.9466 B(  2-C ,  7-H ) :   0.9458 B(  3-C ,  8-H ) :   0.9488
B(  3-C ,  9-H ) :   0.9509

FINAL SINGLE POINT ENERGY      -192.723859739688

DIPOLE MOMENT
-------------
                                X             Y             Z
Electronic contribution:     -2.05941       0.33122       1.05236
Nuclear contribution   :      2.23029      -0.82700      -0.87129
                        -----------------------------------------
Total Dipole Moment    :      0.17088      -0.49578       0.18106
                        -----------------------------------------
Magnitude (a.u.)       :      0.55478
Magnitude (Debye)      :      1.41014

                             ****ORCA TERMINATED NORMALLY****
TOTAL RUN TIME: 0 days 0 hours 0 minutes 3 seconds 800 msec
