                         Program Version 3.0.3 - RELEASE   -
|  1> ! RI PBE def2-SVP def2-SVP/J NBO PAL2
|  2> % maxcore 2000
|  3> % output
|  4>     # printlevel mini
|  5>     print[ P_Basis ] 0
|  6>     print[ P_SCFInfo ] 1
|  7>     print[ P_SCFIterInfo ] 1
|  8>     print[ P_OrbEn ] 0
|  9>     print[ P_Cartesian ] 0
| 10> end
| 11> *xyz 0 1
| 12>  O        0.9060320000     0.1544980000    -0.0306240000
| 13>  C        2.1059860000     0.0852160000    -0.0031990000
| 14>  C        2.8364370000    -1.0726250000     0.4557630000
| 15>  C        3.4909400000    -2.0096910000     0.8272050000
| 16>  H        2.7447370000     0.9248830000    -0.3360570000
| 17>  H        4.0534680000    -2.8510820000     1.1607220000
| 18> *
| 19>
| 20>                          ****END OF INPUT****
 Total Charge           Charge          ....    0
 Multiplicity           Mult            ....    1
 Number of Electrons    NEL             ....   28
 Basis Dimension        Dim             ....   66

MULLIKEN ATOMIC CHARGES
-----------------------
   0 O :   -0.144552
   1 C :    0.089449
   2 C :    0.322750
   3 C :   -0.321686
   4 H :    0.024922
   5 H :    0.029117
Sum of atomic charges:   -0.0000000

LOEWDIN ATOMIC CHARGES
----------------------
   0 O :   -0.080033
   1 C :    0.073454
   2 C :   -0.050211
   3 C :    0.003532
   4 H :    0.007445
   5 H :    0.045813

  Mayer bond orders larger than 0.1
B(  0-O ,  1-C ) :   2.1335 B(  0-O ,  3-C ) :   0.1172 B(  1-C ,  2-C ) :   0.9200
B(  1-C ,  4-H ) :   0.9346 B(  2-C ,  3-C ) :   2.3893 B(  3-C ,  5-H ) :   1.0754

FINAL SINGLE POINT ENERGY      -190.280523163144

DIPOLE MOMENT
-------------
                                X             Y             Z
Electronic contribution:     -1.12979       0.24296      -0.09662
Nuclear contribution   :      2.10009      -0.56380       0.22344
                        -----------------------------------------
Total Dipole Moment    :      0.97030      -0.32085       0.12682
                        -----------------------------------------
Magnitude (a.u.)       :      1.02981
Magnitude (Debye)      :      2.61758

                             ****ORCA TERMINATED NORMALLY****
TOTAL RUN TIME: 0 days 0 hours 0 minutes 3 seconds 99 msec
