                         Program Version 3.0.3 - RELEASE   -
|  1> ! RI PBE def2-SVP def2-SVP/J NBO PAL2
|  2> % maxcore 2000
|  3> % output
|  4>     # printlevel mini
|  5>     print[ P_Basis ] 0
|  6>     print[ P_SCFInfo ] 1
|  7>     print[ P_SCFIterInfo ] 1
|  8>     print[ P_OrbEn ] 0
|  9>     print[ P_Cartesian ] 0
| 10> end
| 11> *xyz 0 1
| 12>  O        1.0174890000     0.1418980000     0.2351090000
| 13>  C        2.3715700000    -0.1241710000    -0.0816850000
| 14>  C        2.8110570000    -1.3282100000     0.6759850000
| 15>  C        3.4098140000    -2.3760520000     0.1309230000
| 16>  H        0.7867900000     1.0037620000    -0.1185530000
| 17>  H        3.0059200000     0.7284020000     0.2053430000
| 18>  H        2.5082050000    -0.2926190000    -1.1585120000
| 19>  H        2.6217890000    -1.2983930000     1.7464160000
| 20>  H        3.5938460000    -2.4299820000    -0.9377910000
| 21>  H        3.7412180000    -3.2162550000     0.7297560000
| 22> *
| 23>
| 24>                          ****END OF INPUT****
 Total Charge           Charge          ....    0
 Multiplicity           Mult            ....    1
 Number of Electrons    NEL             ....   32
 Basis Dimension        Dim             ....   86

MULLIKEN ATOMIC CHARGES
-----------------------
   0 O :   -0.286170
   1 C :    0.193946
   2 C :   -0.095431
   3 C :   -0.036673
   4 H :    0.154082
   5 H :    0.011247
   6 H :   -0.004653
   7 H :    0.016411
   8 H :    0.019637
   9 H :    0.027605
Sum of atomic charges:   -0.0000000

LOEWDIN ATOMIC CHARGES
----------------------
   0 O :   -0.130809
   1 C :    0.054575
   2 C :   -0.037982
   3 C :   -0.054733
   4 H :    0.069364
   5 H :    0.014516
   6 H :    0.007315
   7 H :    0.029616
   8 H :    0.022046
   9 H :    0.026091

  Mayer bond orders larger than 0.1
B(  0-O ,  1-C ) :   1.0701 B(  0-O ,  4-H ) :   0.9796 B(  1-C ,  2-C ) :   1.0591
B(  1-C ,  5-H ) :   0.9168 B(  1-C ,  6-H ) :   0.9300 B(  2-C ,  3-C ) :   2.0161
B(  2-C ,  7-H ) :   0.9549 B(  3-C ,  8-H ) :   0.9470 B(  3-C ,  9-H ) :   0.9472

FINAL SINGLE POINT ENERGY      -192.722123620238

DIPOLE MOMENT
-------------
                                X             Y             Z
Electronic contribution:     -1.79483       0.85573       0.54197
Nuclear contribution   :      2.06467      -0.37565      -0.81639
                        -----------------------------------------
Total Dipole Moment    :      0.26984       0.48008      -0.27442
                        -----------------------------------------
Magnitude (a.u.)       :      0.61531
Magnitude (Debye)      :      1.56398

                             ****ORCA TERMINATED NORMALLY****
TOTAL RUN TIME: 0 days 0 hours 0 minutes 4 seconds 224 msec
