                         Program Version 3.0.3 - RELEASE   -
|  1> ! RI PBE def2-SVP def2-SVP/J NBO PAL2
|  2> % maxcore 2000
|  3> % output
|  4>     # printlevel mini
|  5>     print[ P_Basis ] 0
|  6>     print[ P_SCFInfo ] 1
|  7>     print[ P_SCFIterInfo ] 1
|  8>     print[ P_OrbEn ] 0
|  9>     print[ P_Cartesian ] 0
| 10> end
| 11> *xyz 0 1
| 12>  O        0.8979970000     0.0164940000    -0.0371590000
| 13>  C        2.3105390000     0.0113740000    -0.0475310000
| 14>  C        2.7925360000    -0.5949160000    -1.2773020000
| 15>  C        3.2171510000    -1.0907660000    -2.2830500000
| 16>  H        0.6123640000     0.4220780000     0.7854420000
| 17>  H        2.7144000000    -0.5571640000     0.8019740000
| 18>  H        2.7144080000     1.0314180000     0.0187890000
| 19>  H        3.5861050000    -1.5322190000    -3.1784650000
| 20> *
| 21>
| 22>                          ****END OF INPUT****
 Total Charge           Charge          ....    0
 Multiplicity           Mult            ....    1
 Number of Electrons    NEL             ....   30
 Basis Dimension        Dim             ....   76

MULLIKEN ATOMIC CHARGES
-----------------------
   0 O :   -0.268809
   1 C :    0.218403
   2 C :    0.274088
   3 C :   -0.432968
   4 H :    0.157046
   5 H :    0.023608
   6 H :    0.023752
   7 H :    0.004879
Sum of atomic charges:   -0.0000000

LOEWDIN ATOMIC CHARGES
----------------------
   0 O :   -0.119428
   1 C :    0.050519
   2 C :   -0.030103
   3 C :   -0.065075
   4 H :    0.071897
   5 H :    0.027907
   6 H :    0.027982
   7 H :    0.036302

  Mayer bond orders larger than 0.1
B(  0-O ,  1-C ) :   1.1287 B(  0-O ,  4-H ) :   0.9782 B(  1-C ,  2-C ) :   1.0506
B(  1-C ,  5-H ) :   0.9079 B(  1-C ,  6-H ) :   0.9071 B(  2-C ,  3-C ) :   2.4231
B(  3-C ,  7-H ) :   1.0877

FINAL SINGLE POINT ENERGY      -191.475166631982

DIPOLE MOMENT
-------------
                                X             Y             Z
Electronic contribution:     -0.46277      -0.47999      -0.97707
Nuclear contribution   :      0.71220       0.78041       1.58290
                        -----------------------------------------
Total Dipole Moment    :      0.24943       0.30042       0.60583
                        -----------------------------------------
Magnitude (a.u.)       :      0.72077
Magnitude (Debye)      :      1.83205

                             ****ORCA TERMINATED NORMALLY****
TOTAL RUN TIME: 0 days 0 hours 0 minutes 3 seconds 376 msec
