                         Program Version 3.0.3 - RELEASE   -
|  1> ! RI PBE def2-SVP def2-SVP/J NBO PAL2
|  2> % maxcore 2000
|  3> % output
|  4>     # printlevel mini
|  5>     print[ P_Basis ] 0
|  6>     print[ P_SCFInfo ] 1
|  7>     print[ P_SCFIterInfo ] 1
|  8>     print[ P_OrbEn ] 0
|  9>     print[ P_Cartesian ] 0
| 10> end
| 11> *xyz 0 1
| 12>  C        1.0399450000     0.0547570000    -0.0672690000
| 13>  C        2.5328180000     0.0205400000    -0.0486690000
| 14>  N        3.1398420000    -0.9543390000     0.4808490000
| 15>  O        4.5150710000    -0.8099730000     0.4024470000
| 16>  H        0.6832500000     0.9597760000    -0.5588450000
| 17>  H        0.6336870000     0.0341520000     0.9464280000
| 18>  H        0.6337020000    -0.8067980000    -0.6018150000
| 19>  H        3.1045610000     0.8382410000    -0.4928040000
| 20>  H        4.8405440000    -1.6044560000     0.8339780000
| 21> *
| 22>
| 23>                          ****END OF INPUT****
 Total Charge           Charge          ....    0
 Multiplicity           Mult            ....    1
 Number of Electrons    NEL             ....   32
 Basis Dimension        Dim             ....   81

MULLIKEN ATOMIC CHARGES
-----------------------
   0 C :    0.024024
   1 C :   -0.081778
   2 N :   -0.063327
   3 O :   -0.181778
   4 H :    0.026396
   5 H :    0.047386
   6 H :    0.049631
   7 H :    0.009567
   8 H :    0.169879
Sum of atomic charges:   -0.0000000

LOEWDIN ATOMIC CHARGES
----------------------
   0 C :   -0.074553
   1 C :   -0.045306
   2 N :   -0.020692
   3 O :   -0.057434
   4 H :    0.034990
   5 H :    0.043706
   6 H :    0.044121
   7 H :    0.003192
   8 H :    0.071976

  Mayer bond orders larger than 0.1
B(  0-C ,  1-C ) :   1.0580 B(  0-C ,  4-H ) :   0.9587 B(  0-C ,  5-H ) :   0.9552
B(  0-C ,  6-H ) :   0.9552 B(  1-C ,  2-N ) :   1.8893 B(  1-C ,  3-O ) :   0.1144
B(  1-C ,  7-H ) :   0.9395 B(  2-N ,  3-O ) :   0.9920 B(  3-O ,  8-H ) :   0.9766

FINAL SINGLE POINT ENERGY      -208.727847556813

DIPOLE MOMENT
-------------
                                X             Y             Z
Electronic contribution:      3.99581      -1.51586       0.82519
Nuclear contribution   :     -4.11945       1.51364      -0.82218
                        -----------------------------------------
Total Dipole Moment    :     -0.12364      -0.00222       0.00301
                        -----------------------------------------
Magnitude (a.u.)       :      0.12370
Magnitude (Debye)      :      0.31442

                             ****ORCA TERMINATED NORMALLY****
TOTAL RUN TIME: 0 days 0 hours 0 minutes 3 seconds 587 msec
