                         Program Version 3.0.3 - RELEASE   -
|  1> ! RI PBE def2-SVP def2-SVP/J NBO PAL2
|  2> % maxcore 2000
|  3> % output
|  4>     # printlevel mini
|  5>     print[ P_Basis ] 0
|  6>     print[ P_SCFInfo ] 1
|  7>     print[ P_SCFIterInfo ] 1
|  8>     print[ P_OrbEn ] 0
|  9>     print[ P_Cartesian ] 0
| 10> end
| 11> *xyz 0 1
| 12>  C        0.9287420000     0.0174150000    -0.0531570000
| 13>  C        2.4371530000     0.0567800000    -0.0179400000
| 14>  N        3.0687050000    -0.8386820000    -0.8186990000
| 15>  O        3.0440090000     0.8388630000     0.6814260000
| 16>  H        0.5208990000    -0.7365540000    -0.7273930000
| 17>  H        0.5650300000     1.0013790000    -0.3524840000
| 18>  H        0.5650180000    -0.1705200000     0.9580070000
| 19>  H        2.5705700000    -1.4869350000    -1.3983970000
| 20>  H        4.0740640000    -0.8453460000    -0.8246550000
| 21> *
| 22>
| 23>                          ****END OF INPUT****
 Total Charge           Charge          ....    0
 Multiplicity           Mult            ....    1
 Number of Electrons    NEL             ....   32
 Basis Dimension        Dim             ....   81

MULLIKEN ATOMIC CHARGES
-----------------------
   0 C :   -0.004237
   1 C :   -0.055145
   2 N :   -0.060691
   3 O :   -0.213495
   4 H :    0.005190
   5 H :    0.053308
   6 H :    0.053374
   7 H :    0.105700
   8 H :    0.115995
Sum of atomic charges:   -0.0000000

LOEWDIN ATOMIC CHARGES
----------------------
   0 C :   -0.090637
   1 C :    0.021158
   2 N :    0.007652
   3 O :   -0.199221
   4 H :    0.022134
   5 H :    0.049759
   6 H :    0.049677
   7 H :    0.068100
   8 H :    0.071378

  Mayer bond orders larger than 0.1
B(  0-C ,  1-C ) :   1.0126 B(  0-C ,  4-H ) :   0.9503 B(  0-C ,  5-H ) :   0.9490
B(  0-C ,  6-H ) :   0.9495 B(  1-C ,  2-N ) :   1.2292 B(  1-C ,  3-O ) :   2.1070
B(  2-N ,  7-H ) :   0.9437 B(  2-N ,  8-H ) :   0.9420

FINAL SINGLE POINT ENERGY      -208.813844822641

DIPOLE MOMENT
-------------
                                X             Y             Z
Electronic contribution:      2.97856       1.09749       0.98209
Nuclear contribution   :     -3.35938      -2.11646      -1.89265
                        -----------------------------------------
Total Dipole Moment    :     -0.38082      -1.01897      -0.91057
                        -----------------------------------------
Magnitude (a.u.)       :      1.41861
Magnitude (Debye)      :      3.60582

                             ****ORCA TERMINATED NORMALLY****
TOTAL RUN TIME: 0 days 0 hours 0 minutes 3 seconds 660 msec
