                         Program Version 3.0.3 - RELEASE   -
|  1> ! RI PBE def2-SVP def2-SVP/J NBO PAL2
|  2> % maxcore 2000
|  3> % output
|  4>     # printlevel mini
|  5>     print[ P_Basis ] 0
|  6>     print[ P_SCFInfo ] 1
|  7>     print[ P_SCFIterInfo ] 1
|  8>     print[ P_OrbEn ] 0
|  9>     print[ P_Cartesian ] 0
| 10> end
| 11> *xyz 0 1
| 12>  C        0.9063890000    -0.0275010000     0.0195190000
| 13>  N        2.3494440000    -0.0011740000     0.0459920000
| 14>  C        3.0770200000     0.7993460000     0.8512740000
| 15>  O        4.2848290000     0.8362690000     0.8882560000
| 16>  H        0.5817170000    -0.7603570000    -0.7176700000
| 17>  H        0.4867240000     0.9405610000    -0.2669410000
| 18>  H        0.4867370000    -0.3196720000     0.9858780000
| 19>  H        2.8719280000    -0.6083320000    -0.5648010000
| 20>  H        2.4400110000     1.4391690000     1.4947930000
| 21> *
| 22>
| 23>                          ****END OF INPUT****
 Total Charge           Charge          ....    0
 Multiplicity           Mult            ....    1
 Number of Electrons    NEL             ....   32
 Basis Dimension        Dim             ....   81

MULLIKEN ATOMIC CHARGES
-----------------------
   0 C :    0.060413
   1 N :   -0.156436
   2 C :    0.112230
   3 O :   -0.224561
   4 H :    0.036557
   5 H :    0.043770
   6 H :    0.043786
   7 H :    0.115697
   8 H :   -0.031456
Sum of atomic charges:   -0.0000000

LOEWDIN ATOMIC CHARGES
----------------------
   0 C :    0.008111
   1 N :   -0.013329
   2 C :    0.045403
   3 O :   -0.183893
   4 H :    0.035282
   5 H :    0.027236
   6 H :    0.027237
   7 H :    0.073383
   8 H :   -0.019430

  Mayer bond orders larger than 0.1
B(  0-C ,  1-N ) :   1.0116 B(  0-C ,  4-H ) :   0.9741 B(  0-C ,  5-H ) :   0.9678
B(  0-C ,  6-H ) :   0.9678 B(  1-N ,  2-C ) :   1.2156 B(  1-N ,  7-H ) :   0.9311
B(  2-C ,  3-O ) :   2.0630 B(  2-C ,  8-H ) :   0.9188

FINAL SINGLE POINT ENERGY      -208.797215196485

DIPOLE MOMENT
-------------
                                X             Y             Z
Electronic contribution:      4.56256       0.72206       0.72633
Nuclear contribution   :     -5.94168      -1.19982      -1.20684
                        -----------------------------------------
Total Dipole Moment    :     -1.37912      -0.47776      -0.48051
                        -----------------------------------------
Magnitude (a.u.)       :      1.53659
Magnitude (Debye)      :      3.90570

                             ****ORCA TERMINATED NORMALLY****
TOTAL RUN TIME: 0 days 0 hours 0 minutes 3 seconds 698 msec
