                         Program Version 3.0.3 - RELEASE   -
|  1> ! RI PBE def2-SVP def2-SVP/J NBO PAL2
|  2> % maxcore 2000
|  3> % output
|  4>     # printlevel mini
|  5>     print[ P_Basis ] 0
|  6>     print[ P_SCFInfo ] 1
|  7>     print[ P_SCFIterInfo ] 1
|  8>     print[ P_OrbEn ] 0
|  9>     print[ P_Cartesian ] 0
| 10> end
| 11> *xyz 0 1
| 12>  C        1.0079540000    -0.1061110000     0.2263640000
| 13>  O        2.3930510000    -0.0987590000    -0.0549190000
| 14>  N        2.6421220000     0.7386740000    -1.1115840000
| 15>  C        3.8713810000     0.7820330000    -1.4056320000
| 16>  H        0.8812660000    -0.7854220000     1.0688960000
| 17>  H        0.4362060000    -0.4694540000    -0.6316500000
| 18>  H        0.6588590000     0.8929780000     0.5003190000
| 19>  H        4.1492210000     1.4237240000    -2.2326100000
| 20>  H        4.6260390000     0.2107390000    -0.8667630000
| 21> *
| 22>
| 23>                          ****END OF INPUT****
 Total Charge           Charge          ....    0
 Multiplicity           Mult            ....    1
 Number of Electrons    NEL             ....   32
 Basis Dimension        Dim             ....   81

MULLIKEN ATOMIC CHARGES
-----------------------
   0 C :    0.154084
   1 O :   -0.279064
   2 N :   -0.024641
   3 C :   -0.016632
   4 H :    0.034220
   5 H :    0.026127
   6 H :    0.023777
   7 H :    0.052478
   8 H :    0.029652
Sum of atomic charges:   -0.0000000

LOEWDIN ATOMIC CHARGES
----------------------
   0 C :    0.042981
   1 O :   -0.087175
   2 N :    0.007642
   3 C :   -0.047698
   4 H :    0.024661
   5 H :    0.013642
   6 H :    0.013267
   7 H :    0.026733
   8 H :    0.005948

  Mayer bond orders larger than 0.1
B(  0-C ,  1-O ) :   0.9708 B(  0-C ,  4-H ) :   0.9741 B(  0-C ,  5-H ) :   0.9689
B(  0-C ,  6-H ) :   0.9685 B(  1-O ,  2-N ) :   0.9743 B(  1-O ,  3-C ) :   0.1216
B(  2-N ,  3-C ) :   1.9379 B(  3-C ,  7-H ) :   0.9538 B(  3-C ,  8-H ) :   0.9316

FINAL SINGLE POINT ENERGY      -208.711496832730

DIPOLE MOMENT
-------------
                                X             Y             Z
Electronic contribution:      1.38401       0.17520      -0.48425
Nuclear contribution   :     -1.40726      -0.25254       0.58034
                        -----------------------------------------
Total Dipole Moment    :     -0.02325      -0.07734       0.09609
                        -----------------------------------------
Magnitude (a.u.)       :      0.12552
Magnitude (Debye)      :      0.31905

                             ****ORCA TERMINATED NORMALLY****
TOTAL RUN TIME: 0 days 0 hours 0 minutes 3 seconds 878 msec
