                         Program Version 3.0.3 - RELEASE   -
|  1> ! RI PBE def2-SVP def2-SVP/J NBO PAL2
|  2> % maxcore 2000
|  3> % output
|  4>     # printlevel mini
|  5>     print[ P_Basis ] 0
|  6>     print[ P_SCFInfo ] 1
|  7>     print[ P_SCFIterInfo ] 1
|  8>     print[ P_OrbEn ] 0
|  9>     print[ P_Cartesian ] 0
| 10> end
| 11> *xyz 0 1
| 12>  N        0.9711970000     0.0659050000     0.0618950000
| 13>  C        2.4239890000     0.0220650000     0.0643820000
| 14>  C        2.9784690000     1.2162360000    -0.6912190000
| 15>  O        4.3875060000     1.2079520000    -0.7643990000
| 16>  H        0.5870260000    -0.6501110000     0.6639490000
| 17>  H        0.6125340000    -0.1095490000    -0.8689870000
| 18>  H        2.8578720000    -0.8929680000    -0.3659640000
| 19>  H        2.7626330000     0.0753360000     1.1056560000
| 20>  H        2.5958790000     2.1402300000    -0.2394590000
| 21>  H        2.6261310000     1.1927070000    -1.7269330000
| 22>  H        4.7369730000     1.3235970000     0.1225690000
| 23> *
| 24>
| 25>                          ****END OF INPUT****
 Total Charge           Charge          ....    0
 Multiplicity           Mult            ....    1
 Number of Electrons    NEL             ....   34
 Basis Dimension        Dim             ....   91

MULLIKEN ATOMIC CHARGES
-----------------------
   0 N :   -0.222002
   1 C :    0.028809
   2 C :    0.147357
   3 O :   -0.287303
   4 H :    0.091002
   5 H :    0.089258
   6 H :   -0.002051
   7 H :   -0.004198
   8 H :    0.001466
   9 H :    0.005170
  10 H :    0.152492
Sum of atomic charges:   -0.0000000

LOEWDIN ATOMIC CHARGES
----------------------
   0 N :   -0.111029
   1 C :   -0.018803
   2 C :    0.045948
   3 O :   -0.122529
   4 H :    0.053625
   5 H :    0.051149
   6 H :   -0.001210
   7 H :    0.014431
   8 H :    0.004167
   9 H :    0.016903
  10 H :    0.067348

  Mayer bond orders larger than 0.1
B(  0-N ,  1-C ) :   1.0711 B(  0-N ,  4-H ) :   0.9650 B(  0-N ,  5-H ) :   0.9712
B(  1-C ,  2-C ) :   1.0630 B(  1-C ,  6-H ) :   0.9289 B(  1-C ,  7-H ) :   0.9332
B(  2-C ,  3-O ) :   1.0621 B(  2-C ,  8-H ) :   0.9402 B(  2-C ,  9-H ) :   0.9418
B(  3-O , 10-H ) :   0.9877

FINAL SINGLE POINT ENERGY      -209.962341402170

DIPOLE MOMENT
-------------
                                X             Y             Z
Electronic contribution:      1.79570       0.79458      -0.54708
Nuclear contribution   :     -2.04715      -1.21537       0.94046
                        -----------------------------------------
Total Dipole Moment    :     -0.25145      -0.42079       0.39338
                        -----------------------------------------
Magnitude (a.u.)       :      0.62852
Magnitude (Debye)      :      1.59757

                             ****ORCA TERMINATED NORMALLY****
TOTAL RUN TIME: 0 days 0 hours 0 minutes 4 seconds 113 msec
