                         Program Version 3.0.3 - RELEASE   -
|  1> ! RI PBE def2-SVP def2-SVP/J NBO PAL2
|  2> % maxcore 2000
|  3> % output
|  4>     # printlevel mini
|  5>     print[ P_Basis ] 0
|  6>     print[ P_SCFInfo ] 1
|  7>     print[ P_SCFIterInfo ] 1
|  8>     print[ P_OrbEn ] 0
|  9>     print[ P_Cartesian ] 0
| 10> end
| 11> *xyz 0 1
| 12>  C       -0.7618910000    -0.9892940000    -0.2491430000
| 13>  C       -1.1894430000     0.3841530000     0.2539000000
| 14>  C       -0.0111040000     1.2780940000    -0.1320490000
| 15>  C        1.2382210000     0.3837650000     0.0100910000
| 16>  C        0.7131470000    -1.0611070000     0.1436860000
| 17>  H       -0.8652710000    -1.0285050000    -1.3394120000
| 18>  H       -1.3543080000    -1.8090770000     0.1636670000
| 19>  H       -1.3022860000     0.3568660000     1.3436310000
| 20>  H       -2.1396050000     0.7256200000    -0.1632120000
| 21>  H        0.0488760000     2.1847210000     0.4735850000
| 22>  H       -0.1255250000     1.5994800000    -1.1715540000
| 23>  H        1.8313530000     0.6641540000     0.8831560000
| 24>  H        1.8942180000     0.4909780000    -0.8564950000
| 25>  H        0.7959580000    -1.3955190000     1.1820180000
| 26>  H        1.2779590000    -1.7722090000    -0.4626600000
| 27> *
| 28>
| 29>                          ****END OF INPUT****
 Total Charge           Charge          ....    0
 Multiplicity           Mult            ....    1
 Number of Electrons    NEL             ....   40
 Basis Dimension        Dim             ....  120

MULLIKEN ATOMIC CHARGES
-----------------------
   0 C :   -0.031032
   1 C :   -0.027854
   2 C :   -0.002397
   3 C :   -0.020900
   4 C :   -0.006719
   5 H :    0.013375
   6 H :    0.010096
   7 H :    0.014180
   8 H :    0.007241
   9 H :    0.006161
  10 H :    0.004536
  11 H :    0.009136
  12 H :    0.011079
  13 H :    0.004694
  14 H :    0.008403
Sum of atomic charges:   -0.0000000

LOEWDIN ATOMIC CHARGES
----------------------
   0 C :   -0.045355
   1 C :   -0.044980
   2 C :   -0.043717
   3 C :   -0.048071
   4 C :   -0.044237
   5 H :    0.022082
   6 H :    0.021867
   7 H :    0.022276
   8 H :    0.021191
   9 H :    0.022760
  10 H :    0.022505
  11 H :    0.023998
  12 H :    0.024219
  13 H :    0.022354
  14 H :    0.023108

  Mayer bond orders larger than 0.1
B(  0-C ,  1-C ) :   1.0814 B(  0-C ,  4-C ) :   1.1160 B(  0-C ,  5-H ) :   0.9390
B(  0-C ,  6-H ) :   0.9388 B(  1-C ,  2-C ) :   1.1156 B(  1-C ,  7-H ) :   0.9385
B(  1-C ,  8-H ) :   0.9390 B(  2-C ,  3-C ) :   1.1213 B(  2-C ,  9-H ) :   0.9347
B(  2-C , 10-H ) :   0.9319 B(  3-C ,  4-C ) :   1.1164 B(  3-C , 11-H ) :   0.9355
B(  3-C , 12-H ) :   0.9360 B(  4-C , 13-H ) :   0.9330 B(  4-C , 14-H ) :   0.9351

FINAL SINGLE POINT ENERGY      -196.128193645518

DIPOLE MOMENT
-------------
                                X             Y             Z
Electronic contribution:     -0.06867      -0.02056      -0.00090
Nuclear contribution   :      0.06709       0.02031      -0.00020
                        -----------------------------------------
Total Dipole Moment    :     -0.00159      -0.00024      -0.00109
                        -----------------------------------------
Magnitude (a.u.)       :      0.00194
Magnitude (Debye)      :      0.00494

                             ****ORCA TERMINATED NORMALLY****
TOTAL RUN TIME: 0 days 0 hours 0 minutes 5 seconds 535 msec
