                         Program Version 3.0.3 - RELEASE   -
|  1> ! RI PBE def2-SVP def2-SVP/J NBO PAL2
|  2> % maxcore 2000
|  3> % output
|  4>     # printlevel mini
|  5>     print[ P_Basis ] 0
|  6>     print[ P_SCFInfo ] 1
|  7>     print[ P_SCFIterInfo ] 1
|  8>     print[ P_OrbEn ] 0
|  9>     print[ P_Cartesian ] 0
| 10> end
| 11> *xyz 0 1
| 12>  C        1.0883810000     0.0000130000    -0.0512670000
| 13>  C        2.5896140000     0.0405630000    -0.0791580000
| 14>  C        3.3470080000    -0.7425120000    -1.1113460000
| 15>  C        3.3179560000     0.7566760000    -1.1742480000
| 16>  C        4.5600740000     1.5493910000    -0.8827320000
| 17>  H        0.6827930000    -0.0509820000    -1.0654330000
| 18>  H        0.7224070000    -0.8744230000     0.4944670000
| 19>  H        0.6725030000     0.8911590000     0.4276740000
| 20>  H        3.0613890000     0.0973020000     0.8983860000
| 21>  H        2.7713650000    -1.3009000000    -1.8409530000
| 22>  H        4.2782060000    -1.2153160000    -0.8201610000
| 23>  H        2.6819970000     1.1764230000    -1.9493210000
| 24>  H        5.2015380000     1.6257820000    -1.7654110000
| 25>  H        5.1454330000     1.0756420000    -0.0899140000
| 26>  H        4.3194460000     2.5649630000    -0.5554020000
| 27> *
| 28>
| 29>                          ****END OF INPUT****
 Total Charge           Charge          ....    0
 Multiplicity           Mult            ....    1
 Number of Electrons    NEL             ....   40
 Basis Dimension        Dim             ....  120

MULLIKEN ATOMIC CHARGES
-----------------------
   0 C :    0.074606
   1 C :   -0.160308
   2 C :    0.004309
   3 C :   -0.157188
   4 C :    0.065461
   5 H :    0.002031
   6 H :    0.021554
   7 H :    0.021902
   8 H :    0.015304
   9 H :    0.022716
  10 H :    0.022186
  11 H :    0.015135
  12 H :    0.024336
  13 H :    0.005924
  14 H :    0.022032
Sum of atomic charges:   -0.0000000

LOEWDIN ATOMIC CHARGES
----------------------
   0 C :   -0.055705
   1 C :   -0.048030
   2 C :   -0.048164
   3 C :   -0.047498
   4 C :   -0.057831
   5 H :    0.025248
   6 H :    0.028013
   7 H :    0.027909
   8 H :    0.023160
   9 H :    0.023689
  10 H :    0.023597
  11 H :    0.023143
  12 H :    0.028407
  13 H :    0.025916
  14 H :    0.028147

  Mayer bond orders larger than 0.1
B(  0-C ,  1-C ) :   1.1013 B(  0-C ,  5-H ) :   0.9486 B(  0-C ,  6-H ) :   0.9590
B(  0-C ,  7-H ) :   0.9620 B(  1-C ,  2-C ) :   0.9959 B(  1-C ,  3-C ) :   0.9539
B(  1-C ,  8-H ) :   0.9447 B(  2-C ,  3-C ) :   0.9971 B(  2-C ,  9-H ) :   0.9438
B(  2-C , 10-H ) :   0.9440 B(  3-C ,  4-C ) :   1.1056 B(  3-C , 11-H ) :   0.9445
B(  4-C , 12-H ) :   0.9585 B(  4-C , 13-H ) :   0.9490 B(  4-C , 14-H ) :   0.9598

FINAL SINGLE POINT ENERGY      -196.101976482611

DIPOLE MOMENT
-------------
                                X             Y             Z
Electronic contribution:      0.19641      -0.58023      -0.24293
Nuclear contribution   :     -0.21609       0.62772       0.26625
                        -----------------------------------------
Total Dipole Moment    :     -0.01968       0.04749       0.02333
                        -----------------------------------------
Magnitude (a.u.)       :      0.05645
Magnitude (Debye)      :      0.14348

                             ****ORCA TERMINATED NORMALLY****
TOTAL RUN TIME: 0 days 0 hours 0 minutes 5 seconds 957 msec
