                         Program Version 3.0.3 - RELEASE   -
|  1> ! RI PBE def2-SVP def2-SVP/J NBO PAL2
|  2> % maxcore 2000
|  3> % output
|  4>     # printlevel mini
|  5>     print[ P_Basis ] 0
|  6>     print[ P_SCFInfo ] 1
|  7>     print[ P_SCFIterInfo ] 1
|  8>     print[ P_OrbEn ] 0
|  9>     print[ P_Cartesian ] 0
| 10> end
| 11> *xyz 0 1
| 12>  C        1.4367710000    -0.1086560000    -0.4045800000
| 13>  C        2.7161450000     0.5953180000    -0.0488710000
| 14>  C        2.9054520000     1.2206910000     1.3023150000
| 15>  C        3.7204350000     0.0223180000     0.9122450000
| 16>  C        3.5283290000    -1.3017770000     1.5967610000
| 17>  H        0.9986990000    -0.6195980000     0.4549250000
| 18>  H        0.6931180000     0.6045670000    -0.7708250000
| 19>  H        1.5950020000    -0.8548540000    -1.1886950000
| 20>  H        3.1523080000     1.1487320000    -0.8755530000
| 21>  H        2.1169220000     1.0622610000     2.0309610000
| 22>  H        3.3886790000     2.1876760000     1.3737780000
| 23>  H        4.7550240000     0.2346230000     0.6583290000
| 24>  H        3.8344880000    -2.1326040000     0.9543190000
| 25>  H        4.1246970000    -1.3531860000     2.5119200000
| 26>  H        2.4872300000    -1.4685000000     1.8796730000
| 27> *
| 28>
| 29>                          ****END OF INPUT****
 Total Charge           Charge          ....    0
 Multiplicity           Mult            ....    1
 Number of Electrons    NEL             ....   40
 Basis Dimension        Dim             ....  120

MULLIKEN ATOMIC CHARGES
-----------------------
   0 C :    0.070473
   1 C :   -0.154321
   2 C :   -0.000165
   3 C :   -0.163560
   4 C :    0.080338
   5 H :    0.000688
   6 H :    0.021758
   7 H :    0.024967
   8 H :    0.014570
   9 H :    0.021269
  10 H :    0.024106
  11 H :    0.019185
  12 H :    0.020752
  13 H :    0.020835
  14 H :   -0.000894
Sum of atomic charges:   -0.0000000

LOEWDIN ATOMIC CHARGES
----------------------
   0 C :   -0.059690
   1 C :   -0.046693
   2 C :   -0.047100
   3 C :   -0.049204
   4 C :   -0.058113
   5 H :    0.024007
   6 H :    0.030090
   7 H :    0.028675
   8 H :    0.024843
   9 H :    0.022477
  10 H :    0.023366
  11 H :    0.025590
  12 H :    0.028022
  13 H :    0.030132
  14 H :    0.023598

  Mayer bond orders larger than 0.1
B(  0-C ,  1-C ) :   1.1225 B(  0-C ,  5-H ) :   0.9445 B(  0-C ,  6-H ) :   0.9550
B(  0-C ,  7-H ) :   0.9587 B(  1-C ,  2-C ) :   1.0041 B(  1-C ,  3-C ) :   0.9590
B(  1-C ,  8-H ) :   0.9388 B(  2-C ,  3-C ) :   0.9967 B(  2-C ,  9-H ) :   0.9503
B(  2-C , 10-H ) :   0.9425 B(  3-C ,  4-C ) :   1.1193 B(  3-C , 11-H ) :   0.9398
B(  4-C , 12-H ) :   0.9583 B(  4-C , 13-H ) :   0.9548 B(  4-C , 14-H ) :   0.9461

FINAL SINGLE POINT ENERGY      -196.100067362433

DIPOLE MOMENT
-------------
                                X             Y             Z
Electronic contribution:      1.18755       1.60608      -0.28140
Nuclear contribution   :     -1.17938      -1.64417       0.25152
                        -----------------------------------------
Total Dipole Moment    :      0.00817      -0.03809      -0.02988
                        -----------------------------------------
Magnitude (a.u.)       :      0.04910
Magnitude (Debye)      :      0.12480

                             ****ORCA TERMINATED NORMALLY****
TOTAL RUN TIME: 0 days 0 hours 0 minutes 5 seconds 579 msec
