                         Program Version 3.0.3 - RELEASE   -
|  1> ! RI PBE def2-SVP def2-SVP/J NBO PAL2
|  2> % maxcore 2000
|  3> % output
|  4>     # printlevel mini
|  5>     print[ P_Basis ] 0
|  6>     print[ P_SCFInfo ] 1
|  7>     print[ P_SCFIterInfo ] 1
|  8>     print[ P_OrbEn ] 0
|  9>     print[ P_Cartesian ] 0
| 10> end
| 11> *xyz 0 1
| 12>  C        0.8101160000     0.1011800000    -0.1112030000
| 13>  C        2.3115700000     0.0982850000     0.0081730000
| 14>  C        2.8279710000     0.1042610000     1.4230640000
| 15>  C        3.0948680000    -0.6603780000    -1.0204950000
| 16>  C        3.0983760000     0.8428730000    -1.0281200000
| 17>  H        0.4942440000     0.0971320000    -1.1571180000
| 18>  H        0.3763300000    -0.7795020000     0.3728180000
| 19>  H        0.3801700000     0.9881290000     0.3647240000
| 20>  H        2.4792160000    -0.7762810000     1.9717570000
| 21>  H        2.4825990000     0.9913490000     1.9632780000
| 22>  H        3.9202670000     0.1023430000     1.4478440000
| 23>  H        2.5481280000    -1.1701530000    -1.8052350000
| 24>  H        3.9981890000    -1.1679460000    -0.7026920000
| 25>  H        2.5541900000     1.3474980000    -1.8179550000
| 26>  H        4.0039660000     1.3497010000    -0.7156200000
| 27> *
| 28>
| 29>                          ****END OF INPUT****
 Total Charge           Charge          ....    0
 Multiplicity           Mult            ....    1
 Number of Electrons    NEL             ....   40
 Basis Dimension        Dim             ....  120

MULLIKEN ATOMIC CHARGES
-----------------------
   0 C :    0.097110
   1 C :   -0.324922
   2 C :    0.083119
   3 C :   -0.013523
   4 C :   -0.014130
   5 H :    0.000642
   6 H :    0.015586
   7 H :    0.015465
   8 H :    0.018206
   9 H :    0.018003
  10 H :    0.006663
  11 H :    0.025148
  12 H :    0.023789
  13 H :    0.025118
  14 H :    0.023726
Sum of atomic charges:    0.0000000

LOEWDIN ATOMIC CHARGES
----------------------
   0 C :   -0.045272
   1 C :   -0.065673
   2 C :   -0.048286
   3 C :   -0.045127
   4 C :   -0.045199
   5 H :    0.024618
   6 H :    0.026144
   7 H :    0.026118
   8 H :    0.026635
   9 H :    0.026591
  10 H :    0.025829
  11 H :    0.023558
  12 H :    0.023282
  13 H :    0.023532
  14 H :    0.023251

  Mayer bond orders larger than 0.1
B(  0-C ,  1-C ) :   1.0893 B(  0-C ,  5-H ) :   0.9453 B(  0-C ,  6-H ) :   0.9578
B(  0-C ,  7-H ) :   0.9578 B(  1-C ,  2-C ) :   1.0914 B(  1-C ,  3-C ) :   0.9784
B(  1-C ,  4-C ) :   0.9785 B(  2-C ,  8-H ) :   0.9574 B(  2-C ,  9-H ) :   0.9574
B(  2-C , 10-H ) :   0.9446 B(  3-C ,  4-C ) :   1.0189 B(  3-C , 11-H ) :   0.9472
B(  3-C , 12-H ) :   0.9475 B(  4-C , 13-H ) :   0.9473 B(  4-C , 14-H ) :   0.9475

FINAL SINGLE POINT ENERGY      -196.101752353846

DIPOLE MOMENT
-------------
                                X             Y             Z
Electronic contribution:      0.80222      -0.00767      -1.05885
Nuclear contribution   :     -0.84230       0.00790       1.10777
                        -----------------------------------------
Total Dipole Moment    :     -0.04008       0.00022       0.04892
                        -----------------------------------------
Magnitude (a.u.)       :      0.06325
Magnitude (Debye)      :      0.16076

                             ****ORCA TERMINATED NORMALLY****
TOTAL RUN TIME: 0 days 0 hours 0 minutes 5 seconds 590 msec
