                         Program Version 3.0.3 - RELEASE   -
|  1> ! RI PBE def2-SVP def2-SVP/J NBO PAL2
|  2> % maxcore 2000
|  3> % output
|  4>     # printlevel mini
|  5>     print[ P_Basis ] 0
|  6>     print[ P_SCFInfo ] 1
|  7>     print[ P_SCFIterInfo ] 1
|  8>     print[ P_OrbEn ] 0
|  9>     print[ P_Cartesian ] 0
| 10> end
| 11> *xyz 0 1
| 12>  C        1.1705790000    -0.0233790000     0.2205830000
| 13>  C        2.6421570000     0.0686260000    -0.1457250000
| 14>  C        2.9634790000     0.1201390000    -1.6218780000
| 15>  C        2.1965540000    -0.6527680000    -2.6502740000
| 16>  C        2.1107700000     0.8456450000    -2.6167170000
| 17>  H        0.6041710000     0.8377870000    -0.1419840000
| 18>  H        0.7044510000    -0.9258260000    -0.1821610000
| 19>  H        1.0517490000    -0.0548460000     1.3057650000
| 20>  H        3.1705160000    -0.7875990000     0.2896400000
| 21>  H        3.0711720000     0.9587320000     0.3290800000
| 22>  H        4.0304610000     0.1855000000    -1.8147850000
| 23>  H        1.3227870000    -1.2076350000    -2.3315180000
| 24>  H        2.7480660000    -1.1195870000    -3.4570360000
| 25>  H        1.1801550000     1.2821550000    -2.2755880000
| 26>  H        2.6031450000     1.4079580000    -3.4004900000
| 27> *
| 28>
| 29>                          ****END OF INPUT****
 Total Charge           Charge          ....    0
 Multiplicity           Mult            ....    1
 Number of Electrons    NEL             ....   40
 Basis Dimension        Dim             ....  120

MULLIKEN ATOMIC CHARGES
-----------------------
   0 C :   -0.070054
   1 C :    0.079198
   2 C :   -0.172760
   3 C :   -0.045815
   4 C :   -0.038953
   5 H :    0.027131
   6 H :    0.023971
   7 H :    0.023684
   8 H :    0.012582
   9 H :    0.011791
  10 H :    0.023442
  11 H :    0.033820
  12 H :    0.030559
  13 H :    0.031001
  14 H :    0.030404
Sum of atomic charges:    0.0000000

LOEWDIN ATOMIC CHARGES
----------------------
   0 C :   -0.070458
   1 C :   -0.038260
   2 C :   -0.047957
   3 C :   -0.051172
   4 C :   -0.050372
   5 H :    0.024915
   6 H :    0.024332
   7 H :    0.030710
   8 H :    0.027416
   9 H :    0.027185
  10 H :    0.027394
  11 H :    0.023067
  12 H :    0.025352
  13 H :    0.022565
  14 H :    0.025283

  Mayer bond orders larger than 0.1
B(  0-C ,  1-C ) :   1.1211 B(  0-C ,  5-H ) :   0.9625 B(  0-C ,  6-H ) :   0.9623
B(  0-C ,  7-H ) :   0.9573 B(  1-C ,  2-C ) :   1.0767 B(  1-C ,  8-H ) :   0.9316
B(  1-C ,  9-H ) :   0.9319 B(  2-C ,  3-C ) :   1.0031 B(  2-C ,  4-C ) :   1.0003
B(  2-C , 10-H ) :   0.9407 B(  3-C ,  4-C ) :   1.0248 B(  3-C , 11-H ) :   0.9515
B(  3-C , 12-H ) :   0.9486 B(  4-C , 13-H ) :   0.9511 B(  4-C , 14-H ) :   0.9490

FINAL SINGLE POINT ENERGY      -196.096316852820

DIPOLE MOMENT
-------------
                                X             Y             Z
Electronic contribution:      1.38022       0.11257      -1.48208
Nuclear contribution   :     -1.34993      -0.11238       1.56566
                        -----------------------------------------
Total Dipole Moment    :      0.03028       0.00020       0.08358
                        -----------------------------------------
Magnitude (a.u.)       :      0.08890
Magnitude (Debye)      :      0.22596

                             ****ORCA TERMINATED NORMALLY****
TOTAL RUN TIME: 0 days 0 hours 0 minutes 6 seconds 19 msec
