                         Program Version 3.0.3 - RELEASE   -
|  1> ! RI PBE def2-SVP def2-SVP/J NBO PAL2
|  2> % maxcore 2000
|  3> % output
|  4>     # printlevel mini
|  5>     print[ P_Basis ] 0
|  6>     print[ P_SCFInfo ] 1
|  7>     print[ P_SCFIterInfo ] 1
|  8>     print[ P_OrbEn ] 0
|  9>     print[ P_Cartesian ] 0
| 10> end
| 11> *xyz 0 1
| 12>  C        1.0305370000    -0.0242480000     0.0110450000
| 13>  C        2.5492570000    -0.0451320000    -0.0311440000
| 14>  C        3.1037050000    -0.4611590000    -1.3846140000
| 15>  C        4.6231320000    -0.4861470000    -1.4401940000
| 16>  C        5.1641160000    -0.9032280000    -2.7974360000
| 17>  H        0.6587260000     0.2774640000     0.9930430000
| 18>  H        0.6168280000    -1.0118990000    -0.2116930000
| 19>  H        0.6257220000     0.6746000000    -0.7264900000
| 20>  H        2.9292680000    -0.7271820000     0.7384000000
| 21>  H        2.9380930000     0.9466870000     0.2275050000
| 22>  H        2.7242000000     0.2205760000    -2.1565540000
| 23>  H        2.7153560000    -1.4540520000    -1.6454330000
| 24>  H        5.0002230000    -1.1675950000    -0.6686830000
| 25>  H        5.0090620000     0.5062840000    -1.1795440000
| 26>  H        4.8198420000    -1.9056250000    -3.0674300000
| 27>  H        6.2565150000    -0.9129380000    -2.8102470000
| 28>  H        4.8287970000    -0.2190970000    -3.5821320000
| 29> *
| 30>
| 31>                          ****END OF INPUT****
 Total Charge           Charge          ....    0
 Multiplicity           Mult            ....    1
 Number of Electrons    NEL             ....   42
 Basis Dimension        Dim             ....  130

MULLIKEN ATOMIC CHARGES
-----------------------
   0 C :    0.000473
   1 C :   -0.038631
   2 C :   -0.042923
   3 C :   -0.029427
   4 C :   -0.019826
   5 H :    0.015026
   6 H :    0.014011
   7 H :    0.015607
   8 H :    0.009056
   9 H :    0.004266
  10 H :    0.003782
  11 H :   -0.000715
  12 H :    0.007860
  13 H :    0.004250
  14 H :    0.014145
  15 H :    0.024239
  16 H :    0.018808
Sum of atomic charges:   -0.0000000

LOEWDIN ATOMIC CHARGES
----------------------
   0 C :   -0.065419
   1 C :   -0.047733
   2 C :   -0.044730
   3 C :   -0.046779
   4 C :   -0.069504
   5 H :    0.025168
   6 H :    0.023296
   7 H :    0.023706
   8 H :    0.022190
   9 H :    0.021310
  10 H :    0.020457
  11 H :    0.019594
  12 H :    0.022013
  13 H :    0.021343
  14 H :    0.023812
  15 H :    0.026804
  16 H :    0.024472

  Mayer bond orders larger than 0.1
B(  0-C ,  1-C ) :   1.1156 B(  0-C ,  5-H ) :   0.9609 B(  0-C ,  6-H ) :   0.9658
B(  0-C ,  7-H ) :   0.9660 B(  1-C ,  2-C ) :   1.0962 B(  1-C ,  8-H ) :   0.9372
B(  1-C ,  9-H ) :   0.9360 B(  2-C ,  3-C ) :   1.0938 B(  2-C , 10-H ) :   0.9375
B(  2-C , 11-H ) :   0.9366 B(  3-C ,  4-C ) :   1.1218 B(  3-C , 12-H ) :   0.9370
B(  3-C , 13-H ) :   0.9358 B(  4-C , 14-H ) :   0.9633 B(  4-C , 15-H ) :   0.9612
B(  4-C , 16-H ) :   0.9644

FINAL SINGLE POINT ENERGY      -197.325630305903

DIPOLE MOMENT
-------------
                                X             Y             Z
Electronic contribution:      0.32826       0.13551       0.44702
Nuclear contribution   :     -0.31795      -0.12883      -0.42764
                        -----------------------------------------
Total Dipole Moment    :      0.01031       0.00667       0.01938
                        -----------------------------------------
Magnitude (a.u.)       :      0.02294
Magnitude (Debye)      :      0.05831

                             ****ORCA TERMINATED NORMALLY****
TOTAL RUN TIME: 0 days 0 hours 0 minutes 6 seconds 691 msec
