                         Program Version 3.0.3 - RELEASE   -
|  1> ! RI PBE def2-SVP def2-SVP/J NBO PAL2
|  2> % maxcore 2000
|  3> % output
|  4>     # printlevel mini
|  5>     print[ P_Basis ] 0
|  6>     print[ P_SCFInfo ] 1
|  7>     print[ P_SCFIterInfo ] 1
|  8>     print[ P_OrbEn ] 0
|  9>     print[ P_Cartesian ] 0
| 10> end
| 11> *xyz 0 1
| 12>  C        1.8402880000    -1.4787090000    -0.7899480000
| 13>  C        2.6081530000    -0.2155110000    -0.4083100000
| 14>  C        3.2483320000    -0.4047440000     0.9648060000
| 15>  C        1.6472000000     0.9701400000    -0.3629190000
| 16>  C        3.6968460000     0.0510100000    -1.4450130000
| 17>  H        2.5052850000    -2.3462260000    -0.8297310000
| 18>  H        1.3704520000    -1.3717270000    -1.7719250000
| 19>  H        1.0518200000    -1.6941670000    -0.0630910000
| 20>  H        2.4899140000    -0.5981240000     1.7289390000
| 21>  H        3.8064570000     0.4868550000     1.2647780000
| 22>  H        3.9431850000    -1.2495020000     0.9616720000
| 23>  H        1.1732640000     1.1294630000    -1.3357550000
| 24>  H        0.8546150000     0.8060720000     0.3728490000
| 25>  H        2.1711860000     1.8909390000    -0.0908490000
| 26>  H        4.4009470000    -0.7842940000    -1.4991990000
| 27>  H        4.2647980000     0.9520550000    -1.1960280000
| 28>  H        3.2661660000     0.1910700000    -2.4406660000
| 29> *
| 30>
| 31>                          ****END OF INPUT****
 Total Charge           Charge          ....    0
 Multiplicity           Mult            ....    1
 Number of Electrons    NEL             ....   42
 Basis Dimension        Dim             ....  130

MULLIKEN ATOMIC CHARGES
-----------------------
   0 C :    0.052053
   1 C :   -0.349807
   2 C :    0.051310
   3 C :    0.065459
   4 C :    0.060834
   5 H :    0.011330
   6 H :    0.008904
   7 H :    0.011791
   8 H :    0.009462
   9 H :    0.011073
  10 H :    0.013058
  11 H :    0.007363
  12 H :    0.009513
  13 H :    0.008056
  14 H :    0.012496
  15 H :    0.008629
  16 H :    0.008473
Sum of atomic charges:   -0.0000000

LOEWDIN ATOMIC CHARGES
----------------------
   0 C :   -0.050449
   1 C :   -0.071357
   2 C :   -0.051049
   3 C :   -0.048383
   4 C :   -0.049414
   5 H :    0.022890
   6 H :    0.022582
   7 H :    0.022661
   8 H :    0.022653
   9 H :    0.022759
  10 H :    0.023102
  11 H :    0.022015
  12 H :    0.022350
  13 H :    0.022202
  14 H :    0.022833
  15 H :    0.022382
  16 H :    0.022223

  Mayer bond orders larger than 0.1
B(  0-C ,  1-C ) :   1.0488 B(  0-C ,  5-H ) :   0.9602 B(  0-C ,  6-H ) :   0.9582
B(  0-C ,  7-H ) :   0.9602 B(  1-C ,  2-C ) :   1.0499 B(  1-C ,  3-C ) :   1.0492
B(  1-C ,  4-C ) :   1.0513 B(  2-C ,  8-H ) :   0.9577 B(  2-C ,  9-H ) :   0.9591
B(  2-C , 10-H ) :   0.9607 B(  3-C , 11-H ) :   0.9591 B(  3-C , 12-H ) :   0.9602
B(  3-C , 13-H ) :   0.9594 B(  4-C , 14-H ) :   0.9604 B(  4-C , 15-H ) :   0.9587
B(  4-C , 16-H ) :   0.9598

FINAL SINGLE POINT ENERGY      -197.327275917902

DIPOLE MOMENT
-------------
                                X             Y             Z
Electronic contribution:     -0.00016       0.00175      -0.00273
Nuclear contribution   :      0.00010      -0.00065       0.00025
                        -----------------------------------------
Total Dipole Moment    :     -0.00006       0.00110      -0.00248
                        -----------------------------------------
Magnitude (a.u.)       :      0.00272
Magnitude (Debye)      :      0.00691

                             ****ORCA TERMINATED NORMALLY****
TOTAL RUN TIME: 0 days 0 hours 0 minutes 7 seconds 522 msec
