                         Program Version 3.0.3 - RELEASE   -
|  1> ! RI PBE def2-SVP def2-SVP/J NBO PAL2
|  2> % maxcore 2000
|  3> % output
|  4>     # printlevel mini
|  5>     print[ P_Basis ] 0
|  6>     print[ P_SCFInfo ] 1
|  7>     print[ P_SCFIterInfo ] 1
|  8>     print[ P_OrbEn ] 0
|  9>     print[ P_Cartesian ] 0
| 10> end
| 11> *xyz 0 1
| 12>  C        0.9774020000     0.1717270000     0.3936870000
| 13>  C        2.2246410000    -0.5763380000    -0.0477190000
| 14>  C        2.8499920000    -1.4702920000     1.0218780000
| 15>  C        4.1796520000    -2.0307880000     0.5363620000
| 16>  C        1.9209120000    -2.5987890000     1.4488940000
| 17>  H        0.6228160000     0.8422270000    -0.3926470000
| 18>  H        1.1770340000     0.7802110000     1.2808360000
| 19>  H        0.1566040000    -0.5069590000     0.6362120000
| 20>  H        2.9781610000     0.1489340000    -0.3754180000
| 21>  H        1.9950340000    -1.1905670000    -0.9279700000
| 22>  H        3.0478340000    -0.8430130000     1.9022060000
| 23>  H        4.0337870000    -2.6629430000    -0.3457760000
| 24>  H        4.8734650000    -1.2320790000     0.2609140000
| 25>  H        4.6592160000    -2.6423980000     1.3050560000
| 26>  H        0.9851120000    -2.2263780000     1.8707120000
| 27>  H        2.3944730000    -3.2300950000     2.2052710000
| 28>  H        1.6721460000    -3.2370710000     0.5942800000
| 29> *
| 30>
| 31>                          ****END OF INPUT****
 Total Charge           Charge          ....    0
 Multiplicity           Mult            ....    1
 Number of Electrons    NEL             ....   42
 Basis Dimension        Dim             ....  130

MULLIKEN ATOMIC CHARGES
-----------------------
   0 C :   -0.018561
   1 C :   -0.015887
   2 C :   -0.152307
   3 C :    0.015981
   4 C :    0.011571
   5 H :    0.020047
   6 H :    0.017737
   7 H :    0.022885
   8 H :    0.005049
   9 H :    0.003165
  10 H :    0.004594
  11 H :    0.012930
  12 H :    0.012865
  13 H :    0.016798
  14 H :    0.016700
  15 H :    0.015562
  16 H :    0.010871
Sum of atomic charges:    0.0000000

LOEWDIN ATOMIC CHARGES
----------------------
   0 C :   -0.070179
   1 C :   -0.042443
   2 C :   -0.049386
   3 C :   -0.061256
   4 C :   -0.060958
   5 H :    0.027631
   6 H :    0.024923
   7 H :    0.023473
   8 H :    0.022385
   9 H :    0.020728
  10 H :    0.022226
  11 H :    0.023670
  12 H :    0.023620
  13 H :    0.024257
  14 H :    0.022758
  15 H :    0.024986
  16 H :    0.023566

  Mayer bond orders larger than 0.1
B(  0-C ,  1-C ) :   1.1175 B(  0-C ,  5-H ) :   0.9586 B(  0-C ,  6-H ) :   0.9626
B(  0-C ,  7-H ) :   0.9618 B(  1-C ,  2-C ) :   1.0638 B(  1-C ,  8-H ) :   0.9359
B(  1-C ,  9-H ) :   0.9338 B(  2-C ,  3-C ) :   1.0912 B(  2-C ,  4-C ) :   1.0811
B(  2-C , 10-H ) :   0.9140 B(  3-C , 11-H ) :   0.9595 B(  3-C , 12-H ) :   0.9563
B(  3-C , 13-H ) :   0.9603 B(  4-C , 14-H ) :   0.9582 B(  4-C , 15-H ) :   0.9611
B(  4-C , 16-H ) :   0.9600

FINAL SINGLE POINT ENERGY      -197.325452397183

DIPOLE MOMENT
-------------
                                X             Y             Z
Electronic contribution:      0.44363       0.33067       0.03927
Nuclear contribution   :     -0.44554      -0.30406      -0.02637
                        -----------------------------------------
Total Dipole Moment    :     -0.00192       0.02661       0.01290
                        -----------------------------------------
Magnitude (a.u.)       :      0.02963
Magnitude (Debye)      :      0.07532

                             ****ORCA TERMINATED NORMALLY****
TOTAL RUN TIME: 0 days 0 hours 0 minutes 6 seconds 468 msec
