                         Program Version 3.0.3 - RELEASE   -
|  1> ! RI PBE def2-SVP def2-SVP/J NBO PAL2
|  2> % maxcore 2000
|  3> % output
|  4>     # printlevel mini
|  5>     print[ P_Basis ] 0
|  6>     print[ P_SCFInfo ] 1
|  7>     print[ P_SCFIterInfo ] 1
|  8>     print[ P_OrbEn ] 0
|  9>     print[ P_Cartesian ] 0
| 10> end
| 11> *xyz 0 1
| 12>  C       -0.0000250000     1.2420010000     0.0014700000
| 13>  C        1.1715240000     0.3168130000     0.0008790000
| 14>  C        0.7299330000    -0.9507470000    -0.0002100000
| 15>  C       -0.7298850000    -0.9507800000    -0.0004080000
| 16>  C       -1.1715330000     0.3167610000     0.0005620000
| 17>  H        0.0000780000     1.9053270000    -0.8736190000
| 18>  H       -0.0001590000     1.9039110000     0.8776300000
| 19>  H        2.2023520000     0.6435620000     0.0012830000
| 20>  H        1.3461100000    -1.8407700000    -0.0008500000
| 21>  H       -1.3460210000    -1.8408300000    -0.0012140000
| 22>  H       -2.2023750000     0.6434630000     0.0006870000
| 23> *
| 24>
| 25>                          ****END OF INPUT****
 Total Charge           Charge          ....    0
 Multiplicity           Mult            ....    1
 Number of Electrons    NEL             ....   36
 Basis Dimension        Dim             ....  100

MULLIKEN ATOMIC CHARGES
-----------------------
   0 C :    0.082373
   1 C :   -0.087041
   2 C :    0.012815
   3 C :    0.012817
   4 C :   -0.087044
   5 H :    0.054033
   6 H :    0.053991
   7 H :   -0.006028
   8 H :   -0.014943
   9 H :   -0.014944
  10 H :   -0.006027
Sum of atomic charges:   -0.0000000

LOEWDIN ATOMIC CHARGES
----------------------
   0 C :   -0.038679
   1 C :   -0.041499
   2 C :   -0.040398
   3 C :   -0.040398
   4 C :   -0.041499
   5 H :    0.058058
   6 H :    0.058051
   7 H :    0.020731
   8 H :    0.022452
   9 H :    0.022451
  10 H :    0.020731

  Mayer bond orders larger than 0.1
B(  0-C ,  1-C ) :   1.0584 B(  0-C ,  4-C ) :   1.0584 B(  0-C ,  5-H ) :   0.8926
B(  0-C ,  6-H ) :   0.8926 B(  1-C ,  2-C ) :   1.7376 B(  1-C ,  7-H ) :   0.9912
B(  2-C ,  3-C ) :   1.0992 B(  2-C ,  8-H ) :   0.9989 B(  3-C ,  4-C ) :   1.7376
B(  3-C ,  9-H ) :   0.9989 B(  4-C , 10-H ) :   0.9912

FINAL SINGLE POINT ENERGY      -193.699521337091

DIPOLE MOMENT
-------------
                                X             Y             Z
Electronic contribution:      0.00002      -1.00529      -0.00083
Nuclear contribution   :     -0.00003       1.23232       0.00099
                        -----------------------------------------
Total Dipole Moment    :     -0.00000       0.22702       0.00016
                        -----------------------------------------
Magnitude (a.u.)       :      0.22702
Magnitude (Debye)      :      0.57705

                             ****ORCA TERMINATED NORMALLY****
TOTAL RUN TIME: 0 days 0 hours 0 minutes 4 seconds 956 msec
