                         Program Version 3.0.3 - RELEASE   -
|  1> ! RI PBE def2-SVP def2-SVP/J NBO PAL2
|  2> % maxcore 2000
|  3> % output
|  4>     # printlevel mini
|  5>     print[ P_Basis ] 0
|  6>     print[ P_SCFInfo ] 1
|  7>     print[ P_SCFIterInfo ] 1
|  8>     print[ P_OrbEn ] 0
|  9>     print[ P_Cartesian ] 0
| 10> end
| 11> *xyz 0 1
| 12>  C       -1.2850110000    -0.0001290000    -0.1218460000
| 13>  C       -0.3837910000    -1.2249170000     0.1117770000
| 14>  C        0.9978430000    -0.6644910000    -0.0645540000
| 15>  C        0.9980380000     0.6636430000    -0.0654600000
| 16>  C       -0.3834330000     1.2247170000     0.1100880000
| 17>  H       -2.1738770000     0.0004370000     0.5112210000
| 18>  H       -1.6268040000    -0.0007940000    -1.1600460000
| 19>  H       -0.6044900000    -2.0451070000    -0.5773480000
| 20>  H       -0.5012900000    -1.6333090000     1.1240980000
| 21>  H        1.8833670000    -1.2858660000    -0.1358200000
| 22>  H        1.8837440000     1.2846600000    -0.1375760000
| 23>  H       -0.6038910000     2.0440210000    -0.5801680000
| 24>  H       -0.5008160000     1.6345370000     1.1218440000
| 25> *
| 26>
| 27>                          ****END OF INPUT****
 Total Charge           Charge          ....    0
 Multiplicity           Mult            ....    1
 Number of Electrons    NEL             ....   38
 Basis Dimension        Dim             ....  110

MULLIKEN ATOMIC CHARGES
-----------------------
   0 C :   -0.024834
   1 C :    0.036947
   2 C :   -0.071478
   3 C :   -0.071438
   4 C :    0.036821
   5 H :    0.008252
   6 H :    0.017989
   7 H :    0.019897
   8 H :    0.022976
   9 H :   -0.009036
  10 H :   -0.009040
  11 H :    0.019937
  12 H :    0.023007
Sum of atomic charges:    0.0000000

LOEWDIN ATOMIC CHARGES
----------------------
   0 C :   -0.033542
   1 C :   -0.043872
   2 C :   -0.041390
   3 C :   -0.041385
   4 C :   -0.043890
   5 H :    0.022832
   6 H :    0.027365
   7 H :    0.026749
   8 H :    0.029851
   9 H :    0.020335
  10 H :    0.020334
  11 H :    0.026757
  12 H :    0.029856

  Mayer bond orders larger than 0.1
B(  0-C ,  1-C ) :   1.1015 B(  0-C ,  4-C ) :   1.1015 B(  0-C ,  5-H ) :   0.9377
B(  0-C ,  6-H ) :   0.9422 B(  1-C ,  2-C ) :   1.0366 B(  1-C ,  7-H ) :   0.9350
B(  1-C ,  8-H ) :   0.9167 B(  2-C ,  3-C ) :   1.8820 B(  2-C ,  9-H ) :   0.9855
B(  3-C ,  4-C ) :   1.0366 B(  3-C , 10-H ) :   0.9855 B(  4-C , 11-H ) :   0.9350
B(  4-C , 12-H ) :   0.9167

FINAL SINGLE POINT ENERGY      -194.910758750553

DIPOLE MOMENT
-------------
                                X             Y             Z
Electronic contribution:      1.70865      -0.00035      -0.14582
Nuclear contribution   :     -1.78151       0.00038       0.17717
                        -----------------------------------------
Total Dipole Moment    :     -0.07287       0.00004       0.03135
                        -----------------------------------------
Magnitude (a.u.)       :      0.07932
Magnitude (Debye)      :      0.20162

                             ****ORCA TERMINATED NORMALLY****
TOTAL RUN TIME: 0 days 0 hours 0 minutes 5 seconds 0 msec
