                         Program Version 3.0.3 - RELEASE   -
|  1> ! RI PBE def2-SVP def2-SVP/J NBO PAL2
|  2> % maxcore 2000
|  3> % output
|  4>     # printlevel mini
|  5>     print[ P_Basis ] 0
|  6>     print[ P_SCFInfo ] 1
|  7>     print[ P_SCFIterInfo ] 1
|  8>     print[ P_OrbEn ] 0
|  9>     print[ P_Cartesian ] 0
| 10> end
| 11> *xyz 0 1
| 12>  C        1.4785010000    -0.4959310000    -0.5900410000
| 13>  C        2.2004890000     0.3034670000     0.1843680000
| 14>  C        3.1096630000    -0.1150100000     1.2706200000
| 15>  C        3.6092950000    -1.5177630000     1.4012650000
| 16>  C        4.5501860000    -0.4382530000     0.9637410000
| 17>  H        0.8548230000    -0.0967120000    -1.3811380000
| 18>  H        1.4801810000    -1.5731550000    -0.4625440000
| 19>  H        2.1441700000     1.3784130000     0.0192000000
| 20>  H        2.9607630000     0.4226380000     2.2028990000
| 21>  H        3.2994360000    -2.2410040000     0.6578850000
| 22>  H        3.7213530000    -1.9236340000     2.3987070000
| 23>  H        4.8433310000    -0.4250730000    -0.0787770000
| 24>  H        5.3098990000    -0.0981600000     1.6566140000
| 25> *
| 26>
| 27>                          ****END OF INPUT****
 Total Charge           Charge          ....    0
 Multiplicity           Mult            ....    1
 Number of Electrons    NEL             ....   38
 Basis Dimension        Dim             ....  110

MULLIKEN ATOMIC CHARGES
-----------------------
   0 C :   -0.042456
   1 C :   -0.015938
   2 C :   -0.099232
   3 C :   -0.037039
   4 C :   -0.026049
   5 H :    0.021501
   6 H :    0.018560
   7 H :    0.006744
   8 H :    0.029830
   9 H :    0.038300
  10 H :    0.032322
  11 H :    0.037419
  12 H :    0.036038
Sum of atomic charges:   -0.0000000

LOEWDIN ATOMIC CHARGES
----------------------
   0 C :   -0.069296
   1 C :   -0.024663
   2 C :   -0.048034
   3 C :   -0.042045
   4 C :   -0.032392
   5 H :    0.024253
   6 H :    0.020366
   7 H :    0.028538
   8 H :    0.034003
   9 H :    0.027041
  10 H :    0.028400
  11 H :    0.027621
  12 H :    0.026209

  Mayer bond orders larger than 0.1
B(  0-C ,  1-C ) :   2.0007 B(  0-C ,  5-H ) :   0.9433 B(  0-C ,  6-H ) :   0.9387
B(  1-C ,  2-C ) :   1.0710 B(  1-C ,  7-H ) :   0.9556 B(  2-C ,  3-C ) :   1.0064
B(  2-C ,  4-C ) :   0.9712 B(  2-C ,  8-H ) :   0.9282 B(  3-C ,  4-C ) :   1.0441
B(  3-C ,  9-H ) :   0.9434 B(  3-C , 10-H ) :   0.9430 B(  4-C , 11-H ) :   0.9537
B(  4-C , 12-H ) :   0.9483

FINAL SINGLE POINT ENERGY      -194.874468942243

DIPOLE MOMENT
-------------
                                X             Y             Z
Electronic contribution:     -0.44626       0.81101       0.24500
Nuclear contribution   :      0.57645      -0.77344      -0.12827
                        -----------------------------------------
Total Dipole Moment    :      0.13019       0.03757       0.11674
                        -----------------------------------------
Magnitude (a.u.)       :      0.17886
Magnitude (Debye)      :      0.45462

                             ****ORCA TERMINATED NORMALLY****
TOTAL RUN TIME: 0 days 0 hours 0 minutes 5 seconds 492 msec
