                         Program Version 3.0.3 - RELEASE   -
|  1> ! RI PBE def2-SVP def2-SVP/J NBO PAL2
|  2> % maxcore 2000
|  3> % output
|  4>     # printlevel mini
|  5>     print[ P_Basis ] 0
|  6>     print[ P_SCFInfo ] 1
|  7>     print[ P_SCFIterInfo ] 1
|  8>     print[ P_OrbEn ] 0
|  9>     print[ P_Cartesian ] 0
| 10> end
| 11> *xyz 0 1
| 12>  C        1.0177760000    -0.0693840000    -0.0778750000
| 13>  C        2.2196800000    -0.0686190000    -0.0839780000
| 14>  C        3.6507910000    -0.0675740000    -0.0944160000
| 15>  C        4.3942770000    -0.8181320000    -1.1720000000
| 16>  C        4.3930930000     0.6715050000    -1.1806070000
| 17>  H       -0.0461170000    -0.0703850000    -0.0707530000
| 18>  H        4.1106840000    -0.0616480000     0.8879770000
| 19>  H        3.7938710000    -1.3320760000    -1.9109200000
| 20>  H        5.2994290000    -1.3336230000    -0.8769610000
| 21>  H        3.7913990000     1.1756470000    -1.9252350000
| 22>  H        5.2974180000     1.1920980000    -0.8921320000
| 23> *
| 24>
| 25>                          ****END OF INPUT****
 Total Charge           Charge          ....    0
 Multiplicity           Mult            ....    1
 Number of Electrons    NEL             ....   36
 Basis Dimension        Dim             ....  100

MULLIKEN ATOMIC CHARGES
-----------------------
   0 C :   -0.464983
   1 C :    0.440725
   2 C :   -0.178110
   3 C :   -0.013936
   4 C :   -0.014470
   5 H :   -0.003604
   6 H :    0.052974
   7 H :    0.049607
   8 H :    0.041050
   9 H :    0.049529
  10 H :    0.041219
Sum of atomic charges:   -0.0000000

LOEWDIN ATOMIC CHARGES
----------------------
   0 C :   -0.091712
   1 C :   -0.015660
   2 C :   -0.053844
   3 C :   -0.024029
   4 C :   -0.024095
   5 H :    0.032639
   6 H :    0.045450
   7 H :    0.034538
   8 H :    0.031084
   9 H :    0.034531
  10 H :    0.031099

  Mayer bond orders larger than 0.1
B(  0-C ,  1-C ) :   2.2869 B(  0-C ,  5-H ) :   1.0988 B(  1-C ,  2-C ) :   1.0479
B(  1-C ,  5-H ) :  -0.1074 B(  2-C ,  3-C ) :   0.9651 B(  2-C ,  4-C ) :   0.9650
B(  2-C ,  6-H ) :   0.9245 B(  3-C ,  4-C ) :   1.0390 B(  3-C ,  7-H ) :   0.9539
B(  3-C ,  8-H ) :   0.9455 B(  4-C ,  9-H ) :   0.9539 B(  4-C , 10-H ) :   0.9455

FINAL SINGLE POINT ENERGY      -193.632648087982

DIPOLE MOMENT
-------------
                                X             Y             Z
Electronic contribution:     -2.57172       0.00591       1.32289
Nuclear contribution   :      2.92859      -0.00626      -1.41264
                        -----------------------------------------
Total Dipole Moment    :      0.35687      -0.00035      -0.08975
                        -----------------------------------------
Magnitude (a.u.)       :      0.36798
Magnitude (Debye)      :      0.93533

                             ****ORCA TERMINATED NORMALLY****
TOTAL RUN TIME: 0 days 0 hours 0 minutes 4 seconds 381 msec
