                         Program Version 3.0.3 - RELEASE   -
|  1> ! RI PBE def2-SVP def2-SVP/J NBO PAL2
|  2> % maxcore 2000
|  3> % output
|  4>     # printlevel mini
|  5>     print[ P_Basis ] 0
|  6>     print[ P_SCFInfo ] 1
|  7>     print[ P_SCFIterInfo ] 1
|  8>     print[ P_OrbEn ] 0
|  9>     print[ P_Cartesian ] 0
| 10> end
| 11> *xyz 0 1
| 12>  C        1.4602240000    -0.3210830000     0.8598020000
| 13>  C        2.3953210000     0.1140320000     0.0274280000
| 14>  C        3.1146790000    -0.7352660000    -0.9755940000
| 15>  C        4.5906810000    -0.7798270000    -0.7220900000
| 16>  C        5.5194000000    -0.3514090000    -1.5650120000
| 17>  H        0.9774080000     0.3420390000     1.5682690000
| 18>  H        1.1403350000    -1.3589120000     0.8592290000
| 19>  H        2.6943990000     1.1599760000     0.0600210000
| 20>  H        2.9386060000    -0.3454150000    -1.9847470000
| 21>  H        2.7027680000    -1.7504670000    -0.9428730000
| 22>  H        4.8911770000    -1.1881610000     0.2409650000
| 23>  H        5.2564850000     0.0666420000    -2.5322380000
| 24>  H        6.5745170000    -0.4058480000    -1.3230810000
| 25> *
| 26>
| 27>                          ****END OF INPUT****
 Total Charge           Charge          ....    0
 Multiplicity           Mult            ....    1
 Number of Electrons    NEL             ....   38
 Basis Dimension        Dim             ....  110

MULLIKEN ATOMIC CHARGES
-----------------------
   0 C :   -0.036513
   1 C :   -0.091992
   2 C :    0.116221
   3 C :   -0.089125
   4 C :   -0.035180
   5 H :    0.027361
   6 H :    0.017206
   7 H :    0.009820
   8 H :    0.014990
   9 H :    0.016251
  10 H :    0.006394
  11 H :    0.016351
  12 H :    0.028215
Sum of atomic charges:   -0.0000000

LOEWDIN ATOMIC CHARGES
----------------------
   0 C :   -0.066150
   1 C :   -0.025261
   2 C :   -0.040406
   3 C :   -0.024378
   4 C :   -0.066413
   5 H :    0.025567
   6 H :    0.021330
   7 H :    0.027147
   8 H :    0.037454
   9 H :    0.037478
  10 H :    0.026693
  11 H :    0.021322
  12 H :    0.025617

  Mayer bond orders larger than 0.1
B(  0-C ,  1-C ) :   2.0085 B(  0-C ,  5-H ) :   0.9458 B(  0-C ,  6-H ) :   0.9474
B(  1-C ,  2-C ) :   1.0469 B(  1-C ,  7-H ) :   0.9556 B(  2-C ,  3-C ) :   1.0445
B(  2-C ,  8-H ) :   0.9118 B(  2-C ,  9-H ) :   0.9124 B(  3-C ,  4-C ) :   2.0132
B(  3-C , 10-H ) :   0.9556 B(  4-C , 11-H ) :   0.9446 B(  4-C , 12-H ) :   0.9460

FINAL SINGLE POINT ENERGY      -194.876527483347

DIPOLE MOMENT
-------------
                                X             Y             Z
Electronic contribution:      0.10431       0.11072       0.17569
Nuclear contribution   :     -0.12638      -0.13437      -0.20985
                        -----------------------------------------
Total Dipole Moment    :     -0.02207      -0.02365      -0.03416
                        -----------------------------------------
Magnitude (a.u.)       :      0.04704
Magnitude (Debye)      :      0.11958

                             ****ORCA TERMINATED NORMALLY****
TOTAL RUN TIME: 0 days 0 hours 0 minutes 5 seconds 116 msec
