                         Program Version 3.0.3 - RELEASE   -
|  1> ! RI PBE def2-SVP def2-SVP/J NBO PAL2
|  2> % maxcore 2000
|  3> % output
|  4>     # printlevel mini
|  5>     print[ P_Basis ] 0
|  6>     print[ P_SCFInfo ] 1
|  7>     print[ P_SCFIterInfo ] 1
|  8>     print[ P_OrbEn ] 0
|  9>     print[ P_Cartesian ] 0
| 10> end
| 11> *xyz 0 1
| 12>  C        1.3987450000     0.3800280000     1.0245070000
| 13>  C        2.3046700000    -0.0013190000     0.1382330000
| 14>  C        3.0819340000     0.9439530000    -0.7326340000
| 15>  C        4.5218880000     0.7595500000    -0.6204520000
| 16>  C        5.7060600000     0.5916500000    -0.5209480000
| 17>  H        0.8532900000    -0.3417350000     1.6208820000
| 18>  H        1.1698110000     1.4286160000     1.1879280000
| 19>  H        2.5238940000    -1.0570070000     0.0021390000
| 20>  H        2.8221770000     1.9775850000    -0.4836900000
| 21>  H        2.7951410000     0.7928540000    -1.7813150000
| 22>  H        6.7566800000     0.4477170000    -0.4320510000
| 23> *
| 24>
| 25>                          ****END OF INPUT****
 Total Charge           Charge          ....    0
 Multiplicity           Mult            ....    1
 Number of Electrons    NEL             ....   36
 Basis Dimension        Dim             ....  100

MULLIKEN ATOMIC CHARGES
-----------------------
   0 C :   -0.036114
   1 C :   -0.084122
   2 C :    0.137512
   3 C :    0.292290
   4 C :   -0.464912
   5 H :    0.032339
   6 H :    0.020940
   7 H :    0.019306
   8 H :    0.033936
   9 H :    0.050769
  10 H :   -0.001943
Sum of atomic charges:   -0.0000000

LOEWDIN ATOMIC CHARGES
----------------------
   0 C :   -0.058526
   1 C :   -0.018275
   2 C :   -0.044566
   3 C :   -0.021472
   4 C :   -0.085359
   5 H :    0.028340
   6 H :    0.023311
   7 H :    0.031148
   8 H :    0.051972
   9 H :    0.059270
  10 H :    0.034158

  Mayer bond orders larger than 0.1
B(  0-C ,  1-C ) :   2.0221 B(  0-C ,  5-H ) :   0.9469 B(  0-C ,  6-H ) :   0.9491
B(  1-C ,  2-C ) :   1.0381 B(  1-C ,  7-H ) :   0.9571 B(  2-C ,  3-C ) :   1.0496
B(  2-C ,  8-H ) :   0.8987 B(  2-C ,  9-H ) :   0.8887 B(  3-C ,  4-C ) :   2.3854
B(  3-C , 10-H ) :  -0.1094 B(  4-C , 10-H ) :   1.1011

FINAL SINGLE POINT ENERGY      -193.631993995538

DIPOLE MOMENT
-------------
                                X             Y             Z
Electronic contribution:      2.76759      -0.01370      -0.89416
Nuclear contribution   :     -2.97889       0.03358       0.82459
                        -----------------------------------------
Total Dipole Moment    :     -0.21130       0.01988      -0.06957
                        -----------------------------------------
Magnitude (a.u.)       :      0.22335
Magnitude (Debye)      :      0.56770

                             ****ORCA TERMINATED NORMALLY****
TOTAL RUN TIME: 0 days 0 hours 0 minutes 4 seconds 858 msec
