                         Program Version 3.0.3 - RELEASE   -
|  1> ! RI PBE def2-SVP def2-SVP/J NBO PAL2
|  2> % maxcore 2000
|  3> % output
|  4>     # printlevel mini
|  5>     print[ P_Basis ] 0
|  6>     print[ P_SCFInfo ] 1
|  7>     print[ P_SCFIterInfo ] 1
|  8>     print[ P_OrbEn ] 0
|  9>     print[ P_Cartesian ] 0
| 10> end
| 11> *xyz 0 1
| 12>  C        0.9848650000    -0.0715650000     0.0548640000
| 13>  C        2.1827110000    -0.0521170000     0.0876650000
| 14>  C        3.6407340000    -0.0384460000     0.1107560000
| 15>  C        4.2006580000     0.6478680000     1.2691260000
| 16>  C        4.6745200000     1.2089860000     2.2161510000
| 17>  H       -0.0790730000    -0.0855500000     0.0312530000
| 18>  H        4.0112870000     0.4378920000    -0.8043660000
| 19>  H        4.0112710000    -1.0698880000     0.0889370000
| 20>  H        5.0899460000     1.7085300000     3.0591140000
| 21> *
| 22>
| 23>                          ****END OF INPUT****
 Total Charge           Charge          ....    0
 Multiplicity           Mult            ....    1
 Number of Electrons    NEL             ....   34
 Basis Dimension        Dim             ....   90

MULLIKEN ATOMIC CHARGES
-----------------------
   0 C :   -0.449497
   1 C :    0.295558
   2 C :    0.179237
   3 C :    0.293830
   4 C :   -0.452878
   5 H :    0.002357
   6 H :    0.062942
   7 H :    0.064957
   8 H :    0.003495
Sum of atomic charges:    0.0000000

LOEWDIN ATOMIC CHARGES
----------------------
   0 C :   -0.068859
   1 C :   -0.017290
   2 C :   -0.044697
   3 C :   -0.017714
   4 C :   -0.069349
   5 H :    0.036284
   6 H :    0.072184
   7 H :    0.072505
   8 H :    0.036936

  Mayer bond orders larger than 0.1
B(  0-C ,  1-C ) :   2.4094 B(  0-C ,  5-H ) :   1.1004 B(  1-C ,  2-C ) :   1.0407
B(  1-C ,  5-H ) :  -0.1086 B(  2-C ,  3-C ) :   1.0416 B(  2-C ,  6-H ) :   0.8735
B(  2-C ,  7-H ) :   0.8738 B(  3-C ,  4-C ) :   2.4092 B(  3-C ,  8-H ) :  -0.1057
B(  4-C ,  8-H ) :   1.0970

FINAL SINGLE POINT ENERGY      -192.384725115821

DIPOLE MOMENT
-------------
                                X             Y             Z
Electronic contribution:     -0.29888       0.22382       0.38193
Nuclear contribution   :      0.42783      -0.32071      -0.54148
                        -----------------------------------------
Total Dipole Moment    :      0.12895      -0.09689      -0.15955
                        -----------------------------------------
Magnitude (a.u.)       :      0.22687
Magnitude (Debye)      :      0.57667

                             ****ORCA TERMINATED NORMALLY****
TOTAL RUN TIME: 0 days 0 hours 0 minutes 4 seconds 74 msec
