                         Program Version 3.0.3 - RELEASE   -
|  1> ! RI PBE def2-SVP def2-SVP/J NBO PAL2
|  2> % maxcore 2000
|  3> % output
|  4>     # printlevel mini
|  5>     print[ P_Basis ] 0
|  6>     print[ P_SCFInfo ] 1
|  7>     print[ P_SCFIterInfo ] 1
|  8>     print[ P_OrbEn ] 0
|  9>     print[ P_Cartesian ] 0
| 10> end
| 11> *xyz 0 1
| 12>  C        0.9541310000     0.0004020000     0.0301010000
| 13>  C        2.4484160000    -0.0853470000    -0.0664940000
| 14>  C        3.1423450000    -0.8410140000    -0.9175230000
| 15>  C        2.5011150000    -1.7385480000    -1.9282960000
| 16>  C        4.6390470000    -0.8431180000    -0.9199180000
| 17>  H        0.6554160000     0.6969510000     0.8145450000
| 18>  H        0.5003540000    -0.9668620000     0.2664980000
| 19>  H        0.5003340000     0.3495360000    -0.9024080000
| 20>  H        3.0132760000     0.5317270000     0.6284330000
| 21>  H        1.4124680000    -1.7056790000    -1.8912620000
| 22>  H        2.8151200000    -2.7773810000    -1.7774360000
| 23>  H        2.8151010000    -1.4658750000    -2.9419990000
| 24>  H        5.0450630000    -0.1706920000    -0.1626520000
| 25>  H        5.0308970000    -0.5363930000    -1.8961880000
| 26>  H        5.0309170000    -1.8488070000    -0.7308200000
| 27> *
| 28>
| 29>                          ****END OF INPUT****
 Total Charge           Charge          ....    0
 Multiplicity           Mult            ....    1
 Number of Electrons    NEL             ....   40
 Basis Dimension        Dim             ....  120

MULLIKEN ATOMIC CHARGES
-----------------------
   0 C :    0.020820
   1 C :   -0.117072
   2 C :   -0.197005
   3 C :    0.040089
   4 C :    0.057542
   5 H :    0.017083
   6 H :    0.037705
   7 H :    0.037447
   8 H :   -0.019168
   9 H :    0.018962
  10 H :    0.025652
  11 H :    0.023429
  12 H :    0.013075
  13 H :    0.020610
  14 H :    0.020830
Sum of atomic charges:   -0.0000000

LOEWDIN ATOMIC CHARGES
----------------------
   0 C :   -0.075441
   1 C :   -0.069722
   2 C :   -0.048551
   3 C :   -0.061445
   4 C :   -0.055450
   5 H :    0.031585
   6 H :    0.035054
   7 H :    0.035055
   8 H :    0.018656
   9 H :    0.028960
  10 H :    0.035397
  11 H :    0.035028
  12 H :    0.028623
  13 H :    0.031109
  14 H :    0.031142

  Mayer bond orders larger than 0.1
B(  0-C ,  1-C ) :   1.0791 B(  0-C ,  5-H ) :   0.9526 B(  0-C ,  6-H ) :   0.9522
B(  0-C ,  7-H ) :   0.9519 B(  1-C ,  2-C ) :   1.9167 B(  1-C ,  8-H ) :   0.9359
B(  2-C ,  3-C ) :   1.1029 B(  2-C ,  4-C ) :   1.0875 B(  3-C ,  9-H ) :   0.9456
B(  3-C , 10-H ) :   0.9433 B(  3-C , 11-H ) :   0.9433 B(  4-C , 12-H ) :   0.9529
B(  4-C , 13-H ) :   0.9468 B(  4-C , 14-H ) :   0.9470

FINAL SINGLE POINT ENERGY      -196.108891881547

DIPOLE MOMENT
-------------
                                X             Y             Z
Electronic contribution:      0.42624       0.62039       0.70148
Nuclear contribution   :     -0.44277      -0.70551      -0.79453
                        -----------------------------------------
Total Dipole Moment    :     -0.01653      -0.08513      -0.09305
                        -----------------------------------------
Magnitude (a.u.)       :      0.12719
Magnitude (Debye)      :      0.32329

                             ****ORCA TERMINATED NORMALLY****
TOTAL RUN TIME: 0 days 0 hours 0 minutes 5 seconds 603 msec
