                         Program Version 3.0.3 - RELEASE   -
|  1> ! RI PBE def2-SVP def2-SVP/J NBO PAL2
|  2> % maxcore 2000
|  3> % output
|  4>     # printlevel mini
|  5>     print[ P_Basis ] 0
|  6>     print[ P_SCFInfo ] 1
|  7>     print[ P_SCFIterInfo ] 1
|  8>     print[ P_OrbEn ] 0
|  9>     print[ P_Cartesian ] 0
| 10> end
| 11> *xyz 0 1
| 12>  C        0.8688240000    -0.1717070000    -0.1195710000
| 13>  C        2.3513250000    -0.2714070000    -0.1780400000
| 14>  C        3.1608560000     0.6269490000    -0.7432470000
| 15>  C        4.6025820000     0.5058080000    -0.7865780000
| 16>  C        5.4186570000     1.3974680000    -1.3485440000
| 17>  H        0.5135920000    -0.1740940000     0.9163810000
| 18>  H        0.3958900000    -1.0287350000    -0.6107220000
| 19>  H        0.5090240000     0.7391810000    -0.6016180000
| 20>  H        2.7993110000    -1.1521480000     0.2803760000
| 21>  H        2.7301060000     1.5137840000    -1.2064000000
| 22>  H        5.0254190000    -0.3828880000    -0.3217710000
| 23>  H        5.0329810000     2.2951960000    -1.8212710000
| 24>  H        6.4928320000     1.2598040000    -1.3542970000
| 25> *
| 26>
| 27>                          ****END OF INPUT****
 Total Charge           Charge          ....    0
 Multiplicity           Mult            ....    1
 Number of Electrons    NEL             ....   38
 Basis Dimension        Dim             ....  110

MULLIKEN ATOMIC CHARGES
-----------------------
   0 C :    0.045590
   1 C :   -0.114656
   2 C :    0.017724
   3 C :   -0.010302
   4 C :   -0.039513
   5 H :    0.034430
   6 H :    0.035875
   7 H :    0.020167
   8 H :   -0.003532
   9 H :   -0.017571
  10 H :   -0.010153
  11 H :    0.014965
  12 H :    0.026977
Sum of atomic charges:   -0.0000000

LOEWDIN ATOMIC CHARGES
----------------------
   0 C :   -0.063895
   1 C :   -0.029613
   2 C :   -0.047377
   3 C :   -0.031873
   4 C :   -0.060921
   5 H :    0.038541
   6 H :    0.039019
   7 H :    0.031653
   8 H :    0.023319
   9 H :    0.025699
  10 H :    0.028347
  11 H :    0.021929
  12 H :    0.025171

  Mayer bond orders larger than 0.1
B(  0-C ,  1-C ) :   1.0857 B(  0-C ,  5-H ) :   0.9444 B(  0-C ,  6-H ) :   0.9441
B(  0-C ,  7-H ) :   0.9606 B(  1-C ,  2-C ) :   1.8046 B(  1-C ,  4-C ) :   0.1382
B(  1-C ,  8-H ) :   0.9555 B(  2-C ,  3-C ) :   1.1414 B(  2-C ,  9-H ) :   0.9572
B(  3-C ,  4-C ) :   1.8906 B(  3-C , 10-H ) :   0.9603 B(  4-C , 11-H ) :   0.9461
B(  4-C , 12-H ) :   0.9428

FINAL SINGLE POINT ENERGY      -194.891831763792

DIPOLE MOMENT
-------------
                                X             Y             Z
Electronic contribution:      2.02160       0.10936      -0.21682
Nuclear contribution   :     -2.26996      -0.22272       0.29962
                        -----------------------------------------
Total Dipole Moment    :     -0.24837      -0.11336       0.08280
                        -----------------------------------------
Magnitude (a.u.)       :      0.28529
Magnitude (Debye)      :      0.72516

                             ****ORCA TERMINATED NORMALLY****
TOTAL RUN TIME: 0 days 0 hours 0 minutes 5 seconds 122 msec
