                         Program Version 3.0.3 - RELEASE   -
|  1> ! RI PBE def2-SVP def2-SVP/J NBO PAL2
|  2> % maxcore 2000
|  3> % output
|  4>     # printlevel mini
|  5>     print[ P_Basis ] 0
|  6>     print[ P_SCFInfo ] 1
|  7>     print[ P_SCFIterInfo ] 1
|  8>     print[ P_OrbEn ] 0
|  9>     print[ P_Cartesian ] 0
| 10> end
| 11> *xyz 0 1
| 12>  C        0.8762550000    -0.0722400000     0.0034590000
| 13>  C        2.3713020000    -0.0758130000    -0.0144650000
| 14>  C        3.1083120000    -0.2934920000    -1.1067400000
| 15>  C        4.5247330000    -0.2964390000    -1.1215300000
| 16>  C        5.7276160000    -0.3059890000    -1.1694470000
| 17>  H        0.4901720000     0.1269610000     1.0030490000
| 18>  H        0.4715980000    -1.0345210000    -0.3227850000
| 19>  H        0.4715980000     0.6914650000    -0.6667450000
| 20>  H        2.8897510000     0.1107450000     0.9216510000
| 21>  H        2.6182830000    -0.4834900000    -2.0601180000
| 22>  H        6.7911000000    -0.3124960000    -1.2020990000
| 23> *
| 24>
| 25>                          ****END OF INPUT****
 Total Charge           Charge          ....    0
 Multiplicity           Mult            ....    1
 Number of Electrons    NEL             ....   36
 Basis Dimension        Dim             ....  100

MULLIKEN ATOMIC CHARGES
-----------------------
   0 C :    0.022252
   1 C :   -0.084734
   2 C :   -0.066450
   3 C :    0.383950
   4 C :   -0.411633
   5 H :    0.027294
   6 H :    0.043617
   7 H :    0.046355
   8 H :    0.016944
   9 H :    0.019825
  10 H :    0.002579
Sum of atomic charges:   -0.0000000

LOEWDIN ATOMIC CHARGES
----------------------
   0 C :   -0.068829
   1 C :   -0.006394
   2 C :   -0.060161
   3 C :   -0.018972
   4 C :   -0.072870
   5 H :    0.034447
   6 H :    0.043293
   7 H :    0.043721
   8 H :    0.031142
   9 H :    0.040444
  10 H :    0.034180

  Mayer bond orders larger than 0.1
B(  0-C ,  1-C ) :   1.0657 B(  0-C ,  5-H ) :   0.9610 B(  0-C ,  6-H ) :   0.9548
B(  0-C ,  7-H ) :   0.9555 B(  1-C ,  2-C ) :   1.8338 B(  1-C ,  4-C ) :   0.1354
B(  1-C ,  8-H ) :   0.9584 B(  2-C ,  3-C ) :   1.0577 B(  2-C ,  9-H ) :   0.9463
B(  3-C ,  4-C ) :   2.2761 B(  4-C , 10-H ) :   1.0891

FINAL SINGLE POINT ENERGY      -193.642218930926

DIPOLE MOMENT
-------------
                                X             Y             Z
Electronic contribution:      4.87270      -0.27925      -1.40167
Nuclear contribution   :     -5.28225       0.29954       1.50303
                        -----------------------------------------
Total Dipole Moment    :     -0.40955       0.02029       0.10136
                        -----------------------------------------
Magnitude (a.u.)       :      0.42239
Magnitude (Debye)      :      1.07364

                             ****ORCA TERMINATED NORMALLY****
TOTAL RUN TIME: 0 days 0 hours 0 minutes 4 seconds 598 msec
