                         Program Version 3.0.3 - RELEASE   -
|  1> ! RI PBE def2-SVP def2-SVP/J NBO PAL2
|  2> % maxcore 2000
|  3> % output
|  4>     # printlevel mini
|  5>     print[ P_Basis ] 0
|  6>     print[ P_SCFInfo ] 1
|  7>     print[ P_SCFIterInfo ] 1
|  8>     print[ P_OrbEn ] 0
|  9>     print[ P_Cartesian ] 0
| 10> end
| 11> *xyz 0 1
| 12>  C        1.1499810000    -0.0666350000     0.2379730000
| 13>  C        2.6261120000    -0.1375750000     0.0024140000
| 14>  C        3.1780140000    -1.1269840000    -0.7064910000
| 15>  C        3.4755360000     0.9064920000     0.5663600000
| 16>  C        3.0565590000     1.9439980000     1.2891830000
| 17>  H        0.6372380000    -0.9038950000    -0.2359340000
| 18>  H        0.7329290000     0.8624250000    -0.1617020000
| 19>  H        0.9218910000    -0.0850500000     1.3077680000
| 20>  H        2.5786740000    -1.9191740000    -1.1401950000
| 21>  H        4.2491850000    -1.1691430000    -0.8714190000
| 22>  H        4.5388960000     0.8024710000     0.3625480000
| 23>  H        2.0090210000     2.0974570000     1.5228340000
| 24>  H        3.7552650000     2.6776150000     1.6723400000
| 25> *
| 26>
| 27>                          ****END OF INPUT****
 Total Charge           Charge          ....    0
 Multiplicity           Mult            ....    1
 Number of Electrons    NEL             ....   38
 Basis Dimension        Dim             ....  110

MULLIKEN ATOMIC CHARGES
-----------------------
   0 C :    0.063421
   1 C :   -0.118892
   2 C :   -0.044350
   3 C :    0.000410
   4 C :   -0.040922
   5 H :    0.012204
   6 H :    0.035950
   7 H :    0.035389
   8 H :    0.013694
   9 H :    0.014180
  10 H :   -0.012736
  11 H :    0.014763
  12 H :    0.026889
Sum of atomic charges:   -0.0000000

LOEWDIN ATOMIC CHARGES
----------------------
   0 C :   -0.054192
   1 C :   -0.034876
   2 C :   -0.053386
   3 C :   -0.027845
   4 C :   -0.057117
   5 H :    0.031840
   6 H :    0.037836
   7 H :    0.037494
   8 H :    0.021389
   9 H :    0.021623
  10 H :    0.029235
  11 H :    0.021097
  12 H :    0.026900

  Mayer bond orders larger than 0.1
B(  0-C ,  1-C ) :   1.0996 B(  0-C ,  5-H ) :   0.9471 B(  0-C ,  6-H ) :   0.9372
B(  0-C ,  7-H ) :   0.9376 B(  1-C ,  2-C ) :   1.8836 B(  1-C ,  3-C ) :   1.1183
B(  2-C ,  4-C ) :   0.1392 B(  2-C ,  8-H ) :   0.9332 B(  2-C ,  9-H ) :   0.9411
B(  3-C ,  4-C ) :   1.9068 B(  3-C , 10-H ) :   0.9559 B(  4-C , 11-H ) :   0.9348
B(  4-C , 12-H ) :   0.9416

FINAL SINGLE POINT ENERGY      -194.889502521636

DIPOLE MOMENT
-------------
                                X             Y             Z
Electronic contribution:      1.66530       0.05693      -0.18050
Nuclear contribution   :     -1.78229      -0.05638       0.19283
                        -----------------------------------------
Total Dipole Moment    :     -0.11699       0.00055       0.01233
                        -----------------------------------------
Magnitude (a.u.)       :      0.11763
Magnitude (Debye)      :      0.29900

                             ****ORCA TERMINATED NORMALLY****
TOTAL RUN TIME: 0 days 0 hours 0 minutes 5 seconds 338 msec
