                         Program Version 3.0.3 - RELEASE   -
|  1> ! RI PBE def2-SVP def2-SVP/J NBO PAL2
|  2> % maxcore 2000
|  3> % output
|  4>     # printlevel mini
|  5>     print[ P_Basis ] 0
|  6>     print[ P_SCFInfo ] 1
|  7>     print[ P_SCFIterInfo ] 1
|  8>     print[ P_OrbEn ] 0
|  9>     print[ P_Cartesian ] 0
| 10> end
| 11> *xyz 0 1
| 12>  C        1.0841550000    -0.0503950000    -0.0276480000
| 13>  C        2.5824320000     0.0021430000    -0.0849960000
| 14>  C        3.2523420000     0.7830660000    -0.9356350000
| 15>  C        3.2768520000    -0.8405120000     0.8327220000
| 16>  C        3.8202670000    -1.5664620000     1.6235100000
| 17>  H        0.6440620000     0.6243310000    -0.7625250000
| 18>  H        0.7271400000     0.2294310000     0.9668870000
| 19>  H        0.7270420000    -1.0651330000    -0.2216580000
| 20>  H        2.7241110000     1.4231630000    -1.6327980000
| 21>  H        4.3346190000     0.7995660000    -0.9537010000
| 22>  H        4.3141780000    -2.2032990000     2.3185420000
| 23> *
| 24>
| 25>                          ****END OF INPUT****
 Total Charge           Charge          ....    0
 Multiplicity           Mult            ....    1
 Number of Electrons    NEL             ....   36
 Basis Dimension        Dim             ....  100

MULLIKEN ATOMIC CHARGES
-----------------------
   0 C :    0.079890
   1 C :   -0.191749
   2 C :    0.005552
   3 C :    0.392042
   4 C :   -0.433961
   5 H :    0.017966
   6 H :    0.040167
   7 H :    0.040242
   8 H :    0.018329
   9 H :    0.027010
  10 H :    0.004511
Sum of atomic charges:   -0.0000000

LOEWDIN ATOMIC CHARGES
----------------------
   0 C :   -0.042554
   1 C :   -0.050573
   2 C :   -0.035776
   3 C :   -0.010486
   4 C :   -0.067268
   5 H :    0.032415
   6 H :    0.041811
   7 H :    0.041780
   8 H :    0.024519
   9 H :    0.030145
  10 H :    0.035987

  Mayer bond orders larger than 0.1
B(  0-C ,  1-C ) :   1.0726 B(  0-C ,  5-H ) :   0.9482 B(  0-C ,  6-H ) :   0.9471
B(  0-C ,  7-H ) :   0.9474 B(  1-C ,  2-C ) :   1.9083 B(  1-C ,  3-C ) :   1.0278
B(  2-C ,  4-C ) :   0.1262 B(  2-C ,  8-H ) :   0.9327 B(  2-C ,  9-H ) :   0.9406
B(  3-C ,  4-C ) :   2.2933 B(  3-C , 10-H ) :  -0.1020 B(  4-C , 10-H ) :   1.0926

FINAL SINGLE POINT ENERGY      -193.642843418782

DIPOLE MOMENT
-------------
                                X             Y             Z
Electronic contribution:      2.65554      -1.50619       1.63946
Nuclear contribution   :     -2.85372       1.54670      -1.68320
                        -----------------------------------------
Total Dipole Moment    :     -0.19818       0.04050      -0.04374
                        -----------------------------------------
Magnitude (a.u.)       :      0.20695
Magnitude (Debye)      :      0.52603

                             ****ORCA TERMINATED NORMALLY****
TOTAL RUN TIME: 0 days 0 hours 0 minutes 4 seconds 543 msec
