                         Program Version 3.0.3 - RELEASE   -
|  1> ! RI PBE def2-SVP def2-SVP/J NBO PAL2
|  2> % maxcore 2000
|  3> % output
|  4>     # printlevel mini
|  5>     print[ P_Basis ] 0
|  6>     print[ P_SCFInfo ] 1
|  7>     print[ P_SCFIterInfo ] 1
|  8>     print[ P_OrbEn ] 0
|  9>     print[ P_Cartesian ] 0
| 10> end
| 11> *xyz 0 1
| 12>  C        0.9667060000     0.0564050000     0.1385990000
| 13>  C        2.4894120000     0.0238850000     0.0319360000
| 14>  C        3.1284770000     0.0324250000     1.4185080000
| 15>  C        2.9380640000    -1.1722800000    -0.7482600000
| 16>  C        3.6132980000    -1.1407240000    -1.8883430000
| 17>  H        0.6351370000     0.9309600000     0.7045860000
| 18>  H        0.5957780000    -0.8340880000     0.6555010000
| 19>  H        0.5001450000     0.0892210000    -0.8481310000
| 20>  H        2.8187170000     0.9199160000    -0.5074750000
| 21>  H        2.8389930000    -0.8589650000     1.9836420000
| 22>  H        2.8060570000     0.9068850000     1.9899020000
| 23>  H        4.2183870000     0.0479620000     1.3533150000
| 24>  H        2.6720920000    -2.1382320000    -0.3169750000
| 25>  H        3.8975220000    -0.2000110000    -2.3509180000
| 26>  H        3.9072070000    -2.0489610000    -2.4017950000
| 27> *
| 28>
| 29>                          ****END OF INPUT****
 Total Charge           Charge          ....    0
 Multiplicity           Mult            ....    1
 Number of Electrons    NEL             ....   40
 Basis Dimension        Dim             ....  120

MULLIKEN ATOMIC CHARGES
-----------------------
   0 C :    0.021444
   1 C :   -0.093270
   2 C :    0.006144
   3 C :   -0.050782
   4 C :   -0.031754
   5 H :    0.016185
   6 H :    0.013497
   7 H :    0.023049
   8 H :   -0.002671
   9 H :    0.016262
  10 H :    0.018592
  11 H :    0.029216
  12 H :   -0.002121
  13 H :    0.014388
  14 H :    0.021821
Sum of atomic charges:   -0.0000000

LOEWDIN ATOMIC CHARGES
----------------------
   0 C :   -0.053163
   1 C :   -0.048715
   2 C :   -0.056480
   3 C :   -0.021349
   4 C :   -0.068503
   5 H :    0.025222
   6 H :    0.023692
   7 H :    0.026979
   8 H :    0.026642
   9 H :    0.024250
  10 H :    0.025606
  11 H :    0.028178
  12 H :    0.023347
  13 H :    0.020692
  14 H :    0.023603

  Mayer bond orders larger than 0.1
B(  0-C ,  1-C ) :   1.0652 B(  0-C ,  5-H ) :   0.9588 B(  0-C ,  6-H ) :   0.9643
B(  0-C ,  7-H ) :   0.9636 B(  1-C ,  2-C ) :   1.0662 B(  1-C ,  3-C ) :   1.0231
B(  1-C ,  8-H ) :   0.9127 B(  2-C ,  9-H ) :   0.9625 B(  2-C , 10-H ) :   0.9581
B(  2-C , 11-H ) :   0.9639 B(  3-C ,  4-C ) :   2.0200 B(  3-C , 12-H ) :   0.9523
B(  4-C , 13-H ) :   0.9457 B(  4-C , 14-H ) :   0.9415

FINAL SINGLE POINT ENERGY      -196.101679523219

DIPOLE MOMENT
-------------
                                X             Y             Z
Electronic contribution:      1.04724      -0.90910      -1.79029
Nuclear contribution   :     -1.11012       0.97627       1.89329
                        -----------------------------------------
Total Dipole Moment    :     -0.06288       0.06717       0.10300
                        -----------------------------------------
Magnitude (a.u.)       :      0.13811
Magnitude (Debye)      :      0.35104

                             ****ORCA TERMINATED NORMALLY****
TOTAL RUN TIME: 0 days 0 hours 0 minutes 5 seconds 631 msec
