                         Program Version 3.0.3 - RELEASE   -
|  1> ! RI PBE def2-SVP def2-SVP/J NBO PAL2
|  2> % maxcore 2000
|  3> % output
|  4>     # printlevel mini
|  5>     print[ P_Basis ] 0
|  6>     print[ P_SCFInfo ] 1
|  7>     print[ P_SCFIterInfo ] 1
|  8>     print[ P_OrbEn ] 0
|  9>     print[ P_Cartesian ] 0
| 10> end
| 11> *xyz 0 1
| 12>  C        0.9723050000     0.0997610000    -0.0343540000
| 13>  C        2.5003490000     0.0666690000    -0.0676040000
| 14>  C        3.0361690000    -1.3460230000     0.1653070000
| 15>  C        3.0065450000     0.6162600000    -1.3205010000
| 16>  C        3.4152790000     1.0565690000    -2.3606480000
| 17>  H        0.6088600000    -0.2747970000     0.9255260000
| 18>  H        0.5589840000    -0.5283490000    -0.8267160000
| 19>  H        0.5963660000     1.1141570000    -0.1754080000
| 20>  H        2.8722400000     0.7091520000     0.7405040000
| 21>  H        2.6895020000    -2.0208130000    -0.6206180000
| 22>  H        2.6836140000    -1.7282320000     1.1262320000
| 23>  H        4.1270640000    -1.3592010000     0.1662080000
| 24>  H        3.7792220000     1.4498260000    -3.2800190000
| 25> *
| 26>
| 27>                          ****END OF INPUT****
 Total Charge           Charge          ....    0
 Multiplicity           Mult            ....    1
 Number of Electrons    NEL             ....   38
 Basis Dimension        Dim             ....  110

MULLIKEN ATOMIC CHARGES
-----------------------
   0 C :    0.022407
   1 C :   -0.097685
   2 C :    0.007563
   3 C :    0.392236
   4 C :   -0.511407
   5 H :    0.016524
   6 H :    0.028310
   7 H :    0.029776
   8 H :    0.033887
   9 H :    0.030783
  10 H :    0.016712
  11 H :    0.037088
  12 H :   -0.006195
Sum of atomic charges:    0.0000000

LOEWDIN ATOMIC CHARGES
----------------------
   0 C :   -0.043929
   1 C :   -0.054960
   2 C :   -0.047280
   3 C :   -0.013359
   4 C :   -0.095359
   5 H :    0.025940
   6 H :    0.029641
   7 H :    0.030584
   8 H :    0.047198
   9 H :    0.030140
  10 H :    0.026104
  11 H :    0.032006
  12 H :    0.033275

  Mayer bond orders larger than 0.1
B(  0-C ,  1-C ) :   1.0714 B(  0-C ,  5-H ) :   0.9585 B(  0-C ,  6-H ) :   0.9640
B(  0-C ,  7-H ) :   0.9646 B(  1-C ,  2-C ) :   1.0735 B(  1-C ,  3-C ) :   1.0169
B(  1-C ,  8-H ) :   0.8808 B(  2-C ,  9-H ) :   0.9624 B(  2-C , 10-H ) :   0.9581
B(  2-C , 11-H ) :   0.9637 B(  3-C ,  4-C ) :   2.3228 B(  3-C , 12-H ) :  -0.1160
B(  4-C , 12-H ) :   1.1065

FINAL SINGLE POINT ENERGY      -194.858588344720

DIPOLE MOMENT
-------------
                                X             Y             Z
Electronic contribution:      2.18692       2.72155      -2.93892
Nuclear contribution   :     -2.29374      -2.83488       3.17958
                        -----------------------------------------
Total Dipole Moment    :     -0.10682      -0.11333       0.24067
                        -----------------------------------------
Magnitude (a.u.)       :      0.28666
Magnitude (Debye)      :      0.72864

                             ****ORCA TERMINATED NORMALLY****
TOTAL RUN TIME: 0 days 0 hours 0 minutes 5 seconds 523 msec
