                         Program Version 3.0.3 - RELEASE   -
|  1> ! RI PBE def2-SVP def2-SVP/J NBO PAL2
|  2> % maxcore 2000
|  3> % output
|  4>     # printlevel mini
|  5>     print[ P_Basis ] 0
|  6>     print[ P_SCFInfo ] 1
|  7>     print[ P_SCFIterInfo ] 1
|  8>     print[ P_OrbEn ] 0
|  9>     print[ P_Cartesian ] 0
| 10> end
| 11> *xyz 0 1
| 12>  C        0.9894760000     0.0724990000    -0.0964000000
| 13>  C        2.4377890000     0.0500830000    -0.0682540000
| 14>  C        3.6427220000     0.0206970000    -0.0389390000
| 15>  C        5.0604010000     0.0263780000    -0.0274630000
| 16>  C        5.8198000000    -0.9203320000     0.5239430000
| 17>  H        0.6194100000     0.9801850000    -0.5794050000
| 18>  H        0.5777430000     0.0373120000     0.9157970000
| 19>  H        0.5955470000    -0.7863600000    -0.6464740000
| 20>  H        5.5375130000     0.8762820000    -0.5104360000
| 21>  H        5.3829520000    -1.7821790000     1.0141800000
| 22>  H        6.9001480000    -0.8503660000     0.4950320000
| 23> *
| 24>
| 25>                          ****END OF INPUT****
 Total Charge           Charge          ....    0
 Multiplicity           Mult            ....    1
 Number of Electrons    NEL             ....   36
 Basis Dimension        Dim             ....  100

MULLIKEN ATOMIC CHARGES
-----------------------
   0 C :    0.052455
   1 C :   -0.150816
   2 C :   -0.029373
   3 C :   -0.097611
   4 C :   -0.017019
   5 H :    0.049731
   6 H :    0.050108
   7 H :    0.052398
   8 H :    0.028773
   9 H :    0.028232
  10 H :    0.033122
Sum of atomic charges:   -0.0000000

LOEWDIN ATOMIC CHARGES
----------------------
   0 C :   -0.067123
   1 C :   -0.044611
   2 C :   -0.061742
   3 C :   -0.047198
   4 C :   -0.033929
   5 H :    0.051396
   6 H :    0.052630
   7 H :    0.053146
   8 H :    0.042073
   9 H :    0.028127
  10 H :    0.027232

  Mayer bond orders larger than 0.1
B(  0-C ,  1-C ) :   1.1308 B(  0-C ,  5-H ) :   0.9340 B(  0-C ,  6-H ) :   0.9306
B(  0-C ,  7-H ) :   0.9307 B(  1-C ,  2-C ) :   2.4662 B(  1-C ,  4-C ) :   0.1294
B(  2-C ,  3-C ) :   1.0626 B(  3-C ,  4-C ) :   1.9196 B(  3-C ,  8-H ) :   0.9451
B(  4-C ,  9-H ) :   0.9521 B(  4-C , 10-H ) :   0.9435

FINAL SINGLE POINT ENERGY      -193.651003550466

DIPOLE MOMENT
-------------
                                X             Y             Z
Electronic contribution:      1.33781       0.55141      -0.30178
Nuclear contribution   :     -1.64238      -0.53213       0.28743
                        -----------------------------------------
Total Dipole Moment    :     -0.30458       0.01928      -0.01435
                        -----------------------------------------
Magnitude (a.u.)       :      0.30552
Magnitude (Debye)      :      0.77658

                             ****ORCA TERMINATED NORMALLY****
TOTAL RUN TIME: 0 days 0 hours 0 minutes 4 seconds 336 msec
