                         Program Version 3.0.3 - RELEASE   -
|  1> ! RI PBE def2-SVP def2-SVP/J NBO PAL2
|  2> % maxcore 2000
|  3> % output
|  4>     # printlevel mini
|  5>     print[ P_Basis ] 0
|  6>     print[ P_SCFInfo ] 1
|  7>     print[ P_SCFIterInfo ] 1
|  8>     print[ P_OrbEn ] 0
|  9>     print[ P_Cartesian ] 0
| 10> end
| 11> *xyz 0 1
| 12>  C        0.9698570000     0.0423130000     0.0511400000
| 13>  C        2.4151090000     0.0422260000     0.0511660000
| 14>  C        3.6226940000     0.0422230000     0.0510160000
| 15>  C        4.9862420000     0.0422800000     0.0510430000
| 16>  C        6.1920290000     0.0423230000     0.0510910000
| 17>  H        0.5805210000     0.7458790000    -0.6893970000
| 18>  H        0.5804640000     0.3318600000     1.0306830000
| 19>  H        0.5804430000    -0.9507630000    -0.1879010000
| 20>  H        7.2560410000     0.0423590000     0.0511600000
| 21> *
| 22>
| 23>                          ****END OF INPUT****
 Total Charge           Charge          ....    0
 Multiplicity           Mult            ....    1
 Number of Electrons    NEL             ....   34
 Basis Dimension        Dim             ....   90

MULLIKEN ATOMIC CHARGES
-----------------------
   0 C :    0.054466
   1 C :   -0.176356
   2 C :    0.008865
   3 C :    0.353196
   4 C :   -0.425016
   5 H :    0.059497
   6 H :    0.057584
   7 H :    0.057548
   8 H :    0.010216
Sum of atomic charges:   -0.0000000

LOEWDIN ATOMIC CHARGES
----------------------
   0 C :   -0.064121
   1 C :   -0.005603
   2 C :   -0.071614
   3 C :   -0.030729
   4 C :   -0.037741
   5 H :    0.057451
   6 H :    0.057112
   7 H :    0.057094
   8 H :    0.038151

  Mayer bond orders larger than 0.1
B(  0-C ,  1-C ) :   1.1416 B(  0-C ,  5-H ) :   0.9279 B(  0-C ,  6-H ) :   0.9277
B(  0-C ,  7-H ) :   0.9278 B(  1-C ,  2-C ) :   2.3447 B(  1-C ,  4-C ) :   0.2643
B(  2-C ,  3-C ) :   0.9512 B(  3-C ,  4-C ) :   2.1508 B(  3-C ,  8-H ) :  -0.1058
B(  4-C ,  8-H ) :   1.0953

FINAL SINGLE POINT ENERGY      -192.413341212524

DIPOLE MOMENT
-------------
                                X             Y             Z
Electronic contribution:      4.34562      -0.00004      -0.00057
Nuclear contribution   :     -4.88041       0.00021       0.00016
                        -----------------------------------------
Total Dipole Moment    :     -0.53479       0.00017      -0.00041
                        -----------------------------------------
Magnitude (a.u.)       :      0.53479
Magnitude (Debye)      :      1.35933

                             ****ORCA TERMINATED NORMALLY****
TOTAL RUN TIME: 0 days 0 hours 0 minutes 4 seconds 7 msec
