                         Program Version 3.0.3 - RELEASE   -
|  1> ! RI PBE def2-SVP def2-SVP/J NBO PAL2
|  2> % maxcore 2000
|  3> % output
|  4>     # printlevel mini
|  5>     print[ P_Basis ] 0
|  6>     print[ P_SCFInfo ] 1
|  7>     print[ P_SCFIterInfo ] 1
|  8>     print[ P_OrbEn ] 0
|  9>     print[ P_Cartesian ] 0
| 10> end
| 11> *xyz 0 1
| 12>  C        2.2512760000    -1.4270790000     0.3492310000
| 13>  C        2.7839750000    -0.0436550000    -0.0086240000
| 14>  C        3.2373920000     0.7277620000     1.1868220000
| 15>  C        4.4667370000     1.1893310000     1.3827050000
| 16>  C        4.9190070000     1.9525870000     2.5805490000
| 17>  H        1.8940660000    -1.9552390000    -0.5380250000
| 18>  H        1.4174120000    -1.3572260000     1.0530870000
| 19>  H        3.0286500000    -2.0353410000     0.8175080000
| 20>  H        1.9925790000     0.5169340000    -0.5218930000
| 21>  H        3.6114860000    -0.1329930000    -0.7193160000
| 22>  H        2.4844480000     0.9055410000     1.9560350000
| 23>  H        5.2172630000     1.0063000000     0.6138460000
| 24>  H        4.1060470000     2.0896560000     3.2964300000
| 25>  H        5.2964160000     2.9416100000     2.3008470000
| 26>  H        5.7397460000     1.4385950000     3.0914080000
| 27> *
| 28>
| 29>                          ****END OF INPUT****
 Total Charge           Charge          ....    0
 Multiplicity           Mult            ....    1
 Number of Electrons    NEL             ....   40
 Basis Dimension        Dim             ....  120

MULLIKEN ATOMIC CHARGES
-----------------------
   0 C :   -0.047726
   1 C :    0.022372
   2 C :   -0.065956
   3 C :   -0.110535
   4 C :    0.033063
   5 H :    0.020986
   6 H :    0.025319
   7 H :    0.029063
   8 H :    0.021819
   9 H :    0.009898
  10 H :   -0.012808
  11 H :   -0.007334
  12 H :    0.020360
  13 H :    0.030500
  14 H :    0.030979
Sum of atomic charges:   -0.0000000

LOEWDIN ATOMIC CHARGES
----------------------
   0 C :   -0.066478
   1 C :   -0.047533
   2 C :   -0.046660
   3 C :   -0.051217
   4 C :   -0.067412
   5 H :    0.026149
   6 H :    0.025393
   7 H :    0.026878
   8 H :    0.032203
   9 H :    0.027514
  10 H :    0.019325
  11 H :    0.020613
  12 H :    0.030492
  13 H :    0.035603
  14 H :    0.035130

  Mayer bond orders larger than 0.1
B(  0-C ,  1-C ) :   1.1015 B(  0-C ,  5-H ) :   0.9588 B(  0-C ,  6-H ) :   0.9693
B(  0-C ,  7-H ) :   0.9683 B(  1-C ,  2-C ) :   1.0681 B(  1-C ,  8-H ) :   0.9193
B(  1-C ,  9-H ) :   0.9345 B(  2-C ,  3-C ) :   1.9349 B(  2-C , 10-H ) :   0.9476
B(  3-C ,  4-C ) :   1.0901 B(  3-C , 11-H ) :   0.9514 B(  4-C , 12-H ) :   0.9598
B(  4-C , 13-H ) :   0.9456 B(  4-C , 14-H ) :   0.9477

FINAL SINGLE POINT ENERGY      -196.106756618327

DIPOLE MOMENT
-------------
                                X             Y             Z
Electronic contribution:      0.44520       1.12236      -0.29105
Nuclear contribution   :     -0.42469      -1.10865       0.29608
                        -----------------------------------------
Total Dipole Moment    :      0.02051       0.01371       0.00502
                        -----------------------------------------
Magnitude (a.u.)       :      0.02518
Magnitude (Debye)      :      0.06399

                             ****ORCA TERMINATED NORMALLY****
TOTAL RUN TIME: 0 days 0 hours 0 minutes 5 seconds 782 msec
