                         Program Version 3.0.3 - RELEASE   -
|  1> ! RI PBE def2-SVP def2-SVP/J NBO PAL2
|  2> % maxcore 2000
|  3> % output
|  4>     # printlevel mini
|  5>     print[ P_Basis ] 0
|  6>     print[ P_SCFInfo ] 1
|  7>     print[ P_SCFIterInfo ] 1
|  8>     print[ P_OrbEn ] 0
|  9>     print[ P_Cartesian ] 0
| 10> end
| 11> *xyz 0 1
| 12>  C        2.1225610000     0.5126710000     1.5325410000
| 13>  C        2.5902870000     0.0279430000     0.1634060000
| 14>  C        3.0894000000    -1.3894380000     0.1559360000
| 15>  C        2.0913010000    -2.4565770000     0.4821400000
| 16>  C        4.3544960000    -1.6792270000    -0.1335620000
| 17>  H        1.8015060000     1.5556110000     1.4833680000
| 18>  H        2.9287900000     0.4420700000     2.2667750000
| 19>  H        1.2784590000    -0.0720410000     1.9046710000
| 20>  H        3.3819340000     0.6860220000    -0.2047690000
| 21>  H        1.7565010000     0.1128710000    -0.5454280000
| 22>  H        1.2319780000    -2.4048530000    -0.1952780000
| 23>  H        1.6977270000    -2.3391050000     1.4963140000
| 24>  H        2.5304340000    -3.4518350000     0.4039600000
| 25>  H        5.0716970000    -0.9016510000    -0.3744230000
| 26>  H        4.7153180000    -2.7022810000    -0.1418430000
| 27> *
| 28>
| 29>                          ****END OF INPUT****
 Total Charge           Charge          ....    0
 Multiplicity           Mult            ....    1
 Number of Electrons    NEL             ....   40
 Basis Dimension        Dim             ....  120

MULLIKEN ATOMIC CHARGES
-----------------------
   0 C :   -0.037753
   1 C :    0.032107
   2 C :   -0.199256
   3 C :    0.065443
   4 C :   -0.035142
   5 H :    0.022329
   6 H :    0.029446
   7 H :    0.021413
   8 H :    0.003706
   9 H :    0.020111
  10 H :    0.025392
  11 H :    0.029965
  12 H :    0.011711
  13 H :    0.006213
  14 H :    0.004315
Sum of atomic charges:   -0.0000000

LOEWDIN ATOMIC CHARGES
----------------------
   0 C :   -0.064510
   1 C :   -0.039378
   2 C :   -0.031633
   3 C :   -0.057124
   4 C :   -0.081443
   5 H :    0.028461
   6 H :    0.028365
   7 H :    0.022649
   8 H :    0.027801
   9 H :    0.030823
  10 H :    0.034980
  11 H :    0.034367
  12 H :    0.030511
  13 H :    0.018372
  14 H :    0.017760

  Mayer bond orders larger than 0.1
B(  0-C ,  1-C ) :   1.1057 B(  0-C ,  5-H ) :   0.9577 B(  0-C ,  6-H ) :   0.9668
B(  0-C ,  7-H ) :   0.9650 B(  1-C ,  2-C ) :   1.0687 B(  1-C ,  8-H ) :   0.9228
B(  1-C ,  9-H ) :   0.9196 B(  2-C ,  3-C ) :   1.0811 B(  2-C ,  4-C ) :   1.9905
B(  3-C , 10-H ) :   0.9429 B(  3-C , 11-H ) :   0.9433 B(  3-C , 12-H ) :   0.9493
B(  4-C , 13-H ) :   0.9331 B(  4-C , 14-H ) :   0.9353

FINAL SINGLE POINT ENERGY      -196.105753215308

DIPOLE MOMENT
-------------
                                X             Y             Z
Electronic contribution:      1.47147      -0.66261      -1.30101
Nuclear contribution   :     -1.68841       0.71824       1.35959
                        -----------------------------------------
Total Dipole Moment    :     -0.21694       0.05563       0.05858
                        -----------------------------------------
Magnitude (a.u.)       :      0.23149
Magnitude (Debye)      :      0.58841

                             ****ORCA TERMINATED NORMALLY****
TOTAL RUN TIME: 0 days 0 hours 0 minutes 5 seconds 772 msec
