                         Program Version 3.0.3 - RELEASE   -
|  1> ! RI PBE def2-SVP def2-SVP/J NBO PAL2
|  2> % maxcore 2000
|  3> % output
|  4>     # printlevel mini
|  5>     print[ P_Basis ] 0
|  6>     print[ P_SCFInfo ] 1
|  7>     print[ P_SCFIterInfo ] 1
|  8>     print[ P_OrbEn ] 0
|  9>     print[ P_Cartesian ] 0
| 10> end
| 11> *xyz 0 1
| 12>  C        0.9782260000     0.0381060000    -0.0601280000
| 13>  C        2.4940210000     0.0889550000     0.1154230000
| 14>  C        3.0050630000     1.4423550000     0.2758920000
| 15>  C        3.4075360000     2.5682300000     0.4068010000
| 16>  C        3.8989430000     3.9247990000     0.5650890000
| 17>  H        0.6405050000    -0.9940370000    -0.1767140000
| 18>  H        0.6712020000     0.6020860000    -0.9426000000
| 19>  H        0.4731930000     0.4693990000     0.8059090000
| 20>  H        2.9811580000    -0.3774960000    -0.7478230000
| 21>  H        2.7847460000    -0.5089360000     0.9860960000
| 22>  H        3.0932210000     4.6521640000     0.4366180000
| 23>  H        4.6737250000     4.1513850000    -0.1719200000
| 24>  H        4.3287590000     4.0746880000     1.5588600000
| 25> *
| 26>
| 27>                          ****END OF INPUT****
 Total Charge           Charge          ....    0
 Multiplicity           Mult            ....    1
 Number of Electrons    NEL             ....   38
 Basis Dimension        Dim             ....  110

MULLIKEN ATOMIC CHARGES
-----------------------
   0 C :   -0.030260
   1 C :    0.026411
   2 C :   -0.114117
   3 C :   -0.218452
   4 C :    0.054068
   5 H :    0.019115
   6 H :    0.032081
   7 H :    0.032076
   8 H :    0.032336
   9 H :    0.034498
  10 H :    0.045324
  11 H :    0.044758
  12 H :    0.042162
Sum of atomic charges:    0.0000000

LOEWDIN ATOMIC CHARGES
----------------------
   0 C :   -0.054628
   1 C :   -0.051931
   2 C :   -0.068019
   3 C :   -0.076159
   4 C :   -0.069796
   5 H :    0.025949
   6 H :    0.029410
   7 H :    0.029431
   8 H :    0.044710
   9 H :    0.044900
  10 H :    0.049286
  11 H :    0.048550
  12 H :    0.048297

  Mayer bond orders larger than 0.1
B(  0-C ,  1-C ) :   1.1048 B(  0-C ,  5-H ) :   0.9604 B(  0-C ,  6-H ) :   0.9706
B(  0-C ,  7-H ) :   0.9701 B(  1-C ,  2-C ) :   1.0802 B(  1-C ,  8-H ) :   0.9045
B(  1-C ,  9-H ) :   0.9076 B(  2-C ,  3-C ) :   2.5996 B(  3-C ,  4-C ) :   1.1429
B(  4-C , 10-H ) :   0.9297 B(  4-C , 11-H ) :   0.9341 B(  4-C , 12-H ) :   0.9316

FINAL SINGLE POINT ENERGY      -194.870074005111

DIPOLE MOMENT
-------------
                                X             Y             Z
Electronic contribution:      1.97948       0.71680       0.27790
Nuclear contribution   :     -1.99132      -0.68705      -0.27832
                        -----------------------------------------
Total Dipole Moment    :     -0.01184       0.02975      -0.00042
                        -----------------------------------------
Magnitude (a.u.)       :      0.03202
Magnitude (Debye)      :      0.08140

                             ****ORCA TERMINATED NORMALLY****
TOTAL RUN TIME: 0 days 0 hours 0 minutes 5 seconds 524 msec
