                         Program Version 3.0.3 - RELEASE   -
|  1> ! RI PBE def2-SVP def2-SVP/J NBO PAL2
|  2> % maxcore 2000
|  3> % output
|  4>     # printlevel mini
|  5>     print[ P_Basis ] 0
|  6>     print[ P_SCFInfo ] 1
|  7>     print[ P_SCFIterInfo ] 1
|  8>     print[ P_OrbEn ] 0
|  9>     print[ P_Cartesian ] 0
| 10> end
| 11> *xyz 0 1
| 12>  C        1.5200290000     0.7577820000    -0.0481800000
| 13>  C        2.9737560000     0.3218900000     0.0142680000
| 14>  C        3.1340130000    -1.1416250000     0.4190770000
| 15>  C        4.5607440000    -1.5647820000     0.5268440000
| 16>  C        5.1280750000    -2.5336510000    -0.1782190000
| 17>  H        1.4289490000     1.8057400000    -0.3426250000
| 18>  H        1.0307500000     0.6413680000     0.9230550000
| 19>  H        0.9597830000     0.1596570000    -0.7723050000
| 20>  H        3.5190000000     0.9533300000     0.7248420000
| 21>  H        3.4525800000     0.4759380000    -0.9583300000
| 22>  H        2.6127600000    -1.7839150000    -0.2988620000
| 23>  H        2.6394360000    -1.2901800000     1.3884070000
| 24>  H        5.1687180000    -1.0100970000     1.2409250000
| 25>  H        4.5618990000    -3.1113660000    -0.9028990000
| 26>  H        6.1746980000    -2.7881880000    -0.0568970000
| 27> *
| 28>
| 29>                          ****END OF INPUT****
 Total Charge           Charge          ....    0
 Multiplicity           Mult            ....    1
 Number of Electrons    NEL             ....   40
 Basis Dimension        Dim             ....  120

MULLIKEN ATOMIC CHARGES
-----------------------
   0 C :   -0.009707
   1 C :   -0.070835
   2 C :    0.047268
   3 C :   -0.074169
   4 C :   -0.041935
   5 H :    0.021548
   6 H :    0.016856
   7 H :    0.019004
   8 H :    0.015930
   9 H :    0.018474
  10 H :    0.002436
  11 H :    0.015303
  12 H :    0.001614
  13 H :    0.015970
  14 H :    0.022243
Sum of atomic charges:    0.0000000

LOEWDIN ATOMIC CHARGES
----------------------
   0 C :   -0.067627
   1 C :   -0.043541
   2 C :   -0.043446
   3 C :   -0.027332
   4 C :   -0.070742
   5 H :    0.027658
   6 H :    0.024252
   7 H :    0.025226
   8 H :    0.023433
   9 H :    0.025050
  10 H :    0.026623
  11 H :    0.032197
  12 H :    0.024032
  13 H :    0.020655
  14 H :    0.023561

  Mayer bond orders larger than 0.1
B(  0-C ,  1-C ) :   1.1171 B(  0-C ,  5-H ) :   0.9608 B(  0-C ,  6-H ) :   0.9649
B(  0-C ,  7-H ) :   0.9642 B(  1-C ,  2-C ) :   1.0763 B(  1-C ,  8-H ) :   0.9408
B(  1-C ,  9-H ) :   0.9433 B(  2-C ,  3-C ) :   1.0658 B(  2-C , 10-H ) :   0.9310
B(  2-C , 11-H ) :   0.9145 B(  3-C ,  4-C ) :   2.0155 B(  3-C , 12-H ) :   0.9520
B(  4-C , 13-H ) :   0.9486 B(  4-C , 14-H ) :   0.9431

FINAL SINGLE POINT ENERGY      -196.101268353452

DIPOLE MOMENT
-------------
                                X             Y             Z
Electronic contribution:      2.36651      -1.78127       0.45793
Nuclear contribution   :     -2.47803       1.90637      -0.41956
                        -----------------------------------------
Total Dipole Moment    :     -0.11152       0.12510       0.03838
                        -----------------------------------------
Magnitude (a.u.)       :      0.17193
Magnitude (Debye)      :      0.43701

                             ****ORCA TERMINATED NORMALLY****
TOTAL RUN TIME: 0 days 0 hours 0 minutes 5 seconds 453 msec
