                         Program Version 3.0.3 - RELEASE   -
|  1> ! RI PBE def2-SVP def2-SVP/J NBO PAL2
|  2> % maxcore 2000
|  3> % output
|  4>     # printlevel mini
|  5>     print[ P_Basis ] 0
|  6>     print[ P_SCFInfo ] 1
|  7>     print[ P_SCFIterInfo ] 1
|  8>     print[ P_OrbEn ] 0
|  9>     print[ P_Cartesian ] 0
| 10> end
| 11> *xyz 0 1
| 12>  C        1.0057190000     0.0276940000     0.0605540000
| 13>  C        2.5236370000     0.0192610000     0.0623010000
| 14>  C        3.1051320000     1.2060220000    -0.7081310000
| 15>  C        4.5578210000     1.2250920000    -0.7235210000
| 16>  C        5.7585970000     1.2204520000    -0.7236070000
| 17>  H        0.6052310000    -0.8242770000     0.6137190000
| 18>  H        0.6101280000    -0.0219850000    -0.9578520000
| 19>  H        0.6137560000     0.9378940000     0.5231700000
| 20>  H        2.8980860000    -0.9076520000    -0.3812570000
| 21>  H        2.9016950000     0.0446130000     1.0882450000
| 22>  H        2.7401950000     2.1420450000    -0.2697750000
| 23>  H        2.7368080000     1.1889620000    -1.7403910000
| 24>  H        6.8226950000     1.2221790000    -0.7269560000
| 25> *
| 26>
| 27>                          ****END OF INPUT****
 Total Charge           Charge          ....    0
 Multiplicity           Mult            ....    1
 Number of Electrons    NEL             ....   38
 Basis Dimension        Dim             ....  110

MULLIKEN ATOMIC CHARGES
-----------------------
   0 C :    0.000840
   1 C :   -0.074232
   2 C :    0.058149
   3 C :    0.345756
   4 C :   -0.501627
   5 H :    0.025536
   6 H :    0.016855
   7 H :    0.017732
   8 H :    0.024959
   9 H :    0.027728
  10 H :    0.031396
  11 H :    0.032496
  12 H :   -0.005588
Sum of atomic charges:   -0.0000000

LOEWDIN ATOMIC CHARGES
----------------------
   0 C :   -0.065869
   1 C :   -0.034780
   2 C :   -0.048122
   3 C :   -0.020696
   4 C :   -0.094517
   5 H :    0.030032
   6 H :    0.025190
   7 H :    0.025443
   8 H :    0.028697
   9 H :    0.029129
  10 H :    0.046416
  11 H :    0.046745
  12 H :    0.032332

  Mayer bond orders larger than 0.1
B(  0-C ,  1-C ) :   1.1166 B(  0-C ,  5-H ) :   0.9620 B(  0-C ,  6-H ) :   0.9636
B(  0-C ,  7-H ) :   0.9639 B(  1-C ,  2-C ) :   1.0764 B(  1-C ,  8-H ) :   0.9429
B(  1-C ,  9-H ) :   0.9434 B(  2-C ,  3-C ) :   1.0686 B(  2-C , 10-H ) :   0.8997
B(  2-C , 11-H ) :   0.8970 B(  3-C ,  4-C ) :   2.3320 B(  3-C , 12-H ) :  -0.1135
B(  4-C , 12-H ) :   1.1048

FINAL SINGLE POINT ENERGY      -194.858933726613

DIPOLE MOMENT
-------------
                                X             Y             Z
Electronic contribution:      5.61344       1.70824      -1.12042
Nuclear contribution   :     -5.94931      -1.76660       1.15858
                        -----------------------------------------
Total Dipole Moment    :     -0.33587      -0.05835       0.03816
                        -----------------------------------------
Magnitude (a.u.)       :      0.34303
Magnitude (Debye)      :      0.87192

                             ****ORCA TERMINATED NORMALLY****
TOTAL RUN TIME: 0 days 0 hours 0 minutes 4 seconds 913 msec
