                         Program Version 3.0.3 - RELEASE   -
|  1> ! RI PBE def2-SVP def2-SVP/J NBO PAL2
|  2> % maxcore 2000
|  3> % output
|  4>     # printlevel mini
|  5>     print[ P_Basis ] 0
|  6>     print[ P_SCFInfo ] 1
|  7>     print[ P_SCFIterInfo ] 1
|  8>     print[ P_OrbEn ] 0
|  9>     print[ P_Cartesian ] 0
| 10> end
| 11> *xyz 0 1
| 12>  N       -1.1236110000     0.0000000000     0.0005330000
| 13>  C       -0.3411960000     1.1165710000     0.0003970000
| 14>  C        0.9678830000     0.7083200000    -0.0000020000
| 15>  C        0.9678830000    -0.7083200000    -0.0001130000
| 16>  C       -0.3411960000    -1.1165710000     0.0002260000
| 17>  H       -2.1266960000     0.0000000000     0.0008140000
| 18>  H       -0.7738430000     2.1040040000     0.0005950000
| 19>  H        1.8296090000     1.3571860000    -0.0001950000
| 20>  H        1.8296090000    -1.3571860000    -0.0004070000
| 21>  H       -0.7738430000    -2.1040040000     0.0002730000
| 22> *
| 23>
| 24>                          ****END OF INPUT****
 Total Charge           Charge          ....    0
 Multiplicity           Mult            ....    1
 Number of Electrons    NEL             ....   36
 Basis Dimension        Dim             ....   95

MULLIKEN ATOMIC CHARGES
-----------------------
   0 N :   -0.060637
   1 C :    0.035044
   2 C :   -0.033549
   3 C :   -0.033549
   4 C :    0.035044
   5 H :    0.116168
   6 H :   -0.009823
   7 H :   -0.019438
   8 H :   -0.019438
   9 H :   -0.009823
Sum of atomic charges:   -0.0000000

LOEWDIN ATOMIC CHARGES
----------------------
   0 N :    0.100963
   1 C :   -0.043255
   2 C :   -0.087833
   3 C :   -0.087833
   4 C :   -0.043255
   5 H :    0.082407
   6 H :    0.016440
   7 H :    0.022963
   8 H :    0.022963
   9 H :    0.016440

  Mayer bond orders larger than 0.1
B(  0-N ,  1-C ) :   1.2286 B(  0-N ,  4-C ) :   1.2286 B(  0-N ,  5-H ) :   0.9447
B(  1-C ,  2-C ) :   1.4751 B(  1-C ,  4-C ) :   0.1016 B(  1-C ,  6-H ) :   0.9862
B(  2-C ,  3-C ) :   1.3219 B(  2-C ,  7-H ) :   1.0065 B(  3-C ,  4-C ) :   1.4751
B(  3-C ,  8-H ) :   1.0065 B(  4-C ,  9-H ) :   0.9862

FINAL SINGLE POINT ENERGY      -209.754998154207

DIPOLE MOMENT
-------------
                                X             Y             Z
Electronic contribution:     -0.82962      -0.00000       0.00024
Nuclear contribution   :      0.02855       0.00000      -0.00001
                        -----------------------------------------
Total Dipole Moment    :     -0.80107      -0.00000       0.00023
                        -----------------------------------------
Magnitude (a.u.)       :      0.80107
Magnitude (Debye)      :      2.03616

                             ****ORCA TERMINATED NORMALLY****
TOTAL RUN TIME: 0 days 0 hours 0 minutes 4 seconds 623 msec
