                         Program Version 3.0.3 - RELEASE   -
|  1> ! RI PBE def2-SVP def2-SVP/J NBO PAL2
|  2> % maxcore 2000
|  3> % output
|  4>     # printlevel mini
|  5>     print[ P_Basis ] 0
|  6>     print[ P_SCFInfo ] 1
|  7>     print[ P_SCFIterInfo ] 1
|  8>     print[ P_OrbEn ] 0
|  9>     print[ P_Cartesian ] 0
| 10> end
| 11> *xyz 0 1
| 12>  C       -0.3708120000     1.1832810000     0.0940960000
| 13>  N       -1.2304400000     0.0003690000    -0.0324400000
| 14>  C       -0.3746560000    -1.1867210000     0.0802770000
| 15>  C        1.0277290000    -0.6659930000    -0.0487090000
| 16>  C        1.0298800000     0.6595450000    -0.0409740000
| 17>  H       -0.5055590000     1.6667470000     1.0726210000
| 18>  H       -0.6243920000     1.9364290000    -0.6592220000
| 19>  H       -1.6596430000     0.0063920000    -0.9458530000
| 20>  H       -0.6306650000    -1.9302060000    -0.6817660000
| 21>  H       -0.5109860000    -1.6811260000     1.0531010000
| 22>  H        1.9025040000    -1.3037830000    -0.0843520000
| 23>  H        1.9067200000     1.2948660000    -0.0691880000
| 24> *
| 25>
| 26>                          ****END OF INPUT****
 Total Charge           Charge          ....    0
 Multiplicity           Mult            ....    1
 Number of Electrons    NEL             ....   38
 Basis Dimension        Dim             ....  105

MULLIKEN ATOMIC CHARGES
-----------------------
   0 C :    0.152669
   1 N :   -0.280707
   2 C :    0.151908
   3 C :   -0.099621
   4 C :   -0.099984
   5 H :    0.022760
   6 H :    0.018457
   7 H :    0.100116
   8 H :    0.018577
   9 H :    0.023054
  10 H :   -0.003606
  11 H :   -0.003624
Sum of atomic charges:   -0.0000000

LOEWDIN ATOMIC CHARGES
----------------------
   0 C :    0.014343
   1 N :   -0.109222
   2 C :    0.014231
   3 C :   -0.052138
   4 C :   -0.052179
   5 H :    0.020789
   6 H :    0.021289
   7 H :    0.054436
   8 H :    0.021316
   9 H :    0.020840
  10 H :    0.023152
  11 H :    0.023144

  Mayer bond orders larger than 0.1
B(  0-C ,  1-N ) :   1.0657 B(  0-C ,  4-C ) :   1.0120 B(  0-C ,  5-H ) :   0.9146
B(  0-C ,  6-H ) :   0.9388 B(  1-N ,  2-C ) :   1.0658 B(  1-N ,  7-H ) :   0.9555
B(  2-C ,  3-C ) :   1.0120 B(  2-C ,  8-H ) :   0.9387 B(  2-C ,  9-H ) :   0.9147
B(  3-C ,  4-C ) :   1.8888 B(  3-C , 10-H ) :   0.9858 B(  4-C , 11-H ) :   0.9858

FINAL SINGLE POINT ENERGY      -210.916525031235

DIPOLE MOMENT
-------------
                                X             Y             Z
Electronic contribution:      0.19904       0.00006      -0.07081
Nuclear contribution   :      0.03070       0.00181      -0.31875
                        -----------------------------------------
Total Dipole Moment    :      0.22974       0.00187      -0.38955
                        -----------------------------------------
Magnitude (a.u.)       :      0.45226
Magnitude (Debye)      :      1.14955

                             ****ORCA TERMINATED NORMALLY****
TOTAL RUN TIME: 0 days 0 hours 0 minutes 4 seconds 795 msec
