                         Program Version 3.0.3 - RELEASE   -
|  1> ! RI PBE def2-SVP def2-SVP/J NBO PAL2
|  2> % maxcore 2000
|  3> % output
|  4>     # printlevel mini
|  5>     print[ P_Basis ] 0
|  6>     print[ P_SCFInfo ] 1
|  7>     print[ P_SCFIterInfo ] 1
|  8>     print[ P_OrbEn ] 0
|  9>     print[ P_Cartesian ] 0
| 10> end
| 11> *xyz 0 1
| 12>  C        1.0235570000     0.0120560000    -0.1374450000
| 13>  C        2.5238260000     0.0231790000    -0.0768130000
| 14>  C        3.3282930000    -0.7717790000    -1.0709510000
| 15>  C        3.3357250000     0.7184480000    -1.1357080000
| 16>  N        4.5527000000     1.4299860000    -0.8732680000
| 17>  H        0.6067770000    -0.8742170000     0.3498860000
| 18>  H        0.6785850000     0.0073250000    -1.1751950000
| 19>  H        0.5959310000     0.8934730000     0.3491360000
| 20>  H        2.9487360000     0.0704450000     0.9224590000
| 21>  H        2.7962080000    -1.3221320000    -1.8382410000
| 22>  H        4.2318640000    -1.2601670000    -0.7223760000
| 23>  H        2.7605030000     1.1563800000    -1.9476440000
| 24>  H        5.1939370000     0.8647140000    -0.3323430000
| 25>  H        4.3731560000     2.2757910000    -0.3455960000
| 26> *
| 27>
| 28>                          ****END OF INPUT****
 Total Charge           Charge          ....    0
 Multiplicity           Mult            ....    1
 Number of Electrons    NEL             ....   40
 Basis Dimension        Dim             ....  115

MULLIKEN ATOMIC CHARGES
-----------------------
   0 C :    0.077024
   1 C :   -0.155424
   2 C :   -0.006444
   3 C :   -0.080062
   4 N :   -0.122584
   5 H :    0.020243
   6 H :    0.003494
   7 H :    0.020087
   8 H :    0.005488
   9 H :    0.029451
  10 H :    0.024149
  11 H :    0.016416
  12 H :    0.076305
  13 H :    0.091855
Sum of atomic charges:   -0.0000000

LOEWDIN ATOMIC CHARGES
----------------------
   0 C :   -0.056231
   1 C :   -0.070697
   2 C :   -0.050829
   3 C :   -0.009275
   4 N :   -0.085716
   5 H :    0.027292
   6 H :    0.025651
   7 H :    0.027523
   8 H :    0.018833
   9 H :    0.026262
  10 H :    0.024351
  11 H :    0.018492
  12 H :    0.050035
  13 H :    0.054308

  Mayer bond orders larger than 0.1
B(  0-C ,  1-C ) :   1.0928 B(  0-C ,  5-H ) :   0.9563 B(  0-C ,  6-H ) :   0.9506
B(  0-C ,  7-H ) :   0.9620 B(  1-C ,  2-C ) :   0.9821 B(  1-C ,  3-C ) :   0.9149
B(  1-C ,  8-H ) :   0.9394 B(  2-C ,  3-C ) :   1.0027 B(  2-C ,  9-H ) :   0.9445
B(  2-C , 10-H ) :   0.9420 B(  3-C ,  4-N ) :   1.1586 B(  3-C , 11-H ) :   0.9432
B(  4-N , 12-H ) :   0.9614 B(  4-N , 13-H ) :   0.9707

FINAL SINGLE POINT ENERGY      -212.114347276354

DIPOLE MOMENT
-------------
                                X             Y             Z
Electronic contribution:      2.21807       0.84595      -0.55898
Nuclear contribution   :     -2.32634      -0.86308       1.02328
                        -----------------------------------------
Total Dipole Moment    :     -0.10827      -0.01713       0.46430
                        -----------------------------------------
Magnitude (a.u.)       :      0.47707
Magnitude (Debye)      :      1.21261

                             ****ORCA TERMINATED NORMALLY****
TOTAL RUN TIME: 0 days 0 hours 0 minutes 5 seconds 452 msec
