                         Program Version 3.0.3 - RELEASE   -
|  1> ! RI PBE def2-SVP def2-SVP/J NBO PAL2
|  2> % maxcore 2000
|  3> % output
|  4>     # printlevel mini
|  5>     print[ P_Basis ] 0
|  6>     print[ P_SCFInfo ] 1
|  7>     print[ P_SCFIterInfo ] 1
|  8>     print[ P_OrbEn ] 0
|  9>     print[ P_Cartesian ] 0
| 10> end
| 11> *xyz 0 1
| 12>  C        1.1481110000    -0.0493790000     0.3808060000
| 13>  C        2.5933140000     0.1012100000    -0.0450650000
| 14>  C        3.3763120000     1.1914610000     0.7150160000
| 15>  C        3.9889320000     0.0441170000     1.5336160000
| 16>  N        3.5216270000    -0.9048350000     0.5105600000
| 17>  H        0.5435900000     0.7839000000     0.0111350000
| 18>  H        1.0579430000    -0.0749780000     1.4711370000
| 19>  H        0.7192600000    -0.9731910000    -0.0187940000
| 20>  H        2.6484010000     0.1628120000    -1.1375830000
| 21>  H        2.7818180000     1.9280610000     1.2560650000
| 22>  H        4.1072730000     1.7045100000     0.0903950000
| 23>  H        3.5154760000    -0.0728720000     2.5162990000
| 24>  H        5.0731670000     0.0562510000     1.6732950000
| 25>  H        3.0821650000    -1.7473670000     0.8606990000
| 26> *
| 27>
| 28>                          ****END OF INPUT****
 Total Charge           Charge          ....    0
 Multiplicity           Mult            ....    1
 Number of Electrons    NEL             ....   40
 Basis Dimension        Dim             ....  115

MULLIKEN ATOMIC CHARGES
-----------------------
   0 C :    0.048217
   1 C :   -0.091243
   2 C :   -0.022019
   3 C :    0.107557
   4 N :   -0.236904
   5 H :    0.020935
   6 H :    0.005534
   7 H :    0.024222
   8 H :    0.012158
   9 H :    0.012015
  10 H :    0.020202
  11 H :    0.002386
  12 H :    0.012693
  13 H :    0.084247
Sum of atomic charges:    0.0000000

LOEWDIN ATOMIC CHARGES
----------------------
   0 C :   -0.076136
   1 C :    0.009914
   2 C :   -0.040585
   3 C :    0.024456
   4 N :   -0.110079
   5 H :    0.029903
   6 H :    0.022928
   7 H :    0.026912
   8 H :    0.011163
   9 H :    0.018704
  10 H :    0.028141
  11 H :    0.003277
  12 H :    0.010967
  13 H :    0.040434

  Mayer bond orders larger than 0.1
B(  0-C ,  1-C ) :   1.0733 B(  0-C ,  5-H ) :   0.9481 B(  0-C ,  6-H ) :   0.9493
B(  0-C ,  7-H ) :   0.9550 B(  1-C ,  2-C ) :   1.0829 B(  1-C ,  4-N ) :   1.0735
B(  1-C ,  8-H ) :   0.9236 B(  2-C ,  3-C ) :   1.1110 B(  2-C ,  9-H ) :   0.9446
B(  2-C , 10-H ) :   0.9159 B(  3-C ,  4-N ) :   1.0582 B(  3-C , 11-H ) :   0.9307
B(  3-C , 12-H ) :   0.9372 B(  4-N , 13-H ) :   0.9488

FINAL SINGLE POINT ENERGY      -212.111945292958

DIPOLE MOMENT
-------------
                                X             Y             Z
Electronic contribution:      2.05972      -1.01352      -0.69693
Nuclear contribution   :     -2.43114       1.10996       0.96776
                        -----------------------------------------
Total Dipole Moment    :     -0.37142       0.09644       0.27082
                        -----------------------------------------
Magnitude (a.u.)       :      0.46968
Magnitude (Debye)      :      1.19384

                             ****ORCA TERMINATED NORMALLY****
TOTAL RUN TIME: 0 days 0 hours 0 minutes 5 seconds 177 msec
