                         Program Version 3.0.3 - RELEASE   -
|  1> ! RI PBE def2-SVP def2-SVP/J NBO PAL2
|  2> % maxcore 2000
|  3> % output
|  4>     # printlevel mini
|  5>     print[ P_Basis ] 0
|  6>     print[ P_SCFInfo ] 1
|  7>     print[ P_SCFIterInfo ] 1
|  8>     print[ P_OrbEn ] 0
|  9>     print[ P_Cartesian ] 0
| 10> end
| 11> *xyz 0 1
| 12>  C        0.8357960000     0.0146560000    -0.1950250000
| 13>  C        2.3026810000    -0.1374440000     0.1036350000
| 14>  C        2.6607330000    -0.1527430000     1.5644030000
| 15>  C        3.1433180000    -0.8790650000    -0.8575710000
| 16>  N        3.2572220000     0.5770600000    -0.7441700000
| 17>  H        0.2546220000    -0.7863390000     0.2702340000
| 18>  H        0.6449450000    -0.0142930000    -1.2710210000
| 19>  H        0.4583500000     0.9657540000     0.1934610000
| 20>  H        2.1906740000    -0.9990400000     2.0733280000
| 21>  H        2.3238090000     0.7659750000     2.0535200000
| 22>  H        3.7414800000    -0.2248950000     1.6915040000
| 23>  H        2.6641320000    -1.2961460000    -1.7384990000
| 24>  H        4.0085150000    -1.4331020000    -0.5074040000
| 25>  H        2.7735340000     1.0217230000    -1.5177050000
| 26> *
| 27>
| 28>                          ****END OF INPUT****
 Total Charge           Charge          ....    0
 Multiplicity           Mult            ....    1
 Number of Electrons    NEL             ....   40
 Basis Dimension        Dim             ....  115

MULLIKEN ATOMIC CHARGES
-----------------------
   0 C :    0.105332
   1 C :   -0.335932
   2 C :    0.122273
   3 C :    0.059597
   4 N :   -0.178711
   5 H :    0.024725
   6 H :   -0.001950
   7 H :    0.019884
   8 H :    0.014353
   9 H :    0.014512
  10 H :    0.012476
  11 H :    0.020983
  12 H :    0.025571
  13 H :    0.096887
Sum of atomic charges:   -0.0000000

LOEWDIN ATOMIC CHARGES
----------------------
   0 C :   -0.057137
   1 C :   -0.038357
   2 C :   -0.051770
   3 C :   -0.000182
   4 N :   -0.104125
   5 H :    0.032622
   6 H :    0.023745
   7 H :    0.028815
   8 H :    0.027131
   9 H :    0.028126
  10 H :    0.031941
  11 H :    0.012391
  12 H :    0.017706
  13 H :    0.049094

  Mayer bond orders larger than 0.1
B(  0-C ,  1-C ) :   1.0820 B(  0-C ,  5-H ) :   0.9515 B(  0-C ,  6-H ) :   0.9369
B(  0-C ,  7-H ) :   0.9531 B(  1-C ,  2-C ) :   1.0679 B(  1-C ,  3-C ) :   1.0393
B(  1-C ,  4-N ) :   0.9718 B(  2-C ,  8-H ) :   0.9555 B(  2-C ,  9-H ) :   0.9525
B(  2-C , 10-H ) :   0.9396 B(  3-C ,  4-N ) :   0.9953 B(  3-C , 11-H ) :   0.9420
B(  3-C , 12-H ) :   0.9366 B(  4-N , 13-H ) :   0.9458

FINAL SINGLE POINT ENERGY      -212.114365771816

DIPOLE MOMENT
-------------
                                X             Y             Z
Electronic contribution:      2.00691       0.71380      -1.54660
Nuclear contribution   :     -2.56232      -0.94675       1.37696
                        -----------------------------------------
Total Dipole Moment    :     -0.55541      -0.23295      -0.16964
                        -----------------------------------------
Magnitude (a.u.)       :      0.62572
Magnitude (Debye)      :      1.59045

                             ****ORCA TERMINATED NORMALLY****
TOTAL RUN TIME: 0 days 0 hours 0 minutes 5 seconds 522 msec
