                         Program Version 3.0.3 - RELEASE   -
|  1> ! RI PBE def2-SVP def2-SVP/J NBO PAL2
|  2> % maxcore 2000
|  3> % output
|  4>     # printlevel mini
|  5>     print[ P_Basis ] 0
|  6>     print[ P_SCFInfo ] 1
|  7>     print[ P_SCFIterInfo ] 1
|  8>     print[ P_OrbEn ] 0
|  9>     print[ P_Cartesian ] 0
| 10> end
| 11> *xyz 0 1
| 12>  C        1.0280670000     0.0361140000     0.1005140000
| 13>  C        2.5252550000    -0.0054760000     0.0529900000
| 14>  C        3.2690080000    -0.7217850000    -1.0090830000
| 15>  N        3.1882960000     0.7256930000    -1.0064960000
| 16>  C        4.4009480000     1.4226990000    -0.6456350000
| 17>  H        0.6317150000    -0.8166650000     0.6583420000
| 18>  H        0.6166590000     0.0100710000    -0.9100560000
| 19>  H        0.6761780000     0.9507340000     0.5852850000
| 20>  H        3.0234180000     0.0196430000     1.0230320000
| 21>  H        2.7289070000    -1.2254380000    -1.8050400000
| 22>  H        4.2206060000    -1.1757010000    -0.7402240000
| 23>  H        5.0255270000     1.5512340000    -1.5330270000
| 24>  H        4.9929040000     0.8926910000     0.1182610000
| 25>  H        4.1509040000     2.4138850000    -0.2595530000
| 26> *
| 27>
| 28>                          ****END OF INPUT****
 Total Charge           Charge          ....    0
 Multiplicity           Mult            ....    1
 Number of Electrons    NEL             ....   40
 Basis Dimension        Dim             ....  115

MULLIKEN ATOMIC CHARGES
-----------------------
   0 C :    0.097586
   1 C :   -0.123065
   2 C :    0.064954
   3 N :   -0.284616
   4 C :    0.086778
   5 H :    0.020736
   6 H :    0.011104
   7 H :    0.022160
   8 H :    0.011961
   9 H :    0.026671
  10 H :    0.019628
  11 H :    0.026950
  12 H :   -0.005616
  13 H :    0.024769
Sum of atomic charges:   -0.0000000

LOEWDIN ATOMIC CHARGES
----------------------
   0 C :   -0.061799
   1 C :   -0.007451
   2 C :    0.000970
   3 N :   -0.111795
   4 C :   -0.001276
   5 H :    0.030021
   6 H :    0.031873
   7 H :    0.030520
   8 H :    0.010210
   9 H :    0.018551
  10 H :    0.011614
  11 H :    0.024034
  12 H :    0.000463
  13 H :    0.024066

  Mayer bond orders larger than 0.1
B(  0-C ,  1-C ) :   1.0896 B(  0-C ,  5-H ) :   0.9561 B(  0-C ,  6-H ) :   0.9457
B(  0-C ,  7-H ) :   0.9564 B(  1-C ,  2-C ) :   1.0513 B(  1-C ,  3-N ) :   0.9292
B(  1-C ,  8-H ) :   0.9291 B(  2-C ,  3-N ) :   0.9674 B(  2-C ,  9-H ) :   0.9404
B(  2-C , 10-H ) :   0.9348 B(  3-N ,  4-C ) :   1.0289 B(  4-C , 11-H ) :   0.9703
B(  4-C , 12-H ) :   0.9367 B(  4-C , 13-H ) :   0.9702

FINAL SINGLE POINT ENERGY      -212.105187913374

DIPOLE MOMENT
-------------
                                X             Y             Z
Electronic contribution:      0.15231      -0.06375      -1.15296
Nuclear contribution   :      0.03224      -0.10269       1.46810
                        -----------------------------------------
Total Dipole Moment    :      0.18455      -0.16644       0.31513
                        -----------------------------------------
Magnitude (a.u.)       :      0.40133
Magnitude (Debye)      :      1.02011

                             ****ORCA TERMINATED NORMALLY****
TOTAL RUN TIME: 0 days 0 hours 0 minutes 5 seconds 239 msec
