                         Program Version 3.0.3 - RELEASE   -
|  1> ! RI PBE def2-SVP def2-SVP/J NBO PAL2
|  2> % maxcore 2000
|  3> % output
|  4>     # printlevel mini
|  5>     print[ P_Basis ] 0
|  6>     print[ P_SCFInfo ] 1
|  7>     print[ P_SCFIterInfo ] 1
|  8>     print[ P_OrbEn ] 0
|  9>     print[ P_Cartesian ] 0
| 10> end
| 11> *xyz 0 1
| 12>  C        1.0083100000     0.0624190000     0.0372420000
| 13>  C        2.5155670000     0.0555310000     0.0692590000
| 14>  C        3.2603940000     1.1145080000     0.9027850000
| 15>  N        4.2199540000     0.0753700000     1.3077070000
| 16>  C        3.2498430000    -0.9715170000     0.9507220000
| 17>  H        0.6270950000     0.9340510000    -0.5022460000
| 18>  H        0.5930510000     0.0877470000     1.0487270000
| 19>  H        0.6181760000    -0.8291580000    -0.4617570000
| 20>  H        2.9231960000     0.0301740000    -0.9445620000
| 21>  H        2.6287170000     1.4871600000     1.7224400000
| 22>  H        3.6992170000     1.9684070000     0.3790000000
| 23>  H        4.5074630000     0.0961990000     2.2774770000
| 24>  H        2.6146170000    -1.2997110000     1.7864840000
| 25>  H        3.6798870000    -1.8529710000     0.4668230000
| 26> *
| 27>
| 28>                          ****END OF INPUT****
 Total Charge           Charge          ....    0
 Multiplicity           Mult            ....    1
 Number of Electrons    NEL             ....   40
 Basis Dimension        Dim             ....  115

MULLIKEN ATOMIC CHARGES
-----------------------
   0 C :    0.056942
   1 C :   -0.268221
   2 C :    0.168026
   3 N :   -0.281439
   4 C :    0.169524
   5 H :    0.023524
   6 H :    0.008104
   7 H :    0.023155
   8 H :    0.020659
   9 H :   -0.014593
  10 H :    0.008931
  11 H :    0.091714
  12 H :   -0.014759
  13 H :    0.008433
Sum of atomic charges:   -0.0000000

LOEWDIN ATOMIC CHARGES
----------------------
   0 C :   -0.064915
   1 C :   -0.047989
   2 C :    0.028040
   3 N :   -0.115692
   4 C :    0.028213
   5 H :    0.029319
   6 H :    0.021154
   7 H :    0.029274
   8 H :    0.028813
   9 H :    0.001094
  10 H :    0.008557
  11 H :    0.044606
  12 H :    0.001036
  13 H :    0.008491

  Mayer bond orders larger than 0.1
B(  0-C ,  1-C ) :   1.0895 B(  0-C ,  5-H ) :   0.9594 B(  0-C ,  6-H ) :   0.9516
B(  0-C ,  7-H ) :   0.9593 B(  1-C ,  2-C ) :   1.0685 B(  1-C ,  4-C ) :   1.0672
B(  1-C ,  8-H ) :   0.9031 B(  2-C ,  3-N ) :   1.0519 B(  2-C ,  9-H ) :   0.9228
B(  2-C , 10-H ) :   0.9380 B(  3-N ,  4-C ) :   1.0522 B(  3-N , 11-H ) :   0.9433
B(  4-C , 12-H ) :   0.9230 B(  4-C , 13-H ) :   0.9378

FINAL SINGLE POINT ENERGY      -212.110617340710

DIPOLE MOMENT
-------------
                                X             Y             Z
Electronic contribution:      3.03125      -0.00442       0.47660
Nuclear contribution   :     -3.39924       0.01166      -0.24113
                        -----------------------------------------
Total Dipole Moment    :     -0.36798       0.00723       0.23547
                        -----------------------------------------
Magnitude (a.u.)       :      0.43693
Magnitude (Debye)      :      1.11059

                             ****ORCA TERMINATED NORMALLY****
TOTAL RUN TIME: 0 days 0 hours 0 minutes 5 seconds 49 msec
