                         Program Version 3.0.3 - RELEASE   -
|  1> ! RI PBE def2-SVP def2-SVP/J NBO PAL2
|  2> % maxcore 2000
|  3> % output
|  4>     # printlevel mini
|  5>     print[ P_Basis ] 0
|  6>     print[ P_SCFInfo ] 1
|  7>     print[ P_SCFIterInfo ] 1
|  8>     print[ P_OrbEn ] 0
|  9>     print[ P_Cartesian ] 0
| 10> end
| 11> *xyz 0 1
| 12>  C        0.9565710000     0.0964140000    -0.0214480000
| 13>  C        2.4508100000     0.1770010000     0.0701000000
| 14>  N        3.2872100000    -0.6148300000    -0.8307550000
| 15>  C        3.2494810000     0.8422860000    -0.9765490000
| 16>  C        4.5197310000     1.5795070000    -0.6799920000
| 17>  H        0.5832320000    -0.8267140000     0.4313800000
| 18>  H        0.6272020000     0.1182670000    -1.0645780000
| 19>  H        0.4837690000     0.9352520000     0.4965760000
| 20>  H        2.8451260000     0.2096450000     1.0839440000
| 21>  H        2.7066630000    -1.0560250000    -1.5371410000
| 22>  H        2.6760060000     1.2298120000    -1.8173530000
| 23>  H        5.0303710000     1.1250950000     0.1710930000
| 24>  H        4.3194850000     2.6287670000    -0.4461510000
| 25>  H        5.2001350000     1.5462240000    -1.5351160000
| 26> *
| 27>
| 28>                          ****END OF INPUT****
 Total Charge           Charge          ....    0
 Multiplicity           Mult            ....    1
 Number of Electrons    NEL             ....   40
 Basis Dimension        Dim             ....  115

MULLIKEN ATOMIC CHARGES
-----------------------
   0 C :    0.074368
   1 C :   -0.099581
   2 N :   -0.169600
   3 C :   -0.137664
   4 C :    0.091301
   5 H :    0.028758
   6 H :   -0.001870
   7 H :    0.030210
   8 H :    0.016141
   9 H :    0.097356
  10 H :    0.012057
  11 H :    0.011575
  12 H :    0.021698
  13 H :    0.025253
Sum of atomic charges:   -0.0000000

LOEWDIN ATOMIC CHARGES
----------------------
   0 C :   -0.067085
   1 C :   -0.012051
   2 N :   -0.106580
   3 C :   -0.011527
   4 C :   -0.064650
   5 H :    0.030967
   6 H :    0.024162
   7 H :    0.034641
   8 H :    0.018909
   9 H :    0.049271
  10 H :    0.011702
  11 H :    0.031924
  12 H :    0.029342
  13 H :    0.030975

  Mayer bond orders larger than 0.1
B(  0-C ,  1-C ) :   1.0906 B(  0-C ,  5-H ) :   0.9550 B(  0-C ,  6-H ) :   0.9416
B(  0-C ,  7-H ) :   0.9539 B(  1-C ,  2-N ) :   0.9795 B(  1-C ,  3-C ) :   1.0075
B(  1-C ,  8-H ) :   0.9294 B(  2-N ,  3-C ) :   0.9972 B(  2-N ,  9-H ) :   0.9445
B(  3-C ,  4-C ) :   1.0794 B(  3-C , 10-H ) :   0.9397 B(  4-C , 11-H ) :   0.9425
B(  4-C , 12-H ) :   0.9582 B(  4-C , 13-H ) :   0.9524

FINAL SINGLE POINT ENERGY      -212.115530215126

DIPOLE MOMENT
-------------
                                X             Y             Z
Electronic contribution:      0.83876      -1.71867      -0.37894
Nuclear contribution   :     -1.37045       2.01120       0.22039
                        -----------------------------------------
Total Dipole Moment    :     -0.53169       0.29253      -0.15855
                        -----------------------------------------
Magnitude (a.u.)       :      0.62722
Magnitude (Debye)      :      1.59427

                             ****ORCA TERMINATED NORMALLY****
TOTAL RUN TIME: 0 days 0 hours 0 minutes 5 seconds 54 msec
