                         Program Version 3.0.3 - RELEASE   -
|  1> ! RI PBE def2-SVP def2-SVP/J NBO PAL2
|  2> % maxcore 2000
|  3> % output
|  4>     # printlevel mini
|  5>     print[ P_Basis ] 0
|  6>     print[ P_SCFInfo ] 1
|  7>     print[ P_SCFIterInfo ] 1
|  8>     print[ P_OrbEn ] 0
|  9>     print[ P_Cartesian ] 0
| 10> end
| 11> *xyz 0 1
| 12>  C        0.8988570000     0.1061280000    -0.1574960000
| 13>  C        2.3987800000     0.1095520000    -0.0033180000
| 14>  N        2.9277770000     0.1905650000     1.3322320000
| 15>  C        3.2156130000    -0.7062780000    -0.9572910000
| 16>  C        3.2217310000     0.7936330000    -1.0511640000
| 17>  H        0.4556900000    -0.7454570000     0.3689720000
| 18>  H        0.6019900000     0.0415340000    -1.2071080000
| 19>  H        0.4629410000     1.0204310000     0.2582390000
| 20>  H        2.6031170000    -0.5910420000     1.8906010000
| 21>  H        2.6093380000     1.0377450000     1.7893430000
| 22>  H        2.6957840000    -1.2652890000    -1.7261190000
| 23>  H        4.1034860000    -1.1807930000    -0.5600040000
| 24>  H        2.7058900000     1.2567490000    -1.8837850000
| 25>  H        4.1131960000     1.3073120000    -0.7154030000
| 26> *
| 27>
| 28>                          ****END OF INPUT****
 Total Charge           Charge          ....    0
 Multiplicity           Mult            ....    1
 Number of Electrons    NEL             ....   40
 Basis Dimension        Dim             ....  115

MULLIKEN ATOMIC CHARGES
-----------------------
   0 C :    0.118001
   1 C :   -0.264262
   2 N :   -0.138853
   3 C :   -0.001379
   4 C :   -0.006091
   5 H :    0.009021
   6 H :   -0.004043
   7 H :    0.008205
   8 H :    0.089217
   9 H :    0.087495
  10 H :    0.025018
  11 H :    0.026184
  12 H :    0.024285
  13 H :    0.027202
Sum of atomic charges:   -0.0000000

LOEWDIN ATOMIC CHARGES
----------------------
   0 C :   -0.061265
   1 C :   -0.038387
   2 N :   -0.081070
   3 C :   -0.046033
   4 C :   -0.046594
   5 H :    0.022547
   6 H :    0.025694
   7 H :    0.022345
   8 H :    0.051565
   9 H :    0.051102
  10 H :    0.022544
  11 H :    0.027493
  12 H :    0.022421
  13 H :    0.027638

  Mayer bond orders larger than 0.1
B(  0-C ,  1-C ) :   1.0674 B(  0-C ,  5-H ) :   0.9545 B(  0-C ,  6-H ) :   0.9312
B(  0-C ,  7-H ) :   0.9545 B(  1-C ,  2-N ) :   1.1386 B(  1-C ,  3-C ) :   0.9766
B(  1-C ,  4-C ) :   0.9775 B(  2-N ,  8-H ) :   0.9684 B(  2-N ,  9-H ) :   0.9684
B(  3-C ,  4-C ) :   1.0343 B(  3-C , 10-H ) :   0.9490 B(  3-C , 11-H ) :   0.9374
B(  4-C , 12-H ) :   0.9491 B(  4-C , 13-H ) :   0.9377

FINAL SINGLE POINT ENERGY      -212.119002321859

DIPOLE MOMENT
-------------
                                X             Y             Z
Electronic contribution:      1.62267       0.03833       0.75511
Nuclear contribution   :     -2.08976      -0.02724      -0.57534
                        -----------------------------------------
Total Dipole Moment    :     -0.46709       0.01109       0.17977
                        -----------------------------------------
Magnitude (a.u.)       :      0.50062
Magnitude (Debye)      :      1.27246

                             ****ORCA TERMINATED NORMALLY****
TOTAL RUN TIME: 0 days 0 hours 0 minutes 5 seconds 156 msec
