                         Program Version 3.0.3 - RELEASE   -
|  1> ! RI PBE def2-SVP def2-SVP/J NBO PAL2
|  2> % maxcore 2000
|  3> % output
|  4>     # printlevel mini
|  5>     print[ P_Basis ] 0
|  6>     print[ P_SCFInfo ] 1
|  7>     print[ P_SCFIterInfo ] 1
|  8>     print[ P_OrbEn ] 0
|  9>     print[ P_Cartesian ] 0
| 10> end
| 11> *xyz 0 1
| 12>  C        1.0082640000    -0.0132020000     0.2154400000
| 13>  C        2.4805600000     0.2487310000    -0.0652130000
| 14>  C        3.0021120000    -0.5437410000    -1.2300250000
| 15>  C        4.4088840000    -0.9767770000    -1.2827840000
| 16>  N        3.3423740000    -1.9550560000    -1.0675630000
| 17>  H        0.6555480000     0.5729800000     1.0668550000
| 18>  H        0.8288550000    -1.0684820000     0.4363560000
| 19>  H        0.3921400000     0.2499260000    -0.6483940000
| 20>  H        3.0808740000     0.0105570000     0.8216320000
| 21>  H        2.6355210000     1.3158270000    -0.2614100000
| 22>  H        2.5043260000    -0.3394380000    -2.1762640000
| 23>  H        5.0461980000    -0.7110390000    -0.4441080000
| 24>  H        4.9229600000    -1.0603380000    -2.2342840000
| 25>  H        3.2995840000    -2.2049500000    -0.0839180000
| 26> *
| 27>
| 28>                          ****END OF INPUT****
 Total Charge           Charge          ....    0
 Multiplicity           Mult            ....    1
 Number of Electrons    NEL             ....   40
 Basis Dimension        Dim             ....  115

MULLIKEN ATOMIC CHARGES
-----------------------
   0 C :   -0.019215
   1 C :    0.039954
   2 C :   -0.113202
   3 C :    0.029655
   4 N :   -0.197056
   5 H :    0.022884
   6 H :    0.021686
   7 H :    0.023488
   8 H :   -0.011011
   9 H :    0.022493
  10 H :    0.019269
  11 H :    0.025921
  12 H :    0.033164
  13 H :    0.101972
Sum of atomic charges:   -0.0000000

LOEWDIN ATOMIC CHARGES
----------------------
   0 C :   -0.065675
   1 C :   -0.051997
   2 C :   -0.008880
   3 C :   -0.003245
   4 N :   -0.107641
   5 H :    0.027100
   6 H :    0.025780
   7 H :    0.027722
   8 H :    0.022049
   9 H :    0.031960
  10 H :    0.020387
  11 H :    0.013439
  12 H :    0.020110
  13 H :    0.048889

  Mayer bond orders larger than 0.1
B(  0-C ,  1-C ) :   1.1093 B(  0-C ,  5-H ) :   0.9613 B(  0-C ,  6-H ) :   0.9686
B(  0-C ,  7-H ) :   0.9647 B(  1-C ,  2-C ) :   1.0717 B(  1-C ,  8-H ) :   0.9130
B(  1-C ,  9-H ) :   0.9267 B(  2-C ,  3-C ) :   1.0530 B(  2-C ,  4-N ) :   0.9803
B(  2-C , 10-H ) :   0.9323 B(  3-C ,  4-N ) :   1.0128 B(  3-C , 11-H ) :   0.9403
B(  3-C , 12-H ) :   0.9406 B(  4-N , 13-H ) :   0.9480

FINAL SINGLE POINT ENERGY      -212.108764663998

DIPOLE MOMENT
-------------
                                X             Y             Z
Electronic contribution:      2.03160      -1.95131      -1.79718
Nuclear contribution   :     -1.97219       2.42829       2.25780
                        -----------------------------------------
Total Dipole Moment    :      0.05941       0.47698       0.46063
                        -----------------------------------------
Magnitude (a.u.)       :      0.66574
Magnitude (Debye)      :      1.69218

                             ****ORCA TERMINATED NORMALLY****
TOTAL RUN TIME: 0 days 0 hours 0 minutes 5 seconds 80 msec
