                         Program Version 3.0.3 - RELEASE   -
|  1> ! RI PBE def2-SVP def2-SVP/J NBO PAL2
|  2> % maxcore 2000
|  3> % output
|  4>     # printlevel mini
|  5>     print[ P_Basis ] 0
|  6>     print[ P_SCFInfo ] 1
|  7>     print[ P_SCFIterInfo ] 1
|  8>     print[ P_OrbEn ] 0
|  9>     print[ P_Cartesian ] 0
| 10> end
| 11> *xyz 0 1
| 12>  C        2.3755630000    -0.8660930000    -0.7240500000
| 13>  C        2.2059390000     0.1609320000     0.0983830000
| 14>  C        3.0965910000     0.5305200000     1.2197400000
| 15>  C        4.5189030000     0.1519020000     1.2450470000
| 16>  N        4.1407500000     1.5447830000     1.0120870000
| 17>  H        1.6842770000    -1.0542150000    -1.5374410000
| 18>  H        3.2024880000    -1.5590420000    -0.6118660000
| 19>  H        1.3438710000     0.8111870000    -0.0410560000
| 20>  H        2.5904340000     0.6575580000     2.1741190000
| 21>  H        4.9095350000    -0.4209880000     0.4109640000
| 22>  H        5.0069240000    -0.0369950000     2.1948760000
| 23>  H        4.2081360000     1.7452630000     0.0184070000
| 24> *
| 25>
| 26>                          ****END OF INPUT****
 Total Charge           Charge          ....    0
 Multiplicity           Mult            ....    1
 Number of Electrons    NEL             ....   38
 Basis Dimension        Dim             ....  105

MULLIKEN ATOMIC CHARGES
-----------------------
   0 C :   -0.036015
   1 C :   -0.031534
   2 C :   -0.058011
   3 C :    0.044741
   4 N :   -0.195336
   5 H :    0.028879
   6 H :    0.026489
   7 H :    0.016219
   8 H :    0.033613
   9 H :    0.031858
  10 H :    0.034554
  11 H :    0.104543
Sum of atomic charges:    0.0000000

LOEWDIN ATOMIC CHARGES
----------------------
   0 C :   -0.053467
   1 C :   -0.041125
   2 C :   -0.011268
   3 C :    0.004114
   4 N :   -0.097609
   5 H :    0.026689
   6 H :    0.022718
   7 H :    0.031227
   8 H :    0.028272
   9 H :    0.015533
  10 H :    0.022911
  11 H :    0.052004

  Mayer bond orders larger than 0.1
B(  0-C ,  1-C ) :   1.9930 B(  0-C ,  5-H ) :   0.9415 B(  0-C ,  6-H ) :   0.9436
B(  1-C ,  2-C ) :   1.0530 B(  1-C ,  7-H ) :   0.9524 B(  2-C ,  3-C ) :   1.0683
B(  2-C ,  4-N ) :   0.9741 B(  2-C ,  8-H ) :   0.9185 B(  3-C ,  4-N ) :   0.9948
B(  3-C ,  9-H ) :   0.9396 B(  3-C , 10-H ) :   0.9357 B(  4-N , 11-H ) :   0.9512

FINAL SINGLE POINT ENERGY      -210.883163884376

DIPOLE MOMENT
-------------
                                X             Y             Z
Electronic contribution:     -0.01915       1.50708       0.86751
Nuclear contribution   :     -0.09962      -1.90322      -1.24693
                        -----------------------------------------
Total Dipole Moment    :     -0.11877      -0.39615      -0.37942
                        -----------------------------------------
Magnitude (a.u.)       :      0.56125
Magnitude (Debye)      :      1.42658

                             ****ORCA TERMINATED NORMALLY****
TOTAL RUN TIME: 0 days 0 hours 0 minutes 4 seconds 873 msec
