                         Program Version 3.0.3 - RELEASE   -
|  1> ! RI PBE def2-SVP def2-SVP/J NBO PAL2
|  2> % maxcore 2000
|  3> % output
|  4>     # printlevel mini
|  5>     print[ P_Basis ] 0
|  6>     print[ P_SCFInfo ] 1
|  7>     print[ P_SCFIterInfo ] 1
|  8>     print[ P_OrbEn ] 0
|  9>     print[ P_Cartesian ] 0
| 10> end
| 11> *xyz 0 1
| 12>  C        1.0087210000     0.1064460000    -0.0045490000
| 13>  C        2.2083530000     0.0411440000     0.0177930000
| 14>  C        3.6407280000    -0.0093040000     0.0476330000
| 15>  C        4.3709220000    -0.7058210000    -1.0412400000
| 16>  N        4.4168120000     0.7429630000    -0.9462240000
| 17>  H       -0.0540720000     0.1597590000    -0.0235700000
| 18>  H        4.0803010000    -0.0023340000     1.0401320000
| 19>  H        3.7724420000    -1.1650590000    -1.8202320000
| 20>  H        5.3002650000    -1.2123860000    -0.8050140000
| 21>  H        3.7798380000     1.1578910000    -1.6186390000
| 22> *
| 23>
| 24>                          ****END OF INPUT****
 Total Charge           Charge          ....    0
 Multiplicity           Mult            ....    1
 Number of Electrons    NEL             ....   36
 Basis Dimension        Dim             ....   95

MULLIKEN ATOMIC CHARGES
-----------------------
   0 C :   -0.446359
   1 C :    0.421371
   2 C :   -0.127837
   3 C :    0.056280
   4 N :   -0.170928
   5 H :    0.004360
   6 H :    0.057109
   7 H :    0.044988
   8 H :    0.045610
   9 H :    0.115406
Sum of atomic charges:   -0.0000000

LOEWDIN ATOMIC CHARGES
----------------------
   0 C :   -0.074593
   1 C :   -0.034695
   2 C :   -0.015031
   3 C :    0.021283
   4 N :   -0.082101
   5 H :    0.035904
   6 H :    0.040889
   7 H :    0.022526
   8 H :    0.026019
   9 H :    0.059799

  Mayer bond orders larger than 0.1
B(  0-C ,  1-C ) :   2.2977 B(  0-C ,  5-H ) :   1.0952 B(  1-C ,  2-C ) :   1.0031
B(  1-C ,  5-H ) :  -0.1040 B(  2-C ,  3-C ) :   1.0223 B(  2-C ,  4-N ) :   0.9937
B(  2-C ,  6-H ) :   0.9173 B(  3-C ,  4-N ) :   0.9990 B(  3-C ,  7-H ) :   0.9449
B(  3-C ,  8-H ) :   0.9383 B(  4-N ,  9-H ) :   0.9481

FINAL SINGLE POINT ENERGY      -209.641142936719

DIPOLE MOMENT
-------------
                                X             Y             Z
Electronic contribution:     -1.17877       0.86891       0.81743
Nuclear contribution   :      0.89715      -1.16873      -1.05326
                        -----------------------------------------
Total Dipole Moment    :     -0.28162      -0.29982      -0.23582
                        -----------------------------------------
Magnitude (a.u.)       :      0.47415
Magnitude (Debye)      :      1.20518

                             ****ORCA TERMINATED NORMALLY****
TOTAL RUN TIME: 0 days 0 hours 0 minutes 4 seconds 478 msec
