                         Program Version 3.0.3 - RELEASE   -
|  1> ! RI PBE def2-SVP def2-SVP/J NBO PAL2
|  2> % maxcore 2000
|  3> % output
|  4>     # printlevel mini
|  5>     print[ P_Basis ] 0
|  6>     print[ P_SCFInfo ] 1
|  7>     print[ P_SCFIterInfo ] 1
|  8>     print[ P_OrbEn ] 0
|  9>     print[ P_Cartesian ] 0
| 10> end
| 11> *xyz 0 1
| 12>  C        0.9717270000     0.0081170000    -0.0203000000
| 13>  C        2.4902430000     0.0357800000    -0.0655650000
| 14>  C        3.0355740000     1.0000250000    -1.1064300000
| 15>  C        4.5510360000     1.0291640000    -1.1618120000
| 16>  N        5.0145410000     1.9963510000    -2.1456100000
| 17>  H        0.6045760000    -0.6909300000     0.7347140000
| 18>  H        0.5542810000    -0.2951650000    -0.9846500000
| 19>  H        0.5668960000     0.9960410000     0.2161830000
| 20>  H        2.8693290000    -0.9725800000    -0.2689010000
| 21>  H        2.8808440000     0.3120380000     0.9207640000
| 22>  H        2.6732070000     2.0144830000    -0.9081210000
| 23>  H        2.6454120000     0.7231680000    -2.0950570000
| 24>  H        4.9210240000     0.0053980000    -1.3385350000
| 25>  H        4.9386580000     1.3337780000    -0.1835190000
| 26>  H        4.7092980000     1.7253910000    -3.0730520000
| 27>  H        6.0259540000     2.0286300000    -2.1686000000
| 28> *
| 29>
| 30>                          ****END OF INPUT****
 Total Charge           Charge          ....    0
 Multiplicity           Mult            ....    1
 Number of Electrons    NEL             ....   42
 Basis Dimension        Dim             ....  125

MULLIKEN ATOMIC CHARGES
-----------------------
   0 C :    0.001575
   1 C :   -0.050196
   2 C :   -0.049088
   3 C :    0.083707
   4 N :   -0.210226
   5 H :    0.016776
   6 H :    0.013614
   7 H :    0.015715
   8 H :    0.006898
   9 H :    0.007927
  10 H :    0.012304
  11 H :   -0.002234
  12 H :   -0.015768
  13 H :   -0.001881
  14 H :    0.083757
  15 H :    0.087119
Sum of atomic charges:    0.0000000

LOEWDIN ATOMIC CHARGES
----------------------
   0 C :   -0.064681
   1 C :   -0.046629
   2 C :   -0.049965
   3 C :    0.005887
   4 N :   -0.114239
   5 H :    0.025238
   6 H :    0.023194
   7 H :    0.024197
   8 H :    0.020420
   9 H :    0.022025
  10 H :    0.024058
  11 H :    0.017642
  12 H :   -0.004024
  13 H :    0.017693
  14 H :    0.047804
  15 H :    0.051379

  Mayer bond orders larger than 0.1
B(  0-C ,  1-C ) :   1.1196 B(  0-C ,  5-H ) :   0.9620 B(  0-C ,  6-H ) :   0.9654
B(  0-C ,  7-H ) :   0.9656 B(  1-C ,  2-C ) :   1.0852 B(  1-C ,  8-H ) :   0.9371
B(  1-C ,  9-H ) :   0.9387 B(  2-C ,  3-C ) :   1.0948 B(  2-C , 10-H ) :   0.9335
B(  2-C , 11-H ) :   0.9373 B(  3-C ,  4-N ) :   1.0912 B(  3-C , 12-H ) :   0.9295
B(  3-C , 13-H ) :   0.9305 B(  4-N , 14-H ) :   0.9689 B(  4-N , 15-H ) :   0.9658

FINAL SINGLE POINT ENERGY      -213.338025803827

DIPOLE MOMENT
-------------
                                X             Y             Z
Electronic contribution:      2.28335       1.36379      -1.11323
Nuclear contribution   :     -2.04929      -1.73738       0.94154
                        -----------------------------------------
Total Dipole Moment    :      0.23405      -0.37359      -0.17169
                        -----------------------------------------
Magnitude (a.u.)       :      0.47311
Magnitude (Debye)      :      1.20255

                             ****ORCA TERMINATED NORMALLY****
TOTAL RUN TIME: 0 days 0 hours 0 minutes 5 seconds 574 msec
