                         Program Version 3.0.3 - RELEASE   -
|  1> ! RI PBE def2-SVP def2-SVP/J NBO PAL2
|  2> % maxcore 2000
|  3> % output
|  4>     # printlevel mini
|  5>     print[ P_Basis ] 0
|  6>     print[ P_SCFInfo ] 1
|  7>     print[ P_SCFIterInfo ] 1
|  8>     print[ P_OrbEn ] 0
|  9>     print[ P_Cartesian ] 0
| 10> end
| 11> *xyz 0 1
| 12>  C        0.9568750000    -0.0210410000     0.2423490000
| 13>  C        2.2258660000     0.1836810000    -0.0693510000
| 14>  C        2.9429590000    -0.5534040000    -1.1644540000
| 15>  C        3.5467590000     0.3468220000    -2.1389780000
| 16>  N        4.0252630000     1.0651100000    -2.8979870000
| 17>  H        0.4832830000     0.5197860000     1.0527010000
| 18>  H        0.3442440000    -0.7347700000    -0.2992910000
| 19>  H        2.8166930000     0.9105030000     0.4805150000
| 20>  H        2.2588120000    -1.2276060000    -1.6864340000
| 21>  H        3.7466560000    -1.1698900000    -0.7449610000
| 22> *
| 23>
| 24>                          ****END OF INPUT****
 Total Charge           Charge          ....    0
 Multiplicity           Mult            ....    1
 Number of Electrons    NEL             ....   36
 Basis Dimension        Dim             ....   95

MULLIKEN ATOMIC CHARGES
-----------------------
   0 C :   -0.026354
   1 C :   -0.084589
   2 C :    0.122175
   3 C :   -0.279010
   4 N :    0.043884
   5 H :    0.040697
   6 H :    0.029693
   7 H :    0.031197
   8 H :    0.053700
   9 H :    0.068607
Sum of atomic charges:   -0.0000000

LOEWDIN ATOMIC CHARGES
----------------------
   0 C :   -0.043711
   1 C :   -0.021014
   2 C :   -0.054732
   3 C :   -0.043264
   4 N :   -0.062637
   5 H :    0.032934
   6 H :    0.026977
   7 H :    0.035614
   8 H :    0.061641
   9 H :    0.068193

  Mayer bond orders larger than 0.1
B(  0-C ,  1-C ) :   2.0245 B(  0-C ,  5-H ) :   0.9475 B(  0-C ,  6-H ) :   0.9499
B(  1-C ,  2-C ) :   1.0469 B(  1-C ,  7-H ) :   0.9580 B(  2-C ,  3-C ) :   1.0809
B(  2-C ,  8-H ) :   0.8968 B(  2-C ,  9-H ) :   0.8888 B(  3-C ,  4-N ) :   3.0623

FINAL SINGLE POINT ENERGY      -209.711068109231

DIPOLE MOMENT
-------------
                                X             Y             Z
Electronic contribution:      3.08144       1.62167      -3.43197
Nuclear contribution   :     -3.68470      -2.47819       4.41854
                        -----------------------------------------
Total Dipole Moment    :     -0.60326      -0.85651       0.98657
                        -----------------------------------------
Magnitude (a.u.)       :      1.43905
Magnitude (Debye)      :      3.65777

                             ****ORCA TERMINATED NORMALLY****
TOTAL RUN TIME: 0 days 0 hours 0 minutes 4 seconds 278 msec
