                         Program Version 3.0.3 - RELEASE   -
|  1> ! RI PBE def2-SVP def2-SVP/J NBO PAL2
|  2> % maxcore 2000
|  3> % output
|  4>     # printlevel mini
|  5>     print[ P_Basis ] 0
|  6>     print[ P_SCFInfo ] 1
|  7>     print[ P_SCFIterInfo ] 1
|  8>     print[ P_OrbEn ] 0
|  9>     print[ P_Cartesian ] 0
| 10> end
| 11> *xyz 0 1
| 12>  C        1.0472340000    -0.0131180000    -0.0652640000
| 13>  C        2.2439760000     0.0164400000    -0.0449660000
| 14>  C        3.6994430000     0.0374850000    -0.0305380000
| 15>  C        4.2495090000     1.1529470000     0.7350320000
| 16>  N        4.7034490000     2.0225040000     1.3318290000
| 17>  H       -0.0171820000    -0.0350150000    -0.0803220000
| 18>  H        4.0858840000     0.1000670000    -1.0534620000
| 19>  H        4.0858970000    -0.8945100000     0.3956800000
| 20> *
| 21>
| 22>                          ****END OF INPUT****
 Total Charge           Charge          ....    0
 Multiplicity           Mult            ....    1
 Number of Electrons    NEL             ....   34
 Basis Dimension        Dim             ....   85

MULLIKEN ATOMIC CHARGES
-----------------------
   0 C :   -0.425405
   1 C :    0.287145
   2 C :    0.180845
   3 C :   -0.268706
   4 N :    0.050763
   5 H :    0.012713
   6 H :    0.082548
   7 H :    0.080096
Sum of atomic charges:   -0.0000000

LOEWDIN ATOMIC CHARGES
----------------------
   0 C :   -0.044381
   1 C :   -0.024418
   2 C :   -0.052425
   3 C :   -0.033784
   4 N :   -0.049095
   5 H :    0.041237
   6 H :    0.081576
   7 H :    0.081292

  Mayer bond orders larger than 0.1
B(  0-C ,  1-C ) :   2.4163 B(  0-C ,  5-H ) :   1.0980 B(  1-C ,  2-C ) :   1.0498
B(  1-C ,  5-H ) :  -0.1062 B(  2-C ,  3-C ) :   1.0652 B(  2-C ,  6-H ) :   0.8728
B(  2-C ,  7-H ) :   0.8713 B(  3-C ,  4-N ) :   3.0684

FINAL SINGLE POINT ENERGY      -208.462163773237

DIPOLE MOMENT
-------------
                                X             Y             Z
Electronic contribution:      0.94844       1.53219       1.05165
Nuclear contribution   :     -1.38532      -2.57981      -1.77062
                        -----------------------------------------
Total Dipole Moment    :     -0.43688      -1.04762      -0.71898
                        -----------------------------------------
Magnitude (a.u.)       :      1.34361
Magnitude (Debye)      :      3.41520

                             ****ORCA TERMINATED NORMALLY****
TOTAL RUN TIME: 0 days 0 hours 0 minutes 3 seconds 711 msec
