                         Program Version 3.0.3 - RELEASE   -
|  1> ! RI PBE def2-SVP def2-SVP/J NBO PAL2
|  2> % maxcore 2000
|  3> % output
|  4>     # printlevel mini
|  5>     print[ P_Basis ] 0
|  6>     print[ P_SCFInfo ] 1
|  7>     print[ P_SCFIterInfo ] 1
|  8>     print[ P_OrbEn ] 0
|  9>     print[ P_Cartesian ] 0
| 10> end
| 11> *xyz 0 1
| 12>  C        0.8850480000    -0.0108870000     0.1024870000
| 13>  C        2.3726850000     0.0249920000     0.0233820000
| 14>  C        3.1945710000     0.0891100000     1.0640400000
| 15>  C        4.6834260000     0.1164030000     0.9667960000
| 16>  N        5.2145120000     1.2890710000     1.6502760000
| 17>  H        0.4878290000    -0.9270370000    -0.3465910000
| 18>  H        0.4397620000     0.8243610000    -0.4475840000
| 19>  H        0.5392170000     0.0382350000     1.1366840000
| 20>  H        2.8056640000    -0.0116840000    -0.9762880000
| 21>  H        2.7882480000     0.1426620000     2.0729480000
| 22>  H        4.9752890000     0.0366170000    -0.0920020000
| 23>  H        5.0922230000    -0.7662160000     1.4735920000
| 24>  H        4.9153180000     2.1327650000     1.1767930000
| 25>  H        6.2265970000     1.2809280000     1.6447570000
| 26> *
| 27>
| 28>                          ****END OF INPUT****
 Total Charge           Charge          ....    0
 Multiplicity           Mult            ....    1
 Number of Electrons    NEL             ....   40
 Basis Dimension        Dim             ....  115

MULLIKEN ATOMIC CHARGES
-----------------------
   0 C :    0.042764
   1 C :   -0.105304
   2 C :   -0.090618
   3 C :    0.156658
   4 N :   -0.231868
   5 H :    0.030817
   6 H :    0.031233
   7 H :    0.017831
   8 H :   -0.009662
   9 H :   -0.007673
  10 H :   -0.016959
  11 H :    0.009108
  12 H :    0.085877
  13 H :    0.087795
Sum of atomic charges:   -0.0000000

LOEWDIN ATOMIC CHARGES
----------------------
   0 C :   -0.064729
   1 C :   -0.048213
   2 C :   -0.053130
   3 C :    0.006783
   4 N :   -0.113243
   5 H :    0.036002
   6 H :    0.035577
   7 H :    0.030488
   8 H :    0.018981
   9 H :    0.022369
  10 H :    0.001043
  11 H :    0.027764
  12 H :    0.049476
  13 H :    0.050831

  Mayer bond orders larger than 0.1
B(  0-C ,  1-C ) :   1.0815 B(  0-C ,  5-H ) :   0.9479 B(  0-C ,  6-H ) :   0.9492
B(  0-C ,  7-H ) :   0.9622 B(  1-C ,  2-C ) :   1.9098 B(  1-C ,  8-H ) :   0.9513
B(  2-C ,  3-C ) :   1.0676 B(  2-C ,  9-H ) :   0.9582 B(  3-C ,  4-N ) :   1.0571
B(  3-C , 10-H ) :   0.9236 B(  3-C , 11-H ) :   0.9127 B(  4-N , 12-H ) :   0.9721
B(  4-N , 13-H ) :   0.9664

FINAL SINGLE POINT ENERGY      -212.119320061548

DIPOLE MOMENT
-------------
                                X             Y             Z
Electronic contribution:      1.56399       0.27115       0.76262
Nuclear contribution   :     -1.39997      -0.20004      -1.19638
                        -----------------------------------------
Total Dipole Moment    :      0.16402       0.07111      -0.43376
                        -----------------------------------------
Magnitude (a.u.)       :      0.46916
Magnitude (Debye)      :      1.19251

                             ****ORCA TERMINATED NORMALLY****
TOTAL RUN TIME: 0 days 0 hours 0 minutes 5 seconds 286 msec
