                         Program Version 3.0.3 - RELEASE   -
|  1> ! RI PBE def2-SVP def2-SVP/J NBO PAL2
|  2> % maxcore 2000
|  3> % output
|  4>     # printlevel mini
|  5>     print[ P_Basis ] 0
|  6>     print[ P_SCFInfo ] 1
|  7>     print[ P_SCFIterInfo ] 1
|  8>     print[ P_OrbEn ] 0
|  9>     print[ P_Cartesian ] 0
| 10> end
| 11> *xyz 0 1
| 12>  C        0.8651110000     0.0109210000     0.0687240000
| 13>  C        2.3570680000    -0.0283160000     0.0522500000
| 14>  C        3.0742020000    -1.0654530000    -0.3831720000
| 15>  C        4.4948690000    -1.0665930000    -0.3836510000
| 16>  N        5.6472570000    -1.0903750000    -0.3936360000
| 17>  H        0.4951600000     0.9555730000     0.4653080000
| 18>  H        0.4570900000    -0.7950700000     0.6846250000
| 19>  H        0.4570880000    -0.1138840000    -0.9379430000
| 20>  H        2.8923600000     0.8430930000     0.4180930000
| 21>  H        2.5972850000    -1.9654270000    -0.7610080000
| 22> *
| 23>
| 24>                          ****END OF INPUT****
 Total Charge           Charge          ....    0
 Multiplicity           Mult            ....    1
 Number of Electrons    NEL             ....   36
 Basis Dimension        Dim             ....   95

MULLIKEN ATOMIC CHARGES
-----------------------
   0 C :    0.019269
   1 C :   -0.069501
   2 C :   -0.105554
   3 C :   -0.104797
   4 N :    0.038437
   5 H :    0.037623
   6 H :    0.055869
   7 H :    0.053264
   8 H :    0.035689
   9 H :    0.039701
Sum of atomic charges:    0.0000000

LOEWDIN ATOMIC CHARGES
----------------------
   0 C :   -0.067225
   1 C :    0.022396
   2 C :   -0.078115
   3 C :   -0.044152
   4 N :   -0.059251
   5 H :    0.039134
   6 H :    0.049850
   7 H :    0.049443
   8 H :    0.039091
   9 H :    0.048829

  Mayer bond orders larger than 0.1
B(  0-C ,  1-C ) :   1.0740 B(  0-C ,  5-H ) :   0.9594 B(  0-C ,  6-H ) :   0.9529
B(  0-C ,  7-H ) :   0.9529 B(  1-C ,  2-C ) :   1.8611 B(  1-C ,  4-N ) :   0.1113
B(  1-C ,  8-H ) :   0.9546 B(  2-C ,  3-C ) :   1.1301 B(  2-C ,  9-H ) :   0.9477
B(  3-C ,  4-N ) :   2.9624

FINAL SINGLE POINT ENERGY      -209.719267420022

DIPOLE MOMENT
-------------
                                X             Y             Z
Electronic contribution:      6.86032      -1.71206      -0.71904
Nuclear contribution   :     -8.59333       1.93699       0.81321
                        -----------------------------------------
Total Dipole Moment    :     -1.73301       0.22493       0.09417
                        -----------------------------------------
Magnitude (a.u.)       :      1.75008
Magnitude (Debye)      :      4.44834

                             ****ORCA TERMINATED NORMALLY****
TOTAL RUN TIME: 0 days 0 hours 0 minutes 4 seconds 148 msec
