                         Program Version 3.0.3 - RELEASE   -
|  1> ! RI PBE def2-SVP def2-SVP/J NBO PAL2
|  2> % maxcore 2000
|  3> % output
|  4>     # printlevel mini
|  5>     print[ P_Basis ] 0
|  6>     print[ P_SCFInfo ] 1
|  7>     print[ P_SCFIterInfo ] 1
|  8>     print[ P_OrbEn ] 0
|  9>     print[ P_Cartesian ] 0
| 10> end
| 11> *xyz 0 1
| 12>  C        1.0421370000    -0.2450280000    -0.2110630000
| 13>  C        2.5107320000     0.0343070000    -0.1694090000
| 14>  C        3.0559590000     1.0688430000    -0.7989850000
| 15>  C        3.3429330000    -0.9050320000     0.6575540000
| 16>  N        3.1475200000    -2.2987660000     0.2672930000
| 17>  H        0.5037210000     0.5272240000    -0.7613100000
| 18>  H        0.6230260000    -0.3029710000     0.8000670000
| 19>  H        0.8445880000    -1.2050970000    -0.6982850000
| 20>  H        2.4527000000     1.7703940000    -1.3653090000
| 21>  H        4.1251050000     1.2495130000    -0.7697340000
| 22>  H        3.1085050000    -0.7200090000     1.7208350000
| 23>  H        4.3979690000    -0.6586820000     0.5193500000
| 24>  H        2.2265750000    -2.6184610000     0.5416310000
| 25>  H        3.8110100000    -2.8882350000     0.7541540000
| 26> *
| 27>
| 28>                          ****END OF INPUT****
 Total Charge           Charge          ....    0
 Multiplicity           Mult            ....    1
 Number of Electrons    NEL             ....   40
 Basis Dimension        Dim             ....  115

MULLIKEN ATOMIC CHARGES
-----------------------
   0 C :    0.049017
   1 C :   -0.174898
   2 C :   -0.045479
   3 C :    0.126792
   4 N :   -0.221638
   5 H :    0.016728
   6 H :    0.020710
   7 H :    0.035800
   8 H :    0.005646
   9 H :    0.007103
  10 H :    0.003910
  11 H :   -0.002793
  12 H :    0.085998
  13 H :    0.093105
Sum of atomic charges:   -0.0000000

LOEWDIN ATOMIC CHARGES
----------------------
   0 C :   -0.060457
   1 C :   -0.031788
   2 C :   -0.077876
   3 C :    0.011682
   4 N :   -0.111751
   5 H :    0.032551
   6 H :    0.032150
   7 H :    0.036095
   8 H :    0.018471
   9 H :    0.019062
  10 H :    0.006961
  11 H :    0.024008
  12 H :    0.046826
  13 H :    0.054066

  Mayer bond orders larger than 0.1
B(  0-C ,  1-C ) :   1.0821 B(  0-C ,  5-H ) :   0.9493 B(  0-C ,  6-H ) :   0.9434
B(  0-C ,  7-H ) :   0.9381 B(  1-C ,  2-C ) :   2.0033 B(  1-C ,  3-C ) :   1.0445
B(  2-C ,  8-H ) :   0.9349 B(  2-C ,  9-H ) :   0.9352 B(  3-C ,  4-N ) :   1.0735
B(  3-C , 10-H ) :   0.9080 B(  3-C , 11-H ) :   0.9237 B(  4-N , 12-H ) :   0.9645
B(  4-N , 13-H ) :   0.9645

FINAL SINGLE POINT ENERGY      -212.116039564402

DIPOLE MOMENT
-------------
                                X             Y             Z
Electronic contribution:      1.18943      -0.14381      -0.34655
Nuclear contribution   :     -1.33800      -0.08703       0.90817
                        -----------------------------------------
Total Dipole Moment    :     -0.14856      -0.23084       0.56162
                        -----------------------------------------
Magnitude (a.u.)       :      0.62512
Magnitude (Debye)      :      1.58893

                             ****ORCA TERMINATED NORMALLY****
TOTAL RUN TIME: 0 days 0 hours 0 minutes 5 seconds 424 msec
