                         Program Version 3.0.3 - RELEASE   -
|  1> ! RI PBE def2-SVP def2-SVP/J NBO PAL2
|  2> % maxcore 2000
|  3> % output
|  4>     # printlevel mini
|  5>     print[ P_Basis ] 0
|  6>     print[ P_SCFInfo ] 1
|  7>     print[ P_SCFIterInfo ] 1
|  8>     print[ P_OrbEn ] 0
|  9>     print[ P_Cartesian ] 0
| 10> end
| 11> *xyz 0 1
| 12>  C        1.0473890000    -0.0045250000    -0.0884700000
| 13>  C        2.5432920000    -0.0650600000    -0.0521150000
| 14>  C        3.2490190000    -1.0337260000     0.5298060000
| 15>  C        3.2331070000     1.0112280000    -0.6987000000
| 16>  N        3.7551280000     1.8915140000    -1.2275360000
| 17>  H        0.6192840000    -0.8636480000     0.4276570000
| 18>  H        0.6857510000     0.0047200000    -1.1196930000
| 19>  H        0.6857630000     0.9102600000     0.3876420000
| 20>  H        2.7482550000    -1.8575470000     1.0247200000
| 21>  H        4.3314120000    -1.0272160000     0.5258880000
| 22> *
| 23>
| 24>                          ****END OF INPUT****
 Total Charge           Charge          ....    0
 Multiplicity           Mult            ....    1
 Number of Electrons    NEL             ....   36
 Basis Dimension        Dim             ....   95

MULLIKEN ATOMIC CHARGES
-----------------------
   0 C :    0.089267
   1 C :   -0.246156
   2 C :    0.032965
   3 C :   -0.127741
   4 N :    0.046353
   5 H :    0.026289
   6 H :    0.051670
   7 H :    0.053169
   8 H :    0.031318
   9 H :    0.042865
Sum of atomic charges:   -0.0000000

LOEWDIN ATOMIC CHARGES
----------------------
   0 C :   -0.039274
   1 C :   -0.067721
   2 C :   -0.006876
   3 C :   -0.034531
   4 N :   -0.053870
   5 H :    0.037516
   6 H :    0.047159
   7 H :    0.047606
   8 H :    0.031738
   9 H :    0.038253

  Mayer bond orders larger than 0.1
B(  0-C ,  1-C ) :   1.0694 B(  0-C ,  5-H ) :   0.9443 B(  0-C ,  6-H ) :   0.9469
B(  0-C ,  7-H ) :   0.9465 B(  1-C ,  2-C ) :   1.9398 B(  1-C ,  3-C ) :   1.0995
B(  2-C ,  4-N ) :   0.1096 B(  2-C ,  8-H ) :   0.9308 B(  2-C ,  9-H ) :   0.9386
B(  3-C ,  4-N ) :   2.9905

FINAL SINGLE POINT ENERGY      -209.719489186075

DIPOLE MOMENT
-------------
                                X             Y             Z
Electronic contribution:      3.50452       3.17024      -1.90723
Nuclear contribution   :     -4.26047      -4.22511       2.53827
                        -----------------------------------------
Total Dipole Moment    :     -0.75595      -1.05488       0.63104
                        -----------------------------------------
Magnitude (a.u.)       :      1.44306
Magnitude (Debye)      :      3.66798

                             ****ORCA TERMINATED NORMALLY****
TOTAL RUN TIME: 0 days 0 hours 0 minutes 4 seconds 24 msec
