                         Program Version 3.0.3 - RELEASE   -
|  1> ! RI PBE def2-SVP def2-SVP/J NBO PAL2
|  2> % maxcore 2000
|  3> % output
|  4>     # printlevel mini
|  5>     print[ P_Basis ] 0
|  6>     print[ P_SCFInfo ] 1
|  7>     print[ P_SCFIterInfo ] 1
|  8>     print[ P_OrbEn ] 0
|  9>     print[ P_Cartesian ] 0
| 10> end
| 11> *xyz 0 1
| 12>  C        1.0549300000    -0.0690810000     0.0899900000
| 13>  C        2.5730560000    -0.0995530000    -0.0037370000
| 14>  C        3.0500590000    -1.2265750000    -0.9068580000
| 15>  C        3.1038670000     1.2526160000    -0.4676590000
| 16>  N        4.5572800000     1.3041760000    -0.4214490000
| 17>  H        0.6624170000    -1.0248970000     0.4454880000
| 18>  H        0.6106650000     0.1240070000    -0.8920340000
| 19>  H        0.7071180000     0.7113650000     0.7722940000
| 20>  H        2.9723450000    -0.2764720000     1.0055810000
| 21>  H        2.6209730000    -1.1197390000    -1.9088810000
| 22>  H        2.7444970000    -2.2011680000    -0.5174160000
| 23>  H        4.1362670000    -1.2130290000    -1.0046430000
| 24>  H        2.6180820000     2.0431210000     0.1270820000
| 25>  H        2.7946160000     1.4104520000    -1.5077140000
| 26>  H        4.8790090000     1.2980450000     0.5391880000
| 27>  H        4.9007200000     2.1583420000    -0.8408330000
| 28> *
| 29>
| 30>                          ****END OF INPUT****
 Total Charge           Charge          ....    0
 Multiplicity           Mult            ....    1
 Number of Electrons    NEL             ....   42
 Basis Dimension        Dim             ....  125

MULLIKEN ATOMIC CHARGES
-----------------------
   0 C :    0.027858
   1 C :   -0.170671
   2 C :    0.033848
   3 C :    0.086024
   4 N :   -0.195480
   5 H :    0.013988
   6 H :    0.009811
   7 H :    0.011416
   8 H :   -0.002878
   9 H :   -0.000176
  10 H :    0.007577
  11 H :    0.024712
  12 H :   -0.013377
  13 H :   -0.006053
  14 H :    0.085393
  15 H :    0.088007
Sum of atomic charges:    0.0000000

LOEWDIN ATOMIC CHARGES
----------------------
   0 C :   -0.057873
   1 C :   -0.057422
   2 C :   -0.059279
   3 C :    0.008596
   4 N :   -0.106786
   5 H :    0.025017
   6 H :    0.022905
   7 H :    0.021580
   8 H :    0.019674
   9 H :    0.021032
  10 H :    0.020862
  11 H :    0.024775
  12 H :   -0.002602
  13 H :    0.017260
  14 H :    0.049564
  15 H :    0.052696

  Mayer bond orders larger than 0.1
B(  0-C ,  1-C ) :   1.0822 B(  0-C ,  5-H ) :   0.9616 B(  0-C ,  6-H ) :   0.9605
B(  0-C ,  7-H ) :   0.9583 B(  1-C ,  2-C ) :   1.0776 B(  1-C ,  3-C ) :   1.0555
B(  1-C ,  8-H ) :   0.9125 B(  2-C ,  9-H ) :   0.9586 B(  2-C , 10-H ) :   0.9631
B(  2-C , 11-H ) :   0.9526 B(  3-C ,  4-N ) :   1.1013 B(  3-C , 12-H ) :   0.9348
B(  3-C , 13-H ) :   0.9267 B(  4-N , 14-H ) :   0.9690 B(  4-N , 15-H ) :   0.9639

FINAL SINGLE POINT ENERGY      -213.339851243748

DIPOLE MOMENT
-------------
                                X             Y             Z
Electronic contribution:      1.97351       1.26168       0.25629
Nuclear contribution   :     -1.97853      -0.80983       0.00564
                        -----------------------------------------
Total Dipole Moment    :     -0.00502       0.45185       0.26193
                        -----------------------------------------
Magnitude (a.u.)       :      0.52230
Magnitude (Debye)      :      1.32758

                             ****ORCA TERMINATED NORMALLY****
TOTAL RUN TIME: 0 days 0 hours 0 minutes 5 seconds 473 msec
