                         Program Version 3.0.3 - RELEASE   -
|  1> ! RI PBE def2-SVP def2-SVP/J NBO PAL2
|  2> % maxcore 2000
|  3> % output
|  4>     # printlevel mini
|  5>     print[ P_Basis ] 0
|  6>     print[ P_SCFInfo ] 1
|  7>     print[ P_SCFIterInfo ] 1
|  8>     print[ P_OrbEn ] 0
|  9>     print[ P_Cartesian ] 0
| 10> end
| 11> *xyz 0 1
| 12>  C        1.2319610000     0.0236380000     0.4884980000
| 13>  C        2.6767770000     0.5023070000     0.4196480000
| 14>  C        2.8317730000     1.5185140000    -0.7148350000
| 15>  C        3.6059860000    -0.6813720000     0.1813270000
| 16>  N        3.0143700000     1.0695230000     1.7267530000
| 17>  H        0.5543060000     0.8604040000     0.6841260000
| 18>  H        1.1116070000    -0.7045090000     1.2929090000
| 19>  H        0.9274320000    -0.4386370000    -0.4533520000
| 20>  H        3.8625420000     1.8811520000    -0.7696190000
| 21>  H        2.1787070000     2.3810490000    -0.5519500000
| 22>  H        2.5771550000     1.0836970000    -1.6857990000
| 23>  H        4.6505090000    -0.3559970000     0.1535930000
| 24>  H        3.5007790000    -1.4136830000     0.9840840000
| 25>  H        3.3832530000    -1.1683710000    -0.7708950000
| 26>  H        2.4231280000     1.8707260000     1.9209040000
| 27>  H        3.9700170000     1.4099600000     1.7213000000
| 28> *
| 29>
| 30>                          ****END OF INPUT****
 Total Charge           Charge          ....    0
 Multiplicity           Mult            ....    1
 Number of Electrons    NEL             ....   42
 Basis Dimension        Dim             ....  125

MULLIKEN ATOMIC CHARGES
-----------------------
   0 C :    0.060250
   1 C :   -0.279752
   2 C :    0.075617
   3 C :    0.058427
   4 N :   -0.152267
   5 H :    0.003587
   6 H :    0.022508
   7 H :    0.010699
   8 H :   -0.000502
   9 H :    0.001001
  10 H :    0.005205
  11 H :    0.005432
  12 H :    0.025101
  13 H :    0.010133
  14 H :    0.078014
  15 H :    0.076545
Sum of atomic charges:    0.0000000

LOEWDIN ATOMIC CHARGES
----------------------
   0 C :   -0.054563
   1 C :   -0.030839
   2 C :   -0.065999
   3 C :   -0.054701
   4 N :   -0.090747
   5 H :    0.020623
   6 H :    0.027300
   7 H :    0.024509
   8 H :    0.018263
   9 H :    0.018480
  10 H :    0.022504
  11 H :    0.020612
  12 H :    0.027771
  13 H :    0.024458
  14 H :    0.046326
  15 H :    0.046001

  Mayer bond orders larger than 0.1
B(  0-C ,  1-C ) :   1.0588 B(  0-C ,  5-H ) :   0.9514 B(  0-C ,  6-H ) :   0.9557
B(  0-C ,  7-H ) :   0.9595 B(  1-C ,  2-C ) :   1.0422 B(  1-C ,  3-C ) :   1.0545
B(  1-C ,  4-N ) :   1.0387 B(  2-C ,  8-H ) :   0.9536 B(  2-C ,  9-H ) :   0.9536
B(  2-C , 10-H ) :   0.9505 B(  3-C , 11-H ) :   0.9540 B(  3-C , 12-H ) :   0.9572
B(  3-C , 13-H ) :   0.9587 B(  4-N , 14-H ) :   0.9646 B(  4-N , 15-H ) :   0.9642

FINAL SINGLE POINT ENERGY      -213.344547505327

DIPOLE MOMENT
-------------
                                X             Y             Z
Electronic contribution:      0.36796       0.46802       1.78131
Nuclear contribution   :     -0.29707      -0.11806      -2.03050
                        -----------------------------------------
Total Dipole Moment    :      0.07089       0.34996      -0.24919
                        -----------------------------------------
Magnitude (a.u.)       :      0.43543
Magnitude (Debye)      :      1.10677

                             ****ORCA TERMINATED NORMALLY****
TOTAL RUN TIME: 0 days 0 hours 0 minutes 5 seconds 768 msec
