                         Program Version 3.0.3 - RELEASE   -
|  1> ! RI PBE def2-SVP def2-SVP/J NBO PAL2
|  2> % maxcore 2000
|  3> % output
|  4>     # printlevel mini
|  5>     print[ P_Basis ] 0
|  6>     print[ P_SCFInfo ] 1
|  7>     print[ P_SCFIterInfo ] 1
|  8>     print[ P_OrbEn ] 0
|  9>     print[ P_Cartesian ] 0
| 10> end
| 11> *xyz 0 1
| 12>  C        0.9707640000    -0.0967040000     0.0430280000
| 13>  C        2.4981530000    -0.1200590000    -0.0022740000
| 14>  C        3.0428330000    -1.4724990000    -0.4603750000
| 15>  C        2.9986500000     0.9490810000    -0.8631230000
| 16>  N        3.3875920000     1.7843270000    -1.5513920000
| 17>  H        0.6133040000    -0.8698100000     0.7259150000
| 18>  H        0.5536160000    -0.2923180000    -0.9466930000
| 19>  H        0.5977820000     0.8689420000     0.3862520000
| 20>  H        2.8824170000     0.0910940000     1.0022430000
| 21>  H        2.6881580000    -1.7095100000    -1.4652910000
| 22>  H        2.6987790000    -2.2545850000     0.2191670000
| 23>  H        4.1333410000    -1.4785590000    -0.4726580000
| 24> *
| 25>
| 26>                          ****END OF INPUT****
 Total Charge           Charge          ....    0
 Multiplicity           Mult            ....    1
 Number of Electrons    NEL             ....   38
 Basis Dimension        Dim             ....  105

MULLIKEN ATOMIC CHARGES
-----------------------
   0 C :    0.014815
   1 C :   -0.130255
   2 C :    0.002627
   3 C :   -0.218934
   4 N :    0.048965
   5 H :    0.031857
   6 H :    0.038611
   7 H :    0.043083
   8 H :    0.049820
   9 H :    0.036909
  10 H :    0.034252
  11 H :    0.048249
Sum of atomic charges:   -0.0000000

LOEWDIN ATOMIC CHARGES
----------------------
   0 C :   -0.040428
   1 C :   -0.066978
   2 C :   -0.043080
   3 C :   -0.039172
   4 N :   -0.071070
   5 H :    0.031961
   6 H :    0.033977
   7 H :    0.035980
   8 H :    0.055359
   9 H :    0.034158
  10 H :    0.032505
  11 H :    0.036789

  Mayer bond orders larger than 0.1
B(  0-C ,  1-C ) :   1.0853 B(  0-C ,  5-H ) :   0.9624 B(  0-C ,  6-H ) :   0.9619
B(  0-C ,  7-H ) :   0.9622 B(  1-C ,  2-C ) :   1.0896 B(  1-C ,  3-C ) :   1.0662
B(  1-C ,  8-H ) :   0.8799 B(  2-C ,  9-H ) :   0.9597 B(  2-C , 10-H ) :   0.9608
B(  2-C , 11-H ) :   0.9618 B(  3-C ,  4-N ) :   3.0731

FINAL SINGLE POINT ENERGY      -210.938391720369

DIPOLE MOMENT
-------------
                                X             Y             Z
Electronic contribution:      2.89011       5.16919      -2.21633
Nuclear contribution   :     -3.42533      -6.27630       3.05941
                        -----------------------------------------
Total Dipole Moment    :     -0.53522      -1.10712       0.84308
                        -----------------------------------------
Magnitude (a.u.)       :      1.49096
Magnitude (Debye)      :      3.78972

                             ****ORCA TERMINATED NORMALLY****
TOTAL RUN TIME: 0 days 0 hours 0 minutes 4 seconds 383 msec
