                         Program Version 3.0.3 - RELEASE   -
|  1> ! RI PBE def2-SVP def2-SVP/J NBO PAL2
|  2> % maxcore 2000
|  3> % output
|  4>     # printlevel mini
|  5>     print[ P_Basis ] 0
|  6>     print[ P_SCFInfo ] 1
|  7>     print[ P_SCFIterInfo ] 1
|  8>     print[ P_OrbEn ] 0
|  9>     print[ P_Cartesian ] 0
| 10> end
| 11> *xyz 0 1
| 12>  C        0.9424820000    -0.0981320000     0.0172560000
| 13>  C        2.3928990000    -0.0914030000    -0.0160490000
| 14>  C        3.5949450000    -0.0880100000    -0.0300940000
| 15>  C        5.0502830000    -0.0741930000    -0.0770640000
| 16>  N        5.5862710000     1.2198370000     0.3334770000
| 17>  H        0.5217350000    -0.0136310000    -0.9878870000
| 18>  H        0.5632880000     0.7367200000     0.6119910000
| 19>  H        0.5660110000    -1.0225300000     0.4625870000
| 20>  H        5.3613670000    -0.3856200000    -1.0870620000
| 21>  H        5.4340790000    -0.8347220000     0.6117850000
| 22>  H        5.2012310000     1.9510760000    -0.2516540000
| 23>  H        6.5911110000     1.2301270000     0.2071340000
| 24> *
| 25>
| 26>                          ****END OF INPUT****
 Total Charge           Charge          ....    0
 Multiplicity           Mult            ....    1
 Number of Electrons    NEL             ....   38
 Basis Dimension        Dim             ....  105

MULLIKEN ATOMIC CHARGES
-----------------------
   0 C :    0.052005
   1 C :   -0.217952
   2 C :   -0.132760
   3 C :    0.165356
   4 N :   -0.221282
   5 H :    0.043032
   6 H :    0.049195
   7 H :    0.046258
   8 H :    0.010306
   9 H :    0.024254
  10 H :    0.093089
  11 H :    0.088499
Sum of atomic charges:    0.0000000

LOEWDIN ATOMIC CHARGES
----------------------
   0 C :   -0.068081
   1 C :   -0.064779
   2 C :   -0.073086
   3 C :    0.001176
   4 N :   -0.109067
   5 H :    0.047740
   6 H :    0.051407
   7 H :    0.050203
   8 H :    0.019048
   9 H :    0.040629
  10 H :    0.052627
  11 H :    0.052185

  Mayer bond orders larger than 0.1
B(  0-C ,  1-C ) :   1.1327 B(  0-C ,  5-H ) :   0.9342 B(  0-C ,  6-H ) :   0.9317
B(  0-C ,  7-H ) :   0.9343 B(  1-C ,  2-C ) :   2.6249 B(  2-C ,  3-C ) :   1.0748
B(  3-C ,  4-N ) :   1.0808 B(  3-C ,  8-H ) :   0.9024 B(  3-C ,  9-H ) :   0.8898
B(  4-N , 10-H ) :   0.9691 B(  4-N , 11-H ) :   0.9638

FINAL SINGLE POINT ENERGY      -210.878942862086

DIPOLE MOMENT
-------------
                                X             Y             Z
Electronic contribution:      0.72150      -0.18888       0.22025
Nuclear contribution   :     -0.68096       0.18289      -0.68620
                        -----------------------------------------
Total Dipole Moment    :      0.04054      -0.00600      -0.46595
                        -----------------------------------------
Magnitude (a.u.)       :      0.46775
Magnitude (Debye)      :      1.18892

                             ****ORCA TERMINATED NORMALLY****
TOTAL RUN TIME: 0 days 0 hours 0 minutes 4 seconds 636 msec
