                         Program Version 3.0.3 - RELEASE   -
|  1> ! RI PBE def2-SVP def2-SVP/J NBO PAL2
|  2> % maxcore 2000
|  3> % output
|  4>     # printlevel mini
|  5>     print[ P_Basis ] 0
|  6>     print[ P_SCFInfo ] 1
|  7>     print[ P_SCFIterInfo ] 1
|  8>     print[ P_OrbEn ] 0
|  9>     print[ P_Cartesian ] 0
| 10> end
| 11> *xyz 0 1
| 12>  C        0.9788220000    -0.0599100000    -0.0575230000
| 13>  C        2.4216920000    -0.0597790000    -0.0575460000
| 14>  C        3.6267940000    -0.0598040000    -0.0575370000
| 15>  C        4.9936330000    -0.0599100000    -0.0574960000
| 16>  N        6.1490020000    -0.0600230000    -0.0574600000
| 17>  H        0.5943240000     0.4481410000    -0.9452210000
| 18>  H        0.5943760000     0.4547760000     0.8263710000
| 19>  H        0.5945570000    -1.0827910000    -0.0536870000
| 20> *
| 21>
| 22>                          ****END OF INPUT****
 Total Charge           Charge          ....    0
 Multiplicity           Mult            ....    1
 Number of Electrons    NEL             ....   34
 Basis Dimension        Dim             ....   85

MULLIKEN ATOMIC CHARGES
-----------------------
   0 C :    0.045700
   1 C :   -0.245191
   2 C :    0.060297
   3 C :   -0.160430
   4 N :    0.090963
   5 H :    0.070133
   6 H :    0.070198
   7 H :    0.068329
Sum of atomic charges:    0.0000000

LOEWDIN ATOMIC CHARGES
----------------------
   0 C :   -0.061299
   1 C :    0.038198
   2 C :   -0.089867
   3 C :   -0.048913
   4 N :   -0.031030
   5 H :    0.064426
   6 H :    0.064437
   7 H :    0.064047

  Mayer bond orders larger than 0.1
B(  0-C ,  1-C ) :   1.1535 B(  0-C ,  5-H ) :   0.9244 B(  0-C ,  6-H ) :   0.9244
B(  0-C ,  7-H ) :   0.9245 B(  1-C ,  2-C ) :   2.3105 B(  1-C ,  4-N ) :   0.1891
B(  2-C ,  3-C ) :   1.0139 B(  2-C ,  4-N ) :   0.1084 B(  3-C ,  4-N ) :   2.8713

FINAL SINGLE POINT ENERGY      -208.485542156773

DIPOLE MOMENT
-------------
                                X             Y             Z
Electronic contribution:      6.36725      -0.00067       0.00000
Nuclear contribution   :     -8.36033      -0.00018      -0.00000
                        -----------------------------------------
Total Dipole Moment    :     -1.99308      -0.00086      -0.00000
                        -----------------------------------------
Magnitude (a.u.)       :      1.99308
Magnitude (Debye)      :      5.06600

                             ****ORCA TERMINATED NORMALLY****
TOTAL RUN TIME: 0 days 0 hours 0 minutes 3 seconds 769 msec
