                         Program Version 3.0.3 - RELEASE   -
|  1> ! RI PBE def2-SVP def2-SVP/J NBO PAL2
|  2> % maxcore 2000
|  3> % output
|  4>     # printlevel mini
|  5>     print[ P_Basis ] 0
|  6>     print[ P_SCFInfo ] 1
|  7>     print[ P_SCFIterInfo ] 1
|  8>     print[ P_OrbEn ] 0
|  9>     print[ P_Cartesian ] 0
| 10> end
| 11> *xyz 0 1
| 12>  C        2.9139280000    -0.0588510000     1.3736740000
| 13>  C        2.5703400000    -0.0500310000    -0.1052150000
| 14>  C        3.1153360000    -1.2496670000    -0.8722490000
| 15>  C        2.5660420000    -1.2889400000    -2.2936810000
| 16>  N        4.5729540000    -1.2451450000    -0.8059870000
| 17>  H        2.5391050000     0.8376400000     1.8731480000
| 18>  H        3.9938210000    -0.1112120000     1.5190320000
| 19>  H        2.4707740000    -0.9261600000     1.8716490000
| 20>  H        2.9597430000     0.8635200000    -0.5745950000
| 21>  H        1.4837730000    -0.0161000000    -0.2373600000
| 22>  H        2.7850920000    -2.1571480000    -0.3497950000
| 23>  H        2.8555640000    -0.3858020000    -2.8413500000
| 24>  H        1.4738840000    -1.3506650000    -2.3033890000
| 25>  H        2.9558640000    -2.1515180000    -2.8410490000
| 26>  H        4.9365080000    -0.4457580000    -1.3152230000
| 27>  H        4.9504830000    -2.0702750000    -1.2562100000
| 28> *
| 29>
| 30>                          ****END OF INPUT****
 Total Charge           Charge          ....    0
 Multiplicity           Mult            ....    1
 Number of Electrons    NEL             ....   42
 Basis Dimension        Dim             ....  125

MULLIKEN ATOMIC CHARGES
-----------------------
   0 C :    0.016161
   1 C :   -0.032779
   2 C :   -0.074455
   3 C :    0.026509
   4 N :   -0.172811
   5 H :    0.011244
   6 H :    0.023837
   7 H :    0.007327
   8 H :   -0.004534
   9 H :    0.011231
  10 H :   -0.000469
  11 H :    0.006079
  12 H :    0.014167
  13 H :    0.006321
  14 H :    0.079465
  15 H :    0.082708
Sum of atomic charges:   -0.0000000

LOEWDIN ATOMIC CHARGES
----------------------
   0 C :   -0.066480
   1 C :   -0.049053
   2 C :   -0.007214
   3 C :   -0.079974
   4 N :   -0.092766
   5 H :    0.022953
   6 H :    0.025450
   7 H :    0.023285
   8 H :    0.018954
   9 H :    0.024234
  10 H :    0.019603
  11 H :    0.020460
  12 H :    0.025236
  13 H :    0.019695
  14 H :    0.046437
  15 H :    0.049180

  Mayer bond orders larger than 0.1
B(  0-C ,  1-C ) :   1.1185 B(  0-C ,  5-H ) :   0.9608 B(  0-C ,  6-H ) :   0.9573
B(  0-C ,  7-H ) :   0.9622 B(  1-C ,  2-C ) :   1.0616 B(  1-C ,  8-H ) :   0.9262
B(  1-C ,  9-H ) :   0.9392 B(  2-C ,  3-C ) :   1.0728 B(  2-C ,  4-N ) :   1.0836
B(  2-C , 10-H ) :   0.9141 B(  3-C , 11-H ) :   0.9536 B(  3-C , 12-H ) :   0.9471
B(  3-C , 13-H ) :   0.9564 B(  4-N , 14-H ) :   0.9690 B(  4-N , 15-H ) :   0.9680

FINAL SINGLE POINT ENERGY      -213.342514452007

DIPOLE MOMENT
-------------
                                X             Y             Z
Electronic contribution:      1.33544      -0.70619      -0.13955
Nuclear contribution   :     -1.36497       0.64649      -0.33064
                        -----------------------------------------
Total Dipole Moment    :     -0.02953      -0.05971      -0.47019
                        -----------------------------------------
Magnitude (a.u.)       :      0.47488
Magnitude (Debye)      :      1.20705

                             ****ORCA TERMINATED NORMALLY****
TOTAL RUN TIME: 0 days 0 hours 0 minutes 5 seconds 678 msec
