                         Program Version 3.0.3 - RELEASE   -
|  1> ! RI PBE def2-SVP def2-SVP/J NBO PAL2
|  2> % maxcore 2000
|  3> % output
|  4>     # printlevel mini
|  5>     print[ P_Basis ] 0
|  6>     print[ P_SCFInfo ] 1
|  7>     print[ P_SCFIterInfo ] 1
|  8>     print[ P_OrbEn ] 0
|  9>     print[ P_Cartesian ] 0
| 10> end
| 11> *xyz 0 1
| 12>  C        0.8572670000    -0.0328100000     0.0507820000
| 13>  C        2.3747340000    -0.0371830000     0.0449840000
| 14>  C        2.9450030000     1.1393560000     0.8393810000
| 15>  C        4.3988850000     1.1591940000     0.8506900000
| 16>  N        5.5485820000     1.1582640000     0.8474230000
| 17>  H        0.4627950000    -0.8762390000    -0.5185240000
| 18>  H        0.4608560000     0.8835020000    -0.3948330000
| 19>  H        0.4635920000    -0.1053240000     1.0681840000
| 20>  H        2.7512920000     0.0113820000    -0.9800630000
| 21>  H        2.7539930000    -0.9696190000     0.4711310000
| 22>  H        2.5961800000     1.1040650000     1.8763540000
| 23>  H        2.5934210000     2.0879120000     0.4210920000
| 24> *
| 25>
| 26>                          ****END OF INPUT****
 Total Charge           Charge          ....    0
 Multiplicity           Mult            ....    1
 Number of Electrons    NEL             ....   38
 Basis Dimension        Dim             ....  105

MULLIKEN ATOMIC CHARGES
-----------------------
   0 C :    0.008926
   1 C :   -0.090417
   2 C :    0.042527
   3 C :   -0.269167
   4 N :    0.058249
   5 H :    0.033009
   6 H :    0.021781
   7 H :    0.020987
   8 H :    0.039688
   9 H :    0.036743
  10 H :    0.049478
  11 H :    0.048197
Sum of atomic charges:   -0.0000000

LOEWDIN ATOMIC CHARGES
----------------------
   0 C :   -0.063478
   1 C :   -0.030991
   2 C :   -0.058862
   3 C :   -0.045376
   4 N :   -0.069318
   5 H :    0.033880
   6 H :    0.027694
   7 H :    0.027461
   8 H :    0.033559
   9 H :    0.033113
  10 H :    0.056339
  11 H :    0.055980

  Mayer bond orders larger than 0.1
B(  0-C ,  1-C ) :   1.1250 B(  0-C ,  5-H ) :   0.9620 B(  0-C ,  6-H ) :   0.9630
B(  0-C ,  7-H ) :   0.9627 B(  1-C ,  2-C ) :   1.0924 B(  1-C ,  8-H ) :   0.9423
B(  1-C ,  9-H ) :   0.9416 B(  2-C ,  3-C ) :   1.1346 B(  2-C , 10-H ) :   0.8915
B(  2-C , 11-H ) :   0.8942 B(  3-C ,  4-N ) :   3.0564

FINAL SINGLE POINT ENERGY      -210.938680552812

DIPOLE MOMENT
-------------
                                X             Y             Z
Electronic contribution:      7.73348       2.16688       1.45185
Nuclear contribution   :     -9.26591      -2.28359      -1.52746
                        -----------------------------------------
Total Dipole Moment    :     -1.53243      -0.11671      -0.07561
                        -----------------------------------------
Magnitude (a.u.)       :      1.53873
Magnitude (Debye)      :      3.91113

                             ****ORCA TERMINATED NORMALLY****
TOTAL RUN TIME: 0 days 0 hours 0 minutes 4 seconds 353 msec
