                         Program Version 3.0.3 - RELEASE   -
|  1> ! RI PBE def2-SVP def2-SVP/J NBO PAL2
|  2> % maxcore 2000
|  3> % output
|  4>     # printlevel mini
|  5>     print[ P_Basis ] 0
|  6>     print[ P_SCFInfo ] 1
|  7>     print[ P_SCFIterInfo ] 1
|  8>     print[ P_OrbEn ] 0
|  9>     print[ P_Cartesian ] 0
| 10> end
| 11> *xyz 0 1
| 12>  C        1.1813020000     0.2179420000    -0.8513960000
| 13>  C        2.6251270000     0.4623570000    -0.4485420000
| 14>  C        3.0800330000    -0.4433310000     0.6797410000
| 15>  N        4.4657850000    -0.2129400000     1.0253580000
| 16>  C        4.9206160000    -1.0229570000     2.1321570000
| 17>  H        0.8765490000     0.8814970000    -1.6634250000
| 18>  H        0.4998290000     0.3860480000    -0.0127600000
| 19>  H        1.0358100000    -0.8107600000    -1.1928160000
| 20>  H        2.7475090000     1.5079500000    -0.1396650000
| 21>  H        3.2906250000     0.3144460000    -1.3044600000
| 22>  H        2.9806710000    -1.4905180000     0.3674940000
| 23>  H        2.4019070000    -0.3179350000     1.5458280000
| 24>  H        4.5998910000     0.7678150000     1.2395960000
| 25>  H        4.9060610000    -2.0779540000     1.8433580000
| 26>  H        4.3079330000    -0.9228370000     3.0445650000
| 27>  H        5.9517420000    -0.7654350000     2.3827680000
| 28> *
| 29>
| 30>                          ****END OF INPUT****
 Total Charge           Charge          ....    0
 Multiplicity           Mult            ....    1
 Number of Electrons    NEL             ....   42
 Basis Dimension        Dim             ....  125

MULLIKEN ATOMIC CHARGES
-----------------------
   0 C :   -0.028171
   1 C :   -0.050224
   2 C :    0.085287
   3 N :   -0.264589
   4 C :    0.067574
   5 H :    0.022691
   6 H :    0.019872
   7 H :    0.019744
   8 H :    0.006645
   9 H :    0.018619
  10 H :   -0.000349
  11 H :   -0.022311
  12 H :    0.096298
  13 H :    0.019083
  14 H :   -0.007540
  15 H :    0.017370
Sum of atomic charges:    0.0000000

LOEWDIN ATOMIC CHARGES
----------------------
   0 C :   -0.066701
   1 C :   -0.052413
   2 C :    0.008740
   3 N :   -0.106632
   4 C :   -0.007399
   5 H :    0.027635
   6 H :    0.024312
   7 H :    0.025346
   8 H :    0.019656
   9 H :    0.025665
  10 H :    0.017315
  11 H :   -0.006073
  12 H :    0.051643
  13 H :    0.020946
  14 H :   -0.003589
  15 H :    0.021550

  Mayer bond orders larger than 0.1
B(  0-C ,  1-C ) :   1.1146 B(  0-C ,  5-H ) :   0.9622 B(  0-C ,  6-H ) :   0.9646
B(  0-C ,  7-H ) :   0.9669 B(  1-C ,  2-C ) :   1.0865 B(  1-C ,  8-H ) :   0.9394
B(  1-C ,  9-H ) :   0.9350 B(  2-C ,  3-N ) :   1.0515 B(  2-C , 10-H ) :   0.9322
B(  2-C , 11-H ) :   0.9177 B(  3-N ,  4-C ) :   1.0672 B(  3-N , 12-H ) :   0.9460
B(  4-C , 13-H ) :   0.9688 B(  4-C , 14-H ) :   0.9441 B(  4-C , 15-H ) :   0.9716

FINAL SINGLE POINT ENERGY      -213.331724947310

DIPOLE MOMENT
-------------
                                X             Y             Z
Electronic contribution:      1.96192       0.43852      -0.05506
Nuclear contribution   :     -2.08696      -0.25903       0.27744
                        -----------------------------------------
Total Dipole Moment    :     -0.12504       0.17948       0.22238
                        -----------------------------------------
Magnitude (a.u.)       :      0.31193
Magnitude (Debye)      :      0.79287

                             ****ORCA TERMINATED NORMALLY****
TOTAL RUN TIME: 0 days 0 hours 0 minutes 5 seconds 530 msec
