                         Program Version 3.0.3 - RELEASE   -
|  1> ! RI PBE def2-SVP def2-SVP/J NBO PAL2
|  2> % maxcore 2000
|  3> % output
|  4>     # printlevel mini
|  5>     print[ P_Basis ] 0
|  6>     print[ P_SCFInfo ] 1
|  7>     print[ P_SCFIterInfo ] 1
|  8>     print[ P_OrbEn ] 0
|  9>     print[ P_Cartesian ] 0
| 10> end
| 11> *xyz 0 1
| 12>  C        1.0736670000    -0.0185210000    -0.1087900000
| 13>  C        2.5782210000    -0.1314830000     0.0156570000
| 14>  N        3.0825530000     0.7603430000     1.0419100000
| 15>  C        4.4730440000     1.1385200000     0.9272240000
| 16>  C        3.3987890000     2.1042070000     0.6064600000
| 17>  H        0.6939920000    -0.7124890000    -0.8620970000
| 18>  H        0.7804020000     0.9925680000    -0.4026920000
| 19>  H        0.5930450000    -0.2447080000     0.8449780000
| 20>  H        3.0538300000     0.0725240000    -0.9604030000
| 21>  H        2.8563240000    -1.1519700000     0.2980610000
| 22>  H        5.0396690000     0.7347970000     0.0907340000
| 23>  H        5.0235370000     1.2168270000     1.8586360000
| 24>  H        3.2482430000     2.3419890000    -0.4448210000
| 25>  H        3.1508830000     2.9022950000     1.2978320000
| 26> *
| 27>
| 28>                          ****END OF INPUT****
 Total Charge           Charge          ....    0
 Multiplicity           Mult            ....    1
 Number of Electrons    NEL             ....   40
 Basis Dimension        Dim             ....  115

MULLIKEN ATOMIC CHARGES
-----------------------
   0 C :   -0.003955
   1 C :    0.068683
   2 N :   -0.293529
   3 C :    0.022994
   4 C :    0.027124
   5 H :    0.020395
   6 H :    0.015457
   7 H :    0.028983
   8 H :   -0.019977
   9 H :    0.013506
  10 H :    0.022130
  11 H :    0.038600
  12 H :    0.023168
  13 H :    0.036420
Sum of atomic charges:    0.0000000

LOEWDIN ATOMIC CHARGES
----------------------
   0 C :   -0.069508
   1 C :    0.010412
   2 N :   -0.110716
   3 C :    0.000647
   4 C :    0.000763
   5 H :    0.028789
   6 H :    0.024571
   7 H :    0.029972
   8 H :   -0.001910
   9 H :    0.022042
  10 H :    0.012190
  11 H :    0.020733
  12 H :    0.011412
  13 H :    0.020601

  Mayer bond orders larger than 0.1
B(  0-C ,  1-C ) :   1.1227 B(  0-C ,  5-H ) :   0.9597 B(  0-C ,  6-H ) :   0.9641
B(  0-C ,  7-H ) :   0.9592 B(  1-C ,  2-N ) :   1.0005 B(  1-C ,  8-H ) :   0.9092
B(  1-C ,  9-H ) :   0.9418 B(  2-N ,  3-C ) :   0.9709 B(  2-N ,  4-C ) :   0.9661
B(  3-C ,  4-C ) :   1.0952 B(  3-C , 10-H ) :   0.9308 B(  3-C , 11-H ) :   0.9503
B(  4-C , 12-H ) :   0.9311 B(  4-C , 13-H ) :   0.9500

FINAL SINGLE POINT ENERGY      -212.101855578955

DIPOLE MOMENT
-------------
                                X             Y             Z
Electronic contribution:      1.69623       0.69053       1.99917
Nuclear contribution   :     -1.55257      -0.63901      -2.37554
                        -----------------------------------------
Total Dipole Moment    :      0.14366       0.05151      -0.37636
                        -----------------------------------------
Magnitude (a.u.)       :      0.40613
Magnitude (Debye)      :      1.03230

                             ****ORCA TERMINATED NORMALLY****
TOTAL RUN TIME: 0 days 0 hours 0 minutes 5 seconds 268 msec
