                         Program Version 3.0.3 - RELEASE   -
|  1> ! RI PBE def2-SVP def2-SVP/J NBO PAL2
|  2> % maxcore 2000
|  3> % output
|  4>     # printlevel mini
|  5>     print[ P_Basis ] 0
|  6>     print[ P_SCFInfo ] 1
|  7>     print[ P_SCFIterInfo ] 1
|  8>     print[ P_OrbEn ] 0
|  9>     print[ P_Cartesian ] 0
| 10> end
| 11> *xyz 0 1
| 12>  C        0.9472600000    -0.0175770000    -0.0523190000
| 13>  C        2.4614800000    -0.0087580000    -0.0552880000
| 14>  N        2.9920770000    -0.6560290000     1.1258740000
| 15>  C        4.4373570000    -0.7357210000     1.1472980000
| 16>  C        4.9276010000    -1.4821110000     2.3702090000
| 17>  H        0.5518470000     0.4975700000    -0.9303130000
| 18>  H        0.5614320000     0.4738520000     0.8431740000
| 19>  H        0.5601820000    -1.0410400000    -0.0681370000
| 20>  H        2.8240000000     1.0255800000    -0.0612980000
| 21>  H        2.8338830000    -0.4692170000    -0.9889770000
| 22>  H        2.6016670000    -1.5890540000     1.2033130000
| 23>  H        4.8286890000     0.2880160000     1.1588970000
| 24>  H        4.8449030000    -1.2090500000     0.2349690000
| 25>  H        4.5704010000    -1.0013380000     3.2831940000
| 26>  H        6.0188700000    -1.5138790000     2.3971090000
| 27>  H        4.5673530000    -2.5154440000     2.3705750000
| 28> *
| 29>
| 30>                          ****END OF INPUT****
 Total Charge           Charge          ....    0
 Multiplicity           Mult            ....    1
 Number of Electrons    NEL             ....   42
 Basis Dimension        Dim             ....  125

MULLIKEN ATOMIC CHARGES
-----------------------
   0 C :   -0.027474
   1 C :    0.074297
   2 N :   -0.274608
   3 C :    0.072569
   4 C :   -0.038952
   5 H :    0.018887
   6 H :    0.028290
   7 H :    0.015375
   8 H :    0.004725
   9 H :   -0.020808
  10 H :    0.091024
  11 H :    0.005655
  12 H :   -0.018829
  13 H :    0.025701
  14 H :    0.026353
  15 H :    0.017794
Sum of atomic charges:    0.0000000

LOEWDIN ATOMIC CHARGES
----------------------
   0 C :   -0.071385
   1 C :    0.007934
   2 N :   -0.106989
   3 C :    0.007846
   4 C :   -0.073657
   5 H :    0.029054
   6 H :    0.027787
   7 H :    0.021883
   8 H :    0.018535
   9 H :   -0.005023
  10 H :    0.049361
  11 H :    0.018904
  12 H :   -0.004715
  13 H :    0.027425
  14 H :    0.030238
  15 H :    0.022803

  Mayer bond orders larger than 0.1
B(  0-C ,  1-C ) :   1.1132 B(  0-C ,  5-H ) :   0.9582 B(  0-C ,  6-H ) :   0.9637
B(  0-C ,  7-H ) :   0.9675 B(  1-C ,  2-N ) :   1.0372 B(  1-C ,  8-H ) :   0.9375
B(  1-C ,  9-H ) :   0.9181 B(  2-N ,  3-C ) :   1.0382 B(  2-N , 10-H ) :   0.9438
B(  3-C ,  4-C ) :   1.1187 B(  3-C , 11-H ) :   0.9362 B(  3-C , 12-H ) :   0.9194
B(  4-C , 13-H ) :   0.9624 B(  4-C , 14-H ) :   0.9592 B(  4-C , 15-H ) :   0.9655

FINAL SINGLE POINT ENERGY      -213.334804957664

DIPOLE MOMENT
-------------
                                X             Y             Z
Electronic contribution:     -0.06513       0.29573       0.28669
Nuclear contribution   :      0.10700      -0.51508      -0.48717
                        -----------------------------------------
Total Dipole Moment    :      0.04187      -0.21935      -0.20049
                        -----------------------------------------
Magnitude (a.u.)       :      0.30010
Magnitude (Debye)      :      0.76280

                             ****ORCA TERMINATED NORMALLY****
TOTAL RUN TIME: 0 days 0 hours 0 minutes 5 seconds 717 msec
