                         Program Version 3.0.3 - RELEASE   -
|  1> ! RI PBE def2-SVP def2-SVP/J NBO PAL2
|  2> % maxcore 2000
|  3> % output
|  4>     # printlevel mini
|  5>     print[ P_Basis ] 0
|  6>     print[ P_SCFInfo ] 1
|  7>     print[ P_SCFIterInfo ] 1
|  8>     print[ P_OrbEn ] 0
|  9>     print[ P_Cartesian ] 0
| 10> end
| 11> *xyz 0 1
| 12>  C        0.9063630000     0.0173320000    -0.0127110000
| 13>  C        2.4313350000    -0.0422130000    -0.1077290000
| 14>  N        3.1165050000     0.4249070000     1.0957600000
| 15>  C        2.8807600000    -1.4378310000    -0.4139020000
| 16>  C        3.4276530000    -1.8338990000    -1.5522820000
| 17>  H        0.5766010000     1.0337510000     0.2209430000
| 18>  H        0.5444740000    -0.6448740000     0.7801750000
| 19>  H        0.4349410000    -0.2887260000    -0.9499960000
| 20>  H        2.7542500000     0.6039090000    -0.9317480000
| 21>  H        2.8906550000    -0.1808210000     1.8778910000
| 22>  H        2.7862880000     1.3505180000     1.3449760000
| 23>  H        2.7105660000    -2.1669210000     0.3792560000
| 24>  H        3.6146700000    -1.1359320000    -2.3626810000
| 25>  H        3.7125290000    -2.8664910000    -1.7177720000
| 26> *
| 27>
| 28>                          ****END OF INPUT****
 Total Charge           Charge          ....    0
 Multiplicity           Mult            ....    1
 Number of Electrons    NEL             ....   40
 Basis Dimension        Dim             ....  115

MULLIKEN ATOMIC CHARGES
-----------------------
   0 C :    0.035817
   1 C :   -0.016215
   2 N :   -0.182004
   3 C :   -0.032229
   4 C :   -0.032984
   5 H :    0.010011
   6 H :    0.004506
   7 H :    0.016183
   8 H :   -0.002564
   9 H :    0.081402
  10 H :    0.083122
  11 H :   -0.004281
  12 H :    0.018469
  13 H :    0.020768
Sum of atomic charges:    0.0000000

LOEWDIN ATOMIC CHARGES
----------------------
   0 C :   -0.073476
   1 C :   -0.006030
   2 N :   -0.095714
   3 C :   -0.022799
   4 C :   -0.059430
   5 H :    0.020926
   6 H :    0.020146
   7 H :    0.027447
   8 H :    0.024150
   9 H :    0.046684
  10 H :    0.049047
  11 H :    0.022126
  12 H :    0.022642
  13 H :    0.024281

  Mayer bond orders larger than 0.1
B(  0-C ,  1-C ) :   1.0511 B(  0-C ,  5-H ) :   0.9558 B(  0-C ,  6-H ) :   0.9550
B(  0-C ,  7-H ) :   0.9492 B(  1-C ,  2-N ) :   1.0540 B(  1-C ,  3-C ) :   1.0208
B(  1-C ,  8-H ) :   0.9121 B(  2-N ,  9-H ) :   0.9687 B(  2-N , 10-H ) :   0.9655
B(  3-C ,  4-C ) :   2.0414 B(  3-C , 11-H ) :   0.9420 B(  4-C , 12-H ) :   0.9455
B(  4-C , 13-H ) :   0.9410

FINAL SINGLE POINT ENERGY      -212.114305918679

DIPOLE MOMENT
-------------
                                X             Y             Z
Electronic contribution:      2.05059      -0.38943       0.14113
Nuclear contribution   :     -2.54314       0.48345       0.04782
                        -----------------------------------------
Total Dipole Moment    :     -0.49255       0.09402       0.18894
                        -----------------------------------------
Magnitude (a.u.)       :      0.53586
Magnitude (Debye)      :      1.36205

                             ****ORCA TERMINATED NORMALLY****
TOTAL RUN TIME: 0 days 0 hours 0 minutes 5 seconds 401 msec
