                         Program Version 3.0.3 - RELEASE   -
|  1> ! RI PBE def2-SVP def2-SVP/J NBO PAL2
|  2> % maxcore 2000
|  3> % output
|  4>     # printlevel mini
|  5>     print[ P_Basis ] 0
|  6>     print[ P_SCFInfo ] 1
|  7>     print[ P_SCFIterInfo ] 1
|  8>     print[ P_OrbEn ] 0
|  9>     print[ P_Cartesian ] 0
| 10> end
| 11> *xyz 0 1
| 12>  C        1.0295720000     0.0855170000     0.0322560000
| 13>  C        2.5590290000     0.0544740000     0.0908890000
| 14>  N        3.1215980000     0.1347020000     1.4351660000
| 15>  C        3.0681670000    -1.1395690000    -0.5799490000
| 16>  C        3.4502190000    -2.1357950000    -1.1294040000
| 17>  H        0.6584330000     0.9989380000     0.5043030000
| 18>  H        0.6119660000    -0.7743320000     0.5611840000
| 19>  H        0.6710510000     0.0599250000    -0.9991240000
| 20>  H        2.9391120000     0.9224540000    -0.4624230000
| 21>  H        2.8689650000    -0.6921830000     1.9640120000
| 22>  H        2.7298290000     0.9339570000     1.9195630000
| 23>  H        3.8027570000    -3.0135880000    -1.6170720000
| 24> *
| 25>
| 26>                          ****END OF INPUT****
 Total Charge           Charge          ....    0
 Multiplicity           Mult            ....    1
 Number of Electrons    NEL             ....   38
 Basis Dimension        Dim             ....  105

MULLIKEN ATOMIC CHARGES
-----------------------
   0 C :    0.023316
   1 C :    0.022288
   2 N :   -0.180378
   3 C :    0.374602
   4 C :   -0.499974
   5 H :    0.012049
   6 H :    0.020440
   7 H :    0.024737
   8 H :    0.024180
   9 H :    0.094422
  10 H :    0.086464
  11 H :   -0.002146
Sum of atomic charges:   -0.0000000

LOEWDIN ATOMIC CHARGES
----------------------
   0 C :   -0.064453
   1 C :   -0.010767
   2 N :   -0.087546
   3 C :   -0.016290
   4 C :   -0.083030
   5 H :    0.022432
   6 H :    0.026081
   7 H :    0.031232
   8 H :    0.043377
   9 H :    0.053193
  10 H :    0.051160
  11 H :    0.034610

  Mayer bond orders larger than 0.1
B(  0-C ,  1-C ) :   1.0591 B(  0-C ,  5-H ) :   0.9546 B(  0-C ,  6-H ) :   0.9577
B(  0-C ,  7-H ) :   0.9505 B(  1-C ,  2-N ) :   1.0785 B(  1-C ,  3-C ) :   1.0150
B(  1-C ,  8-H ) :   0.8697 B(  2-N ,  9-H ) :   0.9652 B(  2-N , 10-H ) :   0.9657
B(  3-C ,  4-C ) :   2.3474 B(  3-C , 11-H ) :  -0.1127 B(  4-C , 11-H ) :   1.1030

FINAL SINGLE POINT ENERGY      -210.870422695451

DIPOLE MOMENT
-------------
                                X             Y             Z
Electronic contribution:      3.08851      -1.93980      -1.28492
Nuclear contribution   :     -3.65733       2.08496       1.48348
                        -----------------------------------------
Total Dipole Moment    :     -0.56883       0.14516       0.19857
                        -----------------------------------------
Magnitude (a.u.)       :      0.61973
Magnitude (Debye)      :      1.57522

                             ****ORCA TERMINATED NORMALLY****
TOTAL RUN TIME: 0 days 0 hours 0 minutes 4 seconds 963 msec
