                         Program Version 3.0.3 - RELEASE   -
|  1> ! RI PBE def2-SVP def2-SVP/J NBO PAL2
|  2> % maxcore 2000
|  3> % output
|  4>     # printlevel mini
|  5>     print[ P_Basis ] 0
|  6>     print[ P_SCFInfo ] 1
|  7>     print[ P_SCFIterInfo ] 1
|  8>     print[ P_OrbEn ] 0
|  9>     print[ P_Cartesian ] 0
| 10> end
| 11> *xyz 0 1
| 12>  C        2.7625030000     0.1898930000     1.3865870000
| 13>  C        2.4832760000     0.1530480000    -0.1031340000
| 14>  N        2.9882430000    -1.0361360000    -0.7621850000
| 15>  C        2.4814470000    -1.1351390000    -2.1099150000
| 16>  C        4.4299220000    -1.1114070000    -0.7515050000
| 17>  H        2.2480220000     1.0391940000     1.8417820000
| 18>  H        3.8259810000     0.2995100000     1.6081270000
| 19>  H        2.4062470000    -0.7253660000     1.8646380000
| 20>  H        2.8827740000     1.0708400000    -0.5792860000
| 21>  H        1.4002480000     0.1719600000    -0.2598850000
| 22>  H        1.3889830000    -1.1387950000    -2.0986780000
| 23>  H        2.8189930000    -2.0685160000    -2.5666010000
| 24>  H        2.8131070000    -0.3018700000    -2.7579350000
| 25>  H        4.8089360000    -1.1372790000     0.2708550000
| 26>  H        4.9058070000    -0.2591120000    -1.2732760000
| 27>  H        4.7518120000    -2.0300240000    -1.2469890000
| 28> *
| 29>
| 30>                          ****END OF INPUT****
 Total Charge           Charge          ....    0
 Multiplicity           Mult            ....    1
 Number of Electrons    NEL             ....   42
 Basis Dimension        Dim             ....  125

MULLIKEN ATOMIC CHARGES
-----------------------
   0 C :   -0.016946
   1 C :    0.061247
   2 N :   -0.338579
   3 C :    0.093840
   4 C :    0.098822
   5 H :    0.017574
   6 H :    0.024028
   7 H :    0.028321
   8 H :   -0.023459
   9 H :    0.009598
  10 H :    0.022850
  11 H :    0.016185
  12 H :   -0.013825
  13 H :    0.021824
  14 H :   -0.017638
  15 H :    0.016159
Sum of atomic charges:   -0.0000000

LOEWDIN ATOMIC CHARGES
----------------------
   0 C :   -0.072654
   1 C :    0.011028
   2 N :   -0.116185
   3 C :    0.000662
   4 C :    0.002259
   5 H :    0.030759
   6 H :    0.022943
   7 H :    0.028542
   8 H :   -0.005278
   9 H :    0.021285
  10 H :    0.021490
  11 H :    0.020650
  12 H :   -0.003584
  13 H :    0.020154
  14 H :   -0.004145
  15 H :    0.022075

  Mayer bond orders larger than 0.1
B(  0-C ,  1-C ) :   1.1166 B(  0-C ,  5-H ) :   0.9538 B(  0-C ,  6-H ) :   0.9618
B(  0-C ,  7-H ) :   0.9609 B(  1-C ,  2-N ) :   1.0287 B(  1-C ,  8-H ) :   0.9117
B(  1-C ,  9-H ) :   0.9407 B(  2-N ,  3-C ) :   1.0396 B(  2-N ,  4-C ) :   1.0361
B(  3-C , 10-H ) :   0.9666 B(  3-C , 11-H ) :   0.9669 B(  3-C , 12-H ) :   0.9352
B(  4-C , 13-H ) :   0.9662 B(  4-C , 14-H ) :   0.9338 B(  4-C , 15-H ) :   0.9665

FINAL SINGLE POINT ENERGY      -213.325339311047

DIPOLE MOMENT
-------------
                                X             Y             Z
Electronic contribution:     -0.71135      -1.11295      -0.11041
Nuclear contribution   :      0.75228       1.22847       0.04234
                        -----------------------------------------
Total Dipole Moment    :      0.04093       0.11552      -0.06807
                        -----------------------------------------
Magnitude (a.u.)       :      0.14019
Magnitude (Debye)      :      0.35634

                             ****ORCA TERMINATED NORMALLY****
TOTAL RUN TIME: 0 days 0 hours 0 minutes 6 seconds 98 msec
