                         Program Version 3.0.3 - RELEASE   -
|  1> ! RI PBE def2-SVP def2-SVP/J NBO PAL2
|  2> % maxcore 2000
|  3> % output
|  4>     # printlevel mini
|  5>     print[ P_Basis ] 0
|  6>     print[ P_SCFInfo ] 1
|  7>     print[ P_SCFIterInfo ] 1
|  8>     print[ P_OrbEn ] 0
|  9>     print[ P_Cartesian ] 0
| 10> end
| 11> *xyz 0 1
| 12>  C        1.0704120000     0.0120180000    -0.0534780000
| 13>  N        2.5015630000     0.0067600000     0.0359190000
| 14>  C        3.1611180000     1.0635590000     0.8066010000
| 15>  C        4.1973330000     0.0299300000     1.2712980000
| 16>  C        3.1500990000    -1.0154420000     0.8607180000
| 17>  H        0.7352060000     0.8820000000    -0.6242580000
| 18>  H        0.5788660000     0.0404000000     0.9368130000
| 19>  H        0.7258510000    -0.8828780000    -0.5783210000
| 20>  H        2.5431340000     1.4232930000     1.6461260000
| 21>  H        3.5019140000     1.9237190000     0.2237200000
| 22>  H        4.5012140000     0.0555180000     2.3161740000
| 23>  H        5.0782150000     0.0085720000     0.6301860000
| 24>  H        2.5285710000    -1.3244460000     1.7176520000
| 25>  H        3.4816040000    -1.9083230000     0.3234700000
| 26> *
| 27>
| 28>                          ****END OF INPUT****
 Total Charge           Charge          ....    0
 Multiplicity           Mult            ....    1
 Number of Electrons    NEL             ....   40
 Basis Dimension        Dim             ....  115

MULLIKEN ATOMIC CHARGES
-----------------------
   0 C :    0.086213
   1 N :   -0.362275
   2 C :    0.137044
   3 C :   -0.084311
   4 C :    0.137935
   5 H :    0.024340
   6 H :   -0.012581
   7 H :    0.023851
   8 H :   -0.014054
   9 H :    0.013864
  10 H :    0.023347
  11 H :    0.027142
  12 H :   -0.014034
  13 H :    0.013521
Sum of atomic charges:   -0.0000000

LOEWDIN ATOMIC CHARGES
----------------------
   0 C :   -0.008695
   1 N :   -0.123902
   2 C :    0.032224
   3 C :   -0.042311
   4 C :    0.032363
   5 H :    0.024011
   6 H :   -0.005703
   7 H :    0.023974
   8 H :   -0.000353
   9 H :    0.010188
  10 H :    0.019963
  11 H :    0.028469
  12 H :   -0.000373
  13 H :    0.010146

  Mayer bond orders larger than 0.1
B(  0-C ,  1-N ) :   1.0440 B(  0-C ,  5-H ) :   0.9700 B(  0-C ,  6-H ) :   0.9366
B(  0-C ,  7-H ) :   0.9700 B(  1-N ,  2-C ) :   1.0106 B(  1-N ,  4-C ) :   1.0099
B(  2-C ,  3-C ) :   1.1001 B(  2-C ,  8-H ) :   0.9140 B(  2-C ,  9-H ) :   0.9440
B(  3-C ,  4-C ) :   1.1007 B(  3-C , 10-H ) :   0.9512 B(  3-C , 11-H ) :   0.9279
B(  4-C , 12-H ) :   0.9143 B(  4-C , 13-H ) :   0.9441

FINAL SINGLE POINT ENERGY      -212.106124712017

DIPOLE MOMENT
-------------
                                X             Y             Z
Electronic contribution:      1.25785      -0.03289      -0.98987
Nuclear contribution   :     -1.29423       0.03858       1.21850
                        -----------------------------------------
Total Dipole Moment    :     -0.03638       0.00569       0.22862
                        -----------------------------------------
Magnitude (a.u.)       :      0.23157
Magnitude (Debye)      :      0.58860

                             ****ORCA TERMINATED NORMALLY****
TOTAL RUN TIME: 0 days 0 hours 0 minutes 5 seconds 320 msec
