                         Program Version 3.0.3 - RELEASE   -
|  1> ! RI PBE def2-SVP def2-SVP/J NBO PAL2
|  2> % maxcore 2000
|  3> % output
|  4>     # printlevel mini
|  5>     print[ P_Basis ] 0
|  6>     print[ P_SCFInfo ] 1
|  7>     print[ P_SCFIterInfo ] 1
|  8>     print[ P_OrbEn ] 0
|  9>     print[ P_Cartesian ] 0
| 10> end
| 11> *xyz 0 1
| 12>  C        2.8189520000     1.2098370000     0.3760090000
| 13>  N        2.1400370000    -0.0346100000     0.0832530000
| 14>  C        2.8205320000    -1.1902360000     0.5741620000
| 15>  C        2.7806790000    -2.4589600000    -0.1997490000
| 16>  C        4.0827660000    -1.7156320000    -0.0607020000
| 17>  H        2.2618690000     2.0427730000    -0.0575170000
| 18>  H        3.8562900000     1.2514590000     0.0080000000
| 19>  H        2.8476630000     1.3623790000     1.4584670000
| 20>  H        1.9694450000    -0.1241130000    -0.9096360000
| 21>  H        2.7607310000    -1.2835040000     1.6553300000
| 22>  H        2.2940580000    -2.4373550000    -1.1687240000
| 23>  H        2.6523960000    -3.3907250000     0.3364390000
| 24>  H        4.4512970000    -1.1942980000    -0.9368580000
| 25>  H        4.8553760000    -2.1391150000     0.5698250000
| 26> *
| 27>
| 28>                          ****END OF INPUT****
 Total Charge           Charge          ....    0
 Multiplicity           Mult            ....    1
 Number of Electrons    NEL             ....   40
 Basis Dimension        Dim             ....  115

MULLIKEN ATOMIC CHARGES
-----------------------
   0 C :    0.078999
   1 N :   -0.179491
   2 C :   -0.080667
   3 C :   -0.032675
   4 C :   -0.049436
   5 H :    0.016461
   6 H :   -0.005647
   7 H :    0.017666
   8 H :    0.087591
   9 H :    0.025234
  10 H :    0.029686
  11 H :    0.033225
  12 H :    0.025966
  13 H :    0.033090
Sum of atomic charges:   -0.0000000

LOEWDIN ATOMIC CHARGES
----------------------
   0 C :   -0.003604
   1 N :   -0.084732
   2 C :   -0.005573
   3 C :   -0.049860
   4 C :   -0.071947
   5 H :    0.021043
   6 H :   -0.002268
   7 H :    0.021853
   8 H :    0.052983
   9 H :    0.021786
  10 H :    0.024593
  11 H :    0.028007
  12 H :    0.023259
  13 H :    0.024460

  Mayer bond orders larger than 0.1
B(  0-C ,  1-N ) :   1.0631 B(  0-C ,  5-H ) :   0.9716 B(  0-C ,  6-H ) :   0.9466
B(  0-C ,  7-H ) :   0.9668 B(  1-N ,  2-C ) :   1.1347 B(  1-N ,  8-H ) :   0.9389
B(  2-C ,  3-C ) :   1.0035 B(  2-C ,  4-C ) :   0.9663 B(  2-C ,  9-H ) :   0.9372
B(  3-C ,  4-C ) :   1.0216 B(  3-C , 10-H ) :   0.9518 B(  3-C , 11-H ) :   0.9450
B(  4-C , 12-H ) :   0.9459 B(  4-C , 13-H ) :   0.9446

FINAL SINGLE POINT ENERGY      -212.103651081770

DIPOLE MOMENT
-------------
                                X             Y             Z
Electronic contribution:     -1.28743      -1.11621       0.10725
Nuclear contribution   :      1.48540       1.14699      -0.34033
                        -----------------------------------------
Total Dipole Moment    :      0.19798       0.03078      -0.23308
                        -----------------------------------------
Magnitude (a.u.)       :      0.30736
Magnitude (Debye)      :      0.78125

                             ****ORCA TERMINATED NORMALLY****
TOTAL RUN TIME: 0 days 0 hours 0 minutes 5 seconds 95 msec
