                         Program Version 3.0.3 - RELEASE   -
|  1> ! RI PBE def2-SVP def2-SVP/J NBO PAL2
|  2> % maxcore 2000
|  3> % output
|  4>     # printlevel mini
|  5>     print[ P_Basis ] 0
|  6>     print[ P_SCFInfo ] 1
|  7>     print[ P_SCFIterInfo ] 1
|  8>     print[ P_OrbEn ] 0
|  9>     print[ P_Cartesian ] 0
| 10> end
| 11> *xyz 0 1
| 12>  C        2.8277920000     1.3009890000    -0.4596360000
| 13>  N        2.5520740000    -0.0553970000    -0.0451380000
| 14>  C        3.0978670000    -0.4438650000     1.2463890000
| 15>  C        2.5573840000    -1.8153050000     1.6122170000
| 16>  C        4.6227620000    -0.4211710000     1.3277160000
| 17>  H        2.3347020000     1.4953570000    -1.4146610000
| 18>  H        3.8937090000     1.5526400000    -0.5755490000
| 19>  H        2.4039230000     1.9950550000     0.2722440000
| 20>  H        2.8593470000    -0.7108270000    -0.7545300000
| 21>  H        2.7074830000     0.2832840000     1.9708620000
| 22>  H        2.9124210000    -2.5693830000     0.9013150000
| 23>  H        1.4665880000    -1.8165810000     1.5888730000
| 24>  H        2.8905600000    -2.1191340000     2.6071840000
| 25>  H        5.0535440000    -1.1456190000     0.6283570000
| 26>  H        4.9656680000    -0.6837070000     2.3320180000
| 27>  H        5.0297790000     0.5633530000     1.0878500000
| 28> *
| 29>
| 30>                          ****END OF INPUT****
 Total Charge           Charge          ....    0
 Multiplicity           Mult            ....    1
 Number of Electrons    NEL             ....   42
 Basis Dimension        Dim             ....  125

MULLIKEN ATOMIC CHARGES
-----------------------
   0 C :    0.071321
   1 N :   -0.251014
   2 C :   -0.061306
   3 C :    0.017598
   4 C :    0.023881
   5 H :    0.017468
   6 H :   -0.003328
   7 H :    0.014886
   8 H :    0.093228
   9 H :    0.002034
  10 H :    0.006123
  11 H :    0.028198
  12 H :    0.011302
  13 H :    0.003278
  14 H :    0.009178
  15 H :    0.017152
Sum of atomic charges:    0.0000000

LOEWDIN ATOMIC CHARGES
----------------------
   0 C :   -0.008431
   1 N :   -0.099410
   2 C :   -0.004054
   3 C :   -0.065271
   4 C :   -0.075392
   5 H :    0.022644
   6 H :   -0.004797
   7 H :    0.021622
   8 H :    0.050020
   9 H :    0.020588
  10 H :    0.021270
  11 H :    0.028006
  12 H :    0.025419
  13 H :    0.020205
  14 H :    0.025408
  15 H :    0.022173

  Mayer bond orders larger than 0.1
B(  0-C ,  1-N ) :   1.0714 B(  0-C ,  5-H ) :   0.9703 B(  0-C ,  6-H ) :   0.9423
B(  0-C ,  7-H ) :   0.9656 B(  1-N ,  2-C ) :   1.0423 B(  1-N ,  8-H ) :   0.9449
B(  2-C ,  3-C ) :   1.0938 B(  2-C ,  4-C ) :   1.0608 B(  2-C ,  9-H ) :   0.9126
B(  3-C , 10-H ) :   0.9553 B(  3-C , 11-H ) :   0.9585 B(  3-C , 12-H ) :   0.9584
B(  4-C , 13-H ) :   0.9558 B(  4-C , 14-H ) :   0.9526 B(  4-C , 15-H ) :   0.9561

FINAL SINGLE POINT ENERGY      -213.333322808020

DIPOLE MOMENT
-------------
                                X             Y             Z
Electronic contribution:     -1.50998       0.06029      -0.72850
Nuclear contribution   :      1.80787      -0.06327       0.64930
                        -----------------------------------------
Total Dipole Moment    :      0.29789      -0.00297      -0.07920
                        -----------------------------------------
Magnitude (a.u.)       :      0.30825
Magnitude (Debye)      :      0.78351

                             ****ORCA TERMINATED NORMALLY****
TOTAL RUN TIME: 0 days 0 hours 0 minutes 5 seconds 654 msec
