                         Program Version 3.0.3 - RELEASE   -
|  1> ! RI PBE def2-SVP def2-SVP/J NBO PAL2
|  2> % maxcore 2000
|  3> % output
|  4>     # printlevel mini
|  5>     print[ P_Basis ] 0
|  6>     print[ P_SCFInfo ] 1
|  7>     print[ P_SCFIterInfo ] 1
|  8>     print[ P_OrbEn ] 0
|  9>     print[ P_Cartesian ] 0
| 10> end
| 11> *xyz 0 1
| 12>  C        1.4501340000    -0.4905200000     0.3299690000
| 13>  N        2.8395480000    -0.0923750000     0.3046410000
| 14>  C        3.1736170000     0.7374340000    -0.8355760000
| 15>  C        4.6099510000     1.1400550000    -0.8023850000
| 16>  C        5.4704530000     0.9347850000    -1.7893260000
| 17>  H        1.2716340000    -1.1559060000     1.1768240000
| 18>  H        1.1113830000    -1.0007310000    -0.5874890000
| 19>  H        0.8196960000     0.3929370000     0.4660660000
| 20>  H        3.4372030000    -0.9096600000     0.3078590000
| 21>  H        2.5467220000     1.6375210000    -0.7777630000
| 22>  H        2.9444980000     0.2597280000    -1.8049190000
| 23>  H        4.9383940000     1.6227880000     0.1153570000
| 24>  H        5.1675550000     0.4443660000    -2.7097660000
| 25>  H        6.5039020000     1.2540770000    -1.7191920000
| 26> *
| 27>
| 28>                          ****END OF INPUT****
 Total Charge           Charge          ....    0
 Multiplicity           Mult            ....    1
 Number of Electrons    NEL             ....   40
 Basis Dimension        Dim             ....  115

MULLIKEN ATOMIC CHARGES
-----------------------
   0 C :    0.062699
   1 N :   -0.282755
   2 C :    0.173854
   3 C :   -0.110073
   4 C :   -0.031301
   5 H :    0.025278
   6 H :   -0.006144
   7 H :    0.018512
   8 H :    0.101138
   9 H :    0.016018
  10 H :   -0.021318
  11 H :    0.009024
  12 H :    0.017909
  13 H :    0.027159
Sum of atomic charges:   -0.0000000

LOEWDIN ATOMIC CHARGES
----------------------
   0 C :   -0.008518
   1 N :   -0.105166
   2 C :    0.010293
   3 C :   -0.036089
   4 C :   -0.062933
   5 H :    0.023656
   6 H :   -0.002452
   7 H :    0.021754
   8 H :    0.054867
   9 H :    0.030447
  10 H :    0.000189
  11 H :    0.027446
  12 H :    0.021222
  13 H :    0.025282

  Mayer bond orders larger than 0.1
B(  0-C ,  1-N ) :   1.0678 B(  0-C ,  5-H ) :   0.9729 B(  0-C ,  6-H ) :   0.9442
B(  0-C ,  7-H ) :   0.9675 B(  1-N ,  2-C ) :   1.0187 B(  1-N ,  8-H ) :   0.9496
B(  2-C ,  3-C ) :   1.0584 B(  2-C ,  9-H ) :   0.9105 B(  2-C , 10-H ) :   0.9132
B(  3-C ,  4-C ) :   2.0031 B(  3-C , 11-H ) :   0.9577 B(  4-C , 12-H ) :   0.9440
B(  4-C , 13-H ) :   0.9440

FINAL SINGLE POINT ENERGY      -212.107013514845

DIPOLE MOMENT
-------------
                                X             Y             Z
Electronic contribution:      2.06419       0.83315       0.46227
Nuclear contribution   :     -2.16745      -1.07660      -0.61421
                        -----------------------------------------
Total Dipole Moment    :     -0.10326      -0.24344      -0.15195
                        -----------------------------------------
Magnitude (a.u.)       :      0.30499
Magnitude (Debye)      :      0.77521

                             ****ORCA TERMINATED NORMALLY****
TOTAL RUN TIME: 0 days 0 hours 0 minutes 5 seconds 116 msec
