                         Program Version 3.0.3 - RELEASE   -
|  1> ! RI PBE def2-SVP def2-SVP/J NBO PAL2
|  2> % maxcore 2000
|  3> % output
|  4>     # printlevel mini
|  5>     print[ P_Basis ] 0
|  6>     print[ P_SCFInfo ] 1
|  7>     print[ P_SCFIterInfo ] 1
|  8>     print[ P_OrbEn ] 0
|  9>     print[ P_Cartesian ] 0
| 10> end
| 11> *xyz 0 1
| 12>  C        0.9872340000     0.0887630000     0.0082340000
| 13>  N        2.4274960000     0.1015990000    -0.1143450000
| 14>  C        2.9408640000    -1.1272090000    -0.6890020000
| 15>  C        4.3948430000    -1.1705490000    -0.6749000000
| 16>  C        5.5933770000    -1.2153310000    -0.6414270000
| 17>  H        0.6536210000     1.0055100000     0.4968960000
| 18>  H        0.5913340000    -0.7709320000     0.5750500000
| 19>  H        0.5352640000     0.0629500000    -0.9875770000
| 20>  H        2.8603290000     0.2554360000     0.7872740000
| 21>  H        2.5919020000    -1.1957790000    -1.7265850000
| 22>  H        2.5604980000    -2.0312390000    -0.1784850000
| 23>  H        6.6568290000    -1.2506280000    -0.6205300000
| 24> *
| 25>
| 26>                          ****END OF INPUT****
 Total Charge           Charge          ....    0
 Multiplicity           Mult            ....    1
 Number of Electrons    NEL             ....   38
 Basis Dimension        Dim             ....  105

MULLIKEN ATOMIC CHARGES
-----------------------
   0 C :    0.070484
   1 N :   -0.280182
   2 C :    0.197719
   3 C :    0.300618
   4 C :   -0.474247
   5 H :    0.027769
   6 H :   -0.004666
   7 H :    0.018725
   8 H :    0.108498
   9 H :    0.027484
  10 H :    0.008046
  11 H :   -0.000249
Sum of atomic charges:   -0.0000000

LOEWDIN ATOMIC CHARGES
----------------------
   0 C :   -0.006428
   1 N :   -0.098862
   2 C :    0.007110
   3 C :   -0.025742
   4 C :   -0.078700
   5 H :    0.026188
   6 H :   -0.001483
   7 H :    0.022540
   8 H :    0.058378
   9 H :    0.042747
  10 H :    0.019886
  11 H :    0.034366

  Mayer bond orders larger than 0.1
B(  0-C ,  1-N ) :   1.0646 B(  0-C ,  5-H ) :   0.9732 B(  0-C ,  6-H ) :   0.9440
B(  0-C ,  7-H ) :   0.9662 B(  1-N ,  2-C ) :   1.0293 B(  1-N ,  8-H ) :   0.9465
B(  2-C ,  3-C ) :   1.0508 B(  2-C ,  9-H ) :   0.8900 B(  2-C , 10-H ) :   0.8873
B(  3-C ,  4-C ) :   2.3688 B(  3-C , 11-H ) :  -0.1082 B(  4-C , 11-H ) :   1.0997

FINAL SINGLE POINT ENERGY      -210.860853707887

DIPOLE MOMENT
-------------
                                X             Y             Z
Electronic contribution:      4.98399      -0.63486      -0.74800
Nuclear contribution   :     -5.26227       0.47125       1.03997
                        -----------------------------------------
Total Dipole Moment    :     -0.27828      -0.16361       0.29197
                        -----------------------------------------
Magnitude (a.u.)       :      0.43526
Magnitude (Debye)      :      1.10635

                             ****ORCA TERMINATED NORMALLY****
TOTAL RUN TIME: 0 days 0 hours 0 minutes 4 seconds 758 msec
