                         Program Version 3.0.3 - RELEASE   -
|  1> ! RI PBE def2-SVP def2-SVP/J NBO PAL2
|  2> % maxcore 2000
|  3> % output
|  4>     # printlevel mini
|  5>     print[ P_Basis ] 0
|  6>     print[ P_SCFInfo ] 1
|  7>     print[ P_SCFIterInfo ] 1
|  8>     print[ P_OrbEn ] 0
|  9>     print[ P_Cartesian ] 0
| 10> end
| 11> *xyz 0 1
| 12>  C        0.9328750000     0.0759440000     0.1229670000
| 13>  N        2.3768300000    -0.0131050000     0.0842030000
| 14>  C        2.8890500000    -0.9819930000     1.0264550000
| 15>  C        4.3471170000    -1.0161050000     1.0172120000
| 16>  N        5.4958830000    -1.0272270000     1.0310590000
| 17>  H        0.6010090000     0.8545940000    -0.5646480000
| 18>  H        0.5233560000     0.2961540000     1.1221730000
| 19>  H        0.4993560000    -0.8694440000    -0.2145140000
| 20>  H        2.7953850000     0.8912580000     0.2596250000
| 21>  H        2.5260550000    -1.9773460000     0.7468880000
| 22>  H        2.5658830000    -0.8123210000     2.0688710000
| 23> *
| 24>
| 25>                          ****END OF INPUT****
 Total Charge           Charge          ....    0
 Multiplicity           Mult            ....    1
 Number of Electrons    NEL             ....   38
 Basis Dimension        Dim             ....  100

MULLIKEN ATOMIC CHARGES
-----------------------
   0 C :    0.073742
   1 N :   -0.285695
   2 C :    0.181228
   3 C :   -0.278204
   4 N :    0.056118
   5 H :    0.036999
   6 H :    0.001041
   7 H :    0.023890
   8 H :    0.116824
   9 H :    0.042964
  10 H :    0.031093
Sum of atomic charges:   -0.0000000

LOEWDIN ATOMIC CHARGES
----------------------
   0 C :   -0.003847
   1 N :   -0.092515
   2 C :   -0.004015
   3 C :   -0.045999
   4 N :   -0.056719
   5 H :    0.030357
   6 H :    0.002221
   7 H :    0.025330
   8 H :    0.062860
   9 H :    0.052842
  10 H :    0.029486

  Mayer bond orders larger than 0.1
B(  0-C ,  1-N ) :   1.0618 B(  0-C ,  5-H ) :   0.9731 B(  0-C ,  6-H ) :   0.9462
B(  0-C ,  7-H ) :   0.9665 B(  1-N ,  2-C ) :   1.0474 B(  1-N ,  8-H ) :   0.9429
B(  2-C ,  3-C ) :   1.1082 B(  2-C ,  9-H ) :   0.8828 B(  2-C , 10-H ) :   0.8919
B(  3-C ,  4-N ) :   3.0615

FINAL SINGLE POINT ENERGY      -226.939307393971

DIPOLE MOMENT
-------------
                                X             Y             Z
Electronic contribution:      7.06249      -1.35945       0.64389
Nuclear contribution   :     -8.57288       1.63846      -0.41494
                        -----------------------------------------
Total Dipole Moment    :     -1.51039       0.27901       0.22895
                        -----------------------------------------
Magnitude (a.u.)       :      1.55291
Magnitude (Debye)      :      3.94718

                             ****ORCA TERMINATED NORMALLY****
TOTAL RUN TIME: 0 days 0 hours 0 minutes 4 seconds 412 msec
