                         Program Version 3.0.3 - RELEASE   -
|  1> ! RI PBE def2-SVP def2-SVP/J NBO PAL2
|  2> % maxcore 2000
|  3> % output
|  4>     # printlevel mini
|  5>     print[ P_Basis ] 0
|  6>     print[ P_SCFInfo ] 1
|  7>     print[ P_SCFIterInfo ] 1
|  8>     print[ P_OrbEn ] 0
|  9>     print[ P_Cartesian ] 0
| 10> end
| 11> *xyz 0 1
| 12>  N        1.0595360000    -0.0785920000    -0.0156140000
| 13>  C        2.4920820000    -0.0151000000     0.0986790000
| 14>  C        3.2315470000     1.0499750000     0.9489300000
| 15>  C        4.2415150000    -0.0456820000     1.3370290000
| 16>  C        3.1835020000    -1.0948270000     0.9453640000
| 17>  H        0.7009990000     0.6693390000    -0.5962300000
| 18>  H        0.6234160000     0.0087320000     0.8948650000
| 19>  H        2.9126000000    -0.0231910000    -0.9121680000
| 20>  H        2.6175200000     1.3411000000     1.8068060000
| 21>  H        3.5983600000     1.9520210000     0.4545010000
| 22>  H        4.6141860000    -0.0560970000     2.3615260000
| 23>  H        5.0949770000    -0.0641040000     0.6558860000
| 24>  H        2.5572720000    -1.3584050000     1.8032020000
| 25>  H        3.5025880000    -2.0133570000     0.4507220000
| 26> *
| 27>
| 28>                          ****END OF INPUT****
 Total Charge           Charge          ....    0
 Multiplicity           Mult            ....    1
 Number of Electrons    NEL             ....   40
 Basis Dimension        Dim             ....  115

MULLIKEN ATOMIC CHARGES
-----------------------
   0 N :   -0.130381
   1 C :   -0.148935
   2 C :    0.055856
   3 C :   -0.038818
   4 C :    0.052891
   5 H :    0.089062
   6 H :    0.079370
   7 H :    0.008930
   8 H :   -0.012936
   9 H :    0.005758
  10 H :    0.009463
  11 H :    0.018863
  12 H :   -0.001153
  13 H :    0.012032
Sum of atomic charges:   -0.0000000

LOEWDIN ATOMIC CHARGES
----------------------
   0 N :   -0.092984
   1 C :   -0.004792
   2 C :   -0.056848
   3 C :   -0.037762
   4 C :   -0.036492
   5 H :    0.052970
   6 H :    0.046847
   7 H :    0.022726
   8 H :    0.016628
   9 H :    0.011513
  10 H :    0.016139
  11 H :    0.024315
  12 H :    0.021663
  13 H :    0.016078

  Mayer bond orders larger than 0.1
B(  0-N ,  1-C ) :   1.1568 B(  0-N ,  5-H ) :   0.9657 B(  0-N ,  6-H ) :   0.9566
B(  1-C ,  2-C ) :   1.0401 B(  1-C ,  4-C ) :   1.0689 B(  1-C ,  7-H ) :   0.9103
B(  2-C ,  3-C ) :   1.1194 B(  2-C ,  8-H ) :   0.9060 B(  2-C ,  9-H ) :   0.9329
B(  3-C ,  4-C ) :   1.1063 B(  3-C , 10-H ) :   0.9350 B(  3-C , 11-H ) :   0.9374
B(  4-C , 12-H ) :   0.9183 B(  4-C , 13-H ) :   0.9321

FINAL SINGLE POINT ENERGY      -212.119221913431

DIPOLE MOMENT
-------------
                                X             Y             Z
Electronic contribution:     -0.99179      -0.24256      -0.81661
Nuclear contribution   :      0.94243       0.65430       0.93728
                        -----------------------------------------
Total Dipole Moment    :     -0.04936       0.41174       0.12067
                        -----------------------------------------
Magnitude (a.u.)       :      0.43189
Magnitude (Debye)      :      1.09778

                             ****ORCA TERMINATED NORMALLY****
TOTAL RUN TIME: 0 days 0 hours 0 minutes 5 seconds 517 msec
