                         Program Version 3.0.3 - RELEASE   -
|  1> ! RI PBE def2-SVP def2-SVP/J NBO PAL2
|  2> % maxcore 2000
|  3> % output
|  4>     # printlevel mini
|  5>     print[ P_Basis ] 0
|  6>     print[ P_SCFInfo ] 1
|  7>     print[ P_SCFIterInfo ] 1
|  8>     print[ P_OrbEn ] 0
|  9>     print[ P_Cartesian ] 0
| 10> end
| 11> *xyz 0 1
| 12>  N        1.5381530000     0.0075360000    -0.6806520000
| 13>  C        1.8340700000    -0.2204080000     0.7253890000
| 14>  C        2.9347730000    -1.2347540000     0.9266540000
| 15>  C        2.9925640000    -2.4821250000     0.1062570000
| 16>  C        4.0348130000    -1.4180980000    -0.0735320000
| 17>  H        2.2137720000     0.6378770000    -1.0927690000
| 18>  H        0.6300170000     0.4377340000    -0.7883730000
| 19>  H        2.1033810000     0.7006410000     1.2655600000
| 20>  H        0.9232210000    -0.6014270000     1.1993390000
| 21>  H        3.2309220000    -1.3376970000     1.9663470000
| 22>  H        2.2590640000    -2.5748810000    -0.6850430000
| 23>  H        3.2753240000    -3.4072990000     0.5929450000
| 24>  H        3.9926390000    -0.8489350000    -0.9940880000
| 25>  H        5.0362760000    -1.6027560000     0.2951550000
| 26> *
| 27>
| 28>                          ****END OF INPUT****
 Total Charge           Charge          ....    0
 Multiplicity           Mult            ....    1
 Number of Electrons    NEL             ....   40
 Basis Dimension        Dim             ....  115

MULLIKEN ATOMIC CHARGES
-----------------------
   0 N :   -0.216127
   1 C :    0.145276
   2 C :   -0.170946
   3 C :   -0.026893
   4 C :   -0.043870
   5 H :    0.092408
   6 H :    0.090190
   7 H :   -0.004220
   8 H :    0.007153
   9 H :    0.016363
  10 H :    0.037233
  11 H :    0.024664
  12 H :    0.021722
  13 H :    0.027047
Sum of atomic charges:    0.0000000

LOEWDIN ATOMIC CHARGES
----------------------
   0 N :   -0.104741
   1 C :    0.012413
   2 C :   -0.058817
   3 C :   -0.047576
   4 C :   -0.051056
   5 H :    0.051289
   6 H :    0.054730
   7 H :    0.003212
   8 H :    0.023396
   9 H :    0.025517
  10 H :    0.025938
  11 H :    0.021904
  12 H :    0.020514
  13 H :    0.023278

  Mayer bond orders larger than 0.1
B(  0-N ,  1-C ) :   1.1044 B(  0-N ,  5-H ) :   0.9651 B(  0-N ,  6-H ) :   0.9669
B(  1-C ,  2-C ) :   1.0568 B(  1-C ,  7-H ) :   0.9319 B(  1-C ,  8-H ) :   0.9325
B(  2-C ,  3-C ) :   0.9981 B(  2-C ,  4-C ) :   1.0156 B(  2-C ,  9-H ) :   0.9385
B(  3-C ,  4-C ) :   1.0282 B(  3-C , 10-H ) :   0.9428 B(  3-C , 11-H ) :   0.9516
B(  4-C , 12-H ) :   0.9421 B(  4-C , 13-H ) :   0.9511

FINAL SINGLE POINT ENERGY      -212.111292782258

DIPOLE MOMENT
-------------
                                X             Y             Z
Electronic contribution:     -0.14349      -0.05302      -0.03697
Nuclear contribution   :     -0.01460       0.59301       0.16460
                        -----------------------------------------
Total Dipole Moment    :     -0.15808       0.53999       0.12763
                        -----------------------------------------
Magnitude (a.u.)       :      0.57695
Magnitude (Debye)      :      1.46648

                             ****ORCA TERMINATED NORMALLY****
TOTAL RUN TIME: 0 days 0 hours 0 minutes 5 seconds 110 msec
