                         Program Version 3.0.3 - RELEASE   -
|  1> ! RI PBE def2-SVP def2-SVP/J NBO PAL2
|  2> % maxcore 2000
|  3> % output
|  4>     # printlevel mini
|  5>     print[ P_Basis ] 0
|  6>     print[ P_SCFInfo ] 1
|  7>     print[ P_SCFIterInfo ] 1
|  8>     print[ P_OrbEn ] 0
|  9>     print[ P_Cartesian ] 0
| 10> end
| 11> *xyz 0 1
| 12>  N        0.9889950000     0.0411760000     0.0156480000
| 13>  C        2.1401130000     0.0414950000     0.0276910000
| 14>  C        3.5713070000     0.0419100000     0.0353610000
| 15>  C        4.3120860000    -0.6981170000    -1.0510180000
| 16>  C        4.3118360000     0.7890980000    -1.0462900000
| 17>  H        4.0079810000     0.0386760000     1.0267720000
| 18>  H        3.7124900000    -1.2061840000    -1.7943840000
| 19>  H        5.2116310000    -1.2195980000    -0.7513390000
| 20>  H        3.7123830000     1.3017990000    -1.7866070000
| 21>  H        5.2113780000     1.3088340000    -0.7435340000
| 22> *
| 23>
| 24>                          ****END OF INPUT****
 Total Charge           Charge          ....    0
 Multiplicity           Mult            ....    1
 Number of Electrons    NEL             ....   36
 Basis Dimension        Dim             ....   95

MULLIKEN ATOMIC CHARGES
-----------------------
   0 N :    0.054460
   1 C :   -0.105893
   2 C :   -0.230196
   3 C :   -0.010812
   4 C :   -0.010559
   5 H :    0.072028
   6 H :    0.062049
   7 H :    0.053458
   8 H :    0.062072
   9 H :    0.053393
Sum of atomic charges:   -0.0000000

LOEWDIN ATOMIC CHARGES
----------------------
   0 N :   -0.070561
   1 C :   -0.039573
   2 C :   -0.069440
   3 C :   -0.014025
   4 C :   -0.014000
   5 H :    0.053839
   6 H :    0.040136
   7 H :    0.036739
   8 H :    0.040152
   9 H :    0.036734

  Mayer bond orders larger than 0.1
B(  0-N ,  1-C ) :   3.0253 B(  1-C ,  2-C ) :   1.1540 B(  2-C ,  3-C ) :   0.9785
B(  2-C ,  4-C ) :   0.9786 B(  2-C ,  5-H ) :   0.9190 B(  3-C ,  4-C ) :   1.0374
B(  3-C ,  6-H ) :   0.9517 B(  3-C ,  7-H ) :   0.9473 B(  4-C ,  8-H ) :   0.9517
B(  4-C ,  9-H ) :   0.9473

FINAL SINGLE POINT ENERGY      -209.711595743647

DIPOLE MOMENT
-------------
                                X             Y             Z
Electronic contribution:     -4.37581      -0.00629       1.65406
Nuclear contribution   :      5.94547       0.00717      -1.81797
                        -----------------------------------------
Total Dipole Moment    :      1.56966       0.00088      -0.16391
                        -----------------------------------------
Magnitude (a.u.)       :      1.57820
Magnitude (Debye)      :      4.01146

                             ****ORCA TERMINATED NORMALLY****
TOTAL RUN TIME: 0 days 0 hours 0 minutes 4 seconds 361 msec
