                         Program Version 3.0.3 - RELEASE   -
|  1> ! RI PBE def2-SVP def2-SVP/J NBO PAL2
|  2> % maxcore 2000
|  3> % output
|  4>     # printlevel mini
|  5>     print[ P_Basis ] 0
|  6>     print[ P_SCFInfo ] 1
|  7>     print[ P_SCFIterInfo ] 1
|  8>     print[ P_OrbEn ] 0
|  9>     print[ P_Cartesian ] 0
| 10> end
| 11> *xyz 0 1
| 12>  N        1.0105480000     0.0625380000    -0.0502270000
| 13>  C        2.1577510000    -0.0119300000     0.0064650000
| 14>  C        3.5911120000    -0.0811340000     0.0686940000
| 15>  C        4.3141140000    -0.7913760000    -1.0168840000
| 16>  N        4.3871710000     0.6523270000    -0.9157280000
| 17>  H        3.9968450000    -0.0819840000     1.0745730000
| 18>  H        3.7145800000    -1.2391450000    -1.8019130000
| 19>  H        5.2261220000    -1.3197170000    -0.7631440000
| 20>  H        3.7783570000     1.0945210000    -1.5970370000
| 21> *
| 22>
| 23>                          ****END OF INPUT****
 Total Charge           Charge          ....    0
 Multiplicity           Mult            ....    1
 Number of Electrons    NEL             ....   36
 Basis Dimension        Dim             ....   90

MULLIKEN ATOMIC CHARGES
-----------------------
   0 N :    0.054274
   1 C :   -0.107967
   2 C :   -0.166676
   3 C :    0.060396
   4 N :   -0.161236
   5 H :    0.076210
   6 H :    0.058645
   7 H :    0.059056
   8 H :    0.127298
Sum of atomic charges:    0.0000000

LOEWDIN ATOMIC CHARGES
----------------------
   0 N :   -0.056096
   1 C :   -0.056235
   2 C :   -0.028031
   3 C :    0.031972
   4 N :   -0.067951
   5 H :    0.049246
   6 H :    0.028272
   7 H :    0.032033
   8 H :    0.066788

  Mayer bond orders larger than 0.1
B(  0-N ,  1-C ) :   3.0170 B(  1-C ,  2-C ) :   1.0900 B(  2-C ,  3-C ) :   1.0358
B(  2-C ,  4-N ) :   1.0213 B(  2-C ,  5-H ) :   0.9133 B(  3-C ,  4-N ) :   0.9967
B(  3-C ,  6-H ) :   0.9431 B(  3-C ,  7-H ) :   0.9399 B(  4-N ,  8-H ) :   0.9425

FINAL SINGLE POINT ENERGY      -225.717765639178

DIPOLE MOMENT
-------------
                                X             Y             Z
Electronic contribution:     -2.97012       0.95891       1.07654
Nuclear contribution   :      3.91878      -1.32690      -1.35657
                        -----------------------------------------
Total Dipole Moment    :      0.94866      -0.36799      -0.28002
                        -----------------------------------------
Magnitude (a.u.)       :      1.05536
Magnitude (Debye)      :      2.68250

                             ****ORCA TERMINATED NORMALLY****
TOTAL RUN TIME: 0 days 0 hours 0 minutes 4 seconds 20 msec
