                         Program Version 3.0.3 - RELEASE   -
|  1> ! RI PBE def2-SVP def2-SVP/J NBO PAL2
|  2> % maxcore 2000
|  3> % output
|  4>     # printlevel mini
|  5>     print[ P_Basis ] 0
|  6>     print[ P_SCFInfo ] 1
|  7>     print[ P_SCFIterInfo ] 1
|  8>     print[ P_OrbEn ] 0
|  9>     print[ P_Cartesian ] 0
| 10> end
| 11> *xyz 0 1
| 12>  N        1.0723380000     0.0401980000    -0.0463700000
| 13>  C        2.5258450000     0.0953920000    -0.0544610000
| 14>  C        3.0794800000    -0.2806630000     1.3138210000
| 15>  C        4.5690340000    -0.3550930000     1.3311150000
| 16>  C        5.3655280000     0.3882610000     2.0864120000
| 17>  H        0.7015360000     0.2547530000    -0.9634080000
| 18>  H        0.6982400000     0.7346360000     0.5897210000
| 19>  H        2.9361910000     1.0752120000    -0.3445320000
| 20>  H        2.8864130000    -0.6262630000    -0.7951520000
| 21>  H        2.6508700000    -1.2510750000     1.5902590000
| 22>  H        2.7380040000     0.4441580000     2.0614920000
| 23>  H        5.0167130000    -1.0818820000     0.6540660000
| 24>  H        4.9649860000     1.1255890000     2.7758700000
| 25>  H        6.4439030000     0.2851680000     2.0495550000
| 26> *
| 27>
| 28>                          ****END OF INPUT****
 Total Charge           Charge          ....    0
 Multiplicity           Mult            ....    1
 Number of Electrons    NEL             ....   40
 Basis Dimension        Dim             ....  115

MULLIKEN ATOMIC CHARGES
-----------------------
   0 N :   -0.204014
   1 C :    0.035372
   2 C :    0.049355
   3 C :   -0.082344
   4 C :   -0.045479
   5 H :    0.086667
   6 H :    0.086667
   7 H :   -0.003102
   8 H :    0.010093
   9 H :    0.021903
  10 H :    0.002076
  11 H :    0.000978
  12 H :    0.015326
  13 H :    0.026501
Sum of atomic charges:    0.0000000

LOEWDIN ATOMIC CHARGES
----------------------
   0 N :   -0.112919
   1 C :    0.008270
   2 C :   -0.049046
   3 C :   -0.025795
   4 C :   -0.071027
   5 H :    0.052422
   6 H :    0.049522
   7 H :   -0.000274
   8 H :    0.019814
   9 H :    0.035564
  10 H :    0.024622
  11 H :    0.024256
  12 H :    0.020319
  13 H :    0.024273

  Mayer bond orders larger than 0.1
B(  0-N ,  1-C ) :   1.0920 B(  0-N ,  5-H ) :   0.9648 B(  0-N ,  6-H ) :   0.9697
B(  1-C ,  2-C ) :   1.0758 B(  1-C ,  7-H ) :   0.9333 B(  1-C ,  8-H ) :   0.9378
B(  2-C ,  3-C ) :   1.0631 B(  2-C ,  9-H ) :   0.9055 B(  2-C , 10-H ) :   0.9309
B(  3-C ,  4-C ) :   2.0078 B(  3-C , 11-H ) :   0.9540 B(  4-C , 12-H ) :   0.9495
B(  4-C , 13-H ) :   0.9445

FINAL SINGLE POINT ENERGY      -212.113858807243

DIPOLE MOMENT
-------------
                                X             Y             Z
Electronic contribution:      0.07471      -0.53425       0.12582
Nuclear contribution   :     -0.18692       0.93630      -0.36163
                        -----------------------------------------
Total Dipole Moment    :     -0.11221       0.40204      -0.23581
                        -----------------------------------------
Magnitude (a.u.)       :      0.47941
Magnitude (Debye)      :      1.21857

                             ****ORCA TERMINATED NORMALLY****
TOTAL RUN TIME: 0 days 0 hours 0 minutes 5 seconds 349 msec
