                         Program Version 3.0.3 - RELEASE   -
|  1> ! RI PBE def2-SVP def2-SVP/J NBO PAL2
|  2> % maxcore 2000
|  3> % output
|  4>     # printlevel mini
|  5>     print[ P_Basis ] 0
|  6>     print[ P_SCFInfo ] 1
|  7>     print[ P_SCFIterInfo ] 1
|  8>     print[ P_OrbEn ] 0
|  9>     print[ P_Cartesian ] 0
| 10> end
| 11> *xyz 0 1
| 12>  N        0.8923140000    -0.0103040000     0.0470290000
| 13>  C        2.3437840000    -0.0284410000     0.0880790000
| 14>  C        2.8939690000    -0.3855570000    -1.2911140000
| 15>  C        4.3455370000    -0.3968180000    -1.3316320000
| 16>  C        5.5462010000    -0.3988420000    -1.3408520000
| 17>  H        0.5145860000     0.3555950000     0.9112380000
| 18>  H        0.5252630000    -0.9483280000    -0.0610320000
| 19>  H        2.7697830000    -0.7211810000     0.8283490000
| 20>  H        2.6930550000     0.9722550000     0.3547330000
| 21>  H        2.5027380000     0.3288710000    -2.0217340000
| 22>  H        2.5187830000    -1.3717670000    -1.5894050000
| 23>  H        6.6101770000    -0.4006730000    -1.3572590000
| 24> *
| 25>
| 26>                          ****END OF INPUT****
 Total Charge           Charge          ....    0
 Multiplicity           Mult            ....    1
 Number of Electrons    NEL             ....   38
 Basis Dimension        Dim             ....  105

MULLIKEN ATOMIC CHARGES
-----------------------
   0 N :   -0.199986
   1 C :    0.026330
   2 C :    0.067247
   3 C :    0.329233
   4 C :   -0.496190
   5 H :    0.091517
   6 H :    0.088930
   7 H :    0.010868
   8 H :    0.019653
   9 H :    0.041646
  10 H :    0.026209
  11 H :   -0.005455
Sum of atomic charges:    0.0000000

LOEWDIN ATOMIC CHARGES
----------------------
   0 N :   -0.110147
   1 C :    0.016081
   2 C :   -0.054237
   3 C :   -0.020965
   4 C :   -0.094286
   5 H :    0.055372
   6 H :    0.050943
   7 H :    0.004884
   8 H :    0.025625
   9 H :    0.050203
  10 H :    0.044104
  11 H :    0.032425

  Mayer bond orders larger than 0.1
B(  0-N ,  1-C ) :   1.1064 B(  0-N ,  5-H ) :   0.9640 B(  0-N ,  6-H ) :   0.9684
B(  1-C ,  2-C ) :   1.0705 B(  1-C ,  7-H ) :   0.9385 B(  1-C ,  8-H ) :   0.9390
B(  2-C ,  3-C ) :   1.0522 B(  2-C ,  9-H ) :   0.8912 B(  2-C , 10-H ) :   0.8983
B(  3-C ,  4-C ) :   2.3467 B(  3-C , 11-H ) :  -0.1128 B(  4-C , 11-H ) :   1.1041

FINAL SINGLE POINT ENERGY      -210.871721838871

DIPOLE MOMENT
-------------
                                X             Y             Z
Electronic contribution:      2.87860      -0.14597      -1.43086
Nuclear contribution   :     -3.19248      -0.10817       1.89259
                        -----------------------------------------
Total Dipole Moment    :     -0.31389      -0.25414       0.46173
                        -----------------------------------------
Magnitude (a.u.)       :      0.61344
Magnitude (Debye)      :      1.55924

                             ****ORCA TERMINATED NORMALLY****
TOTAL RUN TIME: 0 days 0 hours 0 minutes 4 seconds 913 msec
