                         Program Version 3.0.3 - RELEASE   -
|  1> ! RI PBE def2-SVP def2-SVP/J NBO PAL2
|  2> % maxcore 2000
|  3> % output
|  4>     # printlevel mini
|  5>     print[ P_Basis ] 0
|  6>     print[ P_SCFInfo ] 1
|  7>     print[ P_SCFIterInfo ] 1
|  8>     print[ P_OrbEn ] 0
|  9>     print[ P_Cartesian ] 0
| 10> end
| 11> *xyz 0 1
| 12>  N        1.0526930000     0.0713620000     0.0741560000
| 13>  C        2.3986530000     0.0212850000     0.0171590000
| 14>  C        3.1315020000    -0.7258100000    -0.8332570000
| 15>  C        4.5411360000    -0.6969010000    -0.8003480000
| 16>  N        5.6961450000    -0.6854830000    -0.7873500000
| 17>  H        0.5892850000     0.6567720000     0.7405480000
| 18>  H        0.4831940000    -0.4739780000    -0.5465920000
| 19>  H        2.9066550000     0.6540750000     0.7374640000
| 20>  H        2.6641170000    -1.3718110000    -1.5686000000
| 21> *
| 22>
| 23>                          ****END OF INPUT****
 Total Charge           Charge          ....    0
 Multiplicity           Mult            ....    1
 Number of Electrons    NEL             ....   36
 Basis Dimension        Dim             ....   90

MULLIKEN ATOMIC CHARGES
-----------------------
   0 N :   -0.058490
   1 C :    0.042253
   2 C :   -0.157016
   3 C :   -0.134981
   4 N :    0.006231
   5 H :    0.129016
   6 H :    0.121542
   7 H :    0.027541
   8 H :    0.023905
Sum of atomic charges:   -0.0000000

LOEWDIN ATOMIC CHARGES
----------------------
   0 N :    0.036547
   1 C :    0.044942
   2 C :   -0.168255
   3 C :   -0.056765
   4 N :   -0.097883
   5 H :    0.081016
   6 H :    0.079707
   7 H :    0.040014
   8 H :    0.040677

  Mayer bond orders larger than 0.1
B(  0-N ,  1-C ) :   1.3139 B(  0-N ,  2-C ) :   0.1003 B(  0-N ,  5-H ) :   0.9556
B(  0-N ,  6-H ) :   0.9553 B(  1-C ,  2-C ) :   1.6620 B(  1-C ,  7-H ) :   0.9523
B(  2-C ,  3-C ) :   1.1919 B(  2-C ,  8-H ) :   0.9387 B(  3-C ,  4-N ) :   2.9392

FINAL SINGLE POINT ENERGY      -225.754949139568

DIPOLE MOMENT
-------------
                                X             Y             Z
Electronic contribution:      3.38945      -0.53932      -0.61488
Nuclear contribution   :     -6.01418       0.93070       1.05943
                        -----------------------------------------
Total Dipole Moment    :     -2.62473       0.39138       0.44454
                        -----------------------------------------
Magnitude (a.u.)       :      2.69072
Magnitude (Debye)      :      6.83927

                             ****ORCA TERMINATED NORMALLY****
TOTAL RUN TIME: 0 days 0 hours 0 minutes 3 seconds 812 msec
