                         Program Version 3.0.3 - RELEASE   -
|  1> ! RI PBE def2-SVP def2-SVP/J NBO PAL2
|  2> % maxcore 2000
|  3> % output
|  4>     # printlevel mini
|  5>     print[ P_Basis ] 0
|  6>     print[ P_SCFInfo ] 1
|  7>     print[ P_SCFIterInfo ] 1
|  8>     print[ P_OrbEn ] 0
|  9>     print[ P_Cartesian ] 0
| 10> end
| 11> *xyz 0 1
| 12>  C       -1.2314630000     0.0148200000    -0.1210480000
| 13>  C       -0.3775350000    -1.2545140000     0.0581180000
| 14>  C        1.0130540000    -0.6842830000     0.0417640000
| 15>  C        0.9306260000     0.6301060000    -0.1113470000
| 16>  O       -0.3247450000     1.1304400000    -0.2133000000
| 17>  H       -1.8975380000     0.1984180000     0.7244980000
| 18>  H       -1.8277480000    -0.0037730000    -1.0356810000
| 19>  H       -0.5413880000    -1.9747480000    -0.7493920000
| 20>  H       -0.6039620000    -1.7708330000     0.9961530000
| 21>  H        1.9254890000    -1.2515190000     0.1395640000
| 22>  H        1.7163090000     1.3711760000    -0.1677300000
| 23> *
| 24>
| 25>                          ****END OF INPUT****
 Total Charge           Charge          ....    0
 Multiplicity           Mult            ....    1
 Number of Electrons    NEL             ....   38
 Basis Dimension        Dim             ....  100

MULLIKEN ATOMIC CHARGES
-----------------------
   0 C :    0.188172
   1 C :   -0.008236
   2 C :   -0.140919
   3 C :    0.130299
   4 O :   -0.293788
   5 H :    0.026814
   6 H :    0.025905
   7 H :    0.033138
   8 H :    0.030141
   9 H :   -0.001224
  10 H :    0.009698
Sum of atomic charges:   -0.0000000

LOEWDIN ATOMIC CHARGES
----------------------
   0 C :    0.085566
   1 C :   -0.050700
   2 C :   -0.122694
   3 C :    0.035441
   4 O :   -0.097793
   5 H :    0.020791
   6 H :    0.020427
   7 H :    0.030593
   8 H :    0.030070
   9 H :    0.025707
  10 H :    0.022592

  Mayer bond orders larger than 0.1
B(  0-C ,  1-C ) :   1.1080 B(  0-C ,  4-O ) :   0.9660 B(  0-C ,  5-H ) :   0.9485
B(  0-C ,  6-H ) :   0.9486 B(  1-C ,  2-C ) :   1.0552 B(  1-C ,  7-H ) :   0.9249
B(  1-C ,  8-H ) :   0.9242 B(  2-C ,  3-C ) :   1.7591 B(  2-C ,  4-O ) :   0.1264
B(  2-C ,  9-H ) :   0.9898 B(  3-C ,  4-O ) :   1.1181 B(  3-C , 10-H ) :   0.9891

FINAL SINGLE POINT ENERGY      -230.763871688161

DIPOLE MOMENT
-------------
                                X             Y             Z
Electronic contribution:      0.86132       2.73114      -0.27830
Nuclear contribution   :     -0.96326      -3.12887       0.32044
                        -----------------------------------------
Total Dipole Moment    :     -0.10194      -0.39773       0.04214
                        -----------------------------------------
Magnitude (a.u.)       :      0.41274
Magnitude (Debye)      :      1.04911

                             ****ORCA TERMINATED NORMALLY****
TOTAL RUN TIME: 0 days 0 hours 0 minutes 4 seconds 832 msec
