                         Program Version 3.0.3 - RELEASE   -
|  1> ! RI PBE def2-SVP def2-SVP/J NBO PAL2
|  2> % maxcore 2000
|  3> % output
|  4>     # printlevel mini
|  5>     print[ P_Basis ] 0
|  6>     print[ P_SCFInfo ] 1
|  7>     print[ P_SCFIterInfo ] 1
|  8>     print[ P_OrbEn ] 0
|  9>     print[ P_Cartesian ] 0
| 10> end
| 11> *xyz 0 1
| 12>  O       -0.3529800000    -1.0737720000    -0.0042640000
| 13>  C       -1.1324710000     0.0300200000    -0.0021970000
| 14>  C       -0.3716350000     1.1492550000     0.0010020000
| 15>  C        0.9838870000     0.7024550000     0.0008920000
| 16>  C        0.9300750000    -0.6498250000    -0.0023470000
| 17>  H       -2.1959530000    -0.1418610000    -0.0033580000
| 18>  H       -0.7289110000     2.1665770000     0.0031660000
| 19>  H        1.8760640000     1.3079400000     0.0029570000
| 20>  H        1.6829130000    -1.4203900000    -0.0036410000
| 21> *
| 22>
| 23>                          ****END OF INPUT****
 Total Charge           Charge          ....    0
 Multiplicity           Mult            ....    1
 Number of Electrons    NEL             ....   36
 Basis Dimension        Dim             ....   90

MULLIKEN ATOMIC CHARGES
-----------------------
   0 O :   -0.166077
   1 C :    0.100479
   2 C :   -0.027273
   3 C :   -0.026475
   4 C :    0.102360
   5 H :    0.011959
   6 H :   -0.003075
   7 H :   -0.002314
   8 H :    0.010417
Sum of atomic charges:   -0.0000000

LOEWDIN ATOMIC CHARGES
----------------------
   0 O :    0.035065
   1 C :    0.011266
   2 C :   -0.081323
   3 C :   -0.081885
   4 C :    0.011720
   5 H :    0.021366
   6 H :    0.031140
   7 H :    0.031342
   8 H :    0.021309

  Mayer bond orders larger than 0.1
B(  0-O ,  1-C ) :   1.1575 B(  0-O ,  4-C ) :   1.1606 B(  1-C ,  2-C ) :   1.5396
B(  1-C ,  4-C ) :   0.1008 B(  1-C ,  5-H ) :   0.9985 B(  2-C ,  3-C ) :   1.2297
B(  2-C ,  6-H ) :   1.0045 B(  3-C ,  4-C ) :   1.5416 B(  3-C ,  7-H ) :   1.0024
B(  4-C ,  8-H ) :   0.9984

FINAL SINGLE POINT ENERGY      -229.579739262511

DIPOLE MOMENT
-------------
                                X             Y             Z
Electronic contribution:     -0.53920      -1.63462      -0.00423
Nuclear contribution   :      0.59441       1.80336       0.00470
                        -----------------------------------------
Total Dipole Moment    :      0.05522       0.16874       0.00047
                        -----------------------------------------
Magnitude (a.u.)       :      0.17755
Magnitude (Debye)      :      0.45129

                             ****ORCA TERMINATED NORMALLY****
TOTAL RUN TIME: 0 days 0 hours 0 minutes 4 seconds 180 msec
