                         Program Version 3.0.3 - RELEASE   -
|  1> ! RI PBE def2-SVP def2-SVP/J NBO PAL2
|  2> % maxcore 2000
|  3> % output
|  4>     # printlevel mini
|  5>     print[ P_Basis ] 0
|  6>     print[ P_SCFInfo ] 1
|  7>     print[ P_SCFIterInfo ] 1
|  8>     print[ P_OrbEn ] 0
|  9>     print[ P_Cartesian ] 0
| 10> end
| 11> *xyz 0 1
| 12>  C       -0.7948880000    -1.0034830000    -0.2174990000
| 13>  C       -1.1947680000     0.3906360000     0.2488990000
| 14>  C        0.0131680000     1.2092120000    -0.1788440000
| 15>  O        1.1340890000     0.3409050000    -0.0937890000
| 16>  C        0.6980440000    -1.0008620000     0.0711450000
| 17>  H       -0.9759880000    -1.1109970000    -1.2907670000
| 18>  H       -1.3241420000    -1.8058070000     0.2987760000
| 19>  H       -1.3031620000     0.4101360000     1.3370770000
| 20>  H       -2.1261890000     0.7488230000    -0.1921570000
| 21>  H        0.1918090000     2.0788810000     0.4594620000
| 22>  H       -0.0969760000     1.5622000000    -1.2131600000
| 23>  H        0.9003590000    -1.3260380000     1.1006410000
| 24>  H        1.2685440000    -1.6426060000    -0.6058840000
| 25> *
| 26>
| 27>                          ****END OF INPUT****
 Total Charge           Charge          ....    0
 Multiplicity           Mult            ....    1
 Number of Electrons    NEL             ....   40
 Basis Dimension        Dim             ....  110

MULLIKEN ATOMIC CHARGES
-----------------------
   0 C :   -0.073499
   1 C :   -0.078422
   2 C :    0.209771
   3 O :   -0.375292
   4 C :    0.210432
   5 H :    0.023326
   6 H :    0.020604
   7 H :    0.027625
   8 H :    0.018430
   9 H :    0.009431
  10 H :   -0.000030
  11 H :   -0.002663
  12 H :    0.010288
Sum of atomic charges:   -0.0000000

LOEWDIN ATOMIC CHARGES
----------------------
   0 C :   -0.056755
   1 C :   -0.057260
   2 C :    0.065957
   3 O :   -0.172332
   4 C :    0.065794
   5 H :    0.027383
   6 H :    0.029155
   7 H :    0.028245
   8 H :    0.028482
   9 H :    0.014986
  10 H :    0.005712
  11 H :    0.005192
  12 H :    0.015440

  Mayer bond orders larger than 0.1
B(  0-C ,  1-C ) :   1.1001 B(  0-C ,  4-C ) :   1.0915 B(  0-C ,  5-H ) :   0.9369
B(  0-C ,  6-H ) :   0.9355 B(  1-C ,  2-C ) :   1.0914 B(  1-C ,  7-H ) :   0.9368
B(  1-C ,  8-H ) :   0.9366 B(  2-C ,  3-O ) :   1.0128 B(  2-C ,  9-H ) :   0.9412
B(  2-C , 10-H ) :   0.9402 B(  3-O ,  4-C ) :   1.0116 B(  4-C , 11-H ) :   0.9400
B(  4-C , 12-H ) :   0.9409

FINAL SINGLE POINT ENERGY      -231.976821978833

DIPOLE MOMENT
-------------
                                X             Y             Z
Electronic contribution:      2.53292       0.77129      -0.13052
Nuclear contribution   :     -3.16123      -0.96129       0.16237
                        -----------------------------------------
Total Dipole Moment    :     -0.62831      -0.18999       0.03185
                        -----------------------------------------
Magnitude (a.u.)       :      0.65718
Magnitude (Debye)      :      1.67042

                             ****ORCA TERMINATED NORMALLY****
TOTAL RUN TIME: 0 days 0 hours 0 minutes 5 seconds 276 msec
