                         Program Version 3.0.3 - RELEASE   -
|  1> ! RI PBE def2-SVP def2-SVP/J NBO PAL2
|  2> % maxcore 2000
|  3> % output
|  4>     # printlevel mini
|  5>     print[ P_Basis ] 0
|  6>     print[ P_SCFInfo ] 1
|  7>     print[ P_SCFIterInfo ] 1
|  8>     print[ P_OrbEn ] 0
|  9>     print[ P_Cartesian ] 0
| 10> end
| 11> *xyz 0 1
| 12>  C       -0.3667580000     1.1614830000     0.1438360000
| 13>  O       -1.1719490000    -0.0026350000     0.2203180000
| 14>  C       -0.3674570000    -1.1657880000     0.1242970000
| 15>  C        1.0302870000    -0.6630110000    -0.0214130000
| 16>  C        1.0306840000     0.6603840000    -0.0103020000
| 17>  H       -0.4962670000     1.7654680000     1.0533650000
| 18>  H       -0.6851290000     1.7804040000    -0.7072710000
| 19>  H       -0.6861950000    -1.7701400000    -0.7370810000
| 20>  H       -0.4973330000    -1.7848820000     1.0235570000
| 21>  H        1.8919710000    -1.3102550000    -0.1192970000
| 22>  H        1.8927570000     1.3086630000    -0.0973090000
| 23> *
| 24>
| 25>                          ****END OF INPUT****
 Total Charge           Charge          ....    0
 Multiplicity           Mult            ....    1
 Number of Electrons    NEL             ....   38
 Basis Dimension        Dim             ....  100

MULLIKEN ATOMIC CHARGES
-----------------------
   0 C :    0.250977
   1 O :   -0.374629
   2 C :    0.250966
   3 C :   -0.111003
   4 C :   -0.111089
   5 H :    0.020943
   6 H :    0.020866
   7 H :    0.020615
   8 H :    0.021248
   9 H :    0.005541
  10 H :    0.005565
Sum of atomic charges:   -0.0000000

LOEWDIN ATOMIC CHARGES
----------------------
   0 C :    0.070356
   1 O :   -0.165747
   2 C :    0.070356
   3 C :   -0.050302
   4 C :   -0.050337
   5 H :    0.017152
   6 H :    0.017043
   7 H :    0.017002
   8 H :    0.017206
   9 H :    0.028633
  10 H :    0.028637

  Mayer bond orders larger than 0.1
B(  0-C ,  1-O ) :   1.0147 B(  0-C ,  4-C ) :   1.0351 B(  0-C ,  5-H ) :   0.9214
B(  0-C ,  6-H ) :   0.9215 B(  1-O ,  2-C ) :   1.0146 B(  2-C ,  3-C ) :   1.0351
B(  2-C ,  7-H ) :   0.9214 B(  2-C ,  8-H ) :   0.9216 B(  3-C ,  4-C ) :   1.8784
B(  3-C ,  9-H ) :   0.9832 B(  4-C , 10-H ) :   0.9833

FINAL SINGLE POINT ENERGY      -230.755864546558

DIPOLE MOMENT
-------------
                                X             Y             Z
Electronic contribution:     -0.82968      -0.00056       0.08724
Nuclear contribution   :      1.42607       0.00085      -0.15274
                        -----------------------------------------
Total Dipole Moment    :      0.59639       0.00030      -0.06550
                        -----------------------------------------
Magnitude (a.u.)       :      0.59998
Magnitude (Debye)      :      1.52502

                             ****ORCA TERMINATED NORMALLY****
TOTAL RUN TIME: 0 days 0 hours 0 minutes 4 seconds 354 msec
