                         Program Version 3.0.3 - RELEASE   -
|  1> ! RI PBE def2-SVP def2-SVP/J NBO PAL2
|  2> % maxcore 2000
|  3> % output
|  4>     # printlevel mini
|  5>     print[ P_Basis ] 0
|  6>     print[ P_SCFInfo ] 1
|  7>     print[ P_SCFIterInfo ] 1
|  8>     print[ P_OrbEn ] 0
|  9>     print[ P_Cartesian ] 0
| 10> end
| 11> *xyz 0 1
| 12>  C        1.0064730000     0.1577470000    -0.0652910000
| 13>  C        2.4986800000    -0.0097010000    -0.0588340000
| 14>  C        3.1876200000    -0.7991460000    -1.1419800000
| 15>  C        3.3528480000     0.6772630000    -1.0783350000
| 16>  O        4.6208830000     1.1385340000    -0.7315540000
| 17>  H        0.5059220000    -0.7145010000     0.3642250000
| 18>  H        0.6321580000     0.2794050000    -1.0853300000
| 19>  H        0.6979910000     1.0364120000     0.5084430000
| 20>  H        2.9601350000    -0.0959760000     0.9204480000
| 21>  H        2.5841380000    -1.2169450000    -1.9392800000
| 22>  H        4.0515910000    -1.3872980000    -0.8595780000
| 23>  H        2.8401620000     1.2709700000    -1.8342880000
| 24>  H        4.5164900000     1.9380150000    -0.2086350000
| 25> *
| 26>
| 27>                          ****END OF INPUT****
 Total Charge           Charge          ....    0
 Multiplicity           Mult            ....    1
 Number of Electrons    NEL             ....   40
 Basis Dimension        Dim             ....  110

MULLIKEN ATOMIC CHARGES
-----------------------
   0 C :    0.077173
   1 C :   -0.181404
   2 C :   -0.003269
   3 C :    0.045313
   4 O :   -0.238304
   5 H :    0.025210
   6 H :    0.004718
   7 H :    0.020073
   8 H :    0.019743
   9 H :    0.027441
  10 H :    0.038729
  11 H :    0.006911
  12 H :    0.157666
Sum of atomic charges:    0.0000000

LOEWDIN ATOMIC CHARGES
----------------------
   0 C :   -0.056806
   1 C :   -0.068167
   2 C :   -0.051261
   3 C :    0.029025
   4 O :   -0.100137
   5 H :    0.029601
   6 H :    0.025877
   7 H :    0.027657
   8 H :    0.026171
   9 H :    0.025760
  10 H :    0.033186
  11 H :    0.005528
  12 H :    0.073567

  Mayer bond orders larger than 0.1
B(  0-C ,  1-C ) :   1.0873 B(  0-C ,  5-H ) :   0.9563 B(  0-C ,  6-H ) :   0.9506
B(  0-C ,  7-H ) :   0.9613 B(  1-C ,  2-C ) :   0.9945 B(  1-C ,  3-C ) :   0.9363
B(  1-C ,  8-H ) :   0.9380 B(  2-C ,  3-C ) :   0.9906 B(  2-C ,  9-H ) :   0.9435
B(  2-C , 10-H ) :   0.9370 B(  3-C ,  4-O ) :   1.1354 B(  3-C , 11-H ) :   0.9465
B(  4-O , 12-H ) :   0.9840

FINAL SINGLE POINT ENERGY      -231.955660410646

DIPOLE MOMENT
-------------
                                X             Y             Z
Electronic contribution:      4.13655       1.31985      -0.45538
Nuclear contribution   :     -4.57379      -0.99091       0.70278
                        -----------------------------------------
Total Dipole Moment    :     -0.43724       0.32895       0.24739
                        -----------------------------------------
Magnitude (a.u.)       :      0.60049
Magnitude (Debye)      :      1.52632

                             ****ORCA TERMINATED NORMALLY****
TOTAL RUN TIME: 0 days 0 hours 0 minutes 5 seconds 155 msec
