                         Program Version 3.0.3 - RELEASE   -
|  1> ! RI PBE def2-SVP def2-SVP/J NBO PAL2
|  2> % maxcore 2000
|  3> % output
|  4>     # printlevel mini
|  5>     print[ P_Basis ] 0
|  6>     print[ P_SCFInfo ] 1
|  7>     print[ P_SCFIterInfo ] 1
|  8>     print[ P_OrbEn ] 0
|  9>     print[ P_Cartesian ] 0
| 10> end
| 11> *xyz 0 1
| 12>  C        1.1095480000    -0.1153510000     0.1086110000
| 13>  C        2.6004170000     0.0346090000    -0.0022230000
| 14>  C        3.3049340000     1.1086090000     0.8372180000
| 15>  C        4.1696760000    -0.0533430000     1.3258910000
| 16>  O        3.3205840000    -1.0113660000     0.6806910000
| 17>  H        0.6065640000     0.7187100000    -0.3889540000
| 18>  H        0.8011150000    -0.1368840000     1.1564130000
| 19>  H        0.7815820000    -1.0430700000    -0.3663360000
| 20>  H        2.9005380000     0.0648000000    -1.0588950000
| 21>  H        2.6640260000     1.5367220000     1.6090720000
| 22>  H        3.8079230000     1.9081790000     0.2950870000
| 23>  H        4.2241090000    -0.2162430000     2.4057970000
| 24>  H        5.1841840000    -0.0693530000     0.9104380000
| 25> *
| 26>
| 27>                          ****END OF INPUT****
 Total Charge           Charge          ....    0
 Multiplicity           Mult            ....    1
 Number of Electrons    NEL             ....   40
 Basis Dimension        Dim             ....  110

MULLIKEN ATOMIC CHARGES
-----------------------
   0 C :    0.055832
   1 C :    0.029026
   2 C :   -0.038229
   3 C :    0.180584
   4 O :   -0.354963
   5 H :    0.021812
   6 H :    0.009505
   7 H :    0.031571
   8 H :    0.002538
   9 H :    0.012797
  10 H :    0.022580
  11 H :    0.019054
  12 H :    0.007892
Sum of atomic charges:    0.0000000

LOEWDIN ATOMIC CHARGES
----------------------
   0 C :   -0.072230
   1 C :    0.063541
   2 C :   -0.054873
   3 C :    0.081746
   4 O :   -0.186471
   5 H :    0.032868
   6 H :    0.025133
   7 H :    0.034717
   8 H :    0.008855
   9 H :    0.026081
  10 H :    0.023245
  11 H :    0.010396
  12 H :    0.006991

  Mayer bond orders larger than 0.1
B(  0-C ,  1-C ) :   1.0965 B(  0-C ,  5-H ) :   0.9496 B(  0-C ,  6-H ) :   0.9468
B(  0-C ,  7-H ) :   0.9533 B(  1-C ,  2-C ) :   1.0864 B(  1-C ,  4-O ) :   1.0364
B(  1-C ,  8-H ) :   0.9133 B(  2-C ,  3-C ) :   1.1175 B(  2-C ,  9-H ) :   0.9239
B(  2-C , 10-H ) :   0.9422 B(  3-C ,  4-O ) :   1.0308 B(  3-C , 11-H ) :   0.9441
B(  3-C , 12-H ) :   0.9345

FINAL SINGLE POINT ENERGY      -231.954958039497

DIPOLE MOMENT
-------------
                                X             Y             Z
Electronic contribution:      1.97732      -2.10000       0.15676
Nuclear contribution   :     -2.03284       2.75344      -0.16772
                        -----------------------------------------
Total Dipole Moment    :     -0.05552       0.65343      -0.01096
                        -----------------------------------------
Magnitude (a.u.)       :      0.65588
Magnitude (Debye)      :      1.66712

                             ****ORCA TERMINATED NORMALLY****
TOTAL RUN TIME: 0 days 0 hours 0 minutes 5 seconds 18 msec
