                         Program Version 3.0.3 - RELEASE   -
|  1> ! RI PBE def2-SVP def2-SVP/J NBO PAL2
|  2> % maxcore 2000
|  3> % output
|  4>     # printlevel mini
|  5>     print[ P_Basis ] 0
|  6>     print[ P_SCFInfo ] 1
|  7>     print[ P_SCFIterInfo ] 1
|  8>     print[ P_OrbEn ] 0
|  9>     print[ P_Cartesian ] 0
| 10> end
| 11> *xyz 0 1
| 12>  C        1.0200150000     0.5934820000    -0.1899920000
| 13>  C        2.2185460000    -0.2981580000    -0.0313470000
| 14>  C        2.5678580000    -0.6868020000     1.3770590000
| 15>  C        3.2524770000    -0.3125990000    -1.0644040000
| 16>  O        2.2999860000    -1.3609680000    -0.9801040000
| 17>  H        0.1338390000     0.1187210000     0.2400970000
| 18>  H        0.8240850000     0.7935850000    -1.2440610000
| 19>  H        1.1744740000     1.5454940000     0.3247160000
| 20>  H        1.7245470000    -1.1970300000     1.8505300000
| 21>  H        2.8049020000     0.1968870000     1.9754020000
| 22>  H        3.4265890000    -1.3590260000     1.3907290000
| 23>  H        4.2718960000    -0.5884570000    -0.8021790000
| 24>  H        3.1548780000     0.3354700000    -1.9330560000
| 25> *
| 26>
| 27>                          ****END OF INPUT****
 Total Charge           Charge          ....    0
 Multiplicity           Mult            ....    1
 Number of Electrons    NEL             ....   40
 Basis Dimension        Dim             ....  110

MULLIKEN ATOMIC CHARGES
-----------------------
   0 C :    0.104471
   1 C :   -0.222118
   2 C :    0.093559
   3 C :    0.161829
   4 O :   -0.296454
   5 H :    0.021273
   6 H :    0.012169
   7 H :    0.022335
   8 H :    0.025734
   9 H :    0.023501
  10 H :    0.014708
  11 H :    0.019125
  12 H :    0.019868
Sum of atomic charges:    0.0000000

LOEWDIN ATOMIC CHARGES
----------------------
   0 C :   -0.057936
   1 C :    0.004173
   2 C :   -0.059993
   3 C :    0.053288
   4 O :   -0.160233
   5 H :    0.032300
   6 H :    0.032492
   7 H :    0.033055
   8 H :    0.032857
   9 H :    0.033232
  10 H :    0.032921
  11 H :    0.011770
  12 H :    0.012074

  Mayer bond orders larger than 0.1
B(  0-C ,  1-C ) :   1.0799 B(  0-C ,  5-H ) :   0.9494 B(  0-C ,  6-H ) :   0.9390
B(  0-C ,  7-H ) :   0.9508 B(  1-C ,  2-C ) :   1.0793 B(  1-C ,  3-C ) :   1.0886
B(  1-C ,  4-O ) :   0.9551 B(  2-C ,  8-H ) :   0.9500 B(  2-C ,  9-H ) :   0.9509
B(  2-C , 10-H ) :   0.9382 B(  3-C ,  4-O ) :   0.9981 B(  3-C , 11-H ) :   0.9291
B(  3-C , 12-H ) :   0.9276

FINAL SINGLE POINT ENERGY      -231.958209900611

DIPOLE MOMENT
-------------
                                X             Y             Z
Electronic contribution:      0.71448      -2.39823      -2.67269
Nuclear contribution   :     -0.56030       3.00412       3.00780
                        -----------------------------------------
Total Dipole Moment    :      0.15418       0.60589       0.33510
                        -----------------------------------------
Magnitude (a.u.)       :      0.70934
Magnitude (Debye)      :      1.80301

                             ****ORCA TERMINATED NORMALLY****
TOTAL RUN TIME: 0 days 0 hours 0 minutes 4 seconds 995 msec
