                         Program Version 3.0.3 - RELEASE   -
|  1> ! RI PBE def2-SVP def2-SVP/J NBO PAL2
|  2> % maxcore 2000
|  3> % output
|  4>     # printlevel mini
|  5>     print[ P_Basis ] 0
|  6>     print[ P_SCFInfo ] 1
|  7>     print[ P_SCFIterInfo ] 1
|  8>     print[ P_OrbEn ] 0
|  9>     print[ P_Cartesian ] 0
| 10> end
| 11> *xyz 0 1
| 12>  C        0.9434560000    -0.0788850000    -0.0152340000
| 13>  C        2.4521920000    -0.0851300000    -0.0341900000
| 14>  C        3.1959460000     0.9599280000     0.8093010000
| 15>  O        3.9598750000    -0.0522350000     1.4776850000
| 16>  C        3.1881140000    -1.0913690000     0.8617420000
| 17>  H        0.5436730000     0.7912310000    -0.5430400000
| 18>  H        0.5647440000    -0.0512190000     1.0103850000
| 19>  H        0.5369420000    -0.9717570000    -0.4979690000
| 20>  H        2.8232130000    -0.1127980000    -1.0610280000
| 21>  H        2.5532840000     1.5107950000     1.5079390000
| 22>  H        3.8349190000     1.6692860000     0.2750010000
| 23>  H        2.5414030000    -1.6008990000     1.5874900000
| 24>  H        3.8215510000    -1.8319570000     0.3645090000
| 25> *
| 26>
| 27>                          ****END OF INPUT****
 Total Charge           Charge          ....    0
 Multiplicity           Mult            ....    1
 Number of Electrons    NEL             ....   40
 Basis Dimension        Dim             ....  110

MULLIKEN ATOMIC CHARGES
-----------------------
   0 C :    0.051885
   1 C :   -0.298170
   2 C :    0.253582
   3 O :   -0.368041
   4 C :    0.254089
   5 H :    0.027052
   6 H :    0.016654
   7 H :    0.026600
   8 H :    0.021945
   9 H :   -0.002762
  10 H :    0.010124
  11 H :   -0.002678
  12 H :    0.009721
Sum of atomic charges:   -0.0000000

LOEWDIN ATOMIC CHARGES
----------------------
   0 C :   -0.062579
   1 C :   -0.065264
   2 C :    0.086407
   3 O :   -0.187766
   4 C :    0.086601
   5 H :    0.030180
   6 H :    0.024860
   7 H :    0.030104
   8 H :    0.027942
   9 H :    0.005473
  10 H :    0.009336
  11 H :    0.005487
  12 H :    0.009219

  Mayer bond orders larger than 0.1
B(  0-C ,  1-C ) :   1.0762 B(  0-C ,  5-H ) :   0.9592 B(  0-C ,  6-H ) :   0.9538
B(  0-C ,  7-H ) :   0.9591 B(  1-C ,  2-C ) :   1.0864 B(  1-C ,  4-C ) :   1.0854
B(  1-C ,  8-H ) :   0.9147 B(  2-C ,  3-O ) :   1.0402 B(  2-C ,  9-H ) :   0.9277
B(  2-C , 10-H ) :   0.9359 B(  3-O ,  4-C ) :   1.0399 B(  4-C , 11-H ) :   0.9280
B(  4-C , 12-H ) :   0.9362

FINAL SINGLE POINT ENERGY      -231.949810418117

DIPOLE MOMENT
-------------
                                X             Y             Z
Electronic contribution:      3.90317       0.02970       1.75916
Nuclear contribution   :     -4.45447      -0.04111      -2.27311
                        -----------------------------------------
Total Dipole Moment    :     -0.55130      -0.01141      -0.51395
                        -----------------------------------------
Magnitude (a.u.)       :      0.75380
Magnitude (Debye)      :      1.91600

                             ****ORCA TERMINATED NORMALLY****
TOTAL RUN TIME: 0 days 0 hours 0 minutes 4 seconds 722 msec
