                         Program Version 3.0.3 - RELEASE   -
|  1> ! RI PBE def2-SVP def2-SVP/J NBO PAL2
|  2> % maxcore 2000
|  3> % output
|  4>     # printlevel mini
|  5>     print[ P_Basis ] 0
|  6>     print[ P_SCFInfo ] 1
|  7>     print[ P_SCFIterInfo ] 1
|  8>     print[ P_OrbEn ] 0
|  9>     print[ P_Cartesian ] 0
| 10> end
| 11> *xyz 0 1
| 12>  C        1.0149040000    -0.0677580000    -0.0098100000
| 13>  C        2.5003900000     0.0792560000     0.0830010000
| 14>  O        3.2773070000    -0.6928920000    -0.8258620000
| 15>  C        3.3006410000     0.7244300000    -0.9543180000
| 16>  C        4.6030870000     1.4032530000    -0.6719510000
| 17>  H        0.6930940000    -1.0135480000     0.4334610000
| 18>  H        0.6905680000    -0.0517620000    -1.0519440000
| 19>  H        0.5134830000     0.7427280000     0.5259130000
| 20>  H        2.9085800000     0.0935450000     1.0945510000
| 21>  H        2.7629300000     1.0864520000    -1.8317360000
| 22>  H        5.0621810000     0.9957270000     0.2306280000
| 23>  H        4.4556490000     2.4779680000    -0.5357190000
| 24>  H        5.2990780000     1.2618900000    -1.5027230000
| 25> *
| 26>
| 27>                          ****END OF INPUT****
 Total Charge           Charge          ....    0
 Multiplicity           Mult            ....    1
 Number of Electrons    NEL             ....   40
 Basis Dimension        Dim             ....  110

MULLIKEN ATOMIC CHARGES
-----------------------
   0 C :    0.076737
   1 C :   -0.012536
   2 O :   -0.289586
   3 C :   -0.006432
   4 C :    0.061466
   5 H :    0.029757
   6 H :    0.013146
   7 H :    0.027438
   8 H :    0.009859
   9 H :    0.008649
  10 H :    0.014206
  11 H :    0.031027
  12 H :    0.036268
Sum of atomic charges:   -0.0000000

LOEWDIN ATOMIC CHARGES
----------------------
   0 C :   -0.067961
   1 C :    0.034986
   2 O :   -0.162310
   3 C :    0.036034
   4 C :   -0.071443
   5 H :    0.034845
   6 H :    0.032376
   7 H :    0.034873
   8 H :    0.012103
   9 H :    0.012109
  10 H :    0.032894
  11 H :    0.035613
  12 H :    0.035881

  Mayer bond orders larger than 0.1
B(  0-C ,  1-C ) :   1.0815 B(  0-C ,  5-H ) :   0.9501 B(  0-C ,  6-H ) :   0.9457
B(  0-C ,  7-H ) :   0.9528 B(  1-C ,  2-O ) :   0.9841 B(  1-C ,  3-C ) :   1.0550
B(  1-C ,  8-H ) :   0.9286 B(  2-O ,  3-C ) :   0.9846 B(  3-C ,  4-C ) :   1.0856
B(  3-C ,  9-H ) :   0.9271 B(  4-C , 10-H ) :   0.9436 B(  4-C , 11-H ) :   0.9521
B(  4-C , 12-H ) :   0.9502

FINAL SINGLE POINT ENERGY      -231.959902142949

DIPOLE MOMENT
-------------
                                X             Y             Z
Electronic contribution:      0.85465      -2.50117      -0.88971
Nuclear contribution   :     -1.07575       3.12549       1.11404
                        -----------------------------------------
Total Dipole Moment    :     -0.22110       0.62432       0.22433
                        -----------------------------------------
Magnitude (a.u.)       :      0.69927
Magnitude (Debye)      :      1.77741

                             ****ORCA TERMINATED NORMALLY****
TOTAL RUN TIME: 0 days 0 hours 0 minutes 4 seconds 776 msec
