                         Program Version 3.0.3 - RELEASE   -
|  1> ! RI PBE def2-SVP def2-SVP/J NBO PAL2
|  2> % maxcore 2000
|  3> % output
|  4>     # printlevel mini
|  5>     print[ P_Basis ] 0
|  6>     print[ P_SCFInfo ] 1
|  7>     print[ P_SCFIterInfo ] 1
|  8>     print[ P_OrbEn ] 0
|  9>     print[ P_Cartesian ] 0
| 10> end
| 11> *xyz 0 1
| 12>  C        0.7999140000    -0.0248480000    -0.1014950000
| 13>  C        2.2986170000    -0.0375080000    -0.0130950000
| 14>  O        2.8005580000     0.1112150000     1.2856060000
| 15>  C        3.1013690000    -0.8715900000    -0.9646000000
| 16>  C        3.1176380000     0.6351230000    -1.0547540000
| 17>  H        0.3691900000    -0.8676510000     0.4491480000
| 18>  H        0.4661330000    -0.1000200000    -1.1383280000
| 19>  H        0.4026790000     0.8994230000     0.3251010000
| 20>  H        2.5843740000    -0.6850940000     1.7798910000
| 21>  H        2.5795130000    -1.4302250000    -1.7325970000
| 22>  H        3.9908510000    -1.3483060000    -0.5718250000
| 23>  H        2.6081790000     1.1102310000    -1.8840870000
| 24>  H        4.0124760000     1.1386590000    -0.7123740000
| 25> *
| 26>
| 27>                          ****END OF INPUT****
 Total Charge           Charge          ....    0
 Multiplicity           Mult            ....    1
 Number of Electrons    NEL             ....   40
 Basis Dimension        Dim             ....  110

MULLIKEN ATOMIC CHARGES
-----------------------
   0 C :    0.099186
   1 C :   -0.115344
   2 O :   -0.240090
   3 C :   -0.037158
   4 C :   -0.021604
   5 H :    0.008340
   6 H :    0.000032
   7 H :    0.026732
   8 H :    0.154724
   9 H :    0.026908
  10 H :    0.028207
  11 H :    0.030557
  12 H :    0.039508
Sum of atomic charges:    0.0000000

LOEWDIN ATOMIC CHARGES
----------------------
   0 C :   -0.061142
   1 C :    0.002832
   2 O :   -0.095326
   3 C :   -0.063278
   4 C :   -0.046570
   5 H :    0.023654
   6 H :    0.029162
   7 H :    0.030903
   8 H :    0.070589
   9 H :    0.023387
  10 H :    0.027357
  11 H :    0.025660
  12 H :    0.032773

  Mayer bond orders larger than 0.1
B(  0-C ,  1-C ) :   1.0806 B(  0-C ,  5-H ) :   0.9508 B(  0-C ,  6-H ) :   0.9350
B(  0-C ,  7-H ) :   0.9543 B(  1-C ,  2-O ) :   1.0966 B(  1-C ,  3-C ) :   0.9713
B(  1-C ,  4-C ) :   0.9759 B(  2-O ,  8-H ) :   0.9817 B(  3-C ,  4-C ) :   1.0168
B(  3-C ,  9-H ) :   0.9425 B(  3-C , 10-H ) :   0.9394 B(  4-C , 11-H ) :   0.9493
B(  4-C , 12-H ) :   0.9396

FINAL SINGLE POINT ENERGY      -231.958823007563

DIPOLE MOMENT
-------------
                                X             Y             Z
Electronic contribution:      1.83159       0.42202       2.28230
Nuclear contribution   :     -2.13016      -0.87839      -2.35626
                        -----------------------------------------
Total Dipole Moment    :     -0.29857      -0.45637      -0.07396
                        -----------------------------------------
Magnitude (a.u.)       :      0.55035
Magnitude (Debye)      :      1.39888

                             ****ORCA TERMINATED NORMALLY****
TOTAL RUN TIME: 0 days 0 hours 0 minutes 4 seconds 871 msec
