                         Program Version 3.0.3 - RELEASE   -
|  1> ! RI PBE def2-SVP def2-SVP/J NBO PAL2
|  2> % maxcore 2000
|  3> % output
|  4>     # printlevel mini
|  5>     print[ P_Basis ] 0
|  6>     print[ P_SCFInfo ] 1
|  7>     print[ P_SCFIterInfo ] 1
|  8>     print[ P_OrbEn ] 0
|  9>     print[ P_Cartesian ] 0
| 10> end
| 11> *xyz 0 1
| 12>  C        0.9245900000    -0.0089610000    -0.1612210000
| 13>  C        2.4097130000    -0.2294550000     0.0813070000
| 14>  C        3.1074250000     1.0248710000     0.5131230000
| 15>  C        4.4749740000     1.3393000000     0.1165070000
| 16>  O        3.3735910000     1.9862410000    -0.5001410000
| 17>  H        0.4353370000    -0.9299330000    -0.4848790000
| 18>  H        0.7689610000     0.7467400000    -0.9341520000
| 19>  H        0.4217020000     0.3330590000     0.7475490000
| 20>  H        2.8905210000    -0.5990630000    -0.8296460000
| 21>  H        2.5581220000    -0.9931880000     0.8532580000
| 22>  H        2.7418060000     1.4677030000     1.4409530000
| 23>  H        5.0164650000     0.6407020000    -0.5179670000
| 24>  H        5.0931920000     1.9725930000     0.7484100000
| 25> *
| 26>
| 27>                          ****END OF INPUT****
 Total Charge           Charge          ....    0
 Multiplicity           Mult            ....    1
 Number of Electrons    NEL             ....   40
 Basis Dimension        Dim             ....  110

MULLIKEN ATOMIC CHARGES
-----------------------
   0 C :   -0.037619
   1 C :    0.051040
   2 C :   -0.025309
   3 C :    0.139761
   4 O :   -0.295812
   5 H :    0.023448
   6 H :    0.038830
   7 H :    0.021067
   8 H :   -0.001090
   9 H :    0.022688
  10 H :    0.012800
  11 H :    0.022532
  12 H :    0.027665
Sum of atomic charges:   -0.0000000

LOEWDIN ATOMIC CHARGES
----------------------
   0 C :   -0.064690
   1 C :   -0.053716
   2 C :    0.039514
   3 C :    0.052762
   4 O :   -0.162010
   5 H :    0.027653
   6 H :    0.031455
   7 H :    0.025632
   8 H :    0.029881
   9 H :    0.032156
  10 H :    0.013441
  11 H :    0.013072
  12 H :    0.014851

  Mayer bond orders larger than 0.1
B(  0-C ,  1-C ) :   1.1108 B(  0-C ,  5-H ) :   0.9623 B(  0-C ,  6-H ) :   0.9689
B(  0-C ,  7-H ) :   0.9660 B(  1-C ,  2-C ) :   1.0581 B(  1-C ,  8-H ) :   0.9123
B(  1-C ,  9-H ) :   0.9283 B(  2-C ,  3-C ) :   1.0982 B(  2-C ,  4-O ) :   0.9654
B(  2-C , 10-H ) :   0.9334 B(  3-C ,  4-O ) :   1.0063 B(  3-C , 11-H ) :   0.9288
B(  3-C , 12-H ) :   0.9354

FINAL SINGLE POINT ENERGY      -231.951520723983

DIPOLE MOMENT
-------------
                                X             Y             Z
Electronic contribution:      2.79735       3.24017      -0.57342
Nuclear contribution   :     -2.65460      -3.74955       0.99117
                        -----------------------------------------
Total Dipole Moment    :      0.14275      -0.50938       0.41775
                        -----------------------------------------
Magnitude (a.u.)       :      0.67406
Magnitude (Debye)      :      1.71332

                             ****ORCA TERMINATED NORMALLY****
TOTAL RUN TIME: 0 days 0 hours 0 minutes 4 seconds 947 msec
