                         Program Version 3.0.3 - RELEASE   -
|  1> ! RI PBE def2-SVP def2-SVP/J NBO PAL2
|  2> % maxcore 2000
|  3> % output
|  4>     # printlevel mini
|  5>     print[ P_Basis ] 0
|  6>     print[ P_SCFInfo ] 1
|  7>     print[ P_SCFIterInfo ] 1
|  8>     print[ P_OrbEn ] 0
|  9>     print[ P_Cartesian ] 0
| 10> end
| 11> *xyz 0 1
| 12>  C        2.5287830000    -1.1700610000    -0.1802950000
| 13>  C        2.1382210000     0.0481550000     0.1634480000
| 14>  C        3.0254360000     1.0786850000     0.7483090000
| 15>  C        4.3897470000     1.2997770000     0.2836330000
| 16>  O        3.3488420000     2.1909610000    -0.0809410000
| 17>  H        1.8332700000    -1.8919220000    -0.5925770000
| 18>  H        3.5577830000    -1.4914720000    -0.0569790000
| 19>  H        1.0975860000     0.3401290000     0.0403570000
| 20>  H        2.7884540000     1.3677620000     1.7730340000
| 21>  H        4.7793900000     0.6890450000    -0.5265230000
| 22>  H        5.1311790000     1.7060510000     0.9673540000
| 23> *
| 24>
| 25>                          ****END OF INPUT****
 Total Charge           Charge          ....    0
 Multiplicity           Mult            ....    1
 Number of Electrons    NEL             ....   38
 Basis Dimension        Dim             ....  100

MULLIKEN ATOMIC CHARGES
-----------------------
   0 C :   -0.033321
   1 C :   -0.021200
   2 C :    0.047601
   3 C :    0.128819
   4 O :   -0.293710
   5 H :    0.034909
   6 H :    0.024165
   7 H :    0.020499
   8 H :    0.031507
   9 H :    0.031137
  10 H :    0.029595
Sum of atomic charges:    0.0000000

LOEWDIN ATOMIC CHARGES
----------------------
   0 C :   -0.040891
   1 C :   -0.037853
   2 C :    0.036262
   3 C :    0.056974
   4 O :   -0.153471
   5 H :    0.028443
   6 H :    0.023466
   7 H :    0.033186
   8 H :    0.021523
   9 H :    0.016063
  10 H :    0.016297

  Mayer bond orders larger than 0.1
B(  0-C ,  1-C ) :   2.0101 B(  0-C ,  5-H ) :   0.9430 B(  0-C ,  6-H ) :   0.9504
B(  1-C ,  2-C ) :   1.0297 B(  1-C ,  7-H ) :   0.9511 B(  2-C ,  3-C ) :   1.1116
B(  2-C ,  4-O ) :   0.9491 B(  2-C ,  8-H ) :   0.9155 B(  3-C ,  4-O ) :   1.0015
B(  3-C ,  9-H ) :   0.9334 B(  3-C , 10-H ) :   0.9319

FINAL SINGLE POINT ENERGY      -230.722751500966

DIPOLE MOMENT
-------------
                                X             Y             Z
Electronic contribution:     -0.34606       2.82026      -0.17549
Nuclear contribution   :      0.49411      -3.38871       0.49655
                        -----------------------------------------
Total Dipole Moment    :      0.14805      -0.56846       0.32106
                        -----------------------------------------
Magnitude (a.u.)       :      0.66943
Magnitude (Debye)      :      1.70156

                             ****ORCA TERMINATED NORMALLY****
TOTAL RUN TIME: 0 days 0 hours 0 minutes 4 seconds 593 msec
