                         Program Version 3.0.3 - RELEASE   -
|  1> ! RI PBE def2-SVP def2-SVP/J NBO PAL2
|  2> % maxcore 2000
|  3> % output
|  4>     # printlevel mini
|  5>     print[ P_Basis ] 0
|  6>     print[ P_SCFInfo ] 1
|  7>     print[ P_SCFIterInfo ] 1
|  8>     print[ P_OrbEn ] 0
|  9>     print[ P_Cartesian ] 0
| 10> end
| 11> *xyz 0 1
| 12>  C        0.8997100000     0.0996370000    -0.0795170000
| 13>  C        2.0980150000     0.0354040000    -0.0912540000
| 14>  C        3.5325340000    -0.0437040000    -0.0672710000
| 15>  C        4.2777380000    -0.7290220000    -1.1280640000
| 16>  O        4.2473710000     0.6806430000    -1.0612380000
| 17>  H       -0.1631640000     0.1585790000    -0.0780210000
| 18>  H        3.9793120000    -0.0000840000     0.9236570000
| 19>  H        3.7239850000    -1.1697940000    -1.9522070000
| 20>  H        5.2311880000    -1.1916590000    -0.8850860000
| 21> *
| 22>
| 23>                          ****END OF INPUT****
 Total Charge           Charge          ....    0
 Multiplicity           Mult            ....    1
 Number of Electrons    NEL             ....   36
 Basis Dimension        Dim             ....   90

MULLIKEN ATOMIC CHARGES
-----------------------
   0 C :   -0.432601
   1 C :    0.432059
   2 C :   -0.032810
   3 C :    0.161438
   4 O :   -0.268233
   5 H :    0.009764
   6 H :    0.051880
   7 H :    0.040594
   8 H :    0.037910
Sum of atomic charges:   -0.0000000

LOEWDIN ATOMIC CHARGES
----------------------
   0 C :   -0.052738
   1 C :   -0.030353
   2 C :    0.029937
   3 C :    0.074796
   4 O :   -0.135482
   5 H :    0.037933
   6 H :    0.034868
   7 H :    0.021753
   8 H :    0.019285

  Mayer bond orders larger than 0.1
B(  0-C ,  1-C ) :   2.3363 B(  0-C ,  5-H ) :   1.0901 B(  1-C ,  2-C ) :   0.9603
B(  2-C ,  3-C ) :   1.0738 B(  2-C ,  4-O ) :   1.0029 B(  2-C ,  6-H ) :   0.9263
B(  3-C ,  4-O ) :   0.9888 B(  3-C ,  7-H ) :   0.9363 B(  3-C ,  8-H ) :   0.9348

FINAL SINGLE POINT ENERGY      -229.478909493045

DIPOLE MOMENT
-------------
                                X             Y             Z
Electronic contribution:     -0.46230       1.50457       0.13169
Nuclear contribution   :      0.38694      -2.11258       0.07464
                        -----------------------------------------
Total Dipole Moment    :     -0.07535      -0.60801       0.20632
                        -----------------------------------------
Magnitude (a.u.)       :      0.64647
Magnitude (Debye)      :      1.64320

                             ****ORCA TERMINATED NORMALLY****
TOTAL RUN TIME: 0 days 0 hours 0 minutes 4 seconds 76 msec
