                         Program Version 3.0.3 - RELEASE   -
|  1> ! RI PBE def2-SVP def2-SVP/J NBO PAL2
|  2> % maxcore 2000
|  3> % output
|  4>     # printlevel mini
|  5>     print[ P_Basis ] 0
|  6>     print[ P_SCFInfo ] 1
|  7>     print[ P_SCFIterInfo ] 1
|  8>     print[ P_OrbEn ] 0
|  9>     print[ P_Cartesian ] 0
| 10> end
| 11> *xyz 0 1
| 12>  C        1.4905500000     0.1702410000     0.4057000000
| 13>  C        2.9668650000     0.0120580000     0.0830770000
| 14>  C        3.2136410000    -0.7223940000    -1.2256000000
| 15>  C        4.6872950000    -0.8879210000    -1.5415570000
| 16>  O        4.9251340000    -1.5173140000    -2.7834350000
| 17>  H        1.3408550000     0.7017730000     1.3481910000
| 18>  H        0.9991570000    -0.8029700000     0.4915350000
| 19>  H        0.9741730000     0.7311350000    -0.3781150000
| 20>  H        3.4655930000    -0.5223960000     0.8999700000
| 21>  H        3.4391870000     0.9999400000     0.0355800000
| 22>  H        2.7348280000    -0.1882210000    -2.0535800000
| 23>  H        2.7419380000    -1.7135100000    -1.1799350000
| 24>  H        5.1854300000    -1.4310860000    -0.7245790000
| 25>  H        5.1667790000     0.0923590000    -1.6118050000
| 26>  H        4.5122840000    -2.3843840000    -2.7640460000
| 27> *
| 28>
| 29>                          ****END OF INPUT****
 Total Charge           Charge          ....    0
 Multiplicity           Mult            ....    1
 Number of Electrons    NEL             ....   42
 Basis Dimension        Dim             ....  120

MULLIKEN ATOMIC CHARGES
-----------------------
   0 C :   -0.002514
   1 C :   -0.073662
   2 C :   -0.063965
   3 C :    0.178970
   4 O :   -0.284063
   5 H :    0.019096
   6 H :    0.015794
   7 H :    0.020189
   8 H :    0.012852
   9 H :    0.015035
  10 H :    0.015446
  11 H :   -0.004221
  12 H :   -0.007288
  13 H :    0.006605
  14 H :    0.151727
Sum of atomic charges:   -0.0000000

LOEWDIN ATOMIC CHARGES
----------------------
   0 C :   -0.065625
   1 C :   -0.046978
   2 C :   -0.066848
   3 C :    0.052624
   4 O :   -0.124072
   5 H :    0.026620
   6 H :    0.024023
   7 H :    0.025371
   8 H :    0.022342
   9 H :    0.024398
  10 H :    0.024382
  11 H :    0.016652
  12 H :    0.001452
  13 H :    0.019739
  14 H :    0.065919

  Mayer bond orders larger than 0.1
B(  0-C ,  1-C ) :   1.1174 B(  0-C ,  5-H ) :   0.9601 B(  0-C ,  6-H ) :   0.9643
B(  0-C ,  7-H ) :   0.9661 B(  1-C ,  2-C ) :   1.0761 B(  1-C ,  8-H ) :   0.9397
B(  1-C ,  9-H ) :   0.9394 B(  2-C ,  3-C ) :   1.0761 B(  2-C , 10-H ) :   0.9322
B(  2-C , 11-H ) :   0.9299 B(  3-C ,  4-O ) :   1.0701 B(  3-C , 12-H ) :   0.9376
B(  3-C , 13-H ) :   0.9345 B(  4-O , 14-H ) :   0.9872

FINAL SINGLE POINT ENERGY      -233.178496087178

DIPOLE MOMENT
-------------
                                X             Y             Z
Electronic contribution:      3.61649      -1.81710      -3.83068
Nuclear contribution   :     -3.96770       1.56847       4.26217
                        -----------------------------------------
Total Dipole Moment    :     -0.35121      -0.24864       0.43150
                        -----------------------------------------
Magnitude (a.u.)       :      0.60939
Magnitude (Debye)      :      1.54895

                             ****ORCA TERMINATED NORMALLY****
TOTAL RUN TIME: 0 days 0 hours 0 minutes 5 seconds 489 msec
