                         Program Version 3.0.3 - RELEASE   -
|  1> ! RI PBE def2-SVP def2-SVP/J NBO PAL2
|  2> % maxcore 2000
|  3> % output
|  4>     # printlevel mini
|  5>     print[ P_Basis ] 0
|  6>     print[ P_SCFInfo ] 1
|  7>     print[ P_SCFIterInfo ] 1
|  8>     print[ P_OrbEn ] 0
|  9>     print[ P_Cartesian ] 0
| 10> end
| 11> *xyz 0 1
| 12>  C        1.7371240000    -0.2258630000     1.1259770000
| 13>  C        2.5860940000    -0.2102920000     0.1096060000
| 14>  C        3.2466070000     1.0184850000    -0.4122390000
| 15>  C        4.7328510000     0.9008730000    -0.6142330000
| 16>  O        5.3734980000    -0.1009970000    -0.4618420000
| 17>  H        1.2780580000    -1.1472440000     1.4641770000
| 18>  H        1.4708420000     0.6809420000     1.6608060000
| 19>  H        2.8436310000    -1.1381960000    -0.3927040000
| 20>  H        3.0577360000     1.8869920000     0.2296810000
| 21>  H        2.8399880000     1.2981170000    -1.3971810000
| 22>  H        5.2246490000     1.8419830000    -0.9459480000
| 23> *
| 24>
| 25>                          ****END OF INPUT****
 Total Charge           Charge          ....    0
 Multiplicity           Mult            ....    1
 Number of Electrons    NEL             ....   38
 Basis Dimension        Dim             ....  100

MULLIKEN ATOMIC CHARGES
-----------------------
   0 C :   -0.031185
   1 C :   -0.071599
   2 C :    0.039114
   3 C :    0.073138
   4 O :   -0.153362
   5 H :    0.030860
   6 H :    0.018546
   7 H :    0.018357
   8 H :    0.031819
   9 H :    0.052634
  10 H :   -0.008322
Sum of atomic charges:   -0.0000000

LOEWDIN ATOMIC CHARGES
----------------------
   0 C :   -0.053674
   1 C :   -0.025201
   2 C :   -0.085491
   3 C :    0.092804
   4 O :   -0.104159
   5 H :    0.027570
   6 H :    0.021464
   7 H :    0.031295
   8 H :    0.048058
   9 H :    0.059285
  10 H :   -0.011952

  Mayer bond orders larger than 0.1
B(  0-C ,  1-C ) :   2.0195 B(  0-C ,  5-H ) :   0.9471 B(  0-C ,  6-H ) :   0.9487
B(  1-C ,  2-C ) :   1.0401 B(  1-C ,  7-H ) :   0.9586 B(  2-C ,  3-C ) :   0.9538
B(  2-C ,  8-H ) :   0.9077 B(  2-C ,  9-H ) :   0.8865 B(  3-C ,  4-O ) :   2.2030
B(  3-C , 10-H ) :   0.9231

FINAL SINGLE POINT ENERGY      -230.758830798205

DIPOLE MOMENT
-------------
                                X             Y             Z
Electronic contribution:      3.80734      -0.96016      -1.05211
Nuclear contribution   :     -4.41667       1.62734       0.91625
                        -----------------------------------------
Total Dipole Moment    :     -0.60933       0.66718      -0.13586
                        -----------------------------------------
Magnitude (a.u.)       :      0.91371
Magnitude (Debye)      :      2.32248

                             ****ORCA TERMINATED NORMALLY****
TOTAL RUN TIME: 0 days 0 hours 0 minutes 4 seconds 258 msec
