                         Program Version 3.0.3 - RELEASE   -
|  1> ! RI PBE def2-SVP def2-SVP/J NBO PAL2
|  2> % maxcore 2000
|  3> % output
|  4>     # printlevel mini
|  5>     print[ P_Basis ] 0
|  6>     print[ P_SCFInfo ] 1
|  7>     print[ P_SCFIterInfo ] 1
|  8>     print[ P_OrbEn ] 0
|  9>     print[ P_Cartesian ] 0
| 10> end
| 11> *xyz 0 1
| 12>  C        0.9981020000     0.0407230000     0.0365570000
| 13>  C        2.4865020000    -0.0041640000     0.0621780000
| 14>  C        3.2825550000     0.2373320000    -0.9736580000
| 15>  C        4.7714990000     0.1801890000    -0.9145990000
| 16>  O        5.3118360000    -0.7666110000    -1.8203040000
| 17>  H        0.6161850000     0.7912940000     0.7359630000
| 18>  H        0.5699990000    -0.9183530000     0.3449340000
| 19>  H        0.6217730000     0.2803040000    -0.9595170000
| 20>  H        2.9470170000    -0.2475570000     1.0198570000
| 21>  H        2.8515310000     0.4756390000    -1.9451590000
| 22>  H        5.0956460000    -0.0228410000     0.1156230000
| 23>  H        5.2055480000     1.1394990000    -1.2116300000
| 24>  H        4.8799280000    -1.6081530000    -1.6498550000
| 25> *
| 26>
| 27>                          ****END OF INPUT****
 Total Charge           Charge          ....    0
 Multiplicity           Mult            ....    1
 Number of Electrons    NEL             ....   40
 Basis Dimension        Dim             ....  110

MULLIKEN ATOMIC CHARGES
-----------------------
   0 C :    0.041279
   1 C :   -0.102977
   2 C :   -0.129609
   3 C :    0.255319
   4 O :   -0.298804
   5 H :    0.037112
   6 H :    0.032340
   7 H :    0.020886
   8 H :   -0.003606
   9 H :   -0.003611
  10 H :   -0.009387
  11 H :    0.012132
  12 H :    0.148925
Sum of atomic charges:    0.0000000

LOEWDIN ATOMIC CHARGES
----------------------
   0 C :   -0.064691
   1 C :   -0.039690
   2 C :   -0.075098
   3 C :    0.055917
   4 O :   -0.125940
   5 H :    0.039043
   6 H :    0.037044
   7 H :    0.031631
   8 H :    0.021325
   9 H :    0.022842
  10 H :    0.005820
  11 H :    0.026674
  12 H :    0.065122

  Mayer bond orders larger than 0.1
B(  0-C ,  1-C ) :   1.0834 B(  0-C ,  5-H ) :   0.9468 B(  0-C ,  6-H ) :   0.9476
B(  0-C ,  7-H ) :   0.9621 B(  1-C ,  2-C ) :   1.8959 B(  1-C ,  8-H ) :   0.9492
B(  2-C ,  3-C ) :   1.0674 B(  2-C ,  9-H ) :   0.9535 B(  3-C ,  4-O ) :   1.0265
B(  3-C , 10-H ) :   0.9352 B(  3-C , 11-H ) :   0.9180 B(  4-O , 12-H ) :   0.9858

FINAL SINGLE POINT ENERGY      -231.959900098508

DIPOLE MOMENT
-------------
                                X             Y             Z
Electronic contribution:      3.67941      -0.76249      -1.85768
Nuclear contribution   :     -4.25534       0.60723       2.29489
                        -----------------------------------------
Total Dipole Moment    :     -0.57593      -0.15526       0.43721
                        -----------------------------------------
Magnitude (a.u.)       :      0.73956
Magnitude (Debye)      :      1.87981

                             ****ORCA TERMINATED NORMALLY****
TOTAL RUN TIME: 0 days 0 hours 0 minutes 4 seconds 676 msec
