                         Program Version 3.0.3 - RELEASE   -
|  1> ! RI PBE def2-SVP def2-SVP/J NBO PAL2
|  2> % maxcore 2000
|  3> % output
|  4>     # printlevel mini
|  5>     print[ P_Basis ] 0
|  6>     print[ P_SCFInfo ] 1
|  7>     print[ P_SCFIterInfo ] 1
|  8>     print[ P_OrbEn ] 0
|  9>     print[ P_Cartesian ] 0
| 10> end
| 11> *xyz 0 1
| 12>  C        1.0193280000     0.0397160000    -0.0589860000
| 13>  C        2.4947770000     0.0430430000    -0.2082680000
| 14>  C        3.2292870000     1.0406760000    -0.7028560000
| 15>  C        4.6823910000     0.9198090000    -0.7974910000
| 16>  O        5.4162130000     1.7726630000    -1.2309130000
| 17>  H        0.7394110000    -0.1130520000     0.9882860000
| 18>  H        0.5783270000    -0.7912190000    -0.6189320000
| 19>  H        0.5723890000     0.9713680000    -0.4073050000
| 20>  H        3.0186630000    -0.8555980000     0.1184230000
| 21>  H        2.7859060000     1.9695090000    -1.0503550000
| 22>  H        5.0888970000    -0.0488050000    -0.4295020000
| 23> *
| 24>
| 25>                          ****END OF INPUT****
 Total Charge           Charge          ....    0
 Multiplicity           Mult            ....    1
 Number of Electrons    NEL             ....   38
 Basis Dimension        Dim             ....  100

MULLIKEN ATOMIC CHARGES
-----------------------
   0 C :    0.045679
   1 C :   -0.094346
   2 C :   -0.013539
   3 C :    0.114773
   4 O :   -0.169944
   5 H :    0.047193
   6 H :    0.047971
   7 H :    0.032336
   8 H :    0.015960
   9 H :    0.004607
  10 H :   -0.030689
Sum of atomic charges:   -0.0000000

LOEWDIN ATOMIC CHARGES
----------------------
   0 C :   -0.060797
   1 C :    0.015606
   2 C :   -0.080488
   3 C :    0.065923
   4 O :   -0.118038
   5 H :    0.047275
   6 H :    0.047639
   7 H :    0.036545
   8 H :    0.028571
   9 H :    0.033009
  10 H :   -0.015246

  Mayer bond orders larger than 0.1
B(  0-C ,  1-C ) :   1.0922 B(  0-C ,  5-H ) :   0.9401 B(  0-C ,  6-H ) :   0.9395
B(  0-C ,  7-H ) :   0.9624 B(  1-C ,  2-C ) :   1.7671 B(  1-C ,  4-O ) :   0.1031
B(  1-C ,  8-H ) :   0.9505 B(  2-C ,  3-C ) :   1.0446 B(  2-C ,  9-H ) :   0.9604
B(  3-C ,  4-O ) :   2.1049 B(  3-C , 10-H ) :   0.9286

FINAL SINGLE POINT ENERGY      -230.772229031055

DIPOLE MOMENT
-------------
                                X             Y             Z
Electronic contribution:      5.80064       2.51394      -1.64214
Nuclear contribution   :     -6.99216      -3.26325       2.07778
                        -----------------------------------------
Total Dipole Moment    :     -1.19152      -0.74931       0.43565
                        -----------------------------------------
Magnitude (a.u.)       :      1.47342
Magnitude (Debye)      :      3.74514

                             ****ORCA TERMINATED NORMALLY****
TOTAL RUN TIME: 0 days 0 hours 0 minutes 4 seconds 647 msec
