                         Program Version 3.0.3 - RELEASE   -
|  1> ! RI PBE def2-SVP def2-SVP/J NBO PAL2
|  2> % maxcore 2000
|  3> % output
|  4>     # printlevel mini
|  5>     print[ P_Basis ] 0
|  6>     print[ P_SCFInfo ] 1
|  7>     print[ P_SCFIterInfo ] 1
|  8>     print[ P_OrbEn ] 0
|  9>     print[ P_Cartesian ] 0
| 10> end
| 11> *xyz 0 1
| 12>  C        0.9373010000    -0.0519790000     0.1266840000
| 13>  C        2.4286210000    -0.0281830000     0.0285500000
| 14>  C        3.0902030000    -0.3216440000    -1.0868550000
| 15>  C        3.1686650000     0.3430780000     1.2819100000
| 16>  O        2.9073030000    -0.5469660000     2.3526620000
| 17>  H        0.4774410000    -0.4038400000    -0.7974300000
| 18>  H        0.5517040000     0.9496700000     0.3454700000
| 19>  H        0.6155840000    -0.6950330000     0.9498080000
| 20>  H        2.5740220000    -0.5900580000    -2.0025300000
| 21>  H        4.1744360000    -0.2929400000    -1.1225800000
| 22>  H        2.8370000000     1.3240180000     1.6368430000
| 23>  H        4.2440160000     0.4095910000     1.0743020000
| 24>  H        3.1860030000    -1.4242930000     2.0756550000
| 25> *
| 26>
| 27>                          ****END OF INPUT****
 Total Charge           Charge          ....    0
 Multiplicity           Mult            ....    1
 Number of Electrons    NEL             ....   40
 Basis Dimension        Dim             ....  110

MULLIKEN ATOMIC CHARGES
-----------------------
   0 C :    0.084958
   1 C :   -0.265398
   2 C :   -0.033269
   3 C :    0.261527
   4 O :   -0.288762
   5 H :    0.014080
   6 H :    0.025392
   7 H :    0.028219
   8 H :    0.010089
   9 H :    0.011587
  10 H :    0.006807
  11 H :   -0.008064
  12 H :    0.152832
Sum of atomic charges:    0.0000000

LOEWDIN ATOMIC CHARGES
----------------------
   0 C :   -0.055816
   1 C :   -0.059248
   2 C :   -0.072601
   3 C :    0.064018
   4 O :   -0.120256
   5 H :    0.029590
   6 H :    0.037957
   7 H :    0.035011
   8 H :    0.020456
   9 H :    0.019432
  10 H :    0.025079
  11 H :    0.007456
  12 H :    0.068921

  Mayer bond orders larger than 0.1
B(  0-C ,  1-C ) :   1.0768 B(  0-C ,  5-H ) :   0.9538 B(  0-C ,  6-H ) :   0.9412
B(  0-C ,  7-H ) :   0.9386 B(  1-C ,  2-C ) :   1.9667 B(  1-C ,  3-C ) :   1.0488
B(  2-C ,  8-H ) :   0.9345 B(  2-C ,  9-H ) :   0.9370 B(  3-C ,  4-O ) :   1.0430
B(  3-C , 10-H ) :   0.9180 B(  3-C , 11-H ) :   0.9274 B(  4-O , 12-H ) :   0.9824

FINAL SINGLE POINT ENERGY      -231.960365995680

DIPOLE MOMENT
-------------
                                X             Y             Z
Electronic contribution:      1.41350      -0.55625       2.16906
Nuclear contribution   :     -1.31970       0.37593      -2.53058
                        -----------------------------------------
Total Dipole Moment    :      0.09380      -0.18032      -0.36152
                        -----------------------------------------
Magnitude (a.u.)       :      0.41474
Magnitude (Debye)      :      1.05418

                             ****ORCA TERMINATED NORMALLY****
TOTAL RUN TIME: 0 days 0 hours 0 minutes 5 seconds 175 msec
