                         Program Version 3.0.3 - RELEASE   -
|  1> ! RI PBE def2-SVP def2-SVP/J NBO PAL2
|  2> % maxcore 2000
|  3> % output
|  4>     # printlevel mini
|  5>     print[ P_Basis ] 0
|  6>     print[ P_SCFInfo ] 1
|  7>     print[ P_SCFIterInfo ] 1
|  8>     print[ P_OrbEn ] 0
|  9>     print[ P_Cartesian ] 0
| 10> end
| 11> *xyz 0 1
| 12>  C        1.0436200000    -0.0809210000     0.0245350000
| 13>  C        2.5308910000    -0.0027590000     0.0686100000
| 14>  C        3.2396790000     1.1142720000     0.2345370000
| 15>  C        3.2841590000    -1.2631060000    -0.0835130000
| 16>  O        2.7732460000    -2.3424490000    -0.2403060000
| 17>  H        0.5889880000     0.9023940000     0.1461600000
| 18>  H        0.6736700000    -0.7457940000     0.8090790000
| 19>  H        0.7127880000    -0.5134720000    -0.9230280000
| 20>  H        2.7708900000     2.0845350000     0.3541860000
| 21>  H        4.3246490000     1.0825010000     0.2547820000
| 22>  H        4.3890190000    -1.1515920000    -0.0439510000
| 23> *
| 24>
| 25>                          ****END OF INPUT****
 Total Charge           Charge          ....    0
 Multiplicity           Mult            ....    1
 Number of Electrons    NEL             ....   38
 Basis Dimension        Dim             ....  100

MULLIKEN ATOMIC CHARGES
-----------------------
   0 C :    0.078559
   1 C :   -0.176789
   2 C :   -0.010410
   3 C :    0.124966
   4 O :   -0.157294
   5 H :    0.015045
   6 H :    0.046334
   7 H :    0.043760
   8 H :    0.029314
   9 H :    0.032745
  10 H :   -0.026230
Sum of atomic charges:   -0.0000000

LOEWDIN ATOMIC CHARGES
----------------------
   0 C :   -0.051802
   1 C :   -0.075113
   2 C :   -0.009987
   3 C :    0.078282
   4 O :   -0.109981
   5 H :    0.031961
   6 H :    0.046515
   7 H :    0.046114
   8 H :    0.028286
   9 H :    0.027398
  10 H :   -0.011673

  Mayer bond orders larger than 0.1
B(  0-C ,  1-C ) :   1.0824 B(  0-C ,  5-H ) :   0.9515 B(  0-C ,  6-H ) :   0.9404
B(  0-C ,  7-H ) :   0.9403 B(  1-C ,  2-C ) :   1.8719 B(  1-C ,  3-C ) :   0.9916
B(  2-C ,  4-O ) :   0.1001 B(  2-C ,  8-H ) :   0.9385 B(  2-C ,  9-H ) :   0.9367
B(  3-C ,  4-O ) :   2.1513 B(  3-C , 10-H ) :   0.9319

FINAL SINGLE POINT ENERGY      -230.771543242571

DIPOLE MOMENT
-------------
                                X             Y             Z
Electronic contribution:      1.81119      -3.64291      -0.44438
Nuclear contribution   :     -1.76288       4.62935       0.58171
                        -----------------------------------------
Total Dipole Moment    :      0.04831       0.98643       0.13733
                        -----------------------------------------
Magnitude (a.u.)       :      0.99712
Magnitude (Debye)      :      2.53447

                             ****ORCA TERMINATED NORMALLY****
TOTAL RUN TIME: 0 days 0 hours 0 minutes 4 seconds 592 msec
