                         Program Version 3.0.3 - RELEASE   -
|  1> ! RI PBE def2-SVP def2-SVP/J NBO PAL2
|  2> % maxcore 2000
|  3> % output
|  4>     # printlevel mini
|  5>     print[ P_Basis ] 0
|  6>     print[ P_SCFInfo ] 1
|  7>     print[ P_SCFIterInfo ] 1
|  8>     print[ P_OrbEn ] 0
|  9>     print[ P_Cartesian ] 0
| 10> end
| 11> *xyz 0 1
| 12>  C        1.0057070000     0.0468540000    -0.0780820000
| 13>  C        2.5261460000    -0.0042030000    -0.1095240000
| 14>  C        3.0391910000    -1.4355970000    -0.1076510000
| 15>  C        3.0486180000     0.7707660000    -1.3117110000
| 16>  O        4.4575250000     0.8369520000    -1.3811860000
| 17>  H        0.6123870000    -0.4778810000     0.7956160000
| 18>  H        0.5837030000    -0.4325290000    -0.9671620000
| 19>  H        0.6356050000     1.0751990000    -0.0459180000
| 20>  H        2.9029780000     0.5006840000     0.7925600000
| 21>  H        2.6403680000    -1.9861020000    -0.9659440000
| 22>  H        2.7325310000    -1.9642190000     0.7983530000
| 23>  H        4.1281130000    -1.4638260000    -0.1719070000
| 24>  H        2.6096590000     1.7789870000    -1.3188360000
| 25>  H        2.7305270000     0.2732410000    -2.2336410000
| 26>  H        4.7732320000     1.3199750000    -0.6131660000
| 27> *
| 28>
| 29>                          ****END OF INPUT****
 Total Charge           Charge          ....    0
 Multiplicity           Mult            ....    1
 Number of Electrons    NEL             ....   42
 Basis Dimension        Dim             ....  120

MULLIKEN ATOMIC CHARGES
-----------------------
   0 C :    0.009520
   1 C :   -0.181798
   2 C :    0.021106
   3 C :    0.190704
   4 O :   -0.279279
   5 H :    0.017685
   6 H :    0.015702
   7 H :    0.014757
   8 H :   -0.005359
   9 H :    0.010908
  10 H :    0.015314
  11 H :    0.021461
  12 H :   -0.005533
  13 H :    0.002908
  14 H :    0.151904
Sum of atomic charges:    0.0000000

LOEWDIN ATOMIC CHARGES
----------------------
   0 C :   -0.056786
   1 C :   -0.072297
   2 C :   -0.061173
   3 C :    0.055932
   4 O :   -0.118891
   5 H :    0.026697
   6 H :    0.024788
   7 H :    0.023266
   8 H :    0.017598
   9 H :    0.024381
  10 H :    0.023820
  11 H :    0.024087
  12 H :    0.002617
  13 H :    0.018959
  14 H :    0.067003

  Mayer bond orders larger than 0.1
B(  0-C ,  1-C ) :   1.0693 B(  0-C ,  5-H ) :   0.9592 B(  0-C ,  6-H ) :   0.9635
B(  0-C ,  7-H ) :   0.9609 B(  1-C ,  2-C ) :   1.0712 B(  1-C ,  3-C ) :   1.0370
B(  1-C ,  8-H ) :   0.9094 B(  2-C ,  9-H ) :   0.9623 B(  2-C , 10-H ) :   0.9625
B(  2-C , 11-H ) :   0.9539 B(  3-C ,  4-O ) :   1.0665 B(  3-C , 12-H ) :   0.9422
B(  3-C , 13-H ) :   0.9334 B(  4-O , 14-H ) :   0.9852

FINAL SINGLE POINT ENERGY      -233.180814727480

DIPOLE MOMENT
-------------
                                X             Y             Z
Electronic contribution:      3.62963       2.10155      -1.56502
Nuclear contribution   :     -3.88965      -1.85325       2.04282
                        -----------------------------------------
Total Dipole Moment    :     -0.26001       0.24830       0.47780
                        -----------------------------------------
Magnitude (a.u.)       :      0.59796
Magnitude (Debye)      :      1.51988

                             ****ORCA TERMINATED NORMALLY****
TOTAL RUN TIME: 0 days 0 hours 0 minutes 5 seconds 201 msec
