                         Program Version 3.0.3 - RELEASE   -
|  1> ! RI PBE def2-SVP def2-SVP/J NBO PAL2
|  2> % maxcore 2000
|  3> % output
|  4>     # printlevel mini
|  5>     print[ P_Basis ] 0
|  6>     print[ P_SCFInfo ] 1
|  7>     print[ P_SCFIterInfo ] 1
|  8>     print[ P_OrbEn ] 0
|  9>     print[ P_Cartesian ] 0
| 10> end
| 11> *xyz 0 1
| 12>  C        1.1800710000     0.1349530000     0.2225460000
| 13>  C        2.5056510000     0.4544040000    -0.4447380000
| 14>  C        2.8017700000    -0.5387270000    -1.5613930000
| 15>  C        3.6355760000     0.4684420000     0.5770090000
| 16>  O        2.3402770000     1.7603940000    -0.9953690000
| 17>  H        0.3724750000     0.1611620000    -0.5116900000
| 18>  H        0.9610300000     0.8718570000     0.9977840000
| 19>  H        1.2048770000    -0.8562630000     0.6795620000
| 20>  H        3.7438950000    -0.2902970000    -2.0604500000
| 21>  H        2.0037600000    -0.5174970000    -2.3062750000
| 22>  H        2.8898920000    -1.5569660000    -1.1744470000
| 23>  H        4.5860640000     0.7268390000     0.0993090000
| 24>  H        3.4314060000     1.2069410000     1.3548600000
| 25>  H        3.7567350000    -0.5098180000     1.0488380000
| 26>  H        3.1615230000     2.0060860000    -1.4307560000
| 27> *
| 28>
| 29>                          ****END OF INPUT****
 Total Charge           Charge          ....    0
 Multiplicity           Mult            ....    1
 Number of Electrons    NEL             ....   42
 Basis Dimension        Dim             ....  120

MULLIKEN ATOMIC CHARGES
-----------------------
   0 C :    0.053931
   1 C :   -0.155529
   2 C :    0.049773
   3 C :    0.054674
   4 O :   -0.264240
   5 H :    0.019944
   6 H :    0.019993
   7 H :    0.010269
   8 H :   -0.000323
   9 H :    0.024733
  10 H :    0.010746
  11 H :   -0.000740
  12 H :    0.021155
  13 H :    0.009201
  14 H :    0.146412
Sum of atomic charges:    0.0000000

LOEWDIN ATOMIC CHARGES
----------------------
   0 C :   -0.057044
   1 C :    0.011988
   2 C :   -0.067761
   3 C :   -0.066436
   4 O :   -0.112677
   5 H :    0.028443
   6 H :    0.028141
   7 H :    0.026445
   8 H :    0.019414
   9 H :    0.027686
  10 H :    0.026803
  11 H :    0.019215
  12 H :    0.027075
  13 H :    0.026548
  14 H :    0.062159

  Mayer bond orders larger than 0.1
B(  0-C ,  1-C ) :   1.0523 B(  0-C ,  5-H ) :   0.9531 B(  0-C ,  6-H ) :   0.9542
B(  0-C ,  7-H ) :   0.9576 B(  1-C ,  2-C ) :   1.0582 B(  1-C ,  3-C ) :   1.0573
B(  1-C ,  4-O ) :   1.0295 B(  2-C ,  8-H ) :   0.9496 B(  2-C ,  9-H ) :   0.9561
B(  2-C , 10-H ) :   0.9508 B(  3-C , 11-H ) :   0.9511 B(  3-C , 12-H ) :   0.9560
B(  3-C , 13-H ) :   0.9502 B(  4-O , 14-H ) :   0.9831

FINAL SINGLE POINT ENERGY      -233.188127570340

DIPOLE MOMENT
-------------
                                X             Y             Z
Electronic contribution:     -0.56975       3.04268      -1.21044
Nuclear contribution   :      1.03508      -3.32819       1.16430
                        -----------------------------------------
Total Dipole Moment    :      0.46532      -0.28551      -0.04614
                        -----------------------------------------
Magnitude (a.u.)       :      0.54788
Magnitude (Debye)      :      1.39260

                             ****ORCA TERMINATED NORMALLY****
TOTAL RUN TIME: 0 days 0 hours 0 minutes 5 seconds 815 msec
