                         Program Version 3.0.3 - RELEASE   -
|  1> ! RI PBE def2-SVP def2-SVP/J NBO PAL2
|  2> % maxcore 2000
|  3> % output
|  4>     # printlevel mini
|  5>     print[ P_Basis ] 0
|  6>     print[ P_SCFInfo ] 1
|  7>     print[ P_SCFIterInfo ] 1
|  8>     print[ P_OrbEn ] 0
|  9>     print[ P_Cartesian ] 0
| 10> end
| 11> *xyz 0 1
| 12>  C        0.9894690000     0.0961420000    -0.0081600000
| 13>  C        2.5150880000     0.0875690000    -0.0361300000
| 14>  C        3.0961980000     1.0318890000     1.0121710000
| 15>  C        3.0046300000    -1.3092210000     0.2340700000
| 16>  O        3.6631630000    -1.9755150000    -0.5148280000
| 17>  H        0.6139830000     1.1088290000    -0.1711090000
| 18>  H        0.6130730000    -0.2444810000     0.9612610000
| 19>  H        0.5695110000    -0.5504270000    -0.7815290000
| 20>  H        2.8732010000     0.3661410000    -1.0310270000
| 21>  H        2.8010610000     0.7273660000     2.0209500000
| 22>  H        2.7271430000     2.0474320000     0.8523290000
| 23>  H        4.1871530000     1.0564200000     0.9705750000
| 24>  H        2.7011360000    -1.7121450000     1.2302160000
| 25> *
| 26>
| 27>                          ****END OF INPUT****
 Total Charge           Charge          ....    0
 Multiplicity           Mult            ....    1
 Number of Electrons    NEL             ....   40
 Basis Dimension        Dim             ....  110

MULLIKEN ATOMIC CHARGES
-----------------------
   0 C :    0.000568
   1 C :   -0.112614
   2 C :   -0.012455
   3 C :    0.108383
   4 O :   -0.155867
   5 H :    0.028478
   6 H :    0.020771
   7 H :    0.037061
   8 H :    0.012666
   9 H :    0.022953
  10 H :    0.030364
  11 H :    0.042162
  12 H :   -0.022470
Sum of atomic charges:   -0.0000000

LOEWDIN ATOMIC CHARGES
----------------------
   0 C :   -0.049598
   1 C :   -0.083903
   2 C :   -0.052128
   3 C :    0.095811
   4 O :   -0.105096
   5 H :    0.031436
   6 H :    0.026247
   7 H :    0.031733
   8 H :    0.030747
   9 H :    0.026748
  10 H :    0.031941
  11 H :    0.032514
  12 H :   -0.016453

  Mayer bond orders larger than 0.1
B(  0-C ,  1-C ) :   1.0592 B(  0-C ,  5-H ) :   0.9594 B(  0-C ,  6-H ) :   0.9618
B(  0-C ,  7-H ) :   0.9645 B(  1-C ,  2-C ) :   1.0549 B(  1-C ,  3-C ) :   0.9326
B(  1-C ,  8-H ) :   0.9069 B(  2-C ,  9-H ) :   0.9624 B(  2-C , 10-H ) :   0.9588
B(  2-C , 11-H ) :   0.9646 B(  3-C ,  4-O ) :   2.1974 B(  3-C , 12-H ) :   0.9149

FINAL SINGLE POINT ENERGY      -231.983411662757

DIPOLE MOMENT
-------------
                                X             Y             Z
Electronic contribution:      3.31885      -4.98599      -2.29029
Nuclear contribution   :     -3.85659       5.71617       2.72102
                        -----------------------------------------
Total Dipole Moment    :     -0.53774       0.73018       0.43073
                        -----------------------------------------
Magnitude (a.u.)       :      1.00392
Magnitude (Debye)      :      2.55176

                             ****ORCA TERMINATED NORMALLY****
TOTAL RUN TIME: 0 days 0 hours 0 minutes 5 seconds 135 msec
