                         Program Version 3.0.3 - RELEASE   -
|  1> ! RI PBE def2-SVP def2-SVP/J NBO PAL2
|  2> % maxcore 2000
|  3> % output
|  4>     # printlevel mini
|  5>     print[ P_Basis ] 0
|  6>     print[ P_SCFInfo ] 1
|  7>     print[ P_SCFIterInfo ] 1
|  8>     print[ P_OrbEn ] 0
|  9>     print[ P_Cartesian ] 0
| 10> end
| 11> *xyz 0 1
| 12>  C        0.9487270000    -0.0791080000     0.0671040000
| 13>  C        2.3988580000    -0.0976350000     0.0587170000
| 14>  C        3.6017760000    -0.1024860000     0.0623670000
| 15>  C        5.0590260000    -0.1245860000     0.0261760000
| 16>  O        5.6093440000     0.6021150000    -1.0540370000
| 17>  H        0.5672990000     0.7115580000    -0.5838350000
| 18>  H        0.5680670000     0.1062980000     1.0745780000
| 19>  H        0.5373260000    -1.0300970000    -0.2799100000
| 20>  H        5.4017840000    -1.1688660000     0.0140520000
| 21>  H        5.4610180000     0.3331140000     0.9338600000
| 22>  H        5.1463760000     0.3357940000    -1.8528530000
| 23> *
| 24>
| 25>                          ****END OF INPUT****
 Total Charge           Charge          ....    0
 Multiplicity           Mult            ....    1
 Number of Electrons    NEL             ....   38
 Basis Dimension        Dim             ....  100

MULLIKEN ATOMIC CHARGES
-----------------------
   0 C :    0.052632
   1 C :   -0.216943
   2 C :   -0.169598
   3 C :    0.272653
   4 O :   -0.287498
   5 H :    0.051300
   6 H :    0.049981
   7 H :    0.047409
   8 H :    0.020275
   9 H :    0.025298
  10 H :    0.154492
Sum of atomic charges:    0.0000000

LOEWDIN ATOMIC CHARGES
----------------------
   0 C :   -0.067500
   1 C :   -0.057486
   2 C :   -0.097071
   3 C :    0.052074
   4 O :   -0.118213
   5 H :    0.052964
   6 H :    0.052414
   7 H :    0.049592
   8 H :    0.023837
   9 H :    0.040232
  10 H :    0.069157

  Mayer bond orders larger than 0.1
B(  0-C ,  1-C ) :   1.1299 B(  0-C ,  5-H ) :   0.9303 B(  0-C ,  6-H ) :   0.9342
B(  0-C ,  7-H ) :   0.9339 B(  1-C ,  2-C ) :   2.6564 B(  2-C ,  3-C ) :   1.0236
B(  3-C ,  4-O ) :   1.0615 B(  3-C ,  8-H ) :   0.9212 B(  3-C ,  9-H ) :   0.9003
B(  4-O , 10-H ) :   0.9838

FINAL SINGLE POINT ENERGY      -230.719960672913

DIPOLE MOMENT
-------------
                                X             Y             Z
Electronic contribution:      2.93481       0.60979      -0.63180
Nuclear contribution   :     -3.60369      -0.98659       0.54011
                        -----------------------------------------
Total Dipole Moment    :     -0.66888      -0.37681      -0.09169
                        -----------------------------------------
Magnitude (a.u.)       :      0.77317
Magnitude (Debye)      :      1.96524

                             ****ORCA TERMINATED NORMALLY****
TOTAL RUN TIME: 0 days 0 hours 0 minutes 4 seconds 419 msec
