                         Program Version 3.0.3 - RELEASE   -
|  1> ! RI PBE def2-SVP def2-SVP/J NBO PAL2
|  2> % maxcore 2000
|  3> % output
|  4>     # printlevel mini
|  5>     print[ P_Basis ] 0
|  6>     print[ P_SCFInfo ] 1
|  7>     print[ P_SCFIterInfo ] 1
|  8>     print[ P_OrbEn ] 0
|  9>     print[ P_Cartesian ] 0
| 10> end
| 11> *xyz 0 1
| 12>  C        0.9480440000    -0.0849440000     0.0333200000
| 13>  C        2.3932200000    -0.0939150000     0.0072670000
| 14>  C        3.5978290000    -0.1145820000    -0.0380060000
| 15>  C        5.0355090000    -0.1061290000    -0.0325910000
| 16>  O        5.7232080000    -0.5852270000    -0.8981290000
| 17>  H        0.5613950000    -1.1071610000     0.0213380000
| 18>  H        0.5550790000     0.4299850000    -0.8470000000
| 19>  H        0.5692210000     0.4175370000     0.9257860000
| 20>  H        5.4863950000     0.3869550000     0.8503160000
| 21> *
| 22>
| 23>                          ****END OF INPUT****
 Total Charge           Charge          ....    0
 Multiplicity           Mult            ....    1
 Number of Electrons    NEL             ....   36
 Basis Dimension        Dim             ....   90

MULLIKEN ATOMIC CHARGES
-----------------------
   0 C :    0.051044
   1 C :   -0.128952
   2 C :   -0.039302
   3 C :    0.069904
   4 O :   -0.157296
   5 H :    0.064479
   6 H :    0.066389
   7 H :    0.060722
   8 H :    0.013012
Sum of atomic charges:   -0.0000000

LOEWDIN ATOMIC CHARGES
----------------------
   0 C :   -0.063239
   1 C :    0.006036
   2 C :   -0.094945
   3 C :    0.065992
   4 O :   -0.096727
   5 H :    0.062304
   6 H :    0.062650
   7 H :    0.056017
   8 H :    0.001912

  Mayer bond orders larger than 0.1
B(  0-C ,  1-C ) :   1.1268 B(  0-C ,  5-H ) :   0.9256 B(  0-C ,  6-H ) :   0.9256
B(  0-C ,  7-H ) :   0.9334 B(  1-C ,  2-C ) :   2.5675 B(  1-C ,  4-O ) :   0.1175
B(  2-C ,  3-C ) :   0.9067 B(  3-C ,  4-O ) :   2.1321 B(  3-C ,  8-H ) :   0.9418

FINAL SINGLE POINT ENERGY      -229.525253284875

DIPOLE MOMENT
-------------
                                X             Y             Z
Electronic contribution:      5.29274      -0.57052      -1.05793
Nuclear contribution   :     -6.61417       0.88747       1.64056
                        -----------------------------------------
Total Dipole Moment    :     -1.32143       0.31696       0.58263
                        -----------------------------------------
Magnitude (a.u.)       :      1.47855
Magnitude (Debye)      :      3.75817

                             ****ORCA TERMINATED NORMALLY****
TOTAL RUN TIME: 0 days 0 hours 0 minutes 4 seconds 112 msec
