                         Program Version 3.0.3 - RELEASE   -
|  1> ! RI PBE def2-SVP def2-SVP/J NBO PAL2
|  2> % maxcore 2000
|  3> % output
|  4>     # printlevel mini
|  5>     print[ P_Basis ] 0
|  6>     print[ P_SCFInfo ] 1
|  7>     print[ P_SCFIterInfo ] 1
|  8>     print[ P_OrbEn ] 0
|  9>     print[ P_Cartesian ] 0
| 10> end
| 11> *xyz 0 1
| 12>  C        2.7974360000     0.7506890000    -1.2805040000
| 13>  C        2.4170690000     0.0422330000     0.0073040000
| 14>  C        2.9866070000     0.7052320000     1.2541050000
| 15>  C        2.5063210000     0.0385800000     2.5291200000
| 16>  O        4.4043500000     0.7628390000     1.2118550000
| 17>  H        2.4113480000     0.2217420000    -2.1546130000
| 18>  H        3.8819950000     0.8252420000    -1.3770350000
| 19>  H        2.3939350000     1.7669160000    -1.3014620000
| 20>  H        2.7643210000    -0.9997350000    -0.0177670000
| 21>  H        1.3267760000    -0.0049950000     0.1041750000
| 22>  H        2.6769650000     1.7566420000     1.2626820000
| 23>  H        2.7962240000    -1.0178470000     2.5450320000
| 24>  H        1.4177790000     0.0845680000     2.6135380000
| 25>  H        2.9430380000     0.5261070000     3.4024510000
| 26>  H        4.7376260000    -0.1389250000     1.2502190000
| 27> *
| 28>
| 29>                          ****END OF INPUT****
 Total Charge           Charge          ....    0
 Multiplicity           Mult            ....    1
 Number of Electrons    NEL             ....   42
 Basis Dimension        Dim             ....  120

MULLIKEN ATOMIC CHARGES
-----------------------
   0 C :    0.013836
   1 C :   -0.050421
   2 C :    0.057422
   3 C :    0.015725
   4 O :   -0.279791
   5 H :    0.015631
   6 H :    0.019875
   7 H :    0.011043
   8 H :   -0.007557
   9 H :    0.011744
  10 H :   -0.000434
  11 H :    0.003066
  12 H :    0.018535
  13 H :    0.024416
  14 H :    0.146910
Sum of atomic charges:   -0.0000000

LOEWDIN ATOMIC CHARGES
----------------------
   0 C :   -0.067138
   1 C :   -0.063540
   2 C :    0.041219
   3 C :   -0.078973
   4 O :   -0.113931
   5 H :    0.025136
   6 H :    0.024208
   7 H :    0.025187
   8 H :    0.017692
   9 H :    0.026473
  10 H :    0.020942
  11 H :    0.020900
  12 H :    0.029882
  13 H :    0.028667
  14 H :    0.063277

  Mayer bond orders larger than 0.1
B(  0-C ,  1-C ) :   1.1173 B(  0-C ,  5-H ) :   0.9604 B(  0-C ,  6-H ) :   0.9582
B(  0-C ,  7-H ) :   0.9614 B(  1-C ,  2-C ) :   1.0520 B(  1-C ,  8-H ) :   0.9214
B(  1-C ,  9-H ) :   0.9296 B(  2-C ,  3-C ) :   1.0940 B(  2-C ,  4-O ) :   1.0240
B(  2-C , 10-H ) :   0.9104 B(  3-C , 11-H ) :   0.9498 B(  3-C , 12-H ) :   0.9495
B(  3-C , 13-H ) :   0.9546 B(  4-O , 14-H ) :   0.9845

FINAL SINGLE POINT ENERGY      -233.185053066167

DIPOLE MOMENT
-------------
                                X             Y             Z
Electronic contribution:      2.72159       0.94339       1.18790
Nuclear contribution   :     -3.00695      -1.42862      -1.13426
                        -----------------------------------------
Total Dipole Moment    :     -0.28536      -0.48523       0.05364
                        -----------------------------------------
Magnitude (a.u.)       :      0.56547
Magnitude (Debye)      :      1.43731

                             ****ORCA TERMINATED NORMALLY****
TOTAL RUN TIME: 0 days 0 hours 0 minutes 5 seconds 355 msec
