                         Program Version 3.0.3 - RELEASE   -
|  1> ! RI PBE def2-SVP def2-SVP/J NBO PAL2
|  2> % maxcore 2000
|  3> % output
|  4>     # printlevel mini
|  5>     print[ P_Basis ] 0
|  6>     print[ P_SCFInfo ] 1
|  7>     print[ P_SCFIterInfo ] 1
|  8>     print[ P_OrbEn ] 0
|  9>     print[ P_Cartesian ] 0
| 10> end
| 11> *xyz 0 1
| 12>  C        0.9624970000    -0.0002450000     0.1052300000
| 13>  C        2.4494890000     0.1159440000    -0.2073960000
| 14>  C        3.1102800000     1.3565570000     0.3511180000
| 15>  C        2.9128570000     1.6461620000     1.8172500000
| 16>  O        3.7738640000     2.0828010000    -0.3474990000
| 17>  H        0.5457780000    -0.8972610000    -0.3563620000
| 18>  H        0.4095300000     0.8587840000    -0.2824600000
| 19>  H        0.7742370000    -0.0657000000     1.1788220000
| 20>  H        2.6282890000     0.1135930000    -1.2838520000
| 21>  H        2.9786240000    -0.7482150000     0.2140750000
| 22>  H        3.0282750000     0.7427980000     2.4215990000
| 23>  H        1.8958230000     2.0137850000     1.9836290000
| 24>  H        3.6192560000     2.4097060000     2.1378460000
| 25> *
| 26>
| 27>                          ****END OF INPUT****
 Total Charge           Charge          ....    0
 Multiplicity           Mult            ....    1
 Number of Electrons    NEL             ....   40
 Basis Dimension        Dim             ....  110

MULLIKEN ATOMIC CHARGES
-----------------------
   0 C :   -0.055685
   1 C :    0.005340
   2 C :   -0.080255
   3 C :    0.008087
   4 O :   -0.160190
   5 H :    0.031417
   6 H :    0.038726
   7 H :    0.030747
   8 H :    0.024015
   9 H :    0.034349
  10 H :    0.035286
  11 H :    0.049414
  12 H :    0.038750
Sum of atomic charges:    0.0000000

LOEWDIN ATOMIC CHARGES
----------------------
   0 C :   -0.062792
   1 C :   -0.071886
   2 C :    0.055371
   3 C :   -0.090974
   4 O :   -0.122640
   5 H :    0.032841
   6 H :    0.030669
   7 H :    0.025831
   8 H :    0.034176
   9 H :    0.042004
  10 H :    0.038867
  11 H :    0.049140
  12 H :    0.039393

  Mayer bond orders larger than 0.1
B(  0-C ,  1-C ) :   1.0969 B(  0-C ,  5-H ) :   0.9596 B(  0-C ,  6-H ) :   0.9705
B(  0-C ,  7-H ) :   0.9629 B(  1-C ,  2-C ) :   0.9860 B(  1-C ,  8-H ) :   0.9229
B(  1-C ,  9-H ) :   0.9115 B(  2-C ,  3-C ) :   1.0142 B(  2-C ,  4-O ) :   2.1989
B(  3-C , 10-H ) :   0.9458 B(  3-C , 11-H ) :   0.9343 B(  3-C , 12-H ) :   0.9458

FINAL SINGLE POINT ENERGY      -231.993229754612

DIPOLE MOMENT
-------------
                                X             Y             Z
Electronic contribution:      4.20201       3.02894      -2.40808
Nuclear contribution   :     -4.83142      -3.66248       2.99583
                        -----------------------------------------
Total Dipole Moment    :     -0.62941      -0.63354       0.58774
                        -----------------------------------------
Magnitude (a.u.)       :      1.06910
Magnitude (Debye)      :      2.71743

                             ****ORCA TERMINATED NORMALLY****
TOTAL RUN TIME: 0 days 0 hours 0 minutes 4 seconds 951 msec
