                         Program Version 3.0.3 - RELEASE   -
|  1> ! RI PBE def2-SVP def2-SVP/J NBO PAL2
|  2> % maxcore 2000
|  3> % output
|  4>     # printlevel mini
|  5>     print[ P_Basis ] 0
|  6>     print[ P_SCFInfo ] 1
|  7>     print[ P_SCFIterInfo ] 1
|  8>     print[ P_OrbEn ] 0
|  9>     print[ P_Cartesian ] 0
| 10> end
| 11> *xyz 0 1
| 12>  C        0.9148170000    -0.0980620000     0.1357790000
| 13>  C        2.4231350000    -0.0561860000    -0.0386420000
| 14>  C        2.8557140000    -0.4274180000    -1.4431220000
| 15>  C        4.3355490000    -0.4037570000    -1.6759260000
| 16>  O        5.1580570000    -0.1198350000    -0.8487130000
| 17>  H        0.6263700000     0.1724880000     1.1536700000
| 18>  H        0.5179680000    -1.0972520000    -0.0657060000
| 19>  H        0.4154810000     0.5972610000    -0.5451420000
| 20>  H        2.9059720000    -0.7325480000     0.6721820000
| 21>  H        2.8047660000     0.9407510000     0.1987230000
| 22>  H        2.4038800000     0.2372440000    -2.1934150000
| 23>  H        2.5048530000    -1.4316270000    -1.7212020000
| 24>  H        4.6492570000    -0.6768790000    -2.7083860000
| 25> *
| 26>
| 27>                          ****END OF INPUT****
 Total Charge           Charge          ....    0
 Multiplicity           Mult            ....    1
 Number of Electrons    NEL             ....   40
 Basis Dimension        Dim             ....  110

MULLIKEN ATOMIC CHARGES
-----------------------
   0 C :   -0.012014
   1 C :   -0.043342
   2 C :   -0.030119
   3 C :    0.087274
   4 O :   -0.162735
   5 H :    0.022612
   6 H :    0.015311
   7 H :    0.017532
   8 H :    0.028270
   9 H :    0.024538
  10 H :    0.035415
  11 H :    0.029918
  12 H :   -0.012661
Sum of atomic charges:    0.0000000

LOEWDIN ATOMIC CHARGES
----------------------
   0 C :   -0.065152
   1 C :   -0.044153
   2 C :   -0.086311
   3 C :    0.091339
   4 O :   -0.109879
   5 H :    0.028853
   6 H :    0.023785
   7 H :    0.024472
   8 H :    0.030721
   9 H :    0.029910
  10 H :    0.045566
  11 H :    0.044409
  12 H :   -0.013560

  Mayer bond orders larger than 0.1
B(  0-C ,  1-C ) :   1.1171 B(  0-C ,  5-H ) :   0.9633 B(  0-C ,  6-H ) :   0.9664
B(  0-C ,  7-H ) :   0.9654 B(  1-C ,  2-C ) :   1.0833 B(  1-C ,  8-H ) :   0.9400
B(  1-C ,  9-H ) :   0.9399 B(  2-C ,  3-C ) :   0.9725 B(  2-C , 10-H ) :   0.9065
B(  2-C , 11-H ) :   0.9071 B(  3-C ,  4-O ) :   2.1858 B(  3-C , 12-H ) :   0.9281

FINAL SINGLE POINT ENERGY      -231.985135887936

DIPOLE MOMENT
-------------
                                X             Y             Z
Electronic contribution:      6.90367       0.05601      -1.28210
Nuclear contribution   :     -7.70075      -0.22566       0.84941
                        -----------------------------------------
Total Dipole Moment    :     -0.79708      -0.16966      -0.43270
                        -----------------------------------------
Magnitude (a.u.)       :      0.92268
Magnitude (Debye)      :      2.34527

                             ****ORCA TERMINATED NORMALLY****
TOTAL RUN TIME: 0 days 0 hours 0 minutes 5 seconds 72 msec
