                         Program Version 3.0.3 - RELEASE   -
|  1> ! RI PBE def2-SVP def2-SVP/J NBO PAL2
|  2> % maxcore 2000
|  3> % output
|  4>     # printlevel mini
|  5>     print[ P_Basis ] 0
|  6>     print[ P_SCFInfo ] 1
|  7>     print[ P_SCFIterInfo ] 1
|  8>     print[ P_OrbEn ] 0
|  9>     print[ P_Cartesian ] 0
| 10> end
| 11> *xyz 0 1
| 12>  C        0.8494300000     0.0624250000     0.0088900000
| 13>  C        2.3685330000     0.0609580000    -0.0146690000
| 14>  C        2.9206180000     0.8286120000    -1.1927570000
| 15>  O        4.3239510000     0.7900950000    -1.1585820000
| 16>  C        4.9065270000     1.4847150000    -2.2242850000
| 17>  H        0.4674410000    -0.4959790000     0.8656050000
| 18>  H        0.4365490000    -0.3954710000    -0.8942360000
| 19>  H        0.4529900000     1.0794390000     0.0744400000
| 20>  H        2.7477340000    -0.9643450000    -0.0580160000
| 21>  H        2.7640950000     0.5019120000     0.9051170000
| 22>  H        2.5700680000     1.8737870000    -1.1648020000
| 23>  H        2.5531560000     0.3937140000    -2.1371600000
| 24>  H        5.9888380000     1.4031790000    -2.1207760000
| 25>  H        4.6274440000     2.5481310000    -2.2150550000
| 26>  H        4.6091170000     1.0611370000    -3.1943130000
| 27> *
| 28>
| 29>                          ****END OF INPUT****
 Total Charge           Charge          ....    0
 Multiplicity           Mult            ....    1
 Number of Electrons    NEL             ....   42
 Basis Dimension        Dim             ....  120

MULLIKEN ATOMIC CHARGES
-----------------------
   0 C :   -0.038257
   1 C :   -0.033509
   2 C :    0.156467
   3 O :   -0.343748
   4 C :    0.144897
   5 H :    0.024953
   6 H :    0.020443
   7 H :    0.019434
   8 H :    0.020472
   9 H :    0.018016
  10 H :   -0.012416
  11 H :   -0.014269
  12 H :    0.035658
  13 H :    0.003331
  14 H :   -0.001471
Sum of atomic charges:   -0.0000000

LOEWDIN ATOMIC CHARGES
----------------------
   0 C :   -0.064287
   1 C :   -0.054297
   2 C :    0.057521
   3 O :   -0.150069
   4 C :    0.048047
   5 H :    0.029295
   6 H :    0.024471
   7 H :    0.024227
   8 H :    0.027134
   9 H :    0.026750
  10 H :    0.000977
  11 H :    0.000475
  12 H :    0.022873
  13 H :    0.003839
  14 H :    0.003043

  Mayer bond orders larger than 0.1
B(  0-C ,  1-C ) :   1.0975 B(  0-C ,  5-H ) :   0.9634 B(  0-C ,  6-H ) :   0.9687
B(  0-C ,  7-H ) :   0.9682 B(  1-C ,  2-C ) :   1.0819 B(  1-C ,  8-H ) :   0.9379
B(  1-C ,  9-H ) :   0.9375 B(  2-C ,  3-O ) :   1.0324 B(  2-C , 10-H ) :   0.9269
B(  2-C , 11-H ) :   0.9276 B(  3-O ,  4-C ) :   1.0233 B(  4-C , 12-H ) :   0.9771
B(  4-C , 13-H ) :   0.9554 B(  4-C , 14-H ) :   0.9539

FINAL SINGLE POINT ENERGY      -233.168573201518

DIPOLE MOMENT
-------------
                                X             Y             Z
Electronic contribution:      3.24243      -0.20027       0.25006
Nuclear contribution   :     -3.46667       0.37622      -0.51027
                        -----------------------------------------
Total Dipole Moment    :     -0.22424       0.17595      -0.26021
                        -----------------------------------------
Magnitude (a.u.)       :      0.38594
Magnitude (Debye)      :      0.98098

                             ****ORCA TERMINATED NORMALLY****
TOTAL RUN TIME: 0 days 0 hours 0 minutes 5 seconds 588 msec
