                         Program Version 3.0.3 - RELEASE   -
|  1> ! RI PBE def2-SVP def2-SVP/J NBO PAL2
|  2> % maxcore 2000
|  3> % output
|  4>     # printlevel mini
|  5>     print[ P_Basis ] 0
|  6>     print[ P_SCFInfo ] 1
|  7>     print[ P_SCFIterInfo ] 1
|  8>     print[ P_OrbEn ] 0
|  9>     print[ P_Cartesian ] 0
| 10> end
| 11> *xyz 0 1
| 12>  C        1.0220790000     0.0990760000    -0.0972730000
| 13>  C        2.5289250000     0.1257210000    -0.1401110000
| 14>  O        3.0299570000    -0.7214310000     0.8627380000
| 15>  C        4.4342090000    -0.7572750000     0.8973280000
| 16>  C        4.8742850000    -1.6888440000     1.9980750000
| 17>  H        0.6080380000     0.7511340000    -0.8695730000
| 18>  H        0.6595660000     0.4401990000     0.8742590000
| 19>  H        0.6511880000    -0.9138960000    -0.2645640000
| 20>  H        2.9016840000     1.1508090000     0.0135690000
| 21>  H        2.8932310000    -0.2034690000    -1.1261630000
| 22>  H        4.8315110000     0.2560210000     1.0669300000
| 23>  H        4.8251680000    -1.0963630000    -0.0750620000
| 24>  H        4.4999560000    -1.3452550000     2.9642450000
| 25>  H        5.9646200000    -1.7334270000     2.0453840000
| 26>  H        4.4941860000    -2.6970090000     1.8226280000
| 27> *
| 28>
| 29>                          ****END OF INPUT****
 Total Charge           Charge          ....    0
 Multiplicity           Mult            ....    1
 Number of Electrons    NEL             ....   42
 Basis Dimension        Dim             ....  120

MULLIKEN ATOMIC CHARGES
-----------------------
   0 C :   -0.015250
   1 C :    0.136199
   2 O :   -0.351305
   3 C :    0.139266
   4 C :   -0.027231
   5 H :    0.018267
   6 H :    0.028363
   7 H :    0.027999
   8 H :   -0.007617
   9 H :   -0.010809
  10 H :   -0.009249
  11 H :   -0.010698
  12 H :    0.027548
  13 H :    0.024601
  14 H :    0.029917
Sum of atomic charges:   -0.0000000

LOEWDIN ATOMIC CHARGES
----------------------
   0 C :   -0.073114
   1 C :    0.056804
   2 O :   -0.153038
   3 C :    0.057065
   4 C :   -0.075427
   5 H :    0.031282
   6 H :    0.029352
   7 H :    0.029204
   8 H :    0.001861
   9 H :    0.001434
  10 H :    0.001744
  11 H :    0.001331
  12 H :    0.029341
  13 H :    0.032305
  14 H :    0.029856

  Mayer bond orders larger than 0.1
B(  0-C ,  1-C ) :   1.1145 B(  0-C ,  5-H ) :   0.9544 B(  0-C ,  6-H ) :   0.9645
B(  0-C ,  7-H ) :   0.9648 B(  1-C ,  2-O ) :   1.0118 B(  1-C ,  8-H ) :   0.9322
B(  1-C ,  9-H ) :   0.9305 B(  2-O ,  3-C ) :   1.0178 B(  3-C ,  4-C ) :   1.1160
B(  3-C , 10-H ) :   0.9304 B(  3-C , 11-H ) :   0.9306 B(  4-C , 12-H ) :   0.9638
B(  4-C , 13-H ) :   0.9558 B(  4-C , 14-H ) :   0.9637

FINAL SINGLE POINT ENERGY      -233.173977094662

DIPOLE MOMENT
-------------
                                X             Y             Z
Electronic contribution:     -0.30216      -0.26904       0.32198
Nuclear contribution   :      0.51851       0.46575      -0.55585
                        -----------------------------------------
Total Dipole Moment    :      0.21635       0.19671      -0.23387
                        -----------------------------------------
Magnitude (a.u.)       :      0.37442
Magnitude (Debye)      :      0.95171

                             ****ORCA TERMINATED NORMALLY****
TOTAL RUN TIME: 0 days 0 hours 0 minutes 5 seconds 173 msec
