                         Program Version 3.0.3 - RELEASE   -
|  1> ! RI PBE def2-SVP def2-SVP/J NBO PAL2
|  2> % maxcore 2000
|  3> % output
|  4>     # printlevel mini
|  5>     print[ P_Basis ] 0
|  6>     print[ P_SCFInfo ] 1
|  7>     print[ P_SCFIterInfo ] 1
|  8>     print[ P_OrbEn ] 0
|  9>     print[ P_Cartesian ] 0
| 10> end
| 11> *xyz 0 1
| 12>  C        1.1535050000     0.0712670000    -0.3807070000
| 13>  C        2.4538010000    -0.0715430000    -0.1825590000
| 14>  O        3.1044840000     0.5699580000     0.8194440000
| 15>  C        4.4386600000     0.3647140000     0.9489440000
| 16>  C        5.1509720000     0.9503330000     1.8976750000
| 17>  H        0.6791150000    -0.4606780000    -1.1925850000
| 18>  H        0.5500750000     0.7094990000     0.2516210000
| 19>  H        3.0782880000    -0.7075160000    -0.8058850000
| 20>  H        4.8746460000    -0.3130850000     0.2185410000
| 21>  H        4.6971790000     1.6218460000     2.6149260000
| 22>  H        6.2117750000     0.7557960000     1.9609750000
| 23> *
| 24>
| 25>                          ****END OF INPUT****
 Total Charge           Charge          ....    0
 Multiplicity           Mult            ....    1
 Number of Electrons    NEL             ....   38
 Basis Dimension        Dim             ....  100

MULLIKEN ATOMIC CHARGES
-----------------------
   0 C :   -0.069667
   1 C :    0.093161
   2 O :   -0.190196
   3 C :    0.096555
   4 C :   -0.076598
   5 H :    0.030224
   6 H :    0.035738
   7 H :    0.006430
   8 H :    0.005914
   9 H :    0.035022
  10 H :    0.033417
Sum of atomic charges:   -0.0000000

LOEWDIN ATOMIC CHARGES
----------------------
   0 C :   -0.112617
   1 C :    0.036356
   2 O :   -0.011513
   3 C :    0.037495
   4 C :   -0.114235
   5 H :    0.034455
   6 H :    0.032784
   7 H :    0.015028
   8 H :    0.014821
   9 H :    0.032451
  10 H :    0.034974

  Mayer bond orders larger than 0.1
B(  0-C ,  1-C ) :   1.9351 B(  0-C ,  5-H ) :   0.9348 B(  0-C ,  6-H ) :   0.9481
B(  1-C ,  2-O ) :   1.0801 B(  1-C ,  7-H ) :   0.9446 B(  2-O ,  3-C ) :   1.0810
B(  3-C ,  4-C ) :   1.9329 B(  3-C ,  8-H ) :   0.9445 B(  4-C ,  9-H ) :   0.9499
B(  4-C , 10-H ) :   0.9349

FINAL SINGLE POINT ENERGY      -230.736912225841

DIPOLE MOMENT
-------------
                                X             Y             Z
Electronic contribution:     -0.26980       0.32753       0.34124
Nuclear contribution   :      0.50140      -0.62116      -0.64006
                        -----------------------------------------
Total Dipole Moment    :      0.23161      -0.29363      -0.29882
                        -----------------------------------------
Magnitude (a.u.)       :      0.47870
Magnitude (Debye)      :      1.21677

                             ****ORCA TERMINATED NORMALLY****
TOTAL RUN TIME: 0 days 0 hours 0 minutes 4 seconds 623 msec
