                         Program Version 3.0.3 - RELEASE   -
|  1> ! RI PBE def2-SVP def2-SVP/J NBO PAL2
|  2> % maxcore 2000
|  3> % output
|  4>     # printlevel mini
|  5>     print[ P_Basis ] 0
|  6>     print[ P_SCFInfo ] 1
|  7>     print[ P_SCFIterInfo ] 1
|  8>     print[ P_OrbEn ] 0
|  9>     print[ P_Cartesian ] 0
| 10> end
| 11> *xyz 0 1
| 12>  C        0.9136000000     0.0154680000     0.1644550000
| 13>  C        2.4157760000    -0.0225290000     0.0585340000
| 14>  O        3.0541750000    -0.9584680000     0.4862330000
| 15>  C        3.1239310000     1.1094340000    -0.5826520000
| 16>  C        2.5361770000     2.1883420000    -1.0881330000
| 17>  H        0.5734860000    -0.8918270000     0.6593770000
| 18>  H        0.4562210000     0.0841340000    -0.8258280000
| 19>  H        0.5866780000     0.8874890000     0.7365280000
| 20>  H        4.2030090000     0.9912500000    -0.6121590000
| 21>  H        1.4599600000     2.3205070000    -1.0660590000
| 22>  H        3.1139860000     2.9834000000    -1.5451870000
| 23> *
| 24>
| 25>                          ****END OF INPUT****
 Total Charge           Charge          ....    0
 Multiplicity           Mult            ....    1
 Number of Electrons    NEL             ....   38
 Basis Dimension        Dim             ....  100

MULLIKEN ATOMIC CHARGES
-----------------------
   0 C :    0.012895
   1 C :   -0.039174
   2 O :   -0.159822
   3 C :   -0.019143
   4 C :   -0.009279
   5 H :    0.035853
   6 H :    0.045248
   7 H :    0.045508
   8 H :    0.013507
   9 H :    0.031866
  10 H :    0.042541
Sum of atomic charges:   -0.0000000

LOEWDIN ATOMIC CHARGES
----------------------
   0 C :   -0.089310
   1 C :    0.043923
   2 O :   -0.117545
   3 C :   -0.054058
   4 C :   -0.010212
   5 H :    0.040426
   6 H :    0.044571
   7 H :    0.044525
   8 H :    0.037205
   9 H :    0.026957
  10 H :    0.033519

  Mayer bond orders larger than 0.1
B(  0-C ,  1-C ) :   1.0562 B(  0-C ,  5-H ) :   0.9428 B(  0-C ,  6-H ) :   0.9350
B(  0-C ,  7-H ) :   0.9349 B(  1-C ,  2-O ) :   2.1205 B(  1-C ,  3-C ) :   1.0109
B(  3-C ,  4-C ) :   1.8983 B(  3-C ,  8-H ) :   0.9563 B(  4-C ,  9-H ) :   0.9371
B(  4-C , 10-H ) :   0.9410

FINAL SINGLE POINT ENERGY      -230.772135545200

DIPOLE MOMENT
-------------
                                X             Y             Z
Electronic contribution:      3.11875      -2.60096       1.07705
Nuclear contribution   :     -3.67637       3.50139      -1.49291
                        -----------------------------------------
Total Dipole Moment    :     -0.55762       0.90042      -0.41586
                        -----------------------------------------
Magnitude (a.u.)       :      1.13782
Magnitude (Debye)      :      2.89212

                             ****ORCA TERMINATED NORMALLY****
TOTAL RUN TIME: 0 days 0 hours 0 minutes 4 seconds 601 msec
