                         Program Version 3.0.3 - RELEASE   -
|  1> ! RI PBE def2-SVP def2-SVP/J NBO PAL2
|  2> % maxcore 2000
|  3> % output
|  4>     # printlevel mini
|  5>     print[ P_Basis ] 0
|  6>     print[ P_SCFInfo ] 1
|  7>     print[ P_SCFIterInfo ] 1
|  8>     print[ P_OrbEn ] 0
|  9>     print[ P_Cartesian ] 0
| 10> end
| 11> *xyz 0 1
| 12>  C        1.0184610000     0.0502050000    -0.0855420000
| 13>  C        2.5164670000    -0.0172090000    -0.1285300000
| 14>  O        3.1294050000    -0.8930060000    -0.6874340000
| 15>  C        3.2108020000     1.0610800000     0.5596310000
| 16>  C        3.7657440000     1.9595570000     1.1327870000
| 17>  H        0.5977910000    -0.7961260000    -0.6257740000
| 18>  H        0.6767900000     0.9898930000    -0.5277640000
| 19>  H        0.6767660000     0.0447000000     0.9529790000
| 20>  H        4.2760830000     2.7480060000     1.6358570000
| 21> *
| 22>
| 23>                          ****END OF INPUT****
 Total Charge           Charge          ....    0
 Multiplicity           Mult            ....    1
 Number of Electrons    NEL             ....   36
 Basis Dimension        Dim             ....   90

MULLIKEN ATOMIC CHARGES
-----------------------
   0 C :    0.014738
   1 C :   -0.031393
   2 O :   -0.139272
   3 C :    0.369139
   4 C :   -0.385274
   5 H :    0.044113
   6 H :    0.054251
   7 H :    0.053206
   8 H :    0.020491
Sum of atomic charges:   -0.0000000

LOEWDIN ATOMIC CHARGES
----------------------
   0 C :   -0.076887
   1 C :    0.037806
   2 O :   -0.093306
   3 C :   -0.039305
   4 C :   -0.016002
   5 H :    0.041338
   6 H :    0.051942
   7 H :    0.051577
   8 H :    0.042837

  Mayer bond orders larger than 0.1
B(  0-C ,  1-C ) :   1.0411 B(  0-C ,  5-H ) :   0.9451 B(  0-C ,  6-H ) :   0.9414
B(  0-C ,  7-H ) :   0.9419 B(  1-C ,  2-O ) :   2.1592 B(  1-C ,  3-C ) :   0.8778
B(  2-O ,  4-C ) :   0.1086 B(  3-C ,  4-C ) :   2.3690 B(  4-C ,  8-H ) :   1.0851

FINAL SINGLE POINT ENERGY      -229.522125970027

DIPOLE MOMENT
-------------
                                X             Y             Z
Electronic contribution:      3.67483      -0.59186      -0.37871
Nuclear contribution   :     -4.21686       1.38289       0.88231
                        -----------------------------------------
Total Dipole Moment    :     -0.54204       0.79103       0.50359
                        -----------------------------------------
Magnitude (a.u.)       :      1.08311
Magnitude (Debye)      :      2.75306

                             ****ORCA TERMINATED NORMALLY****
TOTAL RUN TIME: 0 days 0 hours 0 minutes 3 seconds 949 msec
