                         Program Version 3.0.3 - RELEASE   -
|  1> ! RI PBE def2-SVP def2-SVP/J NBO PAL2
|  2> % maxcore 2000
|  3> % output
|  4>     # printlevel mini
|  5>     print[ P_Basis ] 0
|  6>     print[ P_SCFInfo ] 1
|  7>     print[ P_SCFIterInfo ] 1
|  8>     print[ P_OrbEn ] 0
|  9>     print[ P_Cartesian ] 0
| 10> end
| 11> *xyz 0 1
| 12>  C        0.9194170000     0.0291100000    -0.0238790000
| 13>  C        2.4222270000    -0.1810180000     0.0524860000
| 14>  O        3.1202190000     1.0354830000    -0.1768480000
| 15>  C        2.8297680000    -0.7998380000     1.3546350000
| 16>  C        3.4170140000    -1.9798220000     1.4808210000
| 17>  H        0.6542080000     0.5016310000    -0.9717100000
| 18>  H        0.5788730000     0.6766050000     0.7913060000
| 19>  H        0.3855880000    -0.9199040000     0.0603210000
| 20>  H        2.7384590000    -0.8391880000    -0.7620970000
| 21>  H        2.8326150000     1.6755940000     0.4810210000
| 22>  H        2.6074370000    -0.2102640000     2.2449040000
| 23>  H        3.6524910000    -2.5873750000     0.6122070000
| 24>  H        3.6853630000    -2.3841050000     2.4500320000
| 25> *
| 26>
| 27>                          ****END OF INPUT****
 Total Charge           Charge          ....    0
 Multiplicity           Mult            ....    1
 Number of Electrons    NEL             ....   40
 Basis Dimension        Dim             ....  110

MULLIKEN ATOMIC CHARGES
-----------------------
   0 C :    0.005881
   1 C :    0.115876
   2 O :   -0.278863
   3 C :   -0.058179
   4 C :   -0.029640
   5 H :    0.028794
   6 H :    0.006586
   7 H :    0.024516
   8 H :   -0.003186
   9 H :    0.149209
  10 H :   -0.006771
  11 H :    0.022334
  12 H :    0.023444
Sum of atomic charges:   -0.0000000

LOEWDIN ATOMIC CHARGES
----------------------
   0 C :   -0.074613
   1 C :    0.040387
   2 O :   -0.109203
   3 C :   -0.044629
   4 C :   -0.054576
   5 H :    0.029944
   6 H :    0.021183
   7 H :    0.032919
   8 H :    0.025289
   9 H :    0.063536
  10 H :    0.021052
  11 H :    0.023768
  12 H :    0.024942

  Mayer bond orders larger than 0.1
B(  0-C ,  1-C ) :   1.0714 B(  0-C ,  5-H ) :   0.9532 B(  0-C ,  6-H ) :   0.9552
B(  0-C ,  7-H ) :   0.9512 B(  1-C ,  2-O ) :   0.9991 B(  1-C ,  3-C ) :   1.0128
B(  1-C ,  8-H ) :   0.9112 B(  2-O ,  9-H ) :   0.9851 B(  3-C ,  4-C ) :   2.0153
B(  3-C , 10-H ) :   0.9425 B(  4-C , 11-H ) :   0.9463 B(  4-C , 12-H ) :   0.9414

FINAL SINGLE POINT ENERGY      -231.957049804835

DIPOLE MOMENT
-------------
                                X             Y             Z
Electronic contribution:      2.46270       1.44600      -0.41565
Nuclear contribution   :     -2.89681      -1.44490       0.79172
                        -----------------------------------------
Total Dipole Moment    :     -0.43411       0.00110       0.37606
                        -----------------------------------------
Magnitude (a.u.)       :      0.57435
Magnitude (Debye)      :      1.45987

                             ****ORCA TERMINATED NORMALLY****
TOTAL RUN TIME: 0 days 0 hours 0 minutes 5 seconds 115 msec
