                         Program Version 3.0.3 - RELEASE   -
|  1> ! RI PBE def2-SVP def2-SVP/J NBO PAL2
|  2> % maxcore 2000
|  3> % output
|  4>     # printlevel mini
|  5>     print[ P_Basis ] 0
|  6>     print[ P_SCFInfo ] 1
|  7>     print[ P_SCFIterInfo ] 1
|  8>     print[ P_OrbEn ] 0
|  9>     print[ P_Cartesian ] 0
| 10> end
| 11> *xyz 0 1
| 12>  C        0.8914870000    -0.0644990000     0.0562800000
| 13>  C        2.4128110000    -0.0335560000     0.0077510000
| 14>  O        2.9076890000    -0.3713580000    -1.2749860000
| 15>  C        2.9327010000     1.2575760000     0.4613730000
| 16>  C        3.3390460000     2.3335530000     0.8059240000
| 17>  H        0.5398140000    -1.0411570000    -0.2795250000
| 18>  H        0.4732660000     0.7057850000    -0.5960240000
| 19>  H        0.5313130000     0.1164990000     1.0708580000
| 20>  H        2.8053450000    -0.8113190000     0.6707850000
| 21>  H        2.7434900000     0.3728290000    -1.8619570000
| 22>  H        3.7097370000     3.2818490000     1.1166310000
| 23> *
| 24>
| 25>                          ****END OF INPUT****
 Total Charge           Charge          ....    0
 Multiplicity           Mult            ....    1
 Number of Electrons    NEL             ....   38
 Basis Dimension        Dim             ....  100

MULLIKEN ATOMIC CHARGES
-----------------------
   0 C :    0.019408
   1 C :    0.143873
   2 O :   -0.269101
   3 C :    0.331845
   4 C :   -0.487423
   5 H :    0.028686
   6 H :    0.018614
   7 H :    0.026565
   8 H :    0.028719
   9 H :    0.156111
  10 H :    0.002703
Sum of atomic charges:   -0.0000000

LOEWDIN ATOMIC CHARGES
----------------------
   0 C :   -0.063098
   1 C :    0.035079
   2 O :   -0.099934
   3 C :   -0.039019
   4 C :   -0.075747
   5 H :    0.031290
   6 H :    0.027107
   7 H :    0.034213
   8 H :    0.043669
   9 H :    0.070006
  10 H :    0.036434

  Mayer bond orders larger than 0.1
B(  0-C ,  1-C ) :   1.0747 B(  0-C ,  5-H ) :   0.9537 B(  0-C ,  6-H ) :   0.9574
B(  0-C ,  7-H ) :   0.9512 B(  1-C ,  2-O ) :   1.0333 B(  1-C ,  3-C ) :   0.9871
B(  1-C ,  8-H ) :   0.8758 B(  2-O ,  9-H ) :   0.9821 B(  3-C ,  4-C ) :   2.3612
B(  3-C , 10-H ) :  -0.1102 B(  4-C , 10-H ) :   1.1001

FINAL SINGLE POINT ENERGY      -230.712788082258

DIPOLE MOMENT
-------------
                                X             Y             Z
Electronic contribution:      3.35392       1.02475      -0.39589
Nuclear contribution   :     -3.70606      -0.65619       0.43958
                        -----------------------------------------
Total Dipole Moment    :     -0.35214       0.36857       0.04369
                        -----------------------------------------
Magnitude (a.u.)       :      0.51162
Magnitude (Debye)      :      1.30043

                             ****ORCA TERMINATED NORMALLY****
TOTAL RUN TIME: 0 days 0 hours 0 minutes 4 seconds 427 msec
