                         Program Version 3.0.3 - RELEASE   -
|  1> ! RI PBE def2-SVP def2-SVP/J NBO PAL2
|  2> % maxcore 2000
|  3> % output
|  4>     # printlevel mini
|  5>     print[ P_Basis ] 0
|  6>     print[ P_SCFInfo ] 1
|  7>     print[ P_SCFIterInfo ] 1
|  8>     print[ P_OrbEn ] 0
|  9>     print[ P_Cartesian ] 0
| 10> end
| 11> *xyz 0 1
| 12>  C        1.0737110000     0.8136430000     1.1604780000
| 13>  C        2.0400230000    -0.0456360000     0.3884540000
| 14>  O        1.3139320000    -0.7506510000    -0.6009370000
| 15>  C        2.0148430000    -1.5766390000    -1.3964590000
| 16>  C        3.3215830000    -1.8250540000    -1.3788880000
| 17>  H        1.6057740000     1.3717620000     1.9336730000
| 18>  H        0.3096050000     0.2007690000     1.6421440000
| 19>  H        0.5771310000     1.5273120000     0.5005080000
| 20>  H        2.5463050000    -0.7633250000     1.0466480000
| 21>  H        2.8139620000     0.5638350000    -0.0954670000
| 22>  H        1.3538850000    -2.0576220000    -2.1102310000
| 23>  H        4.0098560000    -1.3653090000    -0.6833700000
| 24>  H        3.7248890000    -2.5247760000    -2.0974440000
| 25> *
| 26>
| 27>                          ****END OF INPUT****
 Total Charge           Charge          ....    0
 Multiplicity           Mult            ....    1
 Number of Electrons    NEL             ....   40
 Basis Dimension        Dim             ....  110

MULLIKEN ATOMIC CHARGES
-----------------------
   0 C :   -0.017605
   1 C :    0.099091
   2 O :   -0.263161
   3 C :    0.105659
   4 C :   -0.121479
   5 H :    0.023665
   6 H :    0.034236
   7 H :    0.034342
   8 H :    0.022628
   9 H :    0.021434
  10 H :    0.012071
  11 H :    0.025733
  12 H :    0.023385
Sum of atomic charges:   -0.0000000

LOEWDIN ATOMIC CHARGES
----------------------
   0 C :   -0.071719
   1 C :    0.066294
   2 O :   -0.068980
   3 C :    0.030504
   4 C :   -0.160089
   5 H :    0.034419
   6 H :    0.032224
   7 H :    0.032269
   8 H :    0.014779
   9 H :    0.014440
  10 H :    0.023132
  11 H :    0.021437
  12 H :    0.031291

  Mayer bond orders larger than 0.1
B(  0-C ,  1-C ) :   1.1158 B(  0-C ,  5-H ) :   0.9554 B(  0-C ,  6-H ) :   0.9641
B(  0-C ,  7-H ) :   0.9632 B(  1-C ,  2-O ) :   0.9675 B(  1-C ,  8-H ) :   0.9364
B(  1-C ,  9-H ) :   0.9368 B(  2-O ,  3-C ) :   1.1683 B(  2-O ,  4-C ) :   0.1045
B(  3-C ,  4-C ) :   1.8606 B(  3-C , 10-H ) :   0.9644 B(  4-C , 11-H ) :   0.9529
B(  4-C , 12-H ) :   0.9367

FINAL SINGLE POINT ENERGY      -231.959363945854

DIPOLE MOMENT
-------------
                                X             Y             Z
Electronic contribution:     -1.23378      -1.77678      -2.35114
Nuclear contribution   :      1.35495       2.00191       2.64377
                        -----------------------------------------
Total Dipole Moment    :      0.12117       0.22513       0.29263
                        -----------------------------------------
Magnitude (a.u.)       :      0.38859
Magnitude (Debye)      :      0.98771

                             ****ORCA TERMINATED NORMALLY****
TOTAL RUN TIME: 0 days 0 hours 0 minutes 5 seconds 225 msec
