                         Program Version 3.0.3 - RELEASE   -
|  1> ! RI PBE def2-SVP def2-SVP/J NBO PAL2
|  2> % maxcore 2000
|  3> % output
|  4>     # printlevel mini
|  5>     print[ P_Basis ] 0
|  6>     print[ P_SCFInfo ] 1
|  7>     print[ P_SCFIterInfo ] 1
|  8>     print[ P_OrbEn ] 0
|  9>     print[ P_Cartesian ] 0
| 10> end
| 11> *xyz 0 1
| 12>  C        2.5578920000     1.0560560000    -0.0504230000
| 13>  O        2.0514560000    -0.2327700000    -0.2884280000
| 14>  C        2.7786000000    -1.2150860000     0.3645780000
| 15>  C        2.7643380000    -2.5662160000    -0.2448250000
| 16>  C        4.0264570000    -1.7433410000    -0.2737400000
| 17>  H        1.9313900000     1.7583570000    -0.6007210000
| 18>  H        3.5952730000     1.1506770000    -0.3956400000
| 19>  H        2.5224500000     1.3104200000     1.0175070000
| 20>  H        2.7596880000    -1.1394070000     1.4517650000
| 21>  H        2.2211360000    -2.6650470000    -1.1759940000
| 22>  H        2.7146990000    -3.4271250000     0.4096020000
| 23>  H        4.3039950000    -1.3107870000    -1.2271510000
| 24>  H        4.8566260000    -2.0343200000     0.3579810000
| 25> *
| 26>
| 27>                          ****END OF INPUT****
 Total Charge           Charge          ....    0
 Multiplicity           Mult            ....    1
 Number of Electrons    NEL             ....   40
 Basis Dimension        Dim             ....  110

MULLIKEN ATOMIC CHARGES
-----------------------
   0 C :    0.163166
   1 O :   -0.308312
   2 C :    0.033194
   3 C :   -0.028744
   4 C :   -0.062781
   5 H :    0.030890
   6 H :    0.002633
   7 H :    0.002763
   8 H :    0.012784
   9 H :    0.044095
  10 H :    0.035698
  11 H :    0.038628
  12 H :    0.035986
Sum of atomic charges:   -0.0000000

LOEWDIN ATOMIC CHARGES
----------------------
   0 C :    0.053556
   1 O :   -0.129562
   2 C :    0.030921
   3 C :   -0.049540
   4 C :   -0.065946
   5 H :    0.022317
   6 H :    0.005147
   7 H :    0.005813
   8 H :    0.008300
   9 H :    0.033824
  10 H :    0.028656
  11 H :    0.030468
  12 H :    0.026045

  Mayer bond orders larger than 0.1
B(  0-C ,  1-O ) :   1.0090 B(  0-C ,  5-H ) :   0.9758 B(  0-C ,  6-H ) :   0.9552
B(  0-C ,  7-H ) :   0.9567 B(  1-O ,  2-C ) :   1.0849 B(  2-C ,  3-C ) :   0.9997
B(  2-C ,  4-C ) :   0.9967 B(  2-C ,  8-H ) :   0.9309 B(  3-C ,  4-C ) :   1.0309
B(  3-C ,  9-H ) :   0.9473 B(  3-C , 10-H ) :   0.9434 B(  4-C , 11-H ) :   0.9423
B(  4-C , 12-H ) :   0.9449

FINAL SINGLE POINT ENERGY      -231.940928307126

DIPOLE MOMENT
-------------
                                X             Y             Z
Electronic contribution:     -1.81927      -0.54367      -0.38090
Nuclear contribution   :      2.16336       0.68665       0.59756
                        -----------------------------------------
Total Dipole Moment    :      0.34409       0.14298       0.21665
                        -----------------------------------------
Magnitude (a.u.)       :      0.43102
Magnitude (Debye)      :      1.09558

                             ****ORCA TERMINATED NORMALLY****
TOTAL RUN TIME: 0 days 0 hours 0 minutes 4 seconds 511 msec
