                         Program Version 3.0.3 - RELEASE   -
|  1> ! RI PBE def2-SVP def2-SVP/J NBO PAL2
|  2> % maxcore 2000
|  3> % output
|  4>     # printlevel mini
|  5>     print[ P_Basis ] 0
|  6>     print[ P_SCFInfo ] 1
|  7>     print[ P_SCFIterInfo ] 1
|  8>     print[ P_OrbEn ] 0
|  9>     print[ P_Cartesian ] 0
| 10> end
| 11> *xyz 0 1
| 12>  C        1.1064490000    -0.0176030000     0.6294110000
| 13>  O        2.4900340000     0.0765770000     0.3901300000
| 14>  C        3.1036230000    -1.0990860000     0.1135340000
| 15>  C        4.4041390000    -1.1875340000    -0.1348410000
| 16>  C        5.0959120000    -2.4711440000    -0.4410350000
| 17>  H        0.7498370000     0.9907820000     0.8351880000
| 18>  H        0.8920950000    -0.6545140000     1.4956190000
| 19>  H        0.5746290000    -0.4116600000    -0.2445520000
| 20>  H        2.4580250000    -1.9773590000     0.1070810000
| 21>  H        4.9939550000    -0.2751590000    -0.1134400000
| 22>  H        4.3981230000    -3.3118550000    -0.4327500000
| 23>  H        5.8851970000    -2.6861820000     0.2867840000
| 24>  H        5.5744810000    -2.4451750000    -1.4255300000
| 25> *
| 26>
| 27>                          ****END OF INPUT****
 Total Charge           Charge          ....    0
 Multiplicity           Mult            ....    1
 Number of Electrons    NEL             ....   40
 Basis Dimension        Dim             ....  110

MULLIKEN ATOMIC CHARGES
-----------------------
   0 C :    0.141374
   1 O :   -0.274697
   2 C :    0.107590
   3 C :   -0.127576
   4 C :    0.021012
   5 H :    0.036882
   6 H :    0.019429
   7 H :    0.021308
   8 H :   -0.022647
   9 H :    0.002567
  10 H :    0.013197
  11 H :    0.032265
  12 H :    0.029297
Sum of atomic charges:    0.0000000

LOEWDIN ATOMIC CHARGES
----------------------
   0 C :    0.057453
   1 O :   -0.086843
   2 C :    0.013297
   3 C :   -0.099265
   4 C :   -0.061941
   5 H :    0.027104
   6 H :    0.011951
   7 H :    0.012312
   8 H :    0.006446
   9 H :    0.027208
  10 H :    0.027951
  11 H :    0.032204
  12 H :    0.032122

  Mayer bond orders larger than 0.1
B(  0-C ,  1-O ) :   0.9868 B(  0-C ,  5-H ) :   0.9772 B(  0-C ,  6-H ) :   0.9618
B(  0-C ,  7-H ) :   0.9618 B(  1-O ,  2-C ) :   1.1192 B(  2-C ,  3-C ) :   1.8421
B(  2-C ,  8-H ) :   0.9412 B(  3-C ,  4-C ) :   1.0908 B(  3-C ,  9-H ) :   0.9581
B(  4-C , 10-H ) :   0.9613 B(  4-C , 11-H ) :   0.9505 B(  4-C , 12-H ) :   0.9491

FINAL SINGLE POINT ENERGY      -231.953946449141

DIPOLE MOMENT
-------------
                                X             Y             Z
Electronic contribution:     -0.46603       2.86772       0.48520
Nuclear contribution   :     -0.02730      -3.11764      -0.43095
                        -----------------------------------------
Total Dipole Moment    :     -0.49333      -0.24992       0.05425
                        -----------------------------------------
Magnitude (a.u.)       :      0.55568
Magnitude (Debye)      :      1.41242

                             ****ORCA TERMINATED NORMALLY****
TOTAL RUN TIME: 0 days 0 hours 0 minutes 4 seconds 984 msec
