                         Program Version 3.0.3 - RELEASE   -
|  1> ! RI PBE def2-SVP def2-SVP/J NBO PAL2
|  2> % maxcore 2000
|  3> % output
|  4>     # printlevel mini
|  5>     print[ P_Basis ] 0
|  6>     print[ P_SCFInfo ] 1
|  7>     print[ P_SCFIterInfo ] 1
|  8>     print[ P_OrbEn ] 0
|  9>     print[ P_Cartesian ] 0
| 10> end
| 11> *xyz 0 1
| 12>  C        2.7078500000    -1.0480210000    -0.4983940000
| 13>  O        2.5936490000     0.0828320000     0.3183200000
| 14>  C        3.0601950000     1.2831370000    -0.2697540000
| 15>  C        2.5201430000     2.4159760000     0.5749300000
| 16>  C        4.5765530000     1.3219200000    -0.3649480000
| 17>  H        2.2053270000    -1.8692280000     0.0141080000
| 18>  H        3.7509750000    -1.3390480000    -0.6758390000
| 19>  H        2.2220080000    -0.8912890000    -1.4723550000
| 20>  H        2.6380310000     1.3588570000    -1.2858350000
| 21>  H        2.9125970000     2.3456510000     1.5924760000
| 22>  H        1.4310460000     2.3714090000     0.6243140000
| 23>  H        2.8129100000     3.3818510000     0.1579980000
| 24>  H        5.0171480000     1.2316140000     0.6313060000
| 25>  H        4.9051930000     2.2672250000    -0.8031470000
| 26>  H        4.9683760000     0.5165250000    -0.9891710000
| 27> *
| 28>
| 29>                          ****END OF INPUT****
 Total Charge           Charge          ....    0
 Multiplicity           Mult            ....    1
 Number of Electrons    NEL             ....   42
 Basis Dimension        Dim             ....  120

MULLIKEN ATOMIC CHARGES
-----------------------
   0 C :    0.154960
   1 O :   -0.342167
   2 C :    0.034686
   3 C :    0.016965
   4 C :    0.002075
   5 H :    0.028785
   6 H :    0.001448
   7 H :   -0.002541
   8 H :   -0.013866
   9 H :    0.021345
  10 H :    0.028821
  11 H :    0.012326
  12 H :    0.021115
  13 H :    0.015053
  14 H :    0.020996
Sum of atomic charges:   -0.0000000

LOEWDIN ATOMIC CHARGES
----------------------
   0 C :    0.048650
   1 O :   -0.148932
   2 C :    0.043094
   3 C :   -0.066564
   4 C :   -0.075294
   5 H :    0.022899
   6 H :    0.001039
   7 H :    0.003632
   8 H :    0.003352
   9 H :    0.028706
  10 H :    0.029489
  11 H :    0.027985
  12 H :    0.028079
  13 H :    0.029777
  14 H :    0.024088

  Mayer bond orders larger than 0.1
B(  0-C ,  1-O ) :   1.0279 B(  0-C ,  5-H ) :   0.9753 B(  0-C ,  6-H ) :   0.9540
B(  0-C ,  7-H ) :   0.9516 B(  1-O ,  2-C ) :   1.0102 B(  2-C ,  3-C ) :   1.0841
B(  2-C ,  4-C ) :   1.0791 B(  2-C ,  8-H ) :   0.9120 B(  3-C ,  9-H ) :   0.9579
B(  3-C , 10-H ) :   0.9582 B(  3-C , 11-H ) :   0.9566 B(  4-C , 12-H ) :   0.9549
B(  4-C , 13-H ) :   0.9534 B(  4-C , 14-H ) :   0.9544

FINAL SINGLE POINT ENERGY      -233.171743420271

DIPOLE MOMENT
-------------
                                X             Y             Z
Electronic contribution:     -1.64262      -1.35745       1.18951
Nuclear contribution   :      1.82211       1.38006      -1.57887
                        -----------------------------------------
Total Dipole Moment    :      0.17950       0.02261      -0.38936
                        -----------------------------------------
Magnitude (a.u.)       :      0.42934
Magnitude (Debye)      :      1.09129

                             ****ORCA TERMINATED NORMALLY****
TOTAL RUN TIME: 0 days 0 hours 0 minutes 5 seconds 696 msec
