                         Program Version 3.0.3 - RELEASE   -
|  1> ! RI PBE def2-SVP def2-SVP/J NBO PAL2
|  2> % maxcore 2000
|  3> % output
|  4>     # printlevel mini
|  5>     print[ P_Basis ] 0
|  6>     print[ P_SCFInfo ] 1
|  7>     print[ P_SCFIterInfo ] 1
|  8>     print[ P_OrbEn ] 0
|  9>     print[ P_Cartesian ] 0
| 10> end
| 11> *xyz 0 1
| 12>  C        2.8618170000     1.0412190000     0.4566630000
| 13>  O        2.2765050000     0.2056190000    -0.5108710000
| 14>  C        3.0944610000    -0.6410610000    -1.1776220000
| 15>  C        2.3135170000    -1.4464090000    -2.1582710000
| 16>  C        4.4111290000    -0.7478020000    -0.9920020000
| 17>  H        2.0551000000     1.6396020000     0.8771310000
| 18>  H        3.6116250000     1.7022460000     0.0082590000
| 19>  H        3.3351960000     0.4554380000     1.2522800000
| 20>  H        1.5379080000    -2.0201260000    -1.6440210000
| 21>  H        2.9605830000    -2.1326460000    -2.7021970000
| 22>  H        1.8109410000    -0.7888870000    -2.8725920000
| 23>  H        4.9595180000    -0.1539120000    -0.2749700000
| 24>  H        4.9701090000    -1.4601910000    -1.5817180000
| 25> *
| 26>
| 27>                          ****END OF INPUT****
 Total Charge           Charge          ....    0
 Multiplicity           Mult            ....    1
 Number of Electrons    NEL             ....   40
 Basis Dimension        Dim             ....  110

MULLIKEN ATOMIC CHARGES
-----------------------
   0 C :    0.138032
   1 O :   -0.275967
   2 C :   -0.015075
   3 C :    0.071554
   4 C :   -0.110278
   5 H :    0.033769
   6 H :    0.026848
   7 H :    0.027517
   8 H :    0.033902
   9 H :    0.017403
  10 H :    0.034813
  11 H :    0.008807
  12 H :    0.008675
Sum of atomic charges:   -0.0000000

LOEWDIN ATOMIC CHARGES
----------------------
   0 C :    0.060975
   1 O :   -0.073439
   2 C :    0.022698
   3 C :   -0.060710
   4 C :   -0.164781
   5 H :    0.025750
   6 H :    0.015147
   7 H :    0.015346
   8 H :    0.038728
   9 H :    0.035768
  10 H :    0.039145
  11 H :    0.019071
  12 H :    0.026301

  Mayer bond orders larger than 0.1
B(  0-C ,  1-O ) :   0.9880 B(  0-C ,  5-H ) :   0.9728 B(  0-C ,  6-H ) :   0.9592
B(  0-C ,  7-H ) :   0.9596 B(  1-O ,  2-C ) :   1.1437 B(  2-C ,  3-C ) :   1.0840
B(  2-C ,  4-C ) :   1.8489 B(  3-C ,  8-H ) :   0.9440 B(  3-C ,  9-H ) :   0.9530
B(  3-C , 10-H ) :   0.9428 B(  4-C , 11-H ) :   0.9420 B(  4-C , 12-H ) :   0.9210

FINAL SINGLE POINT ENERGY      -231.961870490977

DIPOLE MOMENT
-------------
                                X             Y             Z
Electronic contribution:     -1.36059       0.55225       0.25389
Nuclear contribution   :      1.37734      -0.39067      -0.08537
                        -----------------------------------------
Total Dipole Moment    :      0.01675       0.16158       0.16852
                        -----------------------------------------
Magnitude (a.u.)       :      0.23407
Magnitude (Debye)      :      0.59495

                             ****ORCA TERMINATED NORMALLY****
TOTAL RUN TIME: 0 days 0 hours 0 minutes 4 seconds 924 msec
