                         Program Version 3.0.3 - RELEASE   -
|  1> ! RI PBE def2-SVP def2-SVP/J NBO PAL2
|  2> % maxcore 2000
|  3> % output
|  4>     # printlevel mini
|  5>     print[ P_Basis ] 0
|  6>     print[ P_SCFInfo ] 1
|  7>     print[ P_SCFIterInfo ] 1
|  8>     print[ P_OrbEn ] 0
|  9>     print[ P_Cartesian ] 0
| 10> end
| 11> *xyz 0 1
| 12>  C        1.6685980000     0.6254550000     0.0444010000
| 13>  O        2.9305310000     0.0828320000     0.3146900000
| 14>  C        3.0780950000    -1.2122730000    -0.2130130000
| 15>  C        4.4665800000    -1.6893790000     0.0338750000
| 16>  C        4.7677790000    -2.8633700000     0.5671430000
| 17>  H        1.6407350000     1.6256930000     0.4770720000
| 18>  H        0.8644540000     0.0232060000     0.4905000000
| 19>  H        1.4839760000     0.6994560000    -1.0369950000
| 20>  H        2.8803650000    -1.1912890000    -1.2989080000
| 21>  H        2.3489550000    -1.9034300000     0.2367220000
| 22>  H        5.2555440000    -1.0071770000    -0.2732730000
| 23>  H        3.9946510000    -3.5532280000     0.8916490000
| 24>  H        5.7956470000    -3.1814960000     0.6962260000
| 25> *
| 26>
| 27>                          ****END OF INPUT****
 Total Charge           Charge          ....    0
 Multiplicity           Mult            ....    1
 Number of Electrons    NEL             ....   40
 Basis Dimension        Dim             ....  110

MULLIKEN ATOMIC CHARGES
-----------------------
   0 C :    0.151615
   1 O :   -0.351293
   2 C :    0.224342
   3 C :   -0.079987
   4 C :   -0.034220
   5 H :    0.030515
   6 H :    0.001816
   7 H :    0.001766
   8 H :    0.004943
   9 H :   -0.014058
  10 H :    0.015093
  11 H :    0.021571
  12 H :    0.027895
Sum of atomic charges:   -0.0000000

LOEWDIN ATOMIC CHARGES
----------------------
   0 C :    0.049554
   1 O :   -0.150941
   2 C :    0.058445
   3 C :   -0.034907
   4 C :   -0.052603
   5 H :    0.023347
   6 H :    0.004230
   7 H :    0.003878
   8 H :    0.012595
   9 H :    0.007040
  10 H :    0.030396
  11 H :    0.022736
  12 H :    0.026230

  Mayer bond orders larger than 0.1
B(  0-C ,  1-O ) :   1.0250 B(  0-C ,  5-H ) :   0.9756 B(  0-C ,  6-H ) :   0.9550
B(  0-C ,  7-H ) :   0.9537 B(  1-O ,  2-C ) :   1.0015 B(  2-C ,  3-C ) :   1.0509
B(  2-C ,  8-H ) :   0.9071 B(  2-C ,  9-H ) :   0.9199 B(  3-C ,  4-C ) :   2.0170
B(  3-C , 10-H ) :   0.9572 B(  4-C , 11-H ) :   0.9446 B(  4-C , 12-H ) :   0.9484

FINAL SINGLE POINT ENERGY      -231.941143990823

DIPOLE MOMENT
-------------
                                X             Y             Z
Electronic contribution:      1.80726       0.62951       0.66347
Nuclear contribution   :     -2.14649      -0.77003      -0.90964
                        -----------------------------------------
Total Dipole Moment    :     -0.33922      -0.14053      -0.24617
                        -----------------------------------------
Magnitude (a.u.)       :      0.44206
Magnitude (Debye)      :      1.12364

                             ****ORCA TERMINATED NORMALLY****
TOTAL RUN TIME: 0 days 0 hours 0 minutes 5 seconds 16 msec
