                         Program Version 3.0.3 - RELEASE   -
|  1> ! RI PBE def2-SVP def2-SVP/J NBO PAL2
|  2> % maxcore 2000
|  3> % output
|  4>     # printlevel mini
|  5>     print[ P_Basis ] 0
|  6>     print[ P_SCFInfo ] 1
|  7>     print[ P_SCFIterInfo ] 1
|  8>     print[ P_OrbEn ] 0
|  9>     print[ P_Cartesian ] 0
| 10> end
| 11> *xyz 0 1
| 12>  C        1.1061090000     0.0637410000    -0.0121860000
| 13>  O        2.5083410000     0.0400330000    -0.0234660000
| 14>  C        2.9998110000    -1.1682560000    -0.5439480000
| 15>  C        4.4525620000    -1.1669550000    -0.5439190000
| 16>  C        5.6512500000    -1.1919200000    -0.5551020000
| 17>  H        0.8015940000     1.0246340000     0.4013760000
| 18>  H        0.6932210000    -0.7410250000     0.6122110000
| 19>  H        0.6919430000    -0.0366380000    -1.0252940000
| 20>  H        2.6373200000    -1.3208670000    -1.5729790000
| 21>  H        2.6379220000    -2.0208220000     0.0525080000
| 22>  H        6.7154490000    -1.2068660000    -0.5619200000
| 23> *
| 24>
| 25>                          ****END OF INPUT****
 Total Charge           Charge          ....    0
 Multiplicity           Mult            ....    1
 Number of Electrons    NEL             ....   38
 Basis Dimension        Dim             ....  100

MULLIKEN ATOMIC CHARGES
-----------------------
   0 C :    0.150067
   1 O :   -0.338693
   2 C :    0.231487
   3 C :    0.303244
   4 C :   -0.435675
   5 H :    0.037646
   6 H :    0.006270
   7 H :    0.004652
   8 H :    0.017519
   9 H :    0.018873
  10 H :    0.004611
Sum of atomic charges:   -0.0000000

LOEWDIN ATOMIC CHARGES
----------------------
   0 C :    0.051196
   1 O :   -0.142370
   2 C :    0.053669
   3 C :   -0.027710
   4 C :   -0.062031
   5 H :    0.026533
   6 H :    0.006013
   7 H :    0.005715
   8 H :    0.026368
   9 H :    0.026689
  10 H :    0.035927

  Mayer bond orders larger than 0.1
B(  0-C ,  1-O ) :   1.0137 B(  0-C ,  5-H ) :   0.9771 B(  0-C ,  6-H ) :   0.9552
B(  0-C ,  7-H ) :   0.9546 B(  1-O ,  2-C ) :   1.0527 B(  2-C ,  3-C ) :   1.0245
B(  2-C ,  8-H ) :   0.9003 B(  2-C ,  9-H ) :   0.9004 B(  3-C ,  4-C ) :   2.4120
B(  3-C , 10-H ) :  -0.1004 B(  4-C , 10-H ) :   1.0916

FINAL SINGLE POINT ENERGY      -230.694162720963

DIPOLE MOMENT
-------------
                                X             Y             Z
Electronic contribution:      4.34074       0.06572       0.02629
Nuclear contribution   :     -4.78698      -0.38788      -0.16400
                        -----------------------------------------
Total Dipole Moment    :     -0.44624      -0.32216      -0.13771
                        -----------------------------------------
Magnitude (a.u.)       :      0.56735
Magnitude (Debye)      :      1.44208

                             ****ORCA TERMINATED NORMALLY****
TOTAL RUN TIME: 0 days 0 hours 0 minutes 4 seconds 604 msec
