                         Program Version 3.0.3 - RELEASE   -
|  1> ! RI PBE def2-SVP def2-SVP/J NBO PAL2
|  2> % maxcore 2000
|  3> % output
|  4>     # printlevel mini
|  5>     print[ P_Basis ] 0
|  6>     print[ P_SCFInfo ] 1
|  7>     print[ P_SCFIterInfo ] 1
|  8>     print[ P_OrbEn ] 0
|  9>     print[ P_Cartesian ] 0
| 10> end
| 11> *xyz 0 1
| 12>  O        1.0584460000    -0.0013700000     0.0569080000
| 13>  C        2.4593080000     0.0605270000     0.0841090000
| 14>  C        3.1588810000     1.1293610000     0.9453720000
| 15>  C        4.1728210000     0.0419990000     1.3527930000
| 16>  C        3.1311870000    -1.0156800000     0.9359920000
| 17>  H        0.7290320000     0.6780290000    -0.5367340000
| 18>  H        2.8727480000     0.0583540000    -0.9337520000
| 19>  H        2.5137200000     1.3999080000     1.7845470000
| 20>  H        3.5254160000     2.0362950000     0.4607730000
| 21>  H        4.5166910000     0.0331100000     2.3868340000
| 22>  H        5.0444590000     0.0334830000     0.6953780000
| 23>  H        2.4764940000    -1.2740620000     1.7714560000
| 24>  H        3.4679970000    -1.9298420000     0.4458250000
| 25> *
| 26>
| 27>                          ****END OF INPUT****
 Total Charge           Charge          ....    0
 Multiplicity           Mult            ....    1
 Number of Electrons    NEL             ....   40
 Basis Dimension        Dim             ....  110

MULLIKEN ATOMIC CHARGES
-----------------------
   0 O :   -0.237366
   1 C :   -0.005542
   2 C :    0.032958
   3 C :   -0.053670
   4 C :    0.033149
   5 H :    0.154108
   6 H :   -0.003835
   7 H :    0.006352
   8 H :    0.008001
   9 H :    0.015382
  10 H :    0.019626
  11 H :    0.017034
  12 H :    0.013803
Sum of atomic charges:   -0.0000000

LOEWDIN ATOMIC CHARGES
----------------------
   0 O :   -0.111185
   1 C :    0.039957
   2 C :   -0.056622
   3 C :   -0.034543
   4 C :   -0.039719
   5 H :    0.070486
   6 H :    0.005886
   7 H :    0.025361
   8 H :    0.012112
   9 H :    0.018620
  10 H :    0.023631
  11 H :    0.029686
  12 H :    0.016330

  Mayer bond orders larger than 0.1
B(  0-O ,  1-C ) :   1.1546 B(  0-O ,  5-H ) :   0.9805 B(  1-C ,  2-C ) :   1.0569
B(  1-C ,  4-C ) :   1.0729 B(  1-C ,  6-H ) :   0.9218 B(  2-C ,  3-C ) :   1.1146
B(  2-C ,  7-H ) :   0.9050 B(  2-C ,  8-H ) :   0.9357 B(  3-C ,  4-C ) :   1.1005
B(  3-C ,  9-H ) :   0.9347 B(  3-C , 10-H ) :   0.9402 B(  4-C , 11-H ) :   0.9147
B(  4-C , 12-H ) :   0.9350

FINAL SINGLE POINT ENERGY      -231.959886574115

DIPOLE MOMENT
-------------
                                X             Y             Z
Electronic contribution:     -2.82491      -0.20825      -1.13868
Nuclear contribution   :      3.01085       0.59387       0.80946
                        -----------------------------------------
Total Dipole Moment    :      0.18594       0.38562      -0.32922
                        -----------------------------------------
Magnitude (a.u.)       :      0.54005
Magnitude (Debye)      :      1.37270

                             ****ORCA TERMINATED NORMALLY****
TOTAL RUN TIME: 0 days 0 hours 0 minutes 4 seconds 715 msec
