                         Program Version 3.0.3 - RELEASE   -
|  1> ! RI PBE def2-SVP def2-SVP/J NBO PAL2
|  2> % maxcore 2000
|  3> % output
|  4>     # printlevel mini
|  5>     print[ P_Basis ] 0
|  6>     print[ P_SCFInfo ] 1
|  7>     print[ P_SCFIterInfo ] 1
|  8>     print[ P_OrbEn ] 0
|  9>     print[ P_Cartesian ] 0
| 10> end
| 11> *xyz 0 1
| 12>  O        1.2502380000    -0.0014210000     0.7323520000
| 13>  C        2.3735180000    -0.0010130000     0.3321220000
| 14>  C        3.3670530000     1.1019440000    -0.0219800000
| 15>  C        4.3912650000    -0.0002810000    -0.3877690000
| 16>  C        3.3676970000    -1.1032490000    -0.0224200000
| 17>  H        3.6277540000     1.7408650000     0.8249850000
| 18>  H        3.0330450000     1.7417770000    -0.8420890000
| 19>  H        5.2876050000    -0.0001430000     0.2310000000
| 20>  H        4.6926810000     0.0000160000    -1.4344090000
| 21>  H        3.6287720000    -1.7423540000     0.8242910000
| 22>  H        3.0340630000    -1.7429520000    -0.8427830000
| 23> *
| 24>
| 25>                          ****END OF INPUT****
 Total Charge           Charge          ....    0
 Multiplicity           Mult            ....    1
 Number of Electrons    NEL             ....   38
 Basis Dimension        Dim             ....  100

MULLIKEN ATOMIC CHARGES
-----------------------
   0 O :   -0.127240
   1 C :   -0.059799
   2 C :   -0.017057
   3 C :   -0.021964
   4 C :   -0.017074
   5 H :    0.050170
   6 H :    0.049944
   7 H :    0.021963
   8 H :    0.020942
   9 H :    0.050168
  10 H :    0.049947
Sum of atomic charges:   -0.0000000

LOEWDIN ATOMIC CHARGES
----------------------
   0 O :   -0.098152
   1 C :    0.050235
   2 C :   -0.072010
   3 C :   -0.037261
   4 C :   -0.072012
   5 H :    0.043685
   6 H :    0.043639
   7 H :    0.027489
   8 H :    0.027063
   9 H :    0.043684
  10 H :    0.043640

  Mayer bond orders larger than 0.1
B(  0-O ,  1-C ) :   2.2286 B(  1-C ,  2-C ) :   1.0040 B(  1-C ,  4-C ) :   1.0039
B(  2-C ,  3-C ) :   1.1558 B(  2-C ,  4-C ) :  -0.1308 B(  2-C ,  5-H ) :   0.9102
B(  2-C ,  6-H ) :   0.9105 B(  3-C ,  4-C ) :   1.1558 B(  3-C ,  7-H ) :   0.9135
B(  3-C ,  8-H ) :   0.9144 B(  4-C ,  9-H ) :   0.9102 B(  4-C , 10-H ) :   0.9105

FINAL SINGLE POINT ENERGY      -230.772412279804

DIPOLE MOMENT
-------------
                                X             Y             Z
Electronic contribution:     -4.39302      -0.00159       1.56594
Nuclear contribution   :      5.32353       0.00193      -1.89771
                        -----------------------------------------
Total Dipole Moment    :      0.93051       0.00034      -0.33177
                        -----------------------------------------
Magnitude (a.u.)       :      0.98789
Magnitude (Debye)      :      2.51101

                             ****ORCA TERMINATED NORMALLY****
TOTAL RUN TIME: 0 days 0 hours 0 minutes 4 seconds 518 msec
