                         Program Version 3.0.3 - RELEASE   -
|  1> ! RI PBE def2-SVP def2-SVP/J NBO PAL2
|  2> % maxcore 2000
|  3> % output
|  4>     # printlevel mini
|  5>     print[ P_Basis ] 0
|  6>     print[ P_SCFInfo ] 1
|  7>     print[ P_SCFIterInfo ] 1
|  8>     print[ P_OrbEn ] 0
|  9>     print[ P_Cartesian ] 0
| 10> end
| 11> *xyz 0 1
| 12>  O        2.2769880000     0.7196630000    -1.0300770000
| 13>  C        2.4841520000    -0.1136580000     0.0951440000
| 14>  C        3.1695890000    -1.3644780000    -0.3475960000
| 15>  C        2.9726660000    -2.6223510000     0.4417080000
| 16>  C        2.3619880000    -2.4860580000    -0.9193390000
| 17>  H        1.9118160000     1.5540680000    -0.7274080000
| 18>  H        1.5275590000    -0.3778060000     0.5709730000
| 19>  H        3.0982540000     0.3995470000     0.8490660000
| 20>  H        4.1533620000    -1.2067510000    -0.7773310000
| 21>  H        2.3114930000    -2.5819630000     1.2996630000
| 22>  H        3.8194840000    -3.2857030000     0.5634210000
| 23>  H        1.2897440000    -2.3439470000    -0.9830530000
| 24>  H        2.7873160000    -3.0593820000    -1.7331520000
| 25> *
| 26>
| 27>                          ****END OF INPUT****
 Total Charge           Charge          ....    0
 Multiplicity           Mult            ....    1
 Number of Electrons    NEL             ....   40
 Basis Dimension        Dim             ....  110

MULLIKEN ATOMIC CHARGES
-----------------------
   0 O :   -0.279704
   1 C :    0.223290
   2 C :   -0.153906
   3 C :   -0.053079
   4 C :   -0.026136
   5 H :    0.152255
   6 H :   -0.025065
   7 H :    0.000336
   8 H :    0.024644
   9 H :    0.031554
  10 H :    0.036152
  11 H :    0.036119
  12 H :    0.033539
Sum of atomic charges:   -0.0000000

LOEWDIN ATOMIC CHARGES
----------------------
   0 O :   -0.131736
   1 C :    0.060146
   2 C :   -0.051685
   3 C :   -0.046644
   4 C :   -0.041884
   5 H :    0.068270
   6 H :    0.001743
   7 H :    0.006253
   8 H :    0.028112
   9 H :    0.024118
  10 H :    0.027853
  11 H :    0.027469
  12 H :    0.027985

  Mayer bond orders larger than 0.1
B(  0-O ,  1-C ) :   1.0964 B(  0-O ,  5-H ) :   0.9797 B(  1-C ,  2-C ) :   1.0907
B(  1-C ,  6-H ) :   0.9109 B(  1-C ,  7-H ) :   0.9282 B(  2-C ,  3-C ) :   0.9824
B(  2-C ,  4-C ) :   0.9942 B(  2-C ,  8-H ) :   0.9416 B(  3-C ,  4-C ) :   1.0469
B(  3-C ,  9-H ) :   0.9486 B(  3-C , 10-H ) :   0.9462 B(  4-C , 11-H ) :   0.9484
B(  4-C , 12-H ) :   0.9486

FINAL SINGLE POINT ENERGY      -231.950253644796

DIPOLE MOMENT
-------------
                                X             Y             Z
Electronic contribution:      0.01071       2.23639      -1.35965
Nuclear contribution   :     -0.12037      -2.02136       1.83681
                        -----------------------------------------
Total Dipole Moment    :     -0.10966       0.21503       0.47716
                        -----------------------------------------
Magnitude (a.u.)       :      0.53474
Magnitude (Debye)      :      1.35920

                             ****ORCA TERMINATED NORMALLY****
TOTAL RUN TIME: 0 days 0 hours 0 minutes 4 seconds 810 msec
