                         Program Version 3.0.3 - RELEASE   -
|  1> ! RI PBE def2-SVP def2-SVP/J NBO PAL2
|  2> % maxcore 2000
|  3> % output
|  4>     # printlevel mini
|  5>     print[ P_Basis ] 0
|  6>     print[ P_SCFInfo ] 1
|  7>     print[ P_SCFIterInfo ] 1
|  8>     print[ P_OrbEn ] 0
|  9>     print[ P_Cartesian ] 0
| 10> end
| 11> *xyz 0 1
| 12>  O        1.1780220000    -0.6864440000     0.0248150000
| 13>  C        2.2146830000    -0.0794280000     0.0487010000
| 14>  C        2.9424950000     0.3107300000     1.2634600000
| 15>  C        4.4526290000     0.3405730000     1.1871850000
| 16>  C        3.7046970000     1.6161780000     1.2248080000
| 17>  H        2.7104090000     0.2394960000    -0.8991270000
| 18>  H        2.4809190000     0.0124600000     2.1963720000
| 19>  H        4.9064760000     0.0412220000     0.2497560000
| 20>  H        4.9845180000     0.0177310000     2.0722800000
| 21>  H        3.6419960000     2.1994790000     0.3136310000
| 22>  H        3.7061670000     2.1991130000     2.1363200000
| 23> *
| 24>
| 25>                          ****END OF INPUT****
 Total Charge           Charge          ....    0
 Multiplicity           Mult            ....    1
 Number of Electrons    NEL             ....   38
 Basis Dimension        Dim             ....  100

MULLIKEN ATOMIC CHARGES
-----------------------
   0 O :   -0.164385
   1 C :    0.163784
   2 C :   -0.144567
   3 C :   -0.022759
   4 C :   -0.031535
   5 H :   -0.033035
   6 H :    0.029694
   7 H :    0.047193
   8 H :    0.053248
   9 H :    0.048012
  10 H :    0.054351
Sum of atomic charges:    0.0000000

LOEWDIN ATOMIC CHARGES
----------------------
   0 O :   -0.116598
   1 C :    0.081026
   2 C :   -0.073324
   3 C :   -0.021829
   4 C :   -0.024083
   5 H :   -0.016213
   6 H :    0.035603
   7 H :    0.030389
   8 H :    0.037220
   9 H :    0.030558
  10 H :    0.037251

  Mayer bond orders larger than 0.1
B(  0-O ,  1-C ) :   2.1637 B(  1-C ,  2-C ) :   1.0287 B(  1-C ,  5-H ) :   0.9163
B(  2-C ,  3-C ) :   0.9222 B(  2-C ,  4-C ) :   0.9227 B(  2-C ,  6-H ) :   0.9462
B(  3-C ,  4-C ) :   1.0535 B(  3-C ,  7-H ) :   0.9527 B(  3-C ,  8-H ) :   0.9444
B(  4-C ,  9-H ) :   0.9513 B(  4-C , 10-H ) :   0.9441

FINAL SINGLE POINT ENERGY      -230.761803411504

DIPOLE MOMENT
-------------
                                X             Y             Z
Electronic contribution:     -3.87311      -2.23809      -1.22139
Nuclear contribution   :      4.84590       2.79410       1.56799
                        -----------------------------------------
Total Dipole Moment    :      0.97279       0.55601       0.34660
                        -----------------------------------------
Magnitude (a.u.)       :      1.17286
Magnitude (Debye)      :      2.98117

                             ****ORCA TERMINATED NORMALLY****
TOTAL RUN TIME: 0 days 0 hours 0 minutes 4 seconds 323 msec
