                         Program Version 3.0.3 - RELEASE   -
|  1> ! RI PBE def2-SVP def2-SVP/J NBO PAL2
|  2> % maxcore 2000
|  3> % output
|  4>     # printlevel mini
|  5>     print[ P_Basis ] 0
|  6>     print[ P_SCFInfo ] 1
|  7>     print[ P_SCFIterInfo ] 1
|  8>     print[ P_OrbEn ] 0
|  9>     print[ P_Cartesian ] 0
| 10> end
| 11> *xyz 0 1
| 12>  O        1.1180370000     0.3636140000     0.2770400000
| 13>  C        2.1565340000    -0.1672880000     0.0130680000
| 14>  C        2.9680390000     0.1628690000    -1.2275870000
| 15>  C        4.3967650000     0.0861860000    -0.9947810000
| 16>  C        5.5706430000     0.0159200000    -0.7575780000
| 17>  H        2.5887390000    -0.9587280000     0.6591220000
| 18>  H        2.6634720000     1.1471510000    -1.5912230000
| 19>  H        2.6776530000    -0.5685390000    -1.9944050000
| 20>  H        6.6150180000    -0.0411860000    -0.5595570000
| 21> *
| 22>
| 23>                          ****END OF INPUT****
 Total Charge           Charge          ....    0
 Multiplicity           Mult            ....    1
 Number of Electrons    NEL             ....   36
 Basis Dimension        Dim             ....   90

MULLIKEN ATOMIC CHARGES
-----------------------
   0 O :   -0.147182
   1 C :    0.075115
   2 C :    0.096532
   3 C :    0.278218
   4 C :   -0.449632
   5 H :    0.011555
   6 H :    0.054530
   7 H :    0.075257
   8 H :    0.005607
Sum of atomic charges:   -0.0000000

LOEWDIN ATOMIC CHARGES
----------------------
   0 O :   -0.089933
   1 C :    0.105932
   2 C :   -0.082071
   3 C :   -0.032037
   4 C :   -0.070352
   5 H :   -0.003355
   6 H :    0.060419
   7 H :    0.073657
   8 H :    0.037740

  Mayer bond orders larger than 0.1
B(  0-O ,  1-C ) :   2.1931 B(  1-C ,  2-C ) :   0.9285 B(  1-C ,  5-H ) :   0.9292
B(  2-C ,  3-C ) :   1.0292 B(  2-C ,  6-H ) :   0.8898 B(  2-C ,  7-H ) :   0.8843
B(  3-C ,  4-C ) :   2.3887 B(  3-C ,  8-H ) :  -0.1083 B(  4-C ,  8-H ) :   1.0999

FINAL SINGLE POINT ENERGY      -229.513374476047

DIPOLE MOMENT
-------------
                                X             Y             Z
Electronic contribution:     -1.28483       0.43925       0.98861
Nuclear contribution   :      1.82878      -0.75327      -1.34510
                        -----------------------------------------
Total Dipole Moment    :      0.54395      -0.31402      -0.35650
                        -----------------------------------------
Magnitude (a.u.)       :      0.72220
Magnitude (Debye)      :      1.83570

                             ****ORCA TERMINATED NORMALLY****
TOTAL RUN TIME: 0 days 0 hours 0 minutes 4 seconds 180 msec
