                         Program Version 3.0.3 - RELEASE   -
|  1> ! RI PBE def2-SVP def2-SVP/J NBO PAL2
|  2> % maxcore 2000
|  3> % output
|  4>     # printlevel mini
|  5>     print[ P_Basis ] 0
|  6>     print[ P_SCFInfo ] 1
|  7>     print[ P_SCFIterInfo ] 1
|  8>     print[ P_OrbEn ] 0
|  9>     print[ P_Cartesian ] 0
| 10> end
| 11> *xyz 0 1
| 12>  O        2.8825770000    -0.3275050000     1.3197500000
| 13>  C        2.3925230000     0.1584720000     0.0850500000
| 14>  C        2.9013210000    -0.7494040000    -1.0191410000
| 15>  C        4.3871750000    -0.7244620000    -1.1601160000
| 16>  C        5.0351940000    -0.4348390000    -2.2799230000
| 17>  H        2.6308410000     0.2845850000     2.0141750000
| 18>  H        2.7353020000     1.1862460000    -0.0967580000
| 19>  H        1.2938020000     0.1608990000     0.0754100000
| 20>  H        2.4290950000    -0.4587670000    -1.9624050000
| 21>  H        2.5691330000    -1.7687170000    -0.7873450000
| 22>  H        4.9495390000    -0.9591050000    -0.2599400000
| 23>  H        4.5051590000    -0.1949610000    -3.1972880000
| 24>  H        6.1182590000    -0.4308410000    -2.3245600000
| 25> *
| 26>
| 27>                          ****END OF INPUT****
 Total Charge           Charge          ....    0
 Multiplicity           Mult            ....    1
 Number of Electrons    NEL             ....   40
 Basis Dimension        Dim             ....  110

MULLIKEN ATOMIC CHARGES
-----------------------
   0 O :   -0.282902
   1 C :    0.125869
   2 C :    0.036920
   3 C :   -0.082372
   4 C :   -0.043300
   5 H :    0.156120
   6 H :    0.000941
   7 H :    0.006716
   8 H :    0.002261
   9 H :    0.029714
  10 H :    0.012307
  11 H :    0.012105
  12 H :    0.025621
Sum of atomic charges:   -0.0000000

LOEWDIN ATOMIC CHARGES
----------------------
   0 O :   -0.130310
   1 C :    0.059286
   2 C :   -0.053049
   3 C :   -0.025445
   4 C :   -0.071384
   5 H :    0.071853
   6 H :    0.004472
   7 H :    0.005173
   8 H :    0.031371
   9 H :    0.038320
  10 H :    0.027279
  11 H :    0.018712
  12 H :    0.023724

  Mayer bond orders larger than 0.1
B(  0-O ,  1-C ) :   1.0825 B(  0-O ,  5-H ) :   0.9810 B(  1-C ,  2-C ) :   1.0774
B(  1-C ,  6-H ) :   0.9322 B(  1-C ,  7-H ) :   0.9360 B(  2-C ,  3-C ) :   1.0694
B(  2-C ,  8-H ) :   0.9249 B(  2-C ,  9-H ) :   0.9108 B(  3-C ,  4-C ) :   2.0088
B(  3-C , 10-H ) :   0.9576 B(  4-C , 11-H ) :   0.9461 B(  4-C , 12-H ) :   0.9488

FINAL SINGLE POINT ENERGY      -231.953954090176

DIPOLE MOMENT
-------------
                                X             Y             Z
Electronic contribution:      0.10584      -0.45164       2.31467
Nuclear contribution   :     -0.51659       0.91746      -2.15038
                        -----------------------------------------
Total Dipole Moment    :     -0.41075       0.46582       0.16429
                        -----------------------------------------
Magnitude (a.u.)       :      0.64242
Magnitude (Debye)      :      1.63289

                             ****ORCA TERMINATED NORMALLY****
TOTAL RUN TIME: 0 days 0 hours 0 minutes 5 seconds 81 msec
