                         Program Version 3.0.3 - RELEASE   -
|  1> ! RI PBE def2-SVP def2-SVP/J NBO PAL2
|  2> % maxcore 2000
|  3> % output
|  4>     # printlevel mini
|  5>     print[ P_Basis ] 0
|  6>     print[ P_SCFInfo ] 1
|  7>     print[ P_SCFIterInfo ] 1
|  8>     print[ P_OrbEn ] 0
|  9>     print[ P_Cartesian ] 0
| 10> end
| 11> *xyz 0 1
| 12>  O        0.9107980000    -0.0361800000    -0.0068840000
| 13>  C        2.3188770000     0.0023260000    -0.0847460000
| 14>  C        2.8540080000    -0.6262840000     1.1917680000
| 15>  C        4.3050640000    -0.6444250000     1.2287760000
| 16>  C        5.5054200000    -0.6484980000     1.2366800000
| 17>  H        0.5474130000     0.3562500000    -0.8035000000
| 18>  H        2.6899170000     1.0318250000    -0.1667820000
| 19>  H        2.6901040000    -0.5601490000    -0.9508220000
| 20>  H        2.4649350000    -1.6460450000     1.2733830000
| 21>  H        2.4648300000    -0.0693650000     2.0498630000
| 22>  H        6.5694240000    -0.6566230000     1.2529630000
| 23> *
| 24>
| 25>                          ****END OF INPUT****
 Total Charge           Charge          ....    0
 Multiplicity           Mult            ....    1
 Number of Electrons    NEL             ....   38
 Basis Dimension        Dim             ....  100

MULLIKEN ATOMIC CHARGES
-----------------------
   0 O :   -0.272723
   1 C :    0.117698
   2 C :    0.062002
   3 C :    0.309297
   4 C :   -0.484265
   5 H :    0.157872
   6 H :    0.012429
   7 H :    0.012116
   8 H :    0.044435
   9 H :    0.044726
  10 H :   -0.003587
Sum of atomic charges:   -0.0000000

LOEWDIN ATOMIC CHARGES
----------------------
   0 O :   -0.127258
   1 C :    0.066726
   2 C :   -0.055290
   3 C :   -0.021519
   4 C :   -0.090282
   5 H :    0.073975
   6 H :    0.008765
   7 H :    0.008641
   8 H :    0.051438
   9 H :    0.051445
  10 H :    0.033360

  Mayer bond orders larger than 0.1
B(  0-O ,  1-C ) :   1.1046 B(  0-O ,  5-H ) :   0.9775 B(  1-C ,  2-C ) :   1.0675
B(  1-C ,  6-H ) :   0.9399 B(  1-C ,  7-H ) :   0.9405 B(  2-C ,  3-C ) :   1.0335
B(  2-C ,  8-H ) :   0.8976 B(  2-C ,  9-H ) :   0.8991 B(  3-C ,  4-C ) :   2.3646
B(  3-C , 10-H ) :  -0.1121 B(  4-C , 10-H ) :   1.1036

FINAL SINGLE POINT ENERGY      -230.711186454850

DIPOLE MOMENT
-------------
                                X             Y             Z
Electronic contribution:      0.62380      -0.32363       0.65780
Nuclear contribution   :     -0.71619       0.57666      -1.17089
                        -----------------------------------------
Total Dipole Moment    :     -0.09239       0.25303      -0.51309
                        -----------------------------------------
Magnitude (a.u.)       :      0.57950
Magnitude (Debye)      :      1.47297

                             ****ORCA TERMINATED NORMALLY****
TOTAL RUN TIME: 0 days 0 hours 0 minutes 4 seconds 502 msec
