                         Program Version 3.0.3 - RELEASE   -
|  1> ! RI PBE def2-SVP def2-SVP/J NBO PAL2
|  2> % maxcore 2000
|  3> % output
|  4>     # printlevel mini
|  5>     print[ P_Basis ] 0
|  6>     print[ P_SCFInfo ] 1
|  7>     print[ P_SCFIterInfo ] 1
|  8>     print[ P_OrbEn ] 0
|  9>     print[ P_Cartesian ] 0
| 10> end
| 11> *xyz 0 1
| 12>  C       -1.2655570000    -0.0043660000    -0.1264510000
| 13>  C       -0.3994090000    -1.2469040000     0.0625540000
| 14>  C        0.9552480000    -0.6131960000     0.0426760000
| 15>  N        0.9458400000     0.6449210000    -0.1088850000
| 16>  O       -0.3432890000     1.1033970000    -0.2179910000
| 17>  H       -1.9329720000     0.1845130000     0.7167660000
| 18>  H       -1.8526010000    -0.0283020000    -1.0468200000
| 19>  H       -0.5123850000    -1.9801800000    -0.7403080000
| 20>  H       -0.5863140000    -1.7662700000     1.0062050000
| 21>  H        1.9041500000    -1.1234120000     0.1440630000
| 22> *
| 23>
| 24>                          ****END OF INPUT****
 Total Charge           Charge          ....    0
 Multiplicity           Mult            ....    1
 Number of Electrons    NEL             ....   38
 Basis Dimension        Dim             ....   95

MULLIKEN ATOMIC CHARGES
-----------------------
   0 C :    0.193795
   1 C :   -0.071924
   2 C :   -0.060751
   3 N :    0.022297
   4 O :   -0.283164
   5 H :    0.034638
   6 H :    0.033455
   7 H :    0.051966
   8 H :    0.048591
   9 H :    0.031098
Sum of atomic charges:   -0.0000000

LOEWDIN ATOMIC CHARGES
----------------------
   0 C :    0.062634
   1 C :   -0.072758
   2 C :   -0.060803
   3 N :    0.011528
   4 O :   -0.099370
   5 H :    0.023596
   6 H :    0.023157
   7 H :    0.041767
   8 H :    0.041260
   9 H :    0.028989

  Mayer bond orders larger than 0.1
B(  0-C ,  1-C ) :   1.1086 B(  0-C ,  4-O ) :   0.9410 B(  0-C ,  5-H ) :   0.9486
B(  0-C ,  6-H ) :   0.9488 B(  1-C ,  2-C ) :   1.0106 B(  1-C ,  7-H ) :   0.9264
B(  1-C ,  8-H ) :   0.9254 B(  2-C ,  3-N ) :   1.9007 B(  2-C ,  4-O ) :   0.1215
B(  2-C ,  9-H ) :   0.9703 B(  3-N ,  4-O ) :   0.9995

FINAL SINGLE POINT ENERGY      -246.756209983873

DIPOLE MOMENT
-------------
                                X             Y             Z
Electronic contribution:      2.00996       3.18944      -0.29476
Nuclear contribution   :     -2.54572      -4.37196       0.41495
                        -----------------------------------------
Total Dipole Moment    :     -0.53576      -1.18251       0.12019
                        -----------------------------------------
Magnitude (a.u.)       :      1.30377
Magnitude (Debye)      :      3.31393

                             ****ORCA TERMINATED NORMALLY****
TOTAL RUN TIME: 0 days 0 hours 0 minutes 4 seconds 583 msec
