                         Program Version 3.0.3 - RELEASE   -
|  1> ! RI PBE def2-SVP def2-SVP/J NBO PAL2
|  2> % maxcore 2000
|  3> % output
|  4>     # printlevel mini
|  5>     print[ P_Basis ] 0
|  6>     print[ P_SCFInfo ] 1
|  7>     print[ P_SCFIterInfo ] 1
|  8>     print[ P_OrbEn ] 0
|  9>     print[ P_Cartesian ] 0
| 10> end
| 11> *xyz 0 1
| 12>  O       -0.3732630000    -1.0513750000    -0.0021170000
| 13>  C       -1.1441900000     0.0364460000    -0.0019660000
| 14>  C       -0.3814500000     1.1527500000     0.0004980000
| 15>  C        0.9349530000     0.6321310000     0.0018320000
| 16>  N        0.9450430000    -0.6701690000     0.0002950000
| 17>  H       -2.2089360000    -0.1363440000    -0.0037530000
| 18>  H       -0.7009460000     2.1807100000     0.0012490000
| 19>  H        1.8753790000     1.1638620000     0.0038620000
| 20> *
| 21>
| 22>                          ****END OF INPUT****
 Total Charge           Charge          ....    0
 Multiplicity           Mult            ....    1
 Number of Electrons    NEL             ....   36
 Basis Dimension        Dim             ....   85

MULLIKEN ATOMIC CHARGES
-----------------------
   0 O :   -0.144478
   1 C :    0.151781
   2 C :   -0.084863
   3 C :    0.033987
   4 N :   -0.030715
   5 H :    0.035528
   6 H :    0.015418
   7 H :    0.023342
Sum of atomic charges:    0.0000000

LOEWDIN ATOMIC CHARGES
----------------------
   0 O :    0.047689
   1 C :    0.031340
   2 C :   -0.104632
   3 C :   -0.039261
   4 N :   -0.036619
   5 H :    0.030632
   6 H :    0.037947
   7 H :    0.032904

  Mayer bond orders larger than 0.1
B(  0-O ,  1-C ) :   1.1913 B(  0-O ,  4-N ) :   1.0235 B(  1-C ,  2-C ) :   1.5411
B(  1-C ,  4-N ) :   0.1275 B(  1-C ,  5-H ) :   0.9795 B(  2-C ,  3-C ) :   1.2316
B(  2-C ,  6-H ) :   0.9914 B(  3-C ,  4-N ) :   1.6719 B(  3-C ,  7-H ) :   0.9802

FINAL SINGLE POINT ENERGY      -245.574553514002

DIPOLE MOMENT
-------------
                                X             Y             Z
Electronic contribution:      0.36460      -2.13506      -0.00200
Nuclear contribution   :     -0.93506       3.03572       0.00223
                        -----------------------------------------
Total Dipole Moment    :     -0.57046       0.90066       0.00023
                        -----------------------------------------
Magnitude (a.u.)       :      1.06612
Magnitude (Debye)      :      2.70986

                             ****ORCA TERMINATED NORMALLY****
TOTAL RUN TIME: 0 days 0 hours 0 minutes 3 seconds 978 msec
