                         Program Version 3.0.3 - RELEASE   -
|  1> ! RI PBE def2-SVP def2-SVP/J NBO PAL2
|  2> % maxcore 2000
|  3> % output
|  4>     # printlevel mini
|  5>     print[ P_Basis ] 0
|  6>     print[ P_SCFInfo ] 1
|  7>     print[ P_SCFIterInfo ] 1
|  8>     print[ P_OrbEn ] 0
|  9>     print[ P_Cartesian ] 0
| 10> end
| 11> *xyz 0 1
| 12>  O       -0.3518920000    -1.0818100000    -0.0040020000
| 13>  C       -1.1414670000     0.0235860000    -0.0020590000
| 14>  C       -0.3362840000     1.1052120000     0.0007240000
| 15>  N        0.9804640000     0.6865690000     0.0005450000
| 16>  C        0.9019870000    -0.5964670000    -0.0022540000
| 17>  H       -2.2057680000    -0.1360230000    -0.0029960000
| 18>  H       -0.6051280000     2.1490860000     0.0028240000
| 19>  H        1.7048890000    -1.3171420000    -0.0033620000
| 20> *
| 21>
| 22>                          ****END OF INPUT****
 Total Charge           Charge          ....    0
 Multiplicity           Mult            ....    1
 Number of Electrons    NEL             ....   36
 Basis Dimension        Dim             ....   85

MULLIKEN ATOMIC CHARGES
-----------------------
   0 O :   -0.158885
   1 C :    0.086728
   2 C :    0.003534
   3 N :   -0.130042
   4 C :    0.126936
   5 H :    0.025750
   6 H :    0.014283
   7 H :    0.031696
Sum of atomic charges:   -0.0000000

LOEWDIN ATOMIC CHARGES
----------------------
   0 O :    0.033602
   1 C :    0.001063
   2 C :   -0.046382
   3 N :   -0.093449
   4 C :    0.029274
   5 H :    0.026721
   6 H :    0.026776
   7 H :    0.022394

  Mayer bond orders larger than 0.1
B(  0-O ,  1-C ) :   1.1365 B(  0-O ,  4-C ) :   1.1830 B(  1-C ,  2-C ) :   1.5836
B(  1-C ,  5-H ) :   0.9870 B(  2-C ,  3-N ) :   1.3205 B(  2-C ,  6-H ) :   0.9897
B(  3-N ,  4-C ) :   1.7326 B(  4-C ,  7-H ) :   0.9743

FINAL SINGLE POINT ENERGY      -245.609992315667

DIPOLE MOMENT
-------------
                                X             Y             Z
Electronic contribution:      0.50829      -0.93945      -0.00172
Nuclear contribution   :     -1.04043       0.66513       0.00086
                        -----------------------------------------
Total Dipole Moment    :     -0.53215      -0.27431      -0.00086
                        -----------------------------------------
Magnitude (a.u.)       :      0.59869
Magnitude (Debye)      :      1.52175

                             ****ORCA TERMINATED NORMALLY****
TOTAL RUN TIME: 0 days 0 hours 0 minutes 4 seconds 8 msec
