                         Program Version 3.0.3 - RELEASE   -
|  1> ! RI PBE def2-SVP def2-SVP/J NBO PAL2
|  2> % maxcore 2000
|  3> % output
|  4>     # printlevel mini
|  5>     print[ P_Basis ] 0
|  6>     print[ P_SCFInfo ] 1
|  7>     print[ P_SCFIterInfo ] 1
|  8>     print[ P_OrbEn ] 0
|  9>     print[ P_Cartesian ] 0
| 10> end
| 11> *xyz 0 1
| 12>  C        1.0615510000     0.0427450000     0.0254220000
| 13>  C        2.5634090000     0.0642680000     0.0447820000
| 14>  C        3.3086350000     1.0280950000     0.9119670000
| 15>  N        3.1442900000    -0.7767920000    -0.7119490000
| 16>  O        4.5290340000    -0.6820530000    -0.6267130000
| 17>  H        0.6512360000     0.7933800000     0.7007870000
| 18>  H        0.6816360000    -0.9348400000     0.3292950000
| 19>  H        0.6816320000     0.2420120000    -0.9787200000
| 20>  H        2.6297790000     1.6609940000     1.4814150000
| 21>  H        3.9628270000     1.6590450000     0.3043750000
| 22>  H        3.9628380000     0.4902980000     1.6033610000
| 23>  H        4.8220320000    -1.3620530000    -1.2385320000
| 24> *
| 25>
| 26>                          ****END OF INPUT****
 Total Charge           Charge          ....    0
 Multiplicity           Mult            ....    1
 Number of Electrons    NEL             ....   40
 Basis Dimension        Dim             ....  105

MULLIKEN ATOMIC CHARGES
-----------------------
   0 C :    0.074505
   1 C :   -0.278387
   2 C :    0.093866
   3 N :   -0.058443
   4 O :   -0.190563
   5 H :    0.011424
   6 H :    0.041451
   7 H :    0.041457
   8 H :    0.011195
   9 H :    0.042380
  10 H :    0.041715
  11 H :    0.169399
Sum of atomic charges:   -0.0000000

LOEWDIN ATOMIC CHARGES
----------------------
   0 C :   -0.061758
   1 C :   -0.064868
   2 C :   -0.075621
   3 N :   -0.039190
   4 O :   -0.060011
   5 H :    0.029403
   6 H :    0.042010
   7 H :    0.041971
   8 H :    0.028343
   9 H :    0.044386
  10 H :    0.044100
  11 H :    0.071235

  Mayer bond orders larger than 0.1
B(  0-C ,  1-C ) :   1.0768 B(  0-C ,  5-H ) :   0.9473 B(  0-C ,  6-H ) :   0.9534
B(  0-C ,  7-H ) :   0.9537 B(  1-C ,  2-C ) :   1.0712 B(  1-C ,  3-N ) :   1.8800
B(  2-C ,  8-H ) :   0.9425 B(  2-C ,  9-H ) :   0.9373 B(  2-C , 10-H ) :   0.9384
B(  3-N ,  4-O ) :   1.0027 B(  4-O , 11-H ) :   0.9772

FINAL SINGLE POINT ENERGY      -247.963165704590

DIPOLE MOMENT
-------------
                                X             Y             Z
Electronic contribution:      3.15683      -2.77484      -2.49751
Nuclear contribution   :     -3.18379       2.88065       2.59183
                        -----------------------------------------
Total Dipole Moment    :     -0.02696       0.10581       0.09432
                        -----------------------------------------
Magnitude (a.u.)       :      0.14429
Magnitude (Debye)      :      0.36675

                             ****ORCA TERMINATED NORMALLY****
TOTAL RUN TIME: 0 days 0 hours 0 minutes 4 seconds 835 msec
