                         Program Version 3.0.3 - RELEASE   -
|  1> ! RI PBE def2-SVP def2-SVP/J NBO PAL2
|  2> % maxcore 2000
|  3> % output
|  4>     # printlevel mini
|  5>     print[ P_Basis ] 0
|  6>     print[ P_SCFInfo ] 1
|  7>     print[ P_SCFIterInfo ] 1
|  8>     print[ P_OrbEn ] 0
|  9>     print[ P_Cartesian ] 0
| 10> end
| 11> *xyz 0 1
| 12>  C        1.0432770000     0.1720230000     0.0672420000
| 13>  C        2.5467410000    -0.0810630000     0.0395750000
| 14>  C        2.9467450000    -1.2128230000     0.9192070000
| 15>  N        3.5192380000    -2.2302870000     0.4314920000
| 16>  O        3.8053850000    -3.1769010000     1.4026920000
| 17>  H        0.7835460000     1.0316960000    -0.5538040000
| 18>  H        0.6927180000     0.3767000000     1.0822330000
| 19>  H        0.4946140000    -0.6950400000    -0.3066910000
| 20>  H        3.0715630000     0.8225630000     0.3721480000
| 21>  H        2.8858460000    -0.2958650000    -0.9761460000
| 22>  H        2.7309150000    -1.1642240000     1.9900060000
| 23>  H        4.2291920000    -3.8785780000     0.9012450000
| 24> *
| 25>
| 26>                          ****END OF INPUT****
 Total Charge           Charge          ....    0
 Multiplicity           Mult            ....    1
 Number of Electrons    NEL             ....   40
 Basis Dimension        Dim             ....  105

MULLIKEN ATOMIC CHARGES
-----------------------
   0 C :   -0.045693
   1 C :    0.036556
   2 C :   -0.062852
   3 N :   -0.047877
   4 O :   -0.182884
   5 H :    0.026376
   6 H :    0.024088
   7 H :    0.034864
   8 H :    0.027295
   9 H :    0.019624
  10 H :    0.000644
  11 H :    0.169859
Sum of atomic charges:    0.0000000

LOEWDIN ATOMIC CHARGES
----------------------
   0 C :   -0.062188
   1 C :   -0.051694
   2 C :   -0.035151
   3 N :   -0.019025
   4 O :   -0.059573
   5 H :    0.028905
   6 H :    0.025470
   7 H :    0.029150
   8 H :    0.035927
   9 H :    0.032811
  10 H :    0.003183
  11 H :    0.072185

  Mayer bond orders larger than 0.1
B(  0-C ,  1-C ) :   1.0932 B(  0-C ,  5-H ) :   0.9617 B(  0-C ,  6-H ) :   0.9700
B(  0-C ,  7-H ) :   0.9687 B(  1-C ,  2-C ) :   1.0457 B(  1-C ,  8-H ) :   0.9209
B(  1-C ,  9-H ) :   0.9291 B(  2-C ,  3-N ) :   1.9127 B(  2-C ,  4-O ) :   0.1120
B(  2-C , 10-H ) :   0.9388 B(  3-N ,  4-O ) :   0.9885 B(  4-O , 11-H ) :   0.9766

FINAL SINGLE POINT ENERGY      -247.958704139587

DIPOLE MOMENT
-------------
                                X             Y             Z
Electronic contribution:      4.25462      -5.24055       1.47902
Nuclear contribution   :     -4.31415       5.32902      -1.52877
                        -----------------------------------------
Total Dipole Moment    :     -0.05953       0.08847      -0.04975
                        -----------------------------------------
Magnitude (a.u.)       :      0.11766
Magnitude (Debye)      :      0.29908

                             ****ORCA TERMINATED NORMALLY****
TOTAL RUN TIME: 0 days 0 hours 0 minutes 4 seconds 752 msec
