                         Program Version 3.0.3 - RELEASE   -
|  1> ! RI PBE def2-SVP def2-SVP/J NBO PAL2
|  2> % maxcore 2000
|  3> % output
|  4>     # printlevel mini
|  5>     print[ P_Basis ] 0
|  6>     print[ P_SCFInfo ] 1
|  7>     print[ P_SCFIterInfo ] 1
|  8>     print[ P_OrbEn ] 0
|  9>     print[ P_Cartesian ] 0
| 10> end
| 11> *xyz 0 1
| 12>  C        0.8923470000    -0.3830010000    -0.0421370000
| 13>  C        2.2278660000     0.3315670000    -0.0775960000
| 14>  C        2.5160470000     0.9640920000    -1.4260810000
| 15>  N        3.4950510000     1.9055750000    -1.4175940000
| 16>  O        1.9358020000     0.6482430000    -2.4424440000
| 17>  H        0.7497170000    -0.8872240000     0.9155560000
| 18>  H        0.8334820000    -1.1226010000    -0.8406170000
| 19>  H        0.0684810000     0.3180990000    -0.1867640000
| 20>  H        3.0433690000    -0.3733660000     0.1237540000
| 21>  H        2.2879010000     1.0963320000     0.7037480000
| 22>  H        3.9895750000     2.1532030000    -0.5811740000
| 23>  H        3.7719800000     2.3166920000    -2.2918500000
| 24> *
| 25>
| 26>                          ****END OF INPUT****
 Total Charge           Charge          ....    0
 Multiplicity           Mult            ....    1
 Number of Electrons    NEL             ....   40
 Basis Dimension        Dim             ....  105

MULLIKEN ATOMIC CHARGES
-----------------------
   0 C :   -0.004522
   1 C :   -0.078012
   2 C :   -0.019460
   3 N :   -0.055938
   4 O :   -0.204138
   5 H :    0.010865
   6 H :    0.041143
   7 H :    0.027144
   8 H :    0.042621
   9 H :    0.019910
  10 H :    0.105446
  11 H :    0.114942
Sum of atomic charges:   -0.0000000

LOEWDIN ATOMIC CHARGES
----------------------
   0 C :   -0.060233
   1 C :   -0.082207
   2 C :    0.026418
   3 N :    0.006325
   4 O :   -0.190074
   5 H :    0.025157
   6 H :    0.033552
   7 H :    0.030565
   8 H :    0.042444
   9 H :    0.027692
  10 H :    0.068699
  11 H :    0.071661

  Mayer bond orders larger than 0.1
B(  0-C ,  1-C ) :   1.1302 B(  0-C ,  5-H ) :   0.9562 B(  0-C ,  6-H ) :   0.9609
B(  0-C ,  7-H ) :   0.9709 B(  1-C ,  2-C ) :   0.9473 B(  1-C ,  8-H ) :   0.9164
B(  1-C ,  9-H ) :   0.9289 B(  2-C ,  3-N ) :   1.2528 B(  2-C ,  4-O ) :   2.1155
B(  3-N , 10-H ) :   0.9437 B(  3-N , 11-H ) :   0.9392

FINAL SINGLE POINT ENERGY      -248.043406973003

DIPOLE MOMENT
-------------
                                X             Y             Z
Electronic contribution:      1.65924       1.89790      -4.21294
Nuclear contribution   :     -0.76285      -1.34141       5.11257
                        -----------------------------------------
Total Dipole Moment    :      0.89639       0.55650       0.89964
                        -----------------------------------------
Magnitude (a.u.)       :      1.38656
Magnitude (Debye)      :      3.52436

                             ****ORCA TERMINATED NORMALLY****
TOTAL RUN TIME: 0 days 0 hours 0 minutes 4 seconds 670 msec
