                         Program Version 3.0.3 - RELEASE   -
|  1> ! RI PBE def2-SVP def2-SVP/J NBO PAL2
|  2> % maxcore 2000
|  3> % output
|  4>     # printlevel mini
|  5>     print[ P_Basis ] 0
|  6>     print[ P_SCFInfo ] 1
|  7>     print[ P_SCFIterInfo ] 1
|  8>     print[ P_OrbEn ] 0
|  9>     print[ P_Cartesian ] 0
| 10> end
| 11> *xyz 0 1
| 12>  C        0.8967900000    -0.0379000000     0.1891580000
| 13>  C        2.2074810000    -0.1060730000    -0.0143640000
| 14>  N        2.8202120000    -0.2414760000    -1.2468090000
| 15>  C        4.1667290000    -0.3099270000    -1.4383850000
| 16>  O        4.6946450000    -0.4281970000    -2.5146390000
| 17>  H        0.5102600000     0.0680820000     1.1923570000
| 18>  H        0.1824110000    -0.0849470000    -0.6247920000
| 19>  H        2.9080130000    -0.0572530000     0.8132740000
| 20>  H        2.2511590000    -0.2957640000    -2.0797900000
| 21>  H        4.7305090000    -0.2451250000    -0.4891200000
| 22> *
| 23>
| 24>                          ****END OF INPUT****
 Total Charge           Charge          ....    0
 Multiplicity           Mult            ....    1
 Number of Electrons    NEL             ....   38
 Basis Dimension        Dim             ....   95

MULLIKEN ATOMIC CHARGES
-----------------------
   0 C :   -0.066274
   1 C :    0.026602
   2 N :   -0.054391
   3 C :    0.118824
   4 O :   -0.202764
   5 H :    0.032288
   6 H :    0.020524
   7 H :    0.021132
   8 H :    0.119478
   9 H :   -0.015418
Sum of atomic charges:   -0.0000000

LOEWDIN ATOMIC CHARGES
----------------------
   0 C :   -0.111492
   1 C :    0.010091
   2 N :    0.040656
   3 C :    0.058275
   4 O :   -0.161059
   5 H :    0.033111
   6 H :    0.024606
   7 H :    0.031179
   8 H :    0.086796
   9 H :   -0.012163

  Mayer bond orders larger than 0.1
B(  0-C ,  1-C ) :   1.9092 B(  0-C ,  5-H ) :   0.9420 B(  0-C ,  6-H ) :   0.9542
B(  1-C ,  2-N ) :   1.1257 B(  1-C ,  7-H ) :   0.9483 B(  2-N ,  3-C ) :   1.1520
B(  2-N ,  8-H ) :   0.9186 B(  3-C ,  4-O ) :   2.0832 B(  3-C ,  9-H ) :   0.9198

FINAL SINGLE POINT ENERGY      -246.815393541914

DIPOLE MOMENT
-------------
                                X             Y             Z
Electronic contribution:      3.32610      -0.40150      -3.05465
Nuclear contribution   :     -4.07899       0.49605       3.75077
                        -----------------------------------------
Total Dipole Moment    :     -0.75289       0.09455       0.69612
                        -----------------------------------------
Magnitude (a.u.)       :      1.02974
Magnitude (Debye)      :      2.61739

                             ****ORCA TERMINATED NORMALLY****
TOTAL RUN TIME: 0 days 0 hours 0 minutes 4 seconds 205 msec
