                         Program Version 3.0.3 - RELEASE   -
|  1> ! RI PBE def2-SVP def2-SVP/J NBO PAL2
|  2> % maxcore 2000
|  3> % output
|  4>     # printlevel mini
|  5>     print[ P_Basis ] 0
|  6>     print[ P_SCFInfo ] 1
|  7>     print[ P_SCFIterInfo ] 1
|  8>     print[ P_OrbEn ] 0
|  9>     print[ P_Cartesian ] 0
| 10> end
| 11> *xyz 0 1
| 12>  C        0.8748200000    -0.0299080000     0.0516880000
| 13>  C        2.3903310000    -0.1350600000     0.0281440000
| 14>  N        3.0937860000     1.1405700000     0.1491890000
| 15>  C        2.9131710000    -1.0389430000     1.1366690000
| 16>  O        4.3127140000    -1.1061670000     1.1160370000
| 17>  H        0.5121870000     0.6046570000    -0.7605560000
| 18>  H        0.5313180000     0.4038000000     0.9963400000
| 19>  H        0.4053710000    -1.0119570000    -0.0544480000
| 20>  H        2.7103200000    -0.5747010000    -0.9232300000
| 21>  H        2.6945200000     1.6969640000     0.8977750000
| 22>  H        3.0230180000     1.6847720000    -0.7003460000
| 23>  H        2.5223440000    -2.0530050000     1.0153710000
| 24>  H        2.5468990000    -0.6596950000     2.1069090000
| 25>  H        4.5927820000    -0.2097070000     0.8772470000
| 26> *
| 27>
| 28>                          ****END OF INPUT****
 Total Charge           Charge          ....    0
 Multiplicity           Mult            ....    1
 Number of Electrons    NEL             ....   42
 Basis Dimension        Dim             ....  115

MULLIKEN ATOMIC CHARGES
-----------------------
   0 C :    0.027618
   1 C :   -0.115928
   2 N :   -0.204901
   3 C :    0.217653
   4 O :   -0.284232
   5 H :    0.013915
   6 H :    0.010338
   7 H :    0.018020
   8 H :    0.009653
   9 H :    0.092890
  10 H :    0.098764
  11 H :    0.003530
  12 H :   -0.024352
  13 H :    0.137032
Sum of atomic charges:    0.0000000

LOEWDIN ATOMIC CHARGES
----------------------
   0 C :   -0.073575
   1 C :   -0.027919
   2 N :   -0.082024
   3 C :    0.048954
   4 O :   -0.129546
   5 H :    0.023276
   6 H :    0.021872
   7 H :    0.029555
   8 H :    0.022749
   9 H :    0.053024
  10 H :    0.056438
  11 H :    0.017147
  12 H :   -0.003987
  13 H :    0.044037

  Mayer bond orders larger than 0.1
B(  0-C ,  1-C ) :   1.0722 B(  0-C ,  5-H ) :   0.9577 B(  0-C ,  6-H ) :   0.9532
B(  0-C ,  7-H ) :   0.9509 B(  1-C ,  2-N ) :   1.0548 B(  1-C ,  3-C ) :   1.0405
B(  1-C ,  8-H ) :   0.9124 B(  2-N ,  9-H ) :   0.9694 B(  2-N , 10-H ) :   0.9675
B(  2-N , 13-H ) :   0.1098 B(  3-C ,  4-O ) :   1.1009 B(  3-C , 11-H ) :   0.9375
B(  3-C , 12-H ) :   0.9127 B(  4-O , 13-H ) :   0.9516

FINAL SINGLE POINT ENERGY      -249.203069462530

DIPOLE MOMENT
-------------
                                X             Y             Z
Electronic contribution:      4.01719      -0.91248       0.65894
Nuclear contribution   :     -4.82816       1.71534      -1.02767
                        -----------------------------------------
Total Dipole Moment    :     -0.81097       0.80287      -0.36873
                        -----------------------------------------
Magnitude (a.u.)       :      1.19926
Magnitude (Debye)      :      3.04828

                             ****ORCA TERMINATED NORMALLY****
TOTAL RUN TIME: 0 days 0 hours 0 minutes 5 seconds 367 msec
