                         Program Version 3.0.3 - RELEASE   -
|  1> ! RI PBE def2-SVP def2-SVP/J NBO PAL2
|  2> % maxcore 2000
|  3> % output
|  4>     # printlevel mini
|  5>     print[ P_Basis ] 0
|  6>     print[ P_SCFInfo ] 1
|  7>     print[ P_SCFIterInfo ] 1
|  8>     print[ P_OrbEn ] 0
|  9>     print[ P_Cartesian ] 0
| 10> end
| 11> *xyz 0 1
| 12>  C        0.9636260000    -0.1079060000    -0.0828400000
| 13>  C        2.4599920000     0.1479350000    -0.0567050000
| 14>  N        2.8458130000     1.3215800000    -0.8080820000
| 15>  C        3.2224380000     2.4814020000    -0.2270980000
| 16>  O        3.3184850000     2.6718200000     0.9635370000
| 17>  H        0.7203300000    -1.0034850000     0.4936070000
| 18>  H        0.6023180000    -0.2599150000    -1.1035300000
| 19>  H        0.4215990000     0.7353480000     0.3492770000
| 20>  H        3.0032070000    -0.7180910000    -0.4473510000
| 21>  H        2.8008520000     0.3166780000     0.9653640000
| 22>  H        2.7690030000     1.3074710000    -1.8109800000
| 23>  H        3.4497370000     3.2655530000    -0.9744000000
| 24> *
| 25>
| 26>                          ****END OF INPUT****
 Total Charge           Charge          ....    0
 Multiplicity           Mult            ....    1
 Number of Electrons    NEL             ....   40
 Basis Dimension        Dim             ....  105

MULLIKEN ATOMIC CHARGES
-----------------------
   0 C :   -0.039095
   1 C :    0.070023
   2 N :   -0.152388
   3 C :    0.124541
   4 O :   -0.239698
   5 H :    0.029090
   6 H :    0.017235
   7 H :    0.040470
   8 H :    0.021174
   9 H :    0.037992
  10 H :    0.112915
  11 H :   -0.022259
Sum of atomic charges:   -0.0000000

LOEWDIN ATOMIC CHARGES
----------------------
   0 C :   -0.073158
   1 C :    0.019802
   2 N :   -0.001734
   3 C :    0.044507
   4 O :   -0.189390
   5 H :    0.032851
   6 H :    0.022330
   7 H :    0.033112
   8 H :    0.023365
   9 H :    0.033151
  10 H :    0.071584
  11 H :   -0.016419

  Mayer bond orders larger than 0.1
B(  0-C ,  1-C ) :   1.1207 B(  0-C ,  5-H ) :   0.9599 B(  0-C ,  6-H ) :   0.9671
B(  0-C ,  7-H ) :   0.9669 B(  1-C ,  2-N ) :   0.9805 B(  1-C ,  8-H ) :   0.9443
B(  1-C ,  9-H ) :   0.9284 B(  2-N ,  3-C ) :   1.2284 B(  2-N ,  4-O ) :   0.1076
B(  2-N , 10-H ) :   0.9314 B(  3-C ,  4-O ) :   2.0118 B(  3-C , 11-H ) :   0.9225

FINAL SINGLE POINT ENERGY      -248.031875556704

DIPOLE MOMENT
-------------
                                X             Y             Z
Electronic contribution:      3.49904       4.35751       0.92976
Nuclear contribution   :     -3.84137      -5.11599      -2.10461
                        -----------------------------------------
Total Dipole Moment    :     -0.34233      -0.75848      -1.17485
                        -----------------------------------------
Magnitude (a.u.)       :      1.43971
Magnitude (Debye)      :      3.65944

                             ****ORCA TERMINATED NORMALLY****
TOTAL RUN TIME: 0 days 0 hours 0 minutes 4 seconds 827 msec
