                         Program Version 3.0.3 - RELEASE   -
|  1> ! RI PBE def2-SVP def2-SVP/J NBO PAL2
|  2> % maxcore 2000
|  3> % output
|  4>     # printlevel mini
|  5>     print[ P_Basis ] 0
|  6>     print[ P_SCFInfo ] 1
|  7>     print[ P_SCFIterInfo ] 1
|  8>     print[ P_OrbEn ] 0
|  9>     print[ P_Cartesian ] 0
| 10> end
| 11> *xyz 0 1
| 12>  C        0.9628630000    -0.0287400000    -0.0809280000
| 13>  C        2.4717130000     0.0232680000    -0.0848980000
| 14>  O        2.9191020000     0.1536760000    -1.4135350000
| 15>  C        3.0157960000     1.1774880000     0.7454960000
| 16>  N        4.4593040000     1.2555400000     0.5592350000
| 17>  H        0.6116540000    -0.8594070000    -0.6950900000
| 18>  H        0.5515570000     0.8960650000    -0.4932270000
| 19>  H        0.5789150000    -0.1640260000     0.9333260000
| 20>  H        2.8606800000    -0.9171020000     0.3463320000
| 21>  H        3.8195980000     0.5033760000    -1.3359480000
| 22>  H        2.7039710000     1.0627430000     1.7932290000
| 23>  H        2.5760350000     2.1055850000     0.3673880000
| 24>  H        4.9388620000     0.5597520000     1.1169150000
| 25>  H        4.8230290000     2.1605520000     0.8227030000
| 26> *
| 27>
| 28>                          ****END OF INPUT****
 Total Charge           Charge          ....    0
 Multiplicity           Mult            ....    1
 Number of Electrons    NEL             ....   42
 Basis Dimension        Dim             ....  115

MULLIKEN ATOMIC CHARGES
-----------------------
   0 C :    0.031703
   1 C :    0.048104
   2 O :   -0.275308
   3 C :    0.054944
   4 N :   -0.215921
   5 H :    0.028848
   6 H :    0.013767
   7 H :    0.005388
   8 H :   -0.025080
   9 H :    0.135330
  10 H :   -0.003314
  11 H :    0.003794
  12 H :    0.097957
  13 H :    0.099789
Sum of atomic charges:   -0.0000000

LOEWDIN ATOMIC CHARGES
----------------------
   0 C :   -0.066218
   1 C :    0.030525
   2 O :   -0.125646
   3 C :   -0.009678
   4 N :   -0.092782
   5 H :    0.031947
   6 H :    0.025672
   7 H :    0.025117
   8 H :   -0.001913
   9 H :    0.043587
  10 H :    0.004353
  11 H :    0.020897
  12 H :    0.056324
  13 H :    0.057815

  Mayer bond orders larger than 0.1
B(  0-C ,  1-C ) :   1.0893 B(  0-C ,  5-H ) :   0.9569 B(  0-C ,  6-H ) :   0.9538
B(  0-C ,  7-H ) :   0.9526 B(  1-C ,  2-O ) :   1.0911 B(  1-C ,  3-C ) :   1.0414
B(  1-C ,  8-H ) :   0.8981 B(  2-O ,  9-H ) :   0.9472 B(  3-C ,  4-N ) :   1.0892
B(  3-C , 10-H ) :   0.9290 B(  3-C , 11-H ) :   0.9255 B(  4-N ,  9-H ) :   0.1132
B(  4-N , 12-H ) :   0.9691 B(  4-N , 13-H ) :   0.9655

FINAL SINGLE POINT ENERGY      -249.204749221581

DIPOLE MOMENT
-------------
                                X             Y             Z
Electronic contribution:      2.06588      -0.21864      -2.21012
Nuclear contribution   :     -1.61533       0.57366       3.21804
                        -----------------------------------------
Total Dipole Moment    :      0.45054       0.35503       1.00792
                        -----------------------------------------
Magnitude (a.u.)       :      1.15971
Magnitude (Debye)      :      2.94776

                             ****ORCA TERMINATED NORMALLY****
TOTAL RUN TIME: 0 days 0 hours 0 minutes 5 seconds 431 msec
