                         Program Version 3.0.3 - RELEASE   -
|  1> ! RI PBE def2-SVP def2-SVP/J NBO PAL2
|  2> % maxcore 2000
|  3> % output
|  4>     # printlevel mini
|  5>     print[ P_Basis ] 0
|  6>     print[ P_SCFInfo ] 1
|  7>     print[ P_SCFIterInfo ] 1
|  8>     print[ P_OrbEn ] 0
|  9>     print[ P_Cartesian ] 0
| 10> end
| 11> *xyz 0 1
| 12>  C        0.9572440000     0.3586650000     0.1704150000
| 13>  C        2.4469420000     0.1380330000     0.1541130000
| 14>  O        2.6698090000    -1.2571330000    -0.0109430000
| 15>  N        4.0144450000    -1.5148290000    -0.0326260000
| 16>  C        4.2633290000    -2.7463550000    -0.1779810000
| 17>  H        0.7420380000     1.4217740000     0.2958820000
| 18>  H        0.4909600000    -0.1855220000     0.9940090000
| 19>  H        0.5028070000     0.0243860000    -0.7642580000
| 20>  H        2.9111510000     0.4680610000     1.0893410000
| 21>  H        2.9230120000     0.6782020000    -0.6708930000
| 22>  H        5.3082820000    -3.0298090000    -0.2047960000
| 23>  H        3.4810920000    -3.4983640000    -0.2730610000
| 24> *
| 25>
| 26>                          ****END OF INPUT****
 Total Charge           Charge          ....    0
 Multiplicity           Mult            ....    1
 Number of Electrons    NEL             ....   40
 Basis Dimension        Dim             ....  105

MULLIKEN ATOMIC CHARGES
-----------------------
   0 C :   -0.043545
   1 C :    0.168725
   2 O :   -0.290158
   3 N :   -0.013907
   4 C :   -0.018870
   5 H :    0.029747
   6 H :    0.033785
   7 H :    0.032089
   8 H :    0.009636
   9 H :    0.013362
  10 H :    0.050130
  11 H :    0.029007
Sum of atomic charges:   -0.0000000

LOEWDIN ATOMIC CHARGES
----------------------
   0 C :   -0.075595
   1 C :    0.053494
   2 O :   -0.088958
   3 N :    0.009075
   4 C :   -0.049263
   5 H :    0.036220
   6 H :    0.031298
   7 H :    0.030913
   8 H :    0.010567
   9 H :    0.011164
  10 H :    0.025972
  11 H :    0.005113

  Mayer bond orders larger than 0.1
B(  0-C ,  1-C ) :   1.1147 B(  0-C ,  5-H ) :   0.9587 B(  0-C ,  6-H ) :   0.9638
B(  0-C ,  7-H ) :   0.9634 B(  1-C ,  2-O ) :   0.9431 B(  1-C ,  8-H ) :   0.9442
B(  1-C ,  9-H ) :   0.9459 B(  2-O ,  3-N ) :   0.9775 B(  2-O ,  4-C ) :   0.1238
B(  3-N ,  4-C ) :   1.9380 B(  4-C , 10-H ) :   0.9538 B(  4-C , 11-H ) :   0.9323

FINAL SINGLE POINT ENERGY      -247.944816173839

DIPOLE MOMENT
-------------
                                X             Y             Z
Electronic contribution:      3.10499      -2.60081      -0.28911
Nuclear contribution   :     -3.29360       2.64103       0.29304
                        -----------------------------------------
Total Dipole Moment    :     -0.18861       0.04022       0.00393
                        -----------------------------------------
Magnitude (a.u.)       :      0.19289
Magnitude (Debye)      :      0.49028

                             ****ORCA TERMINATED NORMALLY****
TOTAL RUN TIME: 0 days 0 hours 0 minutes 4 seconds 871 msec
