                         Program Version 3.0.3 - RELEASE   -
|  1> ! RI PBE def2-SVP def2-SVP/J NBO PAL2
|  2> % maxcore 2000
|  3> % output
|  4>     # printlevel mini
|  5>     print[ P_Basis ] 0
|  6>     print[ P_SCFInfo ] 1
|  7>     print[ P_SCFIterInfo ] 1
|  8>     print[ P_OrbEn ] 0
|  9>     print[ P_Cartesian ] 0
| 10> end
| 11> *xyz 0 1
| 12>  C        3.4925730000     1.5666420000    -1.0154620000
| 13>  N        3.7810250000     0.3188220000    -0.3381070000
| 14>  C        3.5812810000    -0.8688300000    -1.1519850000
| 15>  C        4.8002660000    -1.1030200000    -2.0288260000
| 16>  O        5.9688790000    -1.1190440000    -1.2504430000
| 17>  H        3.6162870000     2.3988230000    -0.3202670000
| 18>  H        2.4755640000     1.6119950000    -1.4361010000
| 19>  H        4.1969490000     1.7216330000    -1.8357560000
| 20>  H        3.2432470000     0.2535480000     0.5137240000
| 21>  H        2.6740110000    -0.8123930000    -1.7760650000
| 22>  H        3.4729140000    -1.7232350000    -0.4781990000
| 23>  H        4.8593770000    -0.3296540000    -2.8099540000
| 24>  H        4.7133080000    -2.0679130000    -2.5355380000
| 25>  H        5.8121200000    -0.4539750000    -0.5641220000
| 26> *
| 27>
| 28>                          ****END OF INPUT****
 Total Charge           Charge          ....    0
 Multiplicity           Mult            ....    1
 Number of Electrons    NEL             ....   42
 Basis Dimension        Dim             ....  115

MULLIKEN ATOMIC CHARGES
-----------------------
   0 C :    0.063082
   1 N :   -0.275940
   2 C :    0.011749
   3 C :    0.180588
   4 O :   -0.291693
   5 H :    0.027524
   6 H :    0.000109
   7 H :    0.030896
   8 H :    0.111639
   9 H :   -0.008633
  10 H :    0.013189
  11 H :   -0.004162
  12 H :    0.005231
  13 H :    0.136420
Sum of atomic charges:    0.0000000

LOEWDIN ATOMIC CHARGES
----------------------
   0 C :   -0.005438
   1 N :   -0.095228
   2 C :   -0.012226
   3 C :    0.044485
   4 O :   -0.131133
   5 H :    0.025627
   6 H :    0.003228
   7 H :    0.023365
   8 H :    0.059549
   9 H :    0.003429
  10 H :    0.022804
  11 H :   -0.001193
  12 H :    0.018155
  13 H :    0.044576

  Mayer bond orders larger than 0.1
B(  0-C ,  1-N ) :   1.0531 B(  0-C ,  5-H ) :   0.9713 B(  0-C ,  6-H ) :   0.9474
B(  0-C ,  7-H ) :   0.9700 B(  1-N ,  2-C ) :   1.0746 B(  1-N ,  8-H ) :   0.9485
B(  1-N , 13-H ) :   0.1001 B(  2-C ,  3-C ) :   1.0789 B(  2-C ,  9-H ) :   0.9157
B(  2-C , 10-H ) :   0.9356 B(  3-C ,  4-O ) :   1.0832 B(  3-C , 11-H ) :   0.9188
B(  3-C , 12-H ) :   0.9383 B(  4-O , 13-H ) :   0.9573

FINAL SINGLE POINT ENERGY      -249.190286493751

DIPOLE MOMENT
-------------
                                X             Y             Z
Electronic contribution:      2.81892      -2.07535       1.08039
Nuclear contribution   :     -3.77768       2.54167      -0.82312
                        -----------------------------------------
Total Dipole Moment    :     -0.95876       0.46633       0.25727
                        -----------------------------------------
Magnitude (a.u.)       :      1.09675
Magnitude (Debye)      :      2.78772

                             ****ORCA TERMINATED NORMALLY****
TOTAL RUN TIME: 0 days 0 hours 0 minutes 5 seconds 105 msec
