                         Program Version 3.0.3 - RELEASE   -
|  1> ! RI PBE def2-SVP def2-SVP/J NBO PAL2
|  2> % maxcore 2000
|  3> % output
|  4>     # printlevel mini
|  5>     print[ P_Basis ] 0
|  6>     print[ P_SCFInfo ] 1
|  7>     print[ P_SCFIterInfo ] 1
|  8>     print[ P_OrbEn ] 0
|  9>     print[ P_Cartesian ] 0
| 10> end
| 11> *xyz 0 1
| 12>  C        1.0655810000     0.0827020000    -0.0182130000
| 13>  N        2.5126090000     0.0586670000    -0.0467390000
| 14>  C        3.2435600000    -0.7453050000    -1.0025110000
| 15>  C        3.2229950000     0.7961110000     0.8299000000
| 16>  O        4.4336710000     0.8360600000     0.8771970000
| 17>  H        0.6834730000    -0.5734740000    -0.7980410000
| 18>  H        0.6717720000     1.0858200000    -0.2050930000
| 19>  H        0.6717600000    -0.2729040000     0.9381890000
| 20>  H        2.5396940000    -1.2800450000    -1.6380420000
| 21>  H        3.8859960000    -1.4670540000    -0.4922750000
| 22>  H        3.8858400000    -0.1189960000    -1.6263730000
| 23>  H        2.5790580000     1.3761380000     1.5192910000
| 24> *
| 25>
| 26>                          ****END OF INPUT****
 Total Charge           Charge          ....    0
 Multiplicity           Mult            ....    1
 Number of Electrons    NEL             ....   40
 Basis Dimension        Dim             ....  105

MULLIKEN ATOMIC CHARGES
-----------------------
   0 C :    0.083329
   1 N :   -0.279283
   2 C :    0.093218
   3 C :    0.146932
   4 O :   -0.237565
   5 H :    0.032617
   6 H :    0.042100
   7 H :    0.042341
   8 H :    0.020172
   9 H :    0.042889
  10 H :    0.043729
  11 H :   -0.030480
Sum of atomic charges:    0.0000000

LOEWDIN ATOMIC CHARGES
----------------------
   0 C :    0.016709
   1 N :   -0.044334
   2 C :    0.019471
   3 C :    0.043607
   4 O :   -0.187558
   5 H :    0.031913
   6 H :    0.026958
   7 H :    0.026996
   8 H :    0.024297
   9 H :    0.029963
  10 H :    0.030338
  11 H :   -0.018360

  Mayer bond orders larger than 0.1
B(  0-C ,  1-N ) :   0.9892 B(  0-C ,  5-H ) :   0.9684 B(  0-C ,  6-H ) :   0.9678
B(  0-C ,  7-H ) :   0.9680 B(  1-N ,  2-C ) :   0.9865 B(  1-N ,  3-C ) :   1.2000
B(  2-C ,  8-H ) :   0.9653 B(  2-C ,  9-H ) :   0.9667 B(  2-C , 10-H ) :   0.9663
B(  3-C ,  4-O ) :   2.0180 B(  3-C , 11-H ) :   0.9253

FINAL SINGLE POINT ENERGY      -248.018590248672

DIPOLE MOMENT
-------------
                                X             Y             Z
Electronic contribution:      3.65028       2.01403       2.39387
Nuclear contribution   :     -4.99831      -2.47099      -2.93738
                        -----------------------------------------
Total Dipole Moment    :     -1.34803      -0.45695      -0.54351
                        -----------------------------------------
Magnitude (a.u.)       :      1.52361
Magnitude (Debye)      :      3.87271

                             ****ORCA TERMINATED NORMALLY****
TOTAL RUN TIME: 0 days 0 hours 0 minutes 4 seconds 578 msec
