                         Program Version 3.0.3 - RELEASE   -
|  1> ! RI PBE def2-SVP def2-SVP/J NBO PAL2
|  2> % maxcore 2000
|  3> % output
|  4>     # printlevel mini
|  5>     print[ P_Basis ] 0
|  6>     print[ P_SCFInfo ] 1
|  7>     print[ P_SCFIterInfo ] 1
|  8>     print[ P_OrbEn ] 0
|  9>     print[ P_Cartesian ] 0
| 10> end
| 11> *xyz 0 1
| 12>  C        0.8078820000     0.0845270000    -0.0275510000
| 13>  N        2.2494640000     0.1065610000    -0.0147520000
| 14>  C        3.0690100000     1.0470720000     0.5219670000
| 15>  C        2.4292410000     2.2337150000     1.1988540000
| 16>  O        4.2781420000     0.9353630000     0.4583490000
| 17>  H        0.4827120000    -0.8187970000    -0.5430110000
| 18>  H        0.3839520000     0.9389570000    -0.5628320000
| 19>  H        0.3837100000     0.0585120000     0.9802650000
| 20>  H        2.7457600000    -0.6546300000    -0.4489870000
| 21>  H        1.3406060000     2.2306840000     1.1970720000
| 22>  H        2.7868440000     3.1378060000     0.7037060000
| 23>  H        2.7867770000     2.2676310000     2.2291200000
| 24> *
| 25>
| 26>                          ****END OF INPUT****
 Total Charge           Charge          ....    0
 Multiplicity           Mult            ....    1
 Number of Electrons    NEL             ....   40
 Basis Dimension        Dim             ....  105

MULLIKEN ATOMIC CHARGES
-----------------------
   0 C :    0.071489
   1 N :   -0.146917
   2 C :   -0.024088
   3 C :   -0.017568
   4 O :   -0.223335
   5 H :    0.030477
   6 H :    0.041398
   7 H :    0.040086
   8 H :    0.114916
   9 H :    0.011324
  10 H :    0.049599
  11 H :    0.052620
Sum of atomic charges:   -0.0000000

LOEWDIN ATOMIC CHARGES
----------------------
   0 C :    0.005587
   1 N :   -0.011559
   2 C :    0.021796
   3 C :   -0.093432
   4 O :   -0.203943
   5 H :    0.034000
   6 H :    0.024561
   7 H :    0.024332
   8 H :    0.073329
   9 H :    0.023940
  10 H :    0.050346
  11 H :    0.051044

  Mayer bond orders larger than 0.1
B(  0-C ,  1-N ) :   1.0214 B(  0-C ,  5-H ) :   0.9685 B(  0-C ,  6-H ) :   0.9634
B(  0-C ,  7-H ) :   0.9629 B(  1-N ,  2-C ) :   1.1958 B(  1-N ,  8-H ) :   0.9228
B(  2-C ,  3-C ) :   1.0273 B(  2-C ,  4-O ) :   2.0873 B(  3-C ,  9-H ) :   0.9404
B(  3-C , 10-H ) :   0.9465 B(  3-C , 11-H ) :   0.9461

FINAL SINGLE POINT ENERGY      -248.032484807869

DIPOLE MOMENT
-------------
                                X             Y             Z
Electronic contribution:      5.08476      -1.20243      -0.68355
Nuclear contribution   :     -6.51397       0.95543       0.54408
                        -----------------------------------------
Total Dipole Moment    :     -1.42922      -0.24701      -0.13947
                        -----------------------------------------
Magnitude (a.u.)       :      1.45710
Magnitude (Debye)      :      3.70364

                             ****ORCA TERMINATED NORMALLY****
TOTAL RUN TIME: 0 days 0 hours 0 minutes 5 seconds 41 msec
