                         Program Version 3.0.3 - RELEASE   -
|  1> ! RI PBE def2-SVP def2-SVP/J NBO PAL2
|  2> % maxcore 2000
|  3> % output
|  4>     # printlevel mini
|  5>     print[ P_Basis ] 0
|  6>     print[ P_SCFInfo ] 1
|  7>     print[ P_SCFIterInfo ] 1
|  8>     print[ P_OrbEn ] 0
|  9>     print[ P_Cartesian ] 0
| 10> end
| 11> *xyz 0 1
| 12>  C        0.8698620000     0.0176300000     0.0924440000
| 13>  N        2.3139450000    -0.0845640000     0.0882400000
| 14>  C        2.8007820000    -1.3769060000    -0.3261350000
| 15>  C        4.2889270000    -1.3538250000    -0.5615200000
| 16>  O        5.0124190000    -2.2977170000    -0.4065890000
| 17>  H        0.5738200000     1.0033640000     0.4555290000
| 18>  H        0.3667360000    -0.7435230000     0.7095300000
| 19>  H        0.4959980000    -0.0838490000    -0.9300100000
| 20>  H        2.6760040000     0.1424940000     1.0058100000
| 21>  H        2.3498670000    -1.6153610000    -1.3003950000
| 22>  H        2.5589010000    -2.2158300000     0.3448880000
| 23>  H        4.6767510000    -0.3731020000    -0.9131820000
| 24> *
| 25>
| 26>                          ****END OF INPUT****
 Total Charge           Charge          ....    0
 Multiplicity           Mult            ....    1
 Number of Electrons    NEL             ....   40
 Basis Dimension        Dim             ....  105

MULLIKEN ATOMIC CHARGES
-----------------------
   0 C :    0.069498
   1 N :   -0.291180
   2 C :    0.124056
   3 C :    0.058037
   4 O :   -0.157914
   5 H :    0.024493
   6 H :    0.002461
   7 H :    0.022574
   8 H :    0.106378
   9 H :    0.037763
  10 H :    0.011453
  11 H :   -0.007618
Sum of atomic charges:   -0.0000000

LOEWDIN ATOMIC CHARGES
----------------------
   0 C :   -0.002819
   1 N :   -0.103618
   2 C :   -0.028938
   3 C :    0.081909
   4 O :   -0.103420
   5 H :    0.024882
   6 H :    0.001793
   7 H :    0.022853
   8 H :    0.058404
   9 H :    0.047166
  10 H :    0.013882
  11 H :   -0.012092

  Mayer bond orders larger than 0.1
B(  0-C ,  1-N ) :   1.0576 B(  0-C ,  5-H ) :   0.9725 B(  0-C ,  6-H ) :   0.9498
B(  0-C ,  7-H ) :   0.9700 B(  1-N ,  2-C ) :   1.0178 B(  1-N ,  8-H ) :   0.9521
B(  2-C ,  3-C ) :   0.9521 B(  2-C ,  9-H ) :   0.9047 B(  2-C , 10-H ) :   0.9053
B(  3-C ,  4-O ) :   2.1803 B(  3-C , 11-H ) :   0.9218

FINAL SINGLE POINT ENERGY      -247.987427209374

DIPOLE MOMENT
-------------
                                X             Y             Z
Electronic contribution:      6.19264      -2.55290      -0.56771
Nuclear contribution   :     -7.07056       3.02959       0.79814
                        -----------------------------------------
Total Dipole Moment    :     -0.87792       0.47670       0.23044
                        -----------------------------------------
Magnitude (a.u.)       :      1.02522
Magnitude (Debye)      :      2.60591

                             ****ORCA TERMINATED NORMALLY****
TOTAL RUN TIME: 0 days 0 hours 0 minutes 4 seconds 957 msec
