                         Program Version 3.0.3 - RELEASE   -
|  1> ! RI PBE def2-SVP def2-SVP/J NBO PAL2
|  2> % maxcore 2000
|  3> % output
|  4>     # printlevel mini
|  5>     print[ P_Basis ] 0
|  6>     print[ P_SCFInfo ] 1
|  7>     print[ P_SCFIterInfo ] 1
|  8>     print[ P_OrbEn ] 0
|  9>     print[ P_Cartesian ] 0
| 10> end
| 11> *xyz 0 1
| 12>  C        2.9419430000    -0.8136790000     0.1737520000
| 13>  O        3.8473270000     0.2483560000     0.0714230000
| 14>  C        3.2455520000     1.4301640000    -0.3997540000
| 15>  C        4.3158150000     2.4792910000    -0.5603740000
| 16>  N        5.2559890000     2.0777720000    -1.5917970000
| 17>  H        3.4891410000    -1.6821290000     0.5419330000
| 18>  H        2.4968410000    -1.0597770000    -0.8004060000
| 19>  H        2.1282730000    -0.5836580000     0.8763460000
| 20>  H        2.4782600000     1.7752410000     0.3103120000
| 21>  H        2.7600710000     1.2452530000    -1.3696820000
| 22>  H        4.7757560000     2.6536410000     0.4251080000
| 23>  H        3.8327000000     3.4135090000    -0.8634510000
| 24>  H        5.6698920000     1.1897470000    -1.3346950000
| 25>  H        6.0090410000     2.7484680000    -1.6729150000
| 26> *
| 27>
| 28>                          ****END OF INPUT****
 Total Charge           Charge          ....    0
 Multiplicity           Mult            ....    1
 Number of Electrons    NEL             ....   42
 Basis Dimension        Dim             ....  115

MULLIKEN ATOMIC CHARGES
-----------------------
   0 C :    0.153614
   1 O :   -0.359269
   2 C :    0.139082
   3 C :    0.090063
   4 N :   -0.227561
   5 H :    0.028726
   6 H :    0.004937
   7 H :    0.002538
   8 H :   -0.004358
   9 H :   -0.004939
  10 H :   -0.005009
  11 H :    0.002278
  12 H :    0.091506
  13 H :    0.088393
Sum of atomic charges:    0.0000000

LOEWDIN ATOMIC CHARGES
----------------------
   0 C :    0.050446
   1 O :   -0.154506
   2 C :    0.052269
   3 C :   -0.003036
   4 N :   -0.113799
   5 H :    0.021884
   6 H :    0.005656
   7 H :    0.004124
   8 H :    0.004636
   9 H :    0.005393
  10 H :    0.002775
  11 H :    0.023971
  12 H :    0.048616
  13 H :    0.051571

  Mayer bond orders larger than 0.1
B(  0-C ,  1-O ) :   1.0199 B(  0-C ,  5-H ) :   0.9764 B(  0-C ,  6-H ) :   0.9559
B(  0-C ,  7-H ) :   0.9560 B(  1-O ,  2-C ) :   1.0133 B(  2-C ,  3-C ) :   1.0961
B(  2-C ,  8-H ) :   0.9271 B(  2-C ,  9-H ) :   0.9152 B(  3-C ,  4-N ) :   1.0914
B(  3-C , 10-H ) :   0.9187 B(  3-C , 11-H ) :   0.9257 B(  4-N , 12-H ) :   0.9643
B(  4-N , 13-H ) :   0.9676

FINAL SINGLE POINT ENERGY      -249.183363354377

DIPOLE MOMENT
-------------
                                X             Y             Z
Electronic contribution:      1.53674      -0.06932       0.02830
Nuclear contribution   :     -1.62287       0.09661       0.23476
                        -----------------------------------------
Total Dipole Moment    :     -0.08613       0.02729       0.26306
                        -----------------------------------------
Magnitude (a.u.)       :      0.27814
Magnitude (Debye)      :      0.70698

                             ****ORCA TERMINATED NORMALLY****
TOTAL RUN TIME: 0 days 0 hours 0 minutes 5 seconds 190 msec
