                         Program Version 3.0.3 - RELEASE   -
|  1> ! RI PBE def2-SVP def2-SVP/J NBO PAL2
|  2> % maxcore 2000
|  3> % output
|  4>     # printlevel mini
|  5>     print[ P_Basis ] 0
|  6>     print[ P_SCFInfo ] 1
|  7>     print[ P_SCFIterInfo ] 1
|  8>     print[ P_OrbEn ] 0
|  9>     print[ P_Cartesian ] 0
| 10> end
| 11> *xyz 0 1
| 12>  C        1.5205970000     0.4121990000     0.4631120000
| 13>  O        2.9088500000     0.2766530000     0.2516470000
| 14>  N        3.2280110000    -1.0623960000     0.1678920000
| 15>  C        4.4675870000    -1.2417400000    -0.0224350000
| 16>  C        5.0123340000    -2.6171330000    -0.1408440000
| 17>  H        1.3322670000     1.4843210000     0.5199000000
| 18>  H        1.2159540000    -0.0660750000     1.3984800000
| 19>  H        0.9518230000    -0.0190310000    -0.3657410000
| 20>  H        5.1386620000    -0.3833220000    -0.0997990000
| 21>  H        4.2141860000    -3.3523520000    -0.0411410000
| 22>  H        5.7658380000    -2.8023270000     0.6307550000
| 23>  H        5.5057020000    -2.7556790000    -1.1077060000
| 24> *
| 25>
| 26>                          ****END OF INPUT****
 Total Charge           Charge          ....    0
 Multiplicity           Mult            ....    1
 Number of Electrons    NEL             ....   40
 Basis Dimension        Dim             ....  105

MULLIKEN ATOMIC CHARGES
-----------------------
   0 C :    0.162417
   1 O :   -0.284588
   2 N :   -0.006778
   3 C :   -0.089457
   4 C :    0.028667
   5 H :    0.029963
   6 H :    0.017411
   7 H :    0.019973
   8 H :    0.007030
   9 H :    0.033496
  10 H :    0.042238
  11 H :    0.039629
Sum of atomic charges:   -0.0000000

LOEWDIN ATOMIC CHARGES
----------------------
   0 C :    0.041835
   1 O :   -0.094544
   2 N :   -0.008435
   3 C :   -0.035556
   4 C :   -0.071392
   5 H :    0.023175
   6 H :    0.010670
   7 H :    0.011001
   8 H :    0.004611
   9 H :    0.037725
  10 H :    0.040589
  11 H :    0.040322

  Mayer bond orders larger than 0.1
B(  0-C ,  1-O ) :   0.9774 B(  0-C ,  5-H ) :   0.9739 B(  0-C ,  6-H ) :   0.9670
B(  0-C ,  7-H ) :   0.9678 B(  1-O ,  2-N ) :   0.9522 B(  1-O ,  3-C ) :   0.1071
B(  2-N ,  3-C ) :   1.9055 B(  3-C ,  4-C ) :   1.0778 B(  3-C ,  8-H ) :   0.9394
B(  4-C ,  9-H ) :   0.9529 B(  4-C , 10-H ) :   0.9469 B(  4-C , 11-H ) :   0.9462

FINAL SINGLE POINT ENERGY      -247.948956594655

DIPOLE MOMENT
-------------
                                X             Y             Z
Electronic contribution:     -0.19846       1.97789       0.08199
Nuclear contribution   :      0.32545      -2.01787      -0.10265
                        -----------------------------------------
Total Dipole Moment    :      0.12698      -0.03998      -0.02066
                        -----------------------------------------
Magnitude (a.u.)       :      0.13472
Magnitude (Debye)      :      0.34244

                             ****ORCA TERMINATED NORMALLY****
TOTAL RUN TIME: 0 days 0 hours 0 minutes 4 seconds 273 msec
