                         Program Version 3.0.3 - RELEASE   -
|  1> ! RI PBE def2-SVP def2-SVP/J NBO PAL2
|  2> % maxcore 2000
|  3> % output
|  4>     # printlevel mini
|  5>     print[ P_Basis ] 0
|  6>     print[ P_SCFInfo ] 1
|  7>     print[ P_SCFIterInfo ] 1
|  8>     print[ P_OrbEn ] 0
|  9>     print[ P_Cartesian ] 0
| 10> end
| 11> *xyz 0 1
| 12>  N        1.0582860000    -0.0268950000     0.1879710000
| 13>  C        2.4724670000    -0.2339910000     0.0883140000
| 14>  C        3.1389990000    -0.9768450000    -1.0507030000
| 15>  C        3.2641050000     0.5045600000    -0.9339970000
| 16>  O        4.5250940000     1.0035750000    -0.6250100000
| 17>  H        0.5721410000    -0.9019000000     0.3427210000
| 18>  H        0.6881160000     0.3746580000    -0.6639130000
| 19>  H        2.9668610000    -0.3400450000     1.0491710000
| 20>  H        2.5143710000    -1.3718250000    -1.8433130000
| 21>  H        4.0256340000    -1.5550680000    -0.8207970000
| 22>  H        2.6969200000     1.1026330000    -1.6484850000
| 23>  H        4.4133060000     1.7675530000    -0.0522590000
| 24> *
| 25>
| 26>                          ****END OF INPUT****
 Total Charge           Charge          ....    0
 Multiplicity           Mult            ....    1
 Number of Electrons    NEL             ....   40
 Basis Dimension        Dim             ....  105

MULLIKEN ATOMIC CHARGES
-----------------------
   0 N :   -0.120869
   1 C :   -0.097660
   2 C :   -0.000420
   3 C :    0.035036
   4 O :   -0.234622
   5 H :    0.095768
   6 H :    0.075475
   7 H :    0.022156
   8 H :    0.017504
   9 H :    0.037552
  10 H :    0.010111
  11 H :    0.159969
Sum of atomic charges:   -0.0000000

LOEWDIN ATOMIC CHARGES
----------------------
   0 N :   -0.088173
   1 C :   -0.027838
   2 C :   -0.073696
   3 C :    0.023996
   4 O :   -0.097462
   5 H :    0.055475
   6 H :    0.049517
   7 H :    0.021719
   8 H :    0.022772
   9 H :    0.032429
  10 H :    0.005688
  11 H :    0.075573

  Mayer bond orders larger than 0.1
B(  0-N ,  1-C ) :   1.1445 B(  0-N ,  5-H ) :   0.9660 B(  0-N ,  6-H ) :   0.9598
B(  1-C ,  2-C ) :   0.9538 B(  1-C ,  3-C ) :   0.9406 B(  1-C ,  7-H ) :   0.9358
B(  2-C ,  3-C ) :   0.9773 B(  2-C ,  8-H ) :   0.9376 B(  2-C ,  9-H ) :   0.9304
B(  3-C ,  4-O ) :   1.1429 B(  3-C , 10-H ) :   0.9448 B(  4-O , 11-H ) :   0.9819

FINAL SINGLE POINT ENERGY      -247.968131088877

DIPOLE MOMENT
-------------
                                X             Y             Z
Electronic contribution:      1.77820       1.44462       0.29169
Nuclear contribution   :     -2.24724      -1.41680      -0.37318
                        -----------------------------------------
Total Dipole Moment    :     -0.46905       0.02782      -0.08148
                        -----------------------------------------
Magnitude (a.u.)       :      0.47688
Magnitude (Debye)      :      1.21214

                             ****ORCA TERMINATED NORMALLY****
TOTAL RUN TIME: 0 days 0 hours 0 minutes 4 seconds 585 msec
