                         Program Version 3.0.3 - RELEASE   -
|  1> ! RI PBE def2-SVP def2-SVP/J NBO PAL2
|  2> % maxcore 2000
|  3> % output
|  4>     # printlevel mini
|  5>     print[ P_Basis ] 0
|  6>     print[ P_SCFInfo ] 1
|  7>     print[ P_SCFIterInfo ] 1
|  8>     print[ P_OrbEn ] 0
|  9>     print[ P_Cartesian ] 0
| 10> end
| 11> *xyz 0 1
| 12>  N        0.9736190000     0.0524050000     0.0119550000
| 13>  C        2.4067610000     0.1064070000     0.0165500000
| 14>  C        3.2050020000     1.1188440000     0.8640380000
| 15>  O        4.0189860000     0.0700430000     1.4008600000
| 16>  C        3.1371500000    -0.9307110000     0.8737990000
| 17>  H        0.5712540000     0.7574230000    -0.5911870000
| 18>  H        0.5947780000     0.1834600000     0.9421150000
| 19>  H        2.7580620000     0.0902270000    -1.0170910000
| 20>  H        2.5956750000     1.6016870000     1.6413470000
| 21>  H        3.7979200000     1.8774180000     0.3442110000
| 22>  H        2.4968830000    -1.3626570000     1.6546420000
| 23>  H        3.6749020000    -1.7335240000     0.3630620000
| 24> *
| 25>
| 26>                          ****END OF INPUT****
 Total Charge           Charge          ....    0
 Multiplicity           Mult            ....    1
 Number of Electrons    NEL             ....   40
 Basis Dimension        Dim             ....  105

MULLIKEN ATOMIC CHARGES
-----------------------
   0 N :   -0.133044
   1 C :   -0.214564
   2 C :    0.261255
   3 O :   -0.367826
   4 C :    0.256274
   5 H :    0.095860
   6 H :    0.084693
   7 H :    0.021838
   8 H :   -0.021267
   9 H :    0.008544
  10 H :   -0.007488
  11 H :    0.015726
Sum of atomic charges:    0.0000000

LOEWDIN ATOMIC CHARGES
----------------------
   0 N :   -0.085692
   1 C :   -0.026157
   2 C :    0.060774
   3 O :   -0.186221
   4 C :    0.080839
   5 H :    0.055972
   6 H :    0.048886
   7 H :    0.027008
   8 H :   -0.000774
   9 H :    0.007904
  10 H :    0.005475
  11 H :    0.011985

  Mayer bond orders larger than 0.1
B(  0-N ,  1-C ) :   1.1431 B(  0-N ,  5-H ) :   0.9659 B(  0-N ,  6-H ) :   0.9575
B(  1-C ,  2-C ) :   1.0466 B(  1-C ,  4-C ) :   1.0717 B(  1-C ,  7-H ) :   0.9065
B(  2-C ,  3-O ) :   1.0388 B(  2-C ,  8-H ) :   0.9089 B(  2-C ,  9-H ) :   0.9354
B(  3-O ,  4-C ) :   1.0317 B(  4-C , 10-H ) :   0.9192 B(  4-C , 11-H ) :   0.9389

FINAL SINGLE POINT ENERGY      -247.965772719600

DIPOLE MOMENT
-------------
                                X             Y             Z
Electronic contribution:      1.84899      -0.28129       0.76607
Nuclear contribution   :     -2.45746       0.71351      -1.08561
                        -----------------------------------------
Total Dipole Moment    :     -0.60846       0.43222      -0.31954
                        -----------------------------------------
Magnitude (a.u.)       :      0.81188
Magnitude (Debye)      :      2.06363

                             ****ORCA TERMINATED NORMALLY****
TOTAL RUN TIME: 0 days 0 hours 0 minutes 4 seconds 920 msec
