                         Program Version 3.0.3 - RELEASE   -
|  1> ! RI PBE def2-SVP def2-SVP/J NBO PAL2
|  2> % maxcore 2000
|  3> % output
|  4>     # printlevel mini
|  5>     print[ P_Basis ] 0
|  6>     print[ P_SCFInfo ] 1
|  7>     print[ P_SCFIterInfo ] 1
|  8>     print[ P_OrbEn ] 0
|  9>     print[ P_Cartesian ] 0
| 10> end
| 11> *xyz 0 1
| 12>  N        0.9358390000    -0.3108920000     0.0446410000
| 13>  C        2.3130770000     0.1433830000     0.1269620000
| 14>  C        2.7643550000     0.6283410000    -1.2150850000
| 15>  C        4.1435930000     0.4853200000    -1.6630200000
| 16>  O        3.1329260000    -0.3822940000    -2.1487130000
| 17>  H        0.5991870000    -0.6098130000     0.9505460000
| 18>  H        0.8749260000    -1.1088230000    -0.5766750000
| 19>  H        3.0255590000    -0.6210700000     0.4738170000
| 20>  H        2.3612210000     0.9798180000     0.8327000000
| 21>  H        2.1565990000     1.4221740000    -1.6468790000
| 22>  H        4.8745590000     0.0218910000    -1.0038910000
| 23>  H        4.5475700000     1.1835540000    -2.3918020000
| 24> *
| 25>
| 26>                          ****END OF INPUT****
 Total Charge           Charge          ....    0
 Multiplicity           Mult            ....    1
 Number of Electrons    NEL             ....   40
 Basis Dimension        Dim             ....  105

MULLIKEN ATOMIC CHARGES
-----------------------
   0 N :   -0.224743
   1 C :    0.171189
   2 C :   -0.051518
   3 C :    0.148721
   4 O :   -0.300411
   5 H :    0.089568
   6 H :    0.097619
   7 H :   -0.018190
   8 H :    0.015803
   9 H :    0.023111
  10 H :    0.019919
  11 H :    0.028931
Sum of atomic charges:    0.0000000

LOEWDIN ATOMIC CHARGES
----------------------
   0 N :   -0.109855
   1 C :   -0.002335
   2 C :    0.032986
   3 C :    0.055214
   4 O :   -0.164657
   5 H :    0.053131
   6 H :    0.055815
   7 H :    0.005210
   8 H :    0.028883
   9 H :    0.017516
  10 H :    0.012141
  11 H :    0.015952

  Mayer bond orders larger than 0.1
B(  0-N ,  1-C ) :   1.0781 B(  0-N ,  5-H ) :   0.9634 B(  0-N ,  6-H ) :   0.9695
B(  1-C ,  2-C ) :   1.0606 B(  1-C ,  7-H ) :   0.9007 B(  1-C ,  8-H ) :   0.9221
B(  2-C ,  3-C ) :   1.0802 B(  2-C ,  4-O ) :   0.9567 B(  2-C ,  9-H ) :   0.9346
B(  3-C ,  4-O ) :   1.0070 B(  3-C , 10-H ) :   0.9269 B(  3-C , 11-H ) :   0.9361

FINAL SINGLE POINT ENERGY      -247.964684723462

DIPOLE MOMENT
-------------
                                X             Y             Z
Electronic contribution:      0.28491      -0.57644      -2.50155
Nuclear contribution   :     -0.00411       0.64979       3.13942
                        -----------------------------------------
Total Dipole Moment    :      0.28080       0.07335       0.63787
                        -----------------------------------------
Magnitude (a.u.)       :      0.70079
Magnitude (Debye)      :      1.78126

                             ****ORCA TERMINATED NORMALLY****
TOTAL RUN TIME: 0 days 0 hours 0 minutes 4 seconds 707 msec
