                         Program Version 3.0.3 - RELEASE   -
|  1> ! RI PBE def2-SVP def2-SVP/J NBO PAL2
|  2> % maxcore 2000
|  3> % output
|  4>     # printlevel mini
|  5>     print[ P_Basis ] 0
|  6>     print[ P_SCFInfo ] 1
|  7>     print[ P_SCFIterInfo ] 1
|  8>     print[ P_OrbEn ] 0
|  9>     print[ P_Cartesian ] 0
| 10> end
| 11> *xyz 0 1
| 12>  N        3.2463230000     1.4080020000     0.2875090000
| 13>  C        2.6764470000     0.0708860000     0.1095120000
| 14>  C        3.2231590000    -0.5954630000    -1.1429820000
| 15>  C        4.7288080000    -0.8073600000    -1.1062280000
| 16>  O        5.4575570000     0.3947450000    -1.1230360000
| 17>  H        3.0029430000     1.7892750000     1.1926350000
| 18>  H        2.8808950000     2.0437670000    -0.4122300000
| 19>  H        1.5774850000     0.0763180000     0.0775690000
| 20>  H        2.9637850000    -0.5255630000     0.9818250000
| 21>  H        2.9678480000     0.0041610000    -2.0252230000
| 22>  H        2.7277630000    -1.5648080000    -1.2657820000
| 23>  H        5.0428850000    -1.3843020000    -1.9810820000
| 24>  H        4.9815230000    -1.4103050000    -0.2175440000
| 25>  H        5.0118890000     0.9803370000    -0.4874460000
| 26> *
| 27>
| 28>                          ****END OF INPUT****
 Total Charge           Charge          ....    0
 Multiplicity           Mult            ....    1
 Number of Electrons    NEL             ....   42
 Basis Dimension        Dim             ....  115

MULLIKEN ATOMIC CHARGES
-----------------------
   0 N :   -0.223658
   1 C :    0.047932
   2 C :   -0.068620
   3 C :    0.188173
   4 O :   -0.302675
   5 H :    0.100412
   6 H :    0.105174
   7 H :    0.011911
   8 H :    0.012810
   9 H :    0.011965
  10 H :    0.007925
  11 H :    0.002159
  12 H :   -0.019509
  13 H :    0.125999
Sum of atomic charges:   -0.0000000

LOEWDIN ATOMIC CHARGES
----------------------
   0 N :   -0.076738
   1 C :    0.003611
   2 C :   -0.072513
   3 C :    0.054335
   4 O :   -0.142243
   5 H :    0.058212
   6 H :    0.058025
   7 H :    0.006795
   8 H :    0.021916
   9 H :    0.022312
  10 H :    0.030703
  11 H :    0.015397
  12 H :   -0.002824
  13 H :    0.023013

  Mayer bond orders larger than 0.1
B(  0-N ,  1-C ) :   1.0562 B(  0-N ,  5-H ) :   0.9636 B(  0-N ,  6-H ) :   0.9624
B(  0-N , 13-H ) :   0.1571 B(  1-C ,  2-C ) :   1.0951 B(  1-C ,  7-H ) :   0.9387
B(  1-C ,  8-H ) :   0.9388 B(  2-C ,  3-C ) :   1.0779 B(  2-C ,  9-H ) :   0.9300
B(  2-C , 10-H ) :   0.9156 B(  3-C ,  4-O ) :   1.0899 B(  3-C , 11-H ) :   0.9396
B(  3-C , 12-H ) :   0.9262 B(  4-O , 13-H ) :   0.9392

FINAL SINGLE POINT ENERGY      -249.201890726531

DIPOLE MOMENT
-------------
                                X             Y             Z
Electronic contribution:      2.35584       1.30304      -0.50924
Nuclear contribution   :     -3.55785      -1.11039       1.04028
                        -----------------------------------------
Total Dipole Moment    :     -1.20201       0.19265       0.53103
                        -----------------------------------------
Magnitude (a.u.)       :      1.32813
Magnitude (Debye)      :      3.37584

                             ****ORCA TERMINATED NORMALLY****
TOTAL RUN TIME: 0 days 0 hours 0 minutes 5 seconds 467 msec
