                         Program Version 3.0.3 - RELEASE   -
|  1> ! RI PBE def2-SVP def2-SVP/J NBO PAL2
|  2> % maxcore 2000
|  3> % output
|  4>     # printlevel mini
|  5>     print[ P_Basis ] 0
|  6>     print[ P_SCFInfo ] 1
|  7>     print[ P_SCFIterInfo ] 1
|  8>     print[ P_OrbEn ] 0
|  9>     print[ P_Cartesian ] 0
| 10> end
| 11> *xyz 0 1
| 12>  N        1.0387580000     0.0167040000    -0.1301750000
| 13>  C        2.3800190000     0.0758290000    -0.0352930000
| 14>  C        3.1036840000     0.5368220000     1.0065700000
| 15>  C        4.5420140000     0.5219590000     0.9276440000
| 16>  O        5.3035200000     0.9047380000     1.7882180000
| 17>  H        0.5925260000    -0.3445030000    -0.9504940000
| 18>  H        0.4525320000     0.3339510000     0.6202900000
| 19>  H        2.9094850000    -0.2958480000    -0.9098180000
| 20>  H        2.6405730000     0.9217490000     1.9096270000
| 21>  H        4.9399800000     0.1117890000    -0.0311780000
| 22> *
| 23>
| 24>                          ****END OF INPUT****
 Total Charge           Charge          ....    0
 Multiplicity           Mult            ....    1
 Number of Electrons    NEL             ....   38
 Basis Dimension        Dim             ....   95

MULLIKEN ATOMIC CHARGES
-----------------------
   0 N :   -0.049987
   1 C :    0.012350
   2 C :   -0.048893
   3 C :    0.093669
   4 O :   -0.203973
   5 H :    0.126529
   6 H :    0.122935
   7 H :    0.011449
   8 H :   -0.013372
   9 H :   -0.050706
Sum of atomic charges:    0.0000000

LOEWDIN ATOMIC CHARGES
----------------------
   0 N :    0.039663
   1 C :    0.036867
   2 C :   -0.153713
   3 C :    0.044361
   4 O :   -0.157901
   5 H :    0.079056
   6 H :    0.080539
   7 H :    0.029243
   8 H :    0.026665
   9 H :   -0.024780

  Mayer bond orders larger than 0.1
B(  0-N ,  1-C ) :   1.3175 B(  0-N ,  5-H ) :   0.9524 B(  0-N ,  6-H ) :   0.9546
B(  1-C ,  2-C ) :   1.5741 B(  1-C ,  7-H ) :   0.9451 B(  2-C ,  3-C ) :   1.1129
B(  2-C ,  8-H ) :   0.9631 B(  3-C ,  4-O ) :   2.0628 B(  3-C ,  9-H ) :   0.9262

FINAL SINGLE POINT ENERGY      -246.807705522816

DIPOLE MOMENT
-------------
                                X             Y             Z
Electronic contribution:      2.28504       0.71578       1.57995
Nuclear contribution   :     -4.43441      -1.23110      -2.70512
                        -----------------------------------------
Total Dipole Moment    :     -2.14937      -0.51533      -1.12517
                        -----------------------------------------
Magnitude (a.u.)       :      2.48020
Magnitude (Debye)      :      6.30416

                             ****ORCA TERMINATED NORMALLY****
TOTAL RUN TIME: 0 days 0 hours 0 minutes 4 seconds 168 msec
