                         Program Version 3.0.3 - RELEASE   -
|  1> ! RI PBE def2-SVP def2-SVP/J NBO PAL2
|  2> % maxcore 2000
|  3> % output
|  4>     # printlevel mini
|  5>     print[ P_Basis ] 0
|  6>     print[ P_SCFInfo ] 1
|  7>     print[ P_SCFIterInfo ] 1
|  8>     print[ P_OrbEn ] 0
|  9>     print[ P_Cartesian ] 0
| 10> end
| 11> *xyz 0 1
| 12>  N        1.0353370000    -0.1005960000    -0.3589470000
| 13>  C        2.2549990000     0.0295130000     0.2242310000
| 14>  O        2.7603310000     1.1117950000     0.4397270000
| 15>  C        2.9114190000    -1.2619050000     0.5719080000
| 16>  C        4.1051770000    -1.2774080000     1.1461930000
| 17>  H        0.5386700000     0.7335900000    -0.6186080000
| 18>  H        0.6188700000    -0.9952020000    -0.5366100000
| 19>  H        2.3883140000    -2.1865020000     0.3434330000
| 20>  H        4.6064220000    -0.3403170000     1.3638220000
| 21>  H        4.6014520000    -2.2039670000     1.4078610000
| 22> *
| 23>
| 24>                          ****END OF INPUT****
 Total Charge           Charge          ....    0
 Multiplicity           Mult            ....    1
 Number of Electrons    NEL             ....   38
 Basis Dimension        Dim             ....   95

MULLIKEN ATOMIC CHARGES
-----------------------
   0 N :   -0.054353
   1 C :    0.037662
   2 O :   -0.200307
   3 C :   -0.092030
   4 C :    0.022179
   5 H :    0.117625
   6 H :    0.106971
   7 H :   -0.013339
   8 H :    0.046491
   9 H :    0.029101
Sum of atomic charges:   -0.0000000

LOEWDIN ATOMIC CHARGES
----------------------
   0 N :    0.016331
   1 C :    0.019498
   2 O :   -0.192551
   3 C :   -0.077488
   4 C :    0.004958
   5 H :    0.074228
   6 H :    0.069902
   7 H :    0.020692
   8 H :    0.035197
   9 H :    0.029233

  Mayer bond orders larger than 0.1
B(  0-N ,  1-C ) :   1.2406 B(  0-N ,  5-H ) :   0.9372 B(  0-N ,  6-H ) :   0.9425
B(  1-C ,  2-O ) :   2.1096 B(  1-C ,  3-C ) :   0.9375 B(  3-C ,  4-C ) :   1.9913
B(  3-C ,  7-H ) :   0.9434 B(  4-C ,  8-H ) :   0.9313 B(  4-C ,  9-H ) :   0.9385

FINAL SINGLE POINT ENERGY      -246.820160586262

DIPOLE MOMENT
-------------
                                X             Y             Z
Electronic contribution:     -0.69723       2.38658      -0.39508
Nuclear contribution   :     -0.10977      -3.42185       0.03297
                        -----------------------------------------
Total Dipole Moment    :     -0.80699      -1.03527      -0.36211
                        -----------------------------------------
Magnitude (a.u.)       :      1.36167
Magnitude (Debye)      :      3.46109

                             ****ORCA TERMINATED NORMALLY****
TOTAL RUN TIME: 0 days 0 hours 0 minutes 4 seconds 627 msec
