                         Program Version 3.0.3 - RELEASE   -
|  1> ! RI PBE def2-SVP def2-SVP/J NBO PAL2
|  2> % maxcore 2000
|  3> % output
|  4>     # printlevel mini
|  5>     print[ P_Basis ] 0
|  6>     print[ P_SCFInfo ] 1
|  7>     print[ P_SCFIterInfo ] 1
|  8>     print[ P_OrbEn ] 0
|  9>     print[ P_Cartesian ] 0
| 10> end
| 11> *xyz 0 1
| 12>  N        0.9509550000    -0.0107340000    -0.0554520000
| 13>  C        2.3017010000    -0.0752120000     0.0102000000
| 14>  O        2.9099560000    -0.8086590000     0.7565080000
| 15>  C        2.9790600000     0.8300770000    -0.9110790000
| 16>  C        3.5698610000     1.5621440000    -1.6560410000
| 17>  H        0.4137770000    -0.6064350000     0.5507200000
| 18>  H        0.4858000000     0.6124180000    -0.6895720000
| 19>  H        4.1083910000     2.2065020000    -2.3113840000
| 20> *
| 21>
| 22>                          ****END OF INPUT****
 Total Charge           Charge          ....    0
 Multiplicity           Mult            ....    1
 Number of Electrons    NEL             ....   36
 Basis Dimension        Dim             ....   85

MULLIKEN ATOMIC CHARGES
-----------------------
   0 N :   -0.053214
   1 C :    0.039809
   2 O :   -0.171455
   3 C :    0.321361
   4 C :   -0.399077
   5 H :    0.125784
   6 H :    0.119860
   7 H :    0.016933
Sum of atomic charges:   -0.0000000

LOEWDIN ATOMIC CHARGES
----------------------
   0 N :    0.028852
   1 C :    0.009341
   2 O :   -0.158470
   3 C :   -0.047243
   4 C :   -0.030895
   5 H :    0.078056
   6 H :    0.079190
   7 H :    0.041168

  Mayer bond orders larger than 0.1
B(  0-N ,  1-C ) :   1.2671 B(  0-N ,  2-O ) :   0.1087 B(  0-N ,  5-H ) :   0.9370
B(  0-N ,  6-H ) :   0.9404 B(  1-C ,  2-O ) :   2.1120 B(  1-C ,  3-C ) :   0.8577
B(  3-C ,  4-C ) :   2.4080 B(  4-C ,  7-H ) :   1.0865

FINAL SINGLE POINT ENERGY      -245.569009393116

DIPOLE MOMENT
-------------
                                X             Y             Z
Electronic contribution:      1.19586      -0.68414       0.69592
Nuclear contribution   :     -2.28181       1.36705      -1.39082
                        -----------------------------------------
Total Dipole Moment    :     -1.08595       0.68291      -0.69490
                        -----------------------------------------
Magnitude (a.u.)       :      1.45895
Magnitude (Debye)      :      3.70835

                             ****ORCA TERMINATED NORMALLY****
TOTAL RUN TIME: 0 days 0 hours 0 minutes 3 seconds 771 msec
