                         Program Version 3.0.3 - RELEASE   -
|  1> ! RI PBE def2-SVP def2-SVP/J NBO PAL2
|  2> % maxcore 2000
|  3> % output
|  4>     # printlevel mini
|  5>     print[ P_Basis ] 0
|  6>     print[ P_SCFInfo ] 1
|  7>     print[ P_SCFIterInfo ] 1
|  8>     print[ P_OrbEn ] 0
|  9>     print[ P_Cartesian ] 0
| 10> end
| 11> *xyz 0 1
| 12>  O        1.1350180000    -0.0554380000     0.4633100000
| 13>  C        2.2732140000     0.0298730000     0.1001760000
| 14>  C        3.2795640000     1.1682950000    -0.1334860000
| 15>  C        4.2675350000     0.0567020000    -0.5466760000
| 16>  N        3.2004560000    -0.8982840000    -0.2779610000
| 17>  H        3.5398550000     1.7207440000     0.7686970000
| 18>  H        2.9893120000     1.8606060000    -0.9229990000
| 19>  H        5.1388730000    -0.0533020000     0.1031050000
| 20>  H        4.5872330000     0.0863100000    -1.5909340000
| 21>  H        3.1503390000    -1.9025970000    -0.3445320000
| 22> *
| 23>
| 24>                          ****END OF INPUT****
 Total Charge           Charge          ....    0
 Multiplicity           Mult            ....    1
 Number of Electrons    NEL             ....   38
 Basis Dimension        Dim             ....   95

MULLIKEN ATOMIC CHARGES
-----------------------
   0 O :   -0.167512
   1 C :    0.083612
   2 C :   -0.114053
   3 C :    0.150332
   4 N :   -0.209964
   5 H :    0.050832
   6 H :    0.051881
   7 H :    0.027346
   8 H :    0.024820
   9 H :    0.102706
Sum of atomic charges:   -0.0000000

LOEWDIN ATOMIC CHARGES
----------------------
   0 O :   -0.161912
   1 C :    0.017181
   2 C :   -0.061277
   3 C :    0.042335
   4 N :   -0.014702
   5 H :    0.039949
   6 H :    0.040193
   7 H :    0.018574
   8 H :    0.018095
   9 H :    0.061564

  Mayer bond orders larger than 0.1
B(  0-O ,  1-C ) :   2.1739 B(  0-O ,  4-N ) :   0.1141 B(  1-C ,  2-C ) :   0.9446
B(  1-C ,  4-N ) :   1.1794 B(  2-C ,  3-C ) :   1.1090 B(  2-C ,  5-H ) :   0.9202
B(  2-C ,  6-H ) :   0.9190 B(  3-C ,  4-N ) :   1.0293 B(  3-C ,  7-H ) :   0.9361
B(  3-C ,  8-H ) :   0.9352 B(  4-N ,  9-H ) :   0.9405

FINAL SINGLE POINT ENERGY      -246.818146235343

DIPOLE MOMENT
-------------
                                X             Y             Z
Electronic contribution:     -3.63143      -1.55047       1.05218
Nuclear contribution   :      4.95094       1.37955      -1.49731
                        -----------------------------------------
Total Dipole Moment    :      1.31952      -0.17092      -0.44513
                        -----------------------------------------
Magnitude (a.u.)       :      1.40303
Magnitude (Debye)      :      3.56621

                             ****ORCA TERMINATED NORMALLY****
TOTAL RUN TIME: 0 days 0 hours 0 minutes 4 seconds 291 msec
