                         Program Version 3.0.3 - RELEASE   -
|  1> ! RI PBE def2-SVP def2-SVP/J NBO PAL2
|  2> % maxcore 2000
|  3> % output
|  4>     # printlevel mini
|  5>     print[ P_Basis ] 0
|  6>     print[ P_SCFInfo ] 1
|  7>     print[ P_SCFIterInfo ] 1
|  8>     print[ P_OrbEn ] 0
|  9>     print[ P_Cartesian ] 0
| 10> end
| 11> *xyz 0 1
| 12>  O        1.0080170000    -0.0623890000     0.1651070000
| 13>  C        2.4053140000    -0.0155560000     0.1156790000
| 14>  C        3.1536360000     1.0185770000     0.9782550000
| 15>  N        4.0981340000    -0.0496720000     1.3466420000
| 16>  C        3.1063590000    -1.0722730000     0.9691100000
| 17>  H        0.6511640000     0.5273810000    -0.5029250000
| 18>  H        2.7732870000    -0.0208930000    -0.9157910000
| 19>  H        2.5037090000     1.3541730000     1.7970430000
| 20>  H        3.6047600000     1.8854110000     0.4871890000
| 21>  H        4.3857360000    -0.0607270000     2.3160650000
| 22>  H        2.4406530000    -1.3840030000     1.7843580000
| 23>  H        3.5135320000    -1.9557190000     0.4715590000
| 24> *
| 25>
| 26>                          ****END OF INPUT****
 Total Charge           Charge          ....    0
 Multiplicity           Mult            ....    1
 Number of Electrons    NEL             ....   40
 Basis Dimension        Dim             ....  105

MULLIKEN ATOMIC CHARGES
-----------------------
   0 O :   -0.235398
   1 C :   -0.052464
   2 C :    0.153242
   3 N :   -0.290465
   4 C :    0.148605
   5 H :    0.157957
   6 H :    0.007385
   7 H :   -0.008195
   8 H :    0.006203
   9 H :    0.097342
  10 H :    0.003580
  11 H :    0.012209
Sum of atomic charges:    0.0000000

LOEWDIN ATOMIC CHARGES
----------------------
   0 O :   -0.105260
   1 C :    0.036195
   2 C :    0.004767
   3 N :   -0.116236
   4 C :    0.019680
   5 H :    0.072879
   6 H :    0.010186
   7 H :    0.004614
   8 H :    0.006294
   9 H :    0.047093
  10 H :    0.009384
  11 H :    0.010404

  Mayer bond orders larger than 0.1
B(  0-O ,  1-C ) :   1.1475 B(  0-O ,  5-H ) :   0.9798 B(  1-C ,  2-C ) :   1.0376
B(  1-C ,  4-C ) :   1.0572 B(  1-C ,  6-H ) :   0.9091 B(  2-C ,  3-N ) :   1.0469
B(  2-C ,  7-H ) :   0.9091 B(  2-C ,  8-H ) :   0.9372 B(  3-N ,  4-C ) :   1.0385
B(  3-N ,  9-H ) :   0.9435 B(  4-C , 10-H ) :   0.9167 B(  4-C , 11-H ) :   0.9375

FINAL SINGLE POINT ENERGY      -247.966602431580

DIPOLE MOMENT
-------------
                                X             Y             Z
Electronic contribution:     -1.05639      -0.17988      -0.57170
Nuclear contribution   :      0.86976       0.51929       0.44605
                        -----------------------------------------
Total Dipole Moment    :     -0.18663       0.33941      -0.12564
                        -----------------------------------------
Magnitude (a.u.)       :      0.40720
Magnitude (Debye)      :      1.03503

                             ****ORCA TERMINATED NORMALLY****
TOTAL RUN TIME: 0 days 0 hours 0 minutes 4 seconds 919 msec
