                         Program Version 3.0.3 - RELEASE   -
|  1> ! RI PBE def2-SVP def2-SVP/J NBO PAL2
|  2> % maxcore 2000
|  3> % output
|  4>     # printlevel mini
|  5>     print[ P_Basis ] 0
|  6>     print[ P_SCFInfo ] 1
|  7>     print[ P_SCFIterInfo ] 1
|  8>     print[ P_OrbEn ] 0
|  9>     print[ P_Cartesian ] 0
| 10> end
| 11> *xyz 0 1
| 12>  O        1.1776570000    -0.0706520000     0.3522220000
| 13>  C        2.3430580000    -0.0702040000     0.1146550000
| 14>  C        3.4032930000     1.0021700000    -0.1119200000
| 15>  N        4.3300910000    -0.0692090000    -0.5306180000
| 16>  C        3.4036940000    -1.1417420000    -0.1139910000
| 17>  H        3.6600040000     1.5210990000     0.8203360000
| 18>  H        3.1799660000     1.7460140000    -0.8817690000
| 19>  H        5.2112020000    -0.0695210000    -0.0369900000
| 20>  H        3.6605990000    -1.6623730000     0.8172610000
| 21>  H        3.1806460000    -1.8841820000    -0.8852760000
| 22> *
| 23>
| 24>                          ****END OF INPUT****
 Total Charge           Charge          ....    0
 Multiplicity           Mult            ....    1
 Number of Electrons    NEL             ....   38
 Basis Dimension        Dim             ....   95

MULLIKEN ATOMIC CHARGES
-----------------------
   0 O :   -0.113369
   1 C :   -0.096509
   2 C :    0.103234
   3 N :   -0.283123
   4 C :    0.103116
   5 H :    0.039805
   6 H :    0.050754
   7 H :    0.105474
   8 H :    0.039853
   9 H :    0.050764
Sum of atomic charges:    0.0000000

LOEWDIN ATOMIC CHARGES
----------------------
   0 O :   -0.086266
   1 C :    0.046295
   2 C :   -0.010025
   3 N :   -0.115635
   4 C :   -0.010044
   5 H :    0.029329
   6 H :    0.032076
   7 H :    0.052854
   8 H :    0.029336
   9 H :    0.032080

  Mayer bond orders larger than 0.1
B(  0-O ,  1-C ) :   2.2481 B(  1-C ,  2-C ) :   0.9519 B(  1-C ,  4-C ) :   0.9519
B(  2-C ,  3-N ) :   1.0537 B(  2-C ,  4-C ) :  -0.1054 B(  2-C ,  5-H ) :   0.9137
B(  2-C ,  6-H ) :   0.9220 B(  3-N ,  4-C ) :   1.0537 B(  3-N ,  7-H ) :   0.9342
B(  4-C ,  8-H ) :   0.9137 B(  4-C ,  9-H ) :   0.9220

FINAL SINGLE POINT ENERGY      -246.776963454493

DIPOLE MOMENT
-------------
                                X             Y             Z
Electronic contribution:     -3.03399      -0.00082       0.26445
Nuclear contribution   :      3.95025       0.00068       0.06495
                        -----------------------------------------
Total Dipole Moment    :      0.91627      -0.00014       0.32940
                        -----------------------------------------
Magnitude (a.u.)       :      0.97368
Magnitude (Debye)      :      2.47489

                             ****ORCA TERMINATED NORMALLY****
TOTAL RUN TIME: 0 days 0 hours 0 minutes 4 seconds 111 msec
