                         Program Version 3.0.3 - RELEASE   -
|  1> ! RI PBE def2-SVP def2-SVP/J NBO PAL2
|  2> % maxcore 2000
|  3> % output
|  4>     # printlevel mini
|  5>     print[ P_Basis ] 0
|  6>     print[ P_SCFInfo ] 1
|  7>     print[ P_SCFIterInfo ] 1
|  8>     print[ P_OrbEn ] 0
|  9>     print[ P_Cartesian ] 0
| 10> end
| 11> *xyz 0 1
| 12>  O        3.3524150000     0.0635150000     0.9839570000
| 13>  C        2.3609050000    -0.1643890000     0.0023520000
| 14>  C        2.8474110000     0.3699790000    -1.3047020000
| 15>  C        1.8692150000     0.9218910000    -2.2613000000
| 16>  N        2.8044470000     1.8010100000    -1.5704150000
| 17>  H        3.0803320000    -0.3623000000     1.7998780000
| 18>  H        1.4177860000     0.3387570000     0.2674040000
| 19>  H        2.1488260000    -1.2381750000    -0.1001600000
| 20>  H        3.7382800000    -0.1189140000    -1.6895060000
| 21>  H        0.8242610000     0.9309260000    -1.9641970000
| 22>  H        2.0370740000     0.8162810000    -3.3272420000
| 23>  H        2.3463680000     2.2827080000    -0.8032680000
| 24> *
| 25>
| 26>                          ****END OF INPUT****
 Total Charge           Charge          ....    0
 Multiplicity           Mult            ....    1
 Number of Electrons    NEL             ....   40
 Basis Dimension        Dim             ....  105

MULLIKEN ATOMIC CHARGES
-----------------------
   0 O :   -0.276242
   1 C :    0.225930
   2 C :   -0.124343
   3 C :    0.011511
   4 N :   -0.177284
   5 H :    0.155434
   6 H :   -0.030324
   7 H :    0.006345
   8 H :    0.030656
   9 H :    0.029621
  10 H :    0.042012
  11 H :    0.106683
Sum of atomic charges:   -0.0000000

LOEWDIN ATOMIC CHARGES
----------------------
   0 O :   -0.128586
   1 C :    0.046066
   2 C :   -0.017467
   3 C :   -0.002442
   4 N :   -0.093568
   5 H :    0.070177
   6 H :    0.000607
   7 H :    0.011551
   8 H :    0.024789
   9 H :    0.012759
  10 H :    0.022759
  11 H :    0.053356

  Mayer bond orders larger than 0.1
B(  0-O ,  1-C ) :   1.0928 B(  0-O ,  5-H ) :   0.9791 B(  1-C ,  2-C ) :   1.0752
B(  1-C ,  6-H ) :   0.9002 B(  1-C ,  7-H ) :   0.9198 B(  2-C ,  3-C ) :   1.0396
B(  2-C ,  4-N ) :   0.9893 B(  2-C ,  8-H ) :   0.9311 B(  3-C ,  4-N ) :   1.0192
B(  3-C ,  9-H ) :   0.9396 B(  3-C , 10-H ) :   0.9398 B(  4-N , 11-H ) :   0.9480

FINAL SINGLE POINT ENERGY      -247.959634699885

DIPOLE MOMENT
-------------
                                X             Y             Z
Electronic contribution:      1.89175       0.73011       1.00038
Nuclear contribution   :     -2.75773      -1.32987      -0.50191
                        -----------------------------------------
Total Dipole Moment    :     -0.86597      -0.59976       0.49848
                        -----------------------------------------
Magnitude (a.u.)       :      1.16538
Magnitude (Debye)      :      2.96215

                             ****ORCA TERMINATED NORMALLY****
TOTAL RUN TIME: 0 days 0 hours 0 minutes 4 seconds 868 msec
