                         Program Version 3.0.3 - RELEASE   -
|  1> ! RI PBE def2-SVP def2-SVP/J NBO PAL2
|  2> % maxcore 2000
|  3> % output
|  4>     # printlevel mini
|  5>     print[ P_Basis ] 0
|  6>     print[ P_SCFInfo ] 1
|  7>     print[ P_SCFIterInfo ] 1
|  8>     print[ P_OrbEn ] 0
|  9>     print[ P_Cartesian ] 0
| 10> end
| 11> *xyz 0 1
| 12>  O        2.1112020000    -0.0743470000    -1.1937860000
| 13>  C        2.2591440000    -0.0635960000     0.0021230000
| 14>  C        3.1303020000    -1.0211980000     0.7175490000
| 15>  C        2.8784680000    -2.4661070000     0.4324500000
| 16>  N        4.0580350000    -1.8128680000    -0.0746760000
| 17>  H        1.7344320000     0.6802460000     0.6345620000
| 18>  H        3.4663590000    -0.7291080000     1.7069920000
| 19>  H        2.0691230000    -2.6923530000    -0.2546060000
| 20>  H        3.0407620000    -3.1819500000     1.2305830000
| 21>  H        3.9110750000    -1.5633090000    -1.0514820000
| 22> *
| 23>
| 24>                          ****END OF INPUT****
 Total Charge           Charge          ....    0
 Multiplicity           Mult            ....    1
 Number of Electrons    NEL             ....   38
 Basis Dimension        Dim             ....   95

MULLIKEN ATOMIC CHARGES
-----------------------
   0 O :   -0.177076
   1 C :    0.137271
   2 C :   -0.101581
   3 C :    0.057008
   4 N :   -0.159408
   5 H :   -0.008161
   6 H :    0.032389
   7 H :    0.052354
   8 H :    0.054193
   9 H :    0.113012
Sum of atomic charges:    0.0000000

LOEWDIN ATOMIC CHARGES
----------------------
   0 O :   -0.120454
   1 C :    0.078432
   2 C :   -0.053227
   3 C :    0.035185
   4 N :   -0.068689
   5 H :   -0.004237
   6 H :    0.028979
   7 H :    0.022173
   8 H :    0.028102
   9 H :    0.053737

  Mayer bond orders larger than 0.1
B(  0-O ,  1-C ) :   2.1145 B(  1-C ,  2-C ) :   0.9714 B(  1-C ,  5-H ) :   0.9351
B(  2-C ,  3-C ) :   0.9970 B(  2-C ,  4-N ) :   1.0167 B(  2-C ,  6-H ) :   0.9275
B(  3-C ,  4-N ) :   1.0038 B(  3-C ,  7-H ) :   0.9425 B(  3-C ,  8-H ) :   0.9421
B(  4-N ,  9-H ) :   0.9310

FINAL SINGLE POINT ENERGY      -246.772223958442

DIPOLE MOMENT
-------------
                                X             Y             Z
Electronic contribution:     -0.15329       1.77624      -1.71164
Nuclear contribution   :     -0.14241      -1.94577       2.37454
                        -----------------------------------------
Total Dipole Moment    :     -0.29570      -0.16952       0.66290
                        -----------------------------------------
Magnitude (a.u.)       :      0.74540
Magnitude (Debye)      :      1.89464

                             ****ORCA TERMINATED NORMALLY****
TOTAL RUN TIME: 0 days 0 hours 0 minutes 4 seconds 239 msec
