                         Program Version 3.0.3 - RELEASE   -
|  1> ! RI PBE def2-SVP def2-SVP/J NBO PAL2
|  2> % maxcore 2000
|  3> % output
|  4>     # printlevel mini
|  5>     print[ P_Basis ] 0
|  6>     print[ P_SCFInfo ] 1
|  7>     print[ P_SCFIterInfo ] 1
|  8>     print[ P_OrbEn ] 0
|  9>     print[ P_Cartesian ] 0
| 10> end
| 11> *xyz 0 1
| 12>  O        1.7133180000    -0.5921560000     0.4410300000
| 13>  C        2.2840710000     0.2777110000    -0.1358230000
| 14>  N        2.9589710000     1.3391980000     0.5132700000
| 15>  C        4.1304850000     1.8061660000    -0.2457060000
| 16>  C        2.9000210000     2.5932030000    -0.2558310000
| 17>  H        2.3266810000     0.3157840000    -1.2512770000
| 18>  H        4.3874060000     1.2650340000    -1.1532020000
| 19>  H        4.9688610000     2.0883480000     0.3786220000
| 20>  H        2.3116370000     2.5924650000    -1.1702470000
| 21>  H        2.7969390000     3.4771570000     0.3608420000
| 22> *
| 23>
| 24>                          ****END OF INPUT****
 Total Charge           Charge          ....    0
 Multiplicity           Mult            ....    1
 Number of Electrons    NEL             ....   38
 Basis Dimension        Dim             ....   95

MULLIKEN ATOMIC CHARGES
-----------------------
   0 O :   -0.118434
   1 C :    0.140373
   2 N :   -0.243462
   3 C :    0.010275
   4 C :    0.023855
   5 H :   -0.029378
   6 H :    0.047692
   7 H :    0.062517
   8 H :    0.045695
   9 H :    0.060867
Sum of atomic charges:   -0.0000000

LOEWDIN ATOMIC CHARGES
----------------------
   0 O :   -0.081803
   1 C :    0.082052
   2 N :   -0.122801
   3 C :    0.022336
   4 C :    0.024002
   5 H :   -0.029713
   6 H :    0.019265
   7 H :    0.033868
   8 H :    0.019330
   9 H :    0.033465

  Mayer bond orders larger than 0.1
B(  0-O ,  1-C ) :   2.2170 B(  1-C ,  2-N ) :   0.9977 B(  1-C ,  5-H ) :   0.8889
B(  2-N ,  3-C ) :   0.9132 B(  2-N ,  4-C ) :   0.9151 B(  3-C ,  4-C ) :   1.0882
B(  3-C ,  6-H ) :   0.9416 B(  3-C ,  7-H ) :   0.9496 B(  4-C ,  8-H ) :   0.9400
B(  4-C ,  9-H ) :   0.9485

FINAL SINGLE POINT ENERGY      -246.766846573557

DIPOLE MOMENT
-------------
                                X             Y             Z
Electronic contribution:     -2.07990      -3.20872       2.06796
Nuclear contribution   :      2.69391       4.14587      -2.89800
                        -----------------------------------------
Total Dipole Moment    :      0.61400       0.93715      -0.83004
                        -----------------------------------------
Magnitude (a.u.)       :      1.39435
Magnitude (Debye)      :      3.54416

                             ****ORCA TERMINATED NORMALLY****
TOTAL RUN TIME: 0 days 0 hours 0 minutes 4 seconds 393 msec
