                         Program Version 3.0.3 - RELEASE   -
|  1> ! RI PBE def2-SVP def2-SVP/J NBO PAL2
|  2> % maxcore 2000
|  3> % output
|  4>     # printlevel mini
|  5>     print[ P_Basis ] 0
|  6>     print[ P_SCFInfo ] 1
|  7>     print[ P_SCFIterInfo ] 1
|  8>     print[ P_OrbEn ] 0
|  9>     print[ P_Cartesian ] 0
| 10> end
| 11> *xyz 0 1
| 12>  O        0.9720230000    -0.0470450000     0.1438700000
| 13>  N        2.3378430000     0.1134910000     0.1954360000
| 14>  C        2.9412380000    -1.0066830000     0.2463800000
| 15>  C        4.3845740000    -1.0365660000     0.3055680000
| 16>  C        5.0868100000    -2.1667600000     0.3607500000
| 17>  H        0.6449420000     0.8564140000     0.1092470000
| 18>  H        2.3791000000    -1.9426190000     0.2457250000
| 19>  H        4.8801510000    -0.0705220000     0.3028060000
| 20>  H        4.5990970000    -3.1361480000     0.3639110000
| 21>  H        6.1686200000    -2.1590530000     0.4044060000
| 22> *
| 23>
| 24>                          ****END OF INPUT****
 Total Charge           Charge          ....    0
 Multiplicity           Mult            ....    1
 Number of Electrons    NEL             ....   38
 Basis Dimension        Dim             ....   95

MULLIKEN ATOMIC CHARGES
-----------------------
   0 O :   -0.164124
   1 N :   -0.052533
   2 C :    0.007683
   3 C :    0.010548
   4 C :   -0.036375
   5 H :    0.174753
   6 H :   -0.007045
   7 H :    0.007397
   8 H :    0.023570
   9 H :    0.036125
Sum of atomic charges:   -0.0000000

LOEWDIN ATOMIC CHARGES
----------------------
   0 O :   -0.040237
   1 N :   -0.012162
   2 C :   -0.038188
   3 C :   -0.036704
   4 C :   -0.046101
   5 H :    0.076805
   6 H :    0.009122
   7 H :    0.034209
   8 H :    0.024406
   9 H :    0.028850

  Mayer bond orders larger than 0.1
B(  0-O ,  1-N ) :   1.0099 B(  0-O ,  2-C ) :   0.1017 B(  0-O ,  5-H ) :   0.9738
B(  1-N ,  2-C ) :   1.7918 B(  1-N ,  4-C ) :   0.1194 B(  2-C ,  3-C ) :   1.1234
B(  2-C ,  6-H ) :   0.9474 B(  3-C ,  4-C ) :   1.8705 B(  3-C ,  7-H ) :   0.9582
B(  4-C ,  8-H ) :   0.9522 B(  4-C ,  9-H ) :   0.9467

FINAL SINGLE POINT ENERGY      -246.742450947386

DIPOLE MOMENT
-------------
                                X             Y             Z
Electronic contribution:     -3.30546       2.38467      -0.18851
Nuclear contribution   :      3.21442      -2.32595       0.18525
                        -----------------------------------------
Total Dipole Moment    :     -0.09104       0.05872      -0.00326
                        -----------------------------------------
Magnitude (a.u.)       :      0.10838
Magnitude (Debye)      :      0.27549

                             ****ORCA TERMINATED NORMALLY****
TOTAL RUN TIME: 0 days 0 hours 0 minutes 4 seconds 388 msec
