                         Program Version 3.0.3 - RELEASE   -
|  1> ! RI PBE def2-SVP def2-SVP/J NBO PAL2
|  2> % maxcore 2000
|  3> % output
|  4>     # printlevel mini
|  5>     print[ P_Basis ] 0
|  6>     print[ P_SCFInfo ] 1
|  7>     print[ P_SCFIterInfo ] 1
|  8>     print[ P_OrbEn ] 0
|  9>     print[ P_Cartesian ] 0
| 10> end
| 11> *xyz 0 1
| 12>  O        0.8553920000     0.0045990000    -0.1736470000
| 13>  N        2.2099700000    -0.0352010000     0.0274650000
| 14>  C        2.8422370000     0.1796650000    -1.0584840000
| 15>  C        4.2578230000     0.1820160000    -1.0703930000
| 16>  C        5.4567810000     0.1981950000    -1.1521710000
| 17>  H        0.4962730000    -0.1686080000     0.7017500000
| 18>  H        2.3068310000     0.3641440000    -1.9908270000
| 19>  H        6.5198730000     0.2088020000    -1.2057920000
| 20> *
| 21>
| 22>                          ****END OF INPUT****
 Total Charge           Charge          ....    0
 Multiplicity           Mult            ....    1
 Number of Electrons    NEL             ....   36
 Basis Dimension        Dim             ....   85

MULLIKEN ATOMIC CHARGES
-----------------------
   0 O :   -0.157108
   1 N :   -0.036959
   2 C :   -0.052464
   3 C :    0.399426
   4 C :   -0.380564
   5 H :    0.179818
   6 H :    0.034977
   7 H :    0.012874
Sum of atomic charges:   -0.0000000

LOEWDIN ATOMIC CHARGES
----------------------
   0 O :   -0.031061
   1 N :    0.009680
   2 C :   -0.052877
   3 C :   -0.026339
   4 C :   -0.042350
   5 H :    0.081380
   6 H :    0.023007
   7 H :    0.038560

  Mayer bond orders larger than 0.1
B(  0-O ,  1-N ) :   1.0226 B(  0-O ,  2-C ) :   0.1103 B(  0-O ,  5-H ) :   0.9718
B(  1-N ,  2-C ) :   1.8043 B(  1-N ,  4-C ) :   0.1058 B(  2-C ,  3-C ) :   1.0179
B(  2-C ,  6-H ) :   0.9390 B(  3-C ,  4-C ) :   2.3109 B(  4-C ,  7-H ) :   1.0833

FINAL SINGLE POINT ENERGY      -245.491212478220

DIPOLE MOMENT
-------------
                                X             Y             Z
Electronic contribution:     -0.57032      -0.11166       0.57836
Nuclear contribution   :      0.36261       0.10368      -0.52397
                        -----------------------------------------
Total Dipole Moment    :     -0.20771      -0.00798       0.05439
                        -----------------------------------------
Magnitude (a.u.)       :      0.21486
Magnitude (Debye)      :      0.54614

                             ****ORCA TERMINATED NORMALLY****
TOTAL RUN TIME: 0 days 0 hours 0 minutes 3 seconds 967 msec
