                         Program Version 3.0.3 - RELEASE   -
|  1> ! RI PBE def2-SVP def2-SVP/J NBO PAL2
|  2> % maxcore 2000
|  3> % output
|  4>     # printlevel mini
|  5>     print[ P_Basis ] 0
|  6>     print[ P_SCFInfo ] 1
|  7>     print[ P_SCFIterInfo ] 1
|  8>     print[ P_OrbEn ] 0
|  9>     print[ P_Cartesian ] 0
| 10> end
| 11> *xyz 0 1
| 12>  S       -0.4675860000    -1.4266690000    -0.0038040000
| 13>  C       -1.2666430000     0.0794140000    -0.0017030000
| 14>  C       -0.3784360000     1.1142020000     0.0003930000
| 15>  C        0.9677500000     0.6718510000     0.0002860000
| 16>  C        1.0690590000    -0.6880880000    -0.0018890000
| 17>  H       -2.3449610000     0.1245240000    -0.0021230000
| 18>  H       -0.6760050000     2.1544780000     0.0019580000
| 19>  H        1.8243580000     1.3328690000     0.0017580000
| 20>  H        1.9639640000    -1.2913720000    -0.0024650000
| 21> *
| 22>
| 23>                          ****END OF INPUT****
 Total Charge           Charge          ....    0
 Multiplicity           Mult            ....    1
 Number of Electrons    NEL             ....   44
 Basis Dimension        Dim             ....   94

MULLIKEN ATOMIC CHARGES
-----------------------
   0 S :    0.095225
   1 C :   -0.107951
   2 C :    0.024785
   3 C :    0.027798
   4 C :   -0.104066
   5 H :    0.037195
   6 H :   -0.003944
   7 H :   -0.002541
   8 H :    0.033499
Sum of atomic charges:   -0.0000000

LOEWDIN ATOMIC CHARGES
----------------------
   0 S :    0.446503
   1 C :   -0.207437
   2 C :   -0.073639
   3 C :   -0.073434
   4 C :   -0.206698
   5 H :    0.026402
   6 H :    0.030944
   7 H :    0.031406
   8 H :    0.025953

  Mayer bond orders larger than 0.1
B(  0-S ,  1-C ) :   1.1922 B(  0-S ,  4-C ) :   1.1917 B(  1-C ,  2-C ) :   1.5372
B(  1-C ,  5-H ) :   0.9688 B(  2-C ,  3-C ) :   1.2907 B(  2-C ,  6-H ) :   0.9934
B(  3-C ,  4-C ) :   1.5388 B(  3-C ,  7-H ) :   0.9919 B(  4-C ,  8-H ) :   0.9692

FINAL SINGLE POINT ENERGY      -552.398701197503

DIPOLE MOMENT
-------------
                                X             Y             Z
Electronic contribution:     -1.10954      -3.38058      -0.00601
Nuclear contribution   :      1.15445       3.51328       0.00628
                        -----------------------------------------
Total Dipole Moment    :      0.04491       0.13271       0.00027
                        -----------------------------------------
Magnitude (a.u.)       :      0.14010
Magnitude (Debye)      :      0.35611

                             ****ORCA TERMINATED NORMALLY****
TOTAL RUN TIME: 0 days 0 hours 0 minutes 4 seconds 609 msec
