                         Program Version 3.0.3 - RELEASE   -
|  1> ! RI PBE def2-SVP def2-SVP/J NBO PAL2
|  2> % maxcore 2000
|  3> % output
|  4>     # printlevel mini
|  5>     print[ P_Basis ] 0
|  6>     print[ P_SCFInfo ] 1
|  7>     print[ P_SCFIterInfo ] 1
|  8>     print[ P_OrbEn ] 0
|  9>     print[ P_Cartesian ] 0
| 10> end
| 11> *xyz 0 1
| 12>  S       -0.3478300000    -1.3765610000    -0.0014640000
| 13>  C       -1.2439400000     0.0593540000    -0.0019310000
| 14>  C       -0.3778290000     1.1169970000     0.0000640000
| 15>  C        0.9550630000     0.6484920000     0.0018210000
| 16>  N        1.1199590000    -0.6548310000     0.0012590000
| 17>  H       -2.3239330000     0.0753930000    -0.0035830000
| 18>  H       -0.6703290000     2.1576150000     0.0002680000
| 19>  H        1.8355480000     1.2816320000     0.0035740000
| 20> *
| 21>
| 22>                          ****END OF INPUT****
 Total Charge           Charge          ....    0
 Multiplicity           Mult            ....    1
 Number of Electrons    NEL             ....   44
 Basis Dimension        Dim             ....   89

MULLIKEN ATOMIC CHARGES
-----------------------
   0 S :    0.267408
   1 C :   -0.097270
   2 C :   -0.030696
   3 C :    0.077010
   4 N :   -0.290600
   5 H :    0.045275
   6 H :    0.006805
   7 H :    0.022068
Sum of atomic charges:    0.0000000

LOEWDIN ATOMIC CHARGES
----------------------
   0 S :    0.511684
   1 C :   -0.202117
   2 C :   -0.095447
   3 C :   -0.037465
   4 N :   -0.270075
   5 H :    0.030855
   6 H :    0.035488
   7 H :    0.027077

  Mayer bond orders larger than 0.1
B(  0-S ,  1-C ) :   1.2060 B(  0-S ,  4-N ) :   1.2136 B(  1-C ,  2-C ) :   1.5264
B(  1-C ,  4-N ) :   0.1410 B(  1-C ,  5-H ) :   0.9610 B(  2-C ,  3-C ) :   1.2630
B(  2-C ,  6-H ) :   0.9911 B(  3-C ,  4-N ) :   1.5916 B(  3-C ,  7-H ) :   0.9760

FINAL SINGLE POINT ENERGY      -568.416872217726

DIPOLE MOMENT
-------------
                                X             Y             Z
Electronic contribution:      0.21874      -3.71677      -0.00202
Nuclear contribution   :     -0.91870       4.24655       0.00126
                        -----------------------------------------
Total Dipole Moment    :     -0.69996       0.52978      -0.00076
                        -----------------------------------------
Magnitude (a.u.)       :      0.87785
Magnitude (Debye)      :      2.23132

                             ****ORCA TERMINATED NORMALLY****
TOTAL RUN TIME: 0 days 0 hours 0 minutes 3 seconds 972 msec
