                         Program Version 3.0.3 - RELEASE   -
|  1> ! RI PBE def2-SVP def2-SVP/J NBO PAL2
|  2> % maxcore 2000
|  3> % output
|  4>     # printlevel mini
|  5>     print[ P_Basis ] 0
|  6>     print[ P_SCFInfo ] 1
|  7>     print[ P_SCFIterInfo ] 1
|  8>     print[ P_OrbEn ] 0
|  9>     print[ P_Cartesian ] 0
| 10> end
| 11> *xyz 0 1
| 12>  S       -0.4696340000    -1.4406630000    -0.0032000000
| 13>  C       -1.2695060000     0.0652430000    -0.0015150000
| 14>  C       -0.3477450000     1.0668130000    -0.0002010000
| 15>  N        0.9570550000     0.6725260000    -0.0004930000
| 16>  C        1.0368670000    -0.6212250000    -0.0020130000
| 17>  H       -2.3456290000     0.1380140000    -0.0015740000
| 18>  H       -0.5843440000     2.1226190000     0.0010210000
| 19>  H        1.9695260000    -1.1698370000    -0.0025350000
| 20> *
| 21>
| 22>                          ****END OF INPUT****
 Total Charge           Charge          ....    0
 Multiplicity           Mult            ....    1
 Number of Electrons    NEL             ....   44
 Basis Dimension        Dim             ....   89

MULLIKEN ATOMIC CHARGES
-----------------------
   0 S :    0.090111
   1 C :   -0.110557
   2 C :    0.055641
   3 N :   -0.113839
   4 C :   -0.028098
   5 H :    0.044218
   6 H :    0.011289
   7 H :    0.051234
Sum of atomic charges:   -0.0000000

LOEWDIN ATOMIC CHARGES
----------------------
   0 S :    0.431329
   1 C :   -0.217297
   2 C :   -0.042828
   3 N :   -0.092121
   4 C :   -0.159026
   5 H :    0.031414
   6 H :    0.027225
   7 H :    0.021305

  Mayer bond orders larger than 0.1
B(  0-S ,  1-C ) :   1.1905 B(  0-S ,  3-N ) :   0.1254 B(  0-S ,  4-C ) :   1.1694
B(  1-C ,  2-C ) :   1.5464 B(  1-C ,  5-H ) :   0.9652 B(  2-C ,  3-N ) :   1.3675
B(  2-C ,  6-H ) :   0.9898 B(  3-N ,  4-C ) :   1.6710 B(  4-C ,  7-H ) :   0.9596

FINAL SINGLE POINT ENERGY      -568.424758013398

DIPOLE MOMENT
-------------
                                X             Y             Z
Electronic contribution:      0.07669      -2.37434      -0.00280
Nuclear contribution   :     -0.56776       2.03709       0.00235
                        -----------------------------------------
Total Dipole Moment    :     -0.49107      -0.33725      -0.00045
                        -----------------------------------------
Magnitude (a.u.)       :      0.59573
Magnitude (Debye)      :      1.51422

                             ****ORCA TERMINATED NORMALLY****
TOTAL RUN TIME: 0 days 0 hours 0 minutes 4 seconds 122 msec
