                         Program Version 3.0.3 - RELEASE   -
|  1> ! RI PBE def2-SVP def2-SVP/J NBO PAL2
|  2> % maxcore 2000
|  3> % output
|  4>     # printlevel mini
|  5>     print[ P_Basis ] 0
|  6>     print[ P_SCFInfo ] 1
|  7>     print[ P_SCFIterInfo ] 1
|  8>     print[ P_OrbEn ] 0
|  9>     print[ P_Cartesian ] 0
| 10> end
| 11> *xyz 0 1
| 12>  C        0.2774200000     0.8254750000    -0.2232490000
| 13>  C       -0.7063130000    -0.2164860000     0.2160160000
| 14>  C        0.7217280000    -0.5930340000    -0.0418630000
| 15>  C        1.6179980000    -1.0171870000     1.0722660000
| 16>  C        2.9855680000    -0.4240830000     1.2321830000
| 17>  C        1.9188590000    -0.1355400000     2.2447250000
| 18>  H        0.5851350000     1.5660340000     0.5047940000
| 19>  H        0.2047510000     1.2055210000    -1.2346400000
| 20>  H       -1.4661440000    -0.5399560000    -0.4845970000
| 21>  H       -1.0270110000    -0.1892290000     1.2506870000
| 22>  H        0.8979130000    -1.1354280000    -0.9667380000
| 23>  H        1.5416230000    -2.0752170000     1.3075620000
| 24>  H        3.2545660000     0.3776670000     0.5547090000
| 25>  H        3.8060000000    -1.0723470000     1.5141030000
| 26>  H        1.5026120000     0.8641730000     2.2665180000
| 27>  H        1.9968970000    -0.6016740000     3.2190240000
| 28> *
| 29>
| 30>                          ****END OF INPUT****
 Total Charge           Charge          ....    0
 Multiplicity           Mult            ....    1
 Number of Electrons    NEL             ....   46
 Basis Dimension        Dim             ....  134

MULLIKEN ATOMIC CHARGES
-----------------------
   0 C :   -0.058887
   1 C :   -0.026319
   2 C :   -0.061699
   3 C :   -0.065172
   4 C :   -0.030411
   5 C :   -0.052160
   6 H :    0.034802
   7 H :    0.028772
   8 H :    0.031154
   9 H :    0.031242
  10 H :    0.020839
  11 H :    0.023789
  12 H :    0.033007
  13 H :    0.030790
  14 H :    0.031727
  15 H :    0.028526
Sum of atomic charges:   -0.0000000

LOEWDIN ATOMIC CHARGES
----------------------
   0 C :   -0.048708
   1 C :   -0.043211
   2 C :   -0.037849
   3 C :   -0.038773
   4 C :   -0.044078
   5 C :   -0.047697
   6 H :    0.023308
   7 H :    0.026688
   8 H :    0.025174
   9 H :    0.025956
  10 H :    0.028833
  11 H :    0.029341
  12 H :    0.026429
  13 H :    0.025089
  14 H :    0.022778
  15 H :    0.026720

  Mayer bond orders larger than 0.1
B(  0-C ,  1-C ) :   1.0434 B(  0-C ,  2-C ) :   0.9992 B(  0-C ,  6-H ) :   0.9443
B(  0-C ,  7-H ) :   0.9438 B(  1-C ,  2-C ) :   0.9839 B(  1-C ,  8-H ) :   0.9465
B(  1-C ,  9-H ) :   0.9525 B(  2-C ,  3-C ) :   1.0853 B(  2-C , 10-H ) :   0.9409
B(  3-C ,  4-C ) :   0.9868 B(  3-C ,  5-C ) :   0.9996 B(  3-C , 11-H ) :   0.9403
B(  4-C ,  5-C ) :   1.0459 B(  4-C , 12-H ) :   0.9516 B(  4-C , 13-H ) :   0.9460
B(  5-C , 14-H ) :   0.9440 B(  5-C , 15-H ) :   0.9433

FINAL SINGLE POINT ENERGY      -234.099279486666

DIPOLE MOMENT
-------------
                                X             Y             Z
Electronic contribution:      0.05111      -0.87241      -0.37717
Nuclear contribution   :     -0.05138       0.82385       0.35498
                        -----------------------------------------
Total Dipole Moment    :     -0.00027      -0.04856      -0.02220
                        -----------------------------------------
Magnitude (a.u.)       :      0.05339
Magnitude (Debye)      :      0.13571

                             ****ORCA TERMINATED NORMALLY****
TOTAL RUN TIME: 0 days 0 hours 0 minutes 6 seconds 496 msec
