                         Program Version 3.0.3 - RELEASE   -
|  1> ! RI PBE def2-SVP def2-SVP/J NBO PAL2
|  2> % maxcore 2000
|  3> % output
|  4>     # printlevel mini
|  5>     print[ P_Basis ] 0
|  6>     print[ P_SCFInfo ] 1
|  7>     print[ P_SCFIterInfo ] 1
|  8>     print[ P_OrbEn ] 0
|  9>     print[ P_Cartesian ] 0
| 10> end
| 11> *xyz 0 1
| 12>  C        0.6272750000    -0.5031780000     0.8611210000
| 13>  C        0.0286350000    -0.4895380000    -0.5626100000
| 14>  C        1.1891470000     0.4643840000    -0.9215000000
| 15>  C        0.9590600000     0.9664280000     0.5209200000
| 16>  C       -0.4340920000     1.5906020000     0.4205910000
| 17>  C       -1.1425540000     0.4819740000    -0.4044480000
| 18>  H        1.5206100000    -1.1260950000     0.9310450000
| 19>  H       -0.0430360000    -0.7008240000     1.7022930000
| 20>  H       -0.1545220000    -1.4086490000    -1.1192130000
| 21>  H        2.1396680000    -0.0600560000    -1.0330080000
| 22>  H        1.0433050000     1.1698890000    -1.7442670000
| 23>  H        1.7206090000     1.5256290000     1.0644790000
| 24>  H       -0.4187940000     2.5539960000    -0.0943440000
| 25>  H       -0.8903270000     1.7420350000     1.4016280000
| 26>  H       -1.5115460000     0.8440470000    -1.3668750000
| 27>  H       -1.9830490000     0.0320670000     0.1290970000
| 28> *
| 29>
| 30>                          ****END OF INPUT****
 Total Charge           Charge          ....    0
 Multiplicity           Mult            ....    1
 Number of Electrons    NEL             ....   46
 Basis Dimension        Dim             ....  134

MULLIKEN ATOMIC CHARGES
-----------------------
   0 C :    0.080780
   1 C :   -0.198513
   2 C :    0.091405
   3 C :   -0.206095
   4 C :    0.094774
   5 C :    0.101828
   6 H :    0.016970
   7 H :    0.003445
   8 H :   -0.012651
   9 H :    0.012785
  10 H :    0.002794
  11 H :   -0.010557
  12 H :    0.006687
  13 H :    0.006450
  14 H :    0.005587
  15 H :    0.004311
Sum of atomic charges:   -0.0000000

LOEWDIN ATOMIC CHARGES
----------------------
   0 C :   -0.023761
   1 C :   -0.024701
   2 C :   -0.022313
   3 C :   -0.025783
   4 C :   -0.031889
   5 C :   -0.031223
   6 H :    0.021693
   7 H :    0.010115
   8 H :    0.008429
   9 H :    0.020768
  10 H :    0.010194
  11 H :    0.008728
  12 H :    0.020078
  13 H :    0.019983
  14 H :    0.019936
  15 H :    0.019746

  Mayer bond orders larger than 0.1
B(  0-C ,  1-C ) :   0.9841 B(  0-C ,  3-C ) :   0.9850 B(  0-C ,  6-H ) :   0.9423
B(  0-C ,  7-H ) :   0.9373 B(  1-C ,  2-C ) :   0.9840 B(  1-C ,  5-C ) :   1.0743
B(  1-C ,  8-H ) :   0.9603 B(  2-C ,  3-C ) :   0.9838 B(  2-C ,  9-H ) :   0.9428
B(  2-C , 10-H ) :   0.9374 B(  3-C ,  4-C ) :   1.0741 B(  3-C , 11-H ) :   0.9615
B(  4-C ,  5-C ) :   1.0863 B(  4-C , 12-H ) :   0.9229 B(  4-C , 13-H ) :   0.9226
B(  5-C , 14-H ) :   0.9228 B(  5-C , 15-H ) :   0.9220

FINAL SINGLE POINT ENERGY      -234.125204596133

DIPOLE MOMENT
-------------
                                X             Y             Z
Electronic contribution:      0.52852      -0.32806      -0.01366
Nuclear contribution   :     -0.51265       0.31900       0.01156
                        -----------------------------------------
Total Dipole Moment    :      0.01587      -0.00906      -0.00210
                        -----------------------------------------
Magnitude (a.u.)       :      0.01839
Magnitude (Debye)      :      0.04675

                             ****ORCA TERMINATED NORMALLY****
TOTAL RUN TIME: 0 days 0 hours 0 minutes 6 seconds 915 msec
