                         Program Version 3.0.3 - RELEASE   -
|  1> ! RI PBE def2-SVP def2-SVP/J NBO PAL2
|  2> % maxcore 2000
|  3> % output
|  4>     # printlevel mini
|  5>     print[ P_Basis ] 0
|  6>     print[ P_SCFInfo ] 1
|  7>     print[ P_SCFIterInfo ] 1
|  8>     print[ P_OrbEn ] 0
|  9>     print[ P_Cartesian ] 0
| 10> end
| 11> *xyz 0 1
| 12>  C       -1.0174460000     1.3940510000     0.7701290000
| 13>  C       -0.8863670000     0.4926560000    -0.4184670000
| 14>  C        0.4175320000    -0.2747400000    -0.5716080000
| 15>  C        0.2673090000    -1.4995290000     0.3421480000
| 16>  C       -0.6934090000    -1.0681160000     1.4596880000
| 17>  C       -1.5708790000     0.0039440000     0.8322470000
| 18>  H       -1.7187600000     2.2181270000     0.7080420000
| 19>  H       -0.1218440000     1.6098570000     1.3449410000
| 20>  H       -1.4608590000     0.7328270000    -1.3051030000
| 21>  H        0.5921480000    -0.5644250000    -1.6099990000
| 22>  H        1.2706300000     0.3410460000    -0.2681800000
| 23>  H       -0.1942520000    -2.3119260000    -0.2274310000
| 24>  H        1.2229250000    -1.8731130000     0.7187850000
| 25>  H       -0.1446560000    -0.6697030000     2.3194030000
| 26>  H       -1.2878380000    -1.9073110000     1.8272520000
| 27>  H       -2.6472140000    -0.1156750000     0.8635720000
| 28> *
| 29>
| 30>                          ****END OF INPUT****
 Total Charge           Charge          ....    0
 Multiplicity           Mult            ....    1
 Number of Electrons    NEL             ....   46
 Basis Dimension        Dim             ....  134

MULLIKEN ATOMIC CHARGES
-----------------------
   0 C :    0.040100
   1 C :   -0.143990
   2 C :    0.064125
   3 C :    0.007139
   4 C :    0.072118
   5 C :   -0.158889
   6 H :    0.024892
   7 H :    0.019532
   8 H :    0.013008
   9 H :    0.009482
  10 H :    0.006925
  11 H :    0.010535
  12 H :    0.001548
  13 H :    0.006631
  14 H :    0.007504
  15 H :    0.019341
Sum of atomic charges:    0.0000000

LOEWDIN ATOMIC CHARGES
----------------------
   0 C :   -0.038747
   1 C :   -0.042025
   2 C :   -0.035388
   3 C :   -0.034946
   4 C :   -0.034411
   5 C :   -0.044689
   6 H :    0.026991
   7 H :    0.019266
   8 H :    0.020613
   9 H :    0.026863
  10 H :    0.022300
  11 H :    0.023799
  12 H :    0.019677
  13 H :    0.022325
  14 H :    0.026624
  15 H :    0.021749

  Mayer bond orders larger than 0.1
B(  0-C ,  1-C ) :   0.9916 B(  0-C ,  5-C ) :   0.9918 B(  0-C ,  6-H ) :   0.9379
B(  0-C ,  7-H ) :   0.9404 B(  1-C ,  2-C ) :   1.0750 B(  1-C ,  5-C ) :   0.9640
B(  1-C ,  8-H ) :   0.9504 B(  2-C ,  3-C ) :   1.1033 B(  2-C ,  9-H ) :   0.9387
B(  2-C , 10-H ) :   0.9237 B(  3-C ,  4-C ) :   1.0982 B(  3-C , 11-H ) :   0.9395
B(  3-C , 12-H ) :   0.9340 B(  4-C ,  5-C ) :   1.0764 B(  4-C , 13-H ) :   0.9235
B(  4-C , 14-H ) :   0.9383 B(  5-C , 15-H ) :   0.9493

FINAL SINGLE POINT ENERGY      -234.130687813330

DIPOLE MOMENT
-------------
                                X             Y             Z
Electronic contribution:     -1.11741       0.72403      -0.33352
Nuclear contribution   :      1.08290      -0.78525       0.28619
                        -----------------------------------------
Total Dipole Moment    :     -0.03451      -0.06122      -0.04733
                        -----------------------------------------
Magnitude (a.u.)       :      0.08473
Magnitude (Debye)      :      0.21536

                             ****ORCA TERMINATED NORMALLY****
TOTAL RUN TIME: 0 days 0 hours 0 minutes 6 seconds 828 msec
