                         Program Version 3.0.3 - RELEASE   -
|  1> ! RI PBE def2-SVP def2-SVP/J NBO PAL2
|  2> % maxcore 2000
|  3> % output
|  4>     # printlevel mini
|  5>     print[ P_Basis ] 0
|  6>     print[ P_SCFInfo ] 1
|  7>     print[ P_SCFIterInfo ] 1
|  8>     print[ P_OrbEn ] 0
|  9>     print[ P_Cartesian ] 0
| 10> end
| 11> *xyz 0 1
| 12>  C        0.7236900000     1.2582230000    -0.2311340000
| 13>  C       -0.7272900000     1.2587910000     0.2339140000
| 14>  C       -1.4570640000     0.0005140000    -0.2193130000
| 15>  C       -0.7282130000    -1.2586450000     0.2328790000
| 16>  C        0.7227670000    -1.2592130000    -0.2321680000
| 17>  C        1.4525400000    -0.0009360000     0.2210600000
| 18>  H        1.2411630000     2.1496930000     0.1365650000
| 19>  H        0.7493070000     1.3139910000    -1.3270840000
| 20>  H       -1.2440470000     2.1507730000    -0.1336450000
| 21>  H       -0.7532810000     1.3141820000     1.3298190000
| 22>  H       -1.5272410000     0.0011250000    -1.3146900000
| 23>  H       -2.4847670000     0.0003940000     0.1569740000
| 24>  H       -1.2456870000    -2.1501150000    -0.1348220000
| 25>  H       -0.7538300000    -1.3144140000     1.3288290000
| 26>  H        0.7487580000    -1.3146030000    -1.3280740000
| 27>  H        1.2395240000    -2.1511960000     0.1353890000
| 28>  H        2.4802440000    -0.0008160000    -0.1552260000
| 29>  H        1.5227160000    -0.0015470000     1.3164360000
| 30> *
| 31>
| 32>                          ****END OF INPUT****
 Total Charge           Charge          ....    0
 Multiplicity           Mult            ....    1
 Number of Electrons    NEL             ....   48
 Basis Dimension        Dim             ....  144

MULLIKEN ATOMIC CHARGES
-----------------------
   0 C :   -0.007541
   1 C :   -0.007390
   2 C :   -0.011125
   3 C :   -0.007541
   4 C :   -0.007390
   5 C :   -0.011125
   6 H :    0.002917
   7 H :    0.003904
   8 H :    0.002891
   9 H :    0.003909
  10 H :    0.006839
  11 H :    0.005596
  12 H :    0.002918
  13 H :    0.003904
  14 H :    0.003910
  15 H :    0.002891
  16 H :    0.005596
  17 H :    0.006839
Sum of atomic charges:   -0.0000000

LOEWDIN ATOMIC CHARGES
----------------------
   0 C :   -0.044555
   1 C :   -0.044549
   2 C :   -0.044829
   3 C :   -0.044556
   4 C :   -0.044549
   5 C :   -0.044829
   6 H :    0.022866
   7 H :    0.021395
   8 H :    0.022870
   9 H :    0.021377
  10 H :    0.021802
  11 H :    0.023623
  12 H :    0.022866
  13 H :    0.021395
  14 H :    0.021377
  15 H :    0.022870
  16 H :    0.023623
  17 H :    0.021801

  Mayer bond orders larger than 0.1
B(  0-C ,  1-C ) :   1.1024 B(  0-C ,  5-C ) :   1.1041 B(  0-C ,  6-H ) :   0.9279
B(  0-C ,  7-H ) :   0.9276 B(  1-C ,  2-C ) :   1.1041 B(  1-C ,  8-H ) :   0.9279
B(  1-C ,  9-H ) :   0.9276 B(  2-C ,  3-C ) :   1.1041 B(  2-C , 10-H ) :   0.9293
B(  2-C , 11-H ) :   0.9274 B(  3-C ,  4-C ) :   1.1024 B(  3-C , 12-H ) :   0.9279
B(  3-C , 13-H ) :   0.9276 B(  4-C ,  5-C ) :   1.1041 B(  4-C , 14-H ) :   0.9276
B(  4-C , 15-H ) :   0.9279 B(  5-C , 16-H ) :   0.9274 B(  5-C , 17-H ) :   0.9293

FINAL SINGLE POINT ENERGY      -235.367196590861

DIPOLE MOMENT
-------------
                                X             Y             Z
Electronic contribution:      0.00000       0.00000       0.00000
Nuclear contribution   :     -0.00000      -0.00000      -0.00000
                        -----------------------------------------
Total Dipole Moment    :      0.00000       0.00000       0.00000
                        -----------------------------------------
Magnitude (a.u.)       :      0.00000
Magnitude (Debye)      :      0.00000

                             ****ORCA TERMINATED NORMALLY****
TOTAL RUN TIME: 0 days 0 hours 0 minutes 7 seconds 52 msec
