                         Program Version 3.0.3 - RELEASE   -
|  1> ! RI PBE def2-SVP def2-SVP/J NBO PAL2
|  2> % maxcore 2000
|  3> % output
|  4>     # printlevel mini
|  5>     print[ P_Basis ] 0
|  6>     print[ P_SCFInfo ] 1
|  7>     print[ P_SCFIterInfo ] 1
|  8>     print[ P_OrbEn ] 0
|  9>     print[ P_Cartesian ] 0
| 10> end
| 11> *xyz 0 1
| 12>  C        1.0959070000    -0.1826800000    -0.0402800000
| 13>  C        2.5793060000     0.0466970000     0.0326860000
| 14>  C        3.5172350000    -0.6070820000    -0.9436850000
| 15>  C        3.3430890000     0.8855920000    -0.9573890000
| 16>  C        2.6322110000     1.5205280000    -2.1243370000
| 17>  C        4.4755280000     1.7187880000    -0.4140570000
| 18>  H        0.5389700000     0.6513290000     0.3966490000
| 19>  H        0.7513660000    -0.3090280000    -1.0681650000
| 20>  H        0.8191520000    -1.0881410000     0.5071140000
| 21>  H        2.9573250000     0.1171180000     1.0494000000
| 22>  H        3.0693720000    -1.1715530000    -1.7548270000
| 23>  H        4.4519740000    -1.0167240000    -0.5779670000
| 24>  H        1.8475560000     0.8817800000    -2.5316610000
| 25>  H        3.3396630000     1.7261960000    -2.9336120000
| 26>  H        2.1744510000     2.4726930000    -1.8372730000
| 27>  H        5.2332170000     1.9015250000    -1.1828580000
| 28>  H        4.1155800000     2.6918460000    -0.0646060000
| 29>  H        4.9663890000     1.2223240000     0.4264570000
| 30> *
| 31>
| 32>                          ****END OF INPUT****
 Total Charge           Charge          ....    0
 Multiplicity           Mult            ....    1
 Number of Electrons    NEL             ....   48
 Basis Dimension        Dim             ....  144

MULLIKEN ATOMIC CHARGES
-----------------------
   0 C :    0.084478
   1 C :   -0.147542
   2 C :    0.025139
   3 C :   -0.301799
   4 C :    0.104410
   5 C :    0.088210
   6 H :    0.022512
   7 H :    0.001216
   8 H :    0.019023
   9 H :    0.010616
  10 H :    0.017956
  11 H :    0.017617
  12 H :   -0.000206
  13 H :    0.014813
  14 H :    0.013073
  15 H :    0.015166
  16 H :    0.012753
  17 H :    0.002566
Sum of atomic charges:   -0.0000000

LOEWDIN ATOMIC CHARGES
----------------------
   0 C :   -0.057585
   1 C :   -0.044382
   2 C :   -0.043565
   3 C :   -0.062922
   4 C :   -0.048004
   5 C :   -0.046302
   6 H :    0.028486
   7 H :    0.024008
   8 H :    0.029902
   9 H :    0.023111
  10 H :    0.022508
  11 H :    0.022070
  12 H :    0.023230
  13 H :    0.027989
  14 H :    0.026326
  15 H :    0.025453
  16 H :    0.025461
  17 H :    0.024217

  Mayer bond orders larger than 0.1
B(  0-C ,  1-C ) :   1.1152 B(  0-C ,  6-H ) :   0.9584 B(  0-C ,  7-H ) :   0.9453
B(  0-C ,  8-H ) :   0.9529 B(  1-C ,  2-C ) :   0.9833 B(  1-C ,  3-C ) :   0.9257
B(  1-C ,  9-H ) :   0.9372 B(  2-C ,  3-C ) :   0.9746 B(  2-C , 10-H ) :   0.9438
B(  2-C , 11-H ) :   0.9381 B(  3-C ,  4-C ) :   1.1084 B(  3-C ,  5-C ) :   1.0939
B(  4-C , 12-H ) :   0.9392 B(  4-C , 13-H ) :   0.9517 B(  4-C , 14-H ) :   0.9529
B(  5-C , 15-H ) :   0.9552 B(  5-C , 16-H ) :   0.9566 B(  5-C , 17-H ) :   0.9438

FINAL SINGLE POINT ENERGY      -235.331408007564

DIPOLE MOMENT
-------------
                                X             Y             Z
Electronic contribution:      0.78231      -1.01589       0.55278
Nuclear contribution   :     -0.82064       1.05694      -0.54404
                        -----------------------------------------
Total Dipole Moment    :     -0.03833       0.04105       0.00874
                        -----------------------------------------
Magnitude (a.u.)       :      0.05684
Magnitude (Debye)      :      0.14448

                             ****ORCA TERMINATED NORMALLY****
TOTAL RUN TIME: 0 days 0 hours 0 minutes 7 seconds 202 msec
