                         Program Version 3.0.3 - RELEASE   -
|  1> ! RI PBE def2-SVP def2-SVP/J NBO PAL2
|  2> % maxcore 2000
|  3> % output
|  4>     # printlevel mini
|  5>     print[ P_Basis ] 0
|  6>     print[ P_SCFInfo ] 1
|  7>     print[ P_SCFIterInfo ] 1
|  8>     print[ P_OrbEn ] 0
|  9>     print[ P_Cartesian ] 0
| 10> end
| 11> *xyz 0 1
| 12>  C        0.9396010000     0.0225910000     0.0753470000
| 13>  C        2.4439480000    -0.0167850000    -0.0451360000
| 14>  C        3.2859500000     1.1369640000     0.5348040000
| 15>  C        4.3443470000     0.0983120000     0.9472460000
| 16>  C        3.2549990000    -0.9875010000     0.8434710000
| 17>  C        3.6127390000    -2.3564630000     0.3170780000
| 18>  H        0.4863960000    -0.9160930000    -0.2569910000
| 19>  H        0.6375450000     0.1899950000     1.1136820000
| 20>  H        0.5108950000     0.8271610000    -0.5292240000
| 21>  H        2.7332910000    -0.1799690000    -1.0906440000
| 22>  H        2.7957120000     1.5753530000     1.4088340000
| 23>  H        3.5862200000     1.9432870000    -0.1367670000
| 24>  H        4.8518050000     0.2286170000     1.9047590000
| 25>  H        5.0997920000    -0.0325470000     0.1671010000
| 26>  H        2.7470280000    -1.0778350000     1.8115820000
| 27>  H        4.2764590000    -2.8885160000     1.0048460000
| 28>  H        4.1250370000    -2.2800760000    -0.6468300000
| 29>  H        2.7223270000    -2.9758160000     0.1737630000
| 30> *
| 31>
| 32>                          ****END OF INPUT****
 Total Charge           Charge          ....    0
 Multiplicity           Mult            ....    1
 Number of Electrons    NEL             ....   48
 Basis Dimension        Dim             ....  144

MULLIKEN ATOMIC CHARGES
-----------------------
   0 C :    0.078802
   1 C :   -0.170893
   2 C :    0.049094
   3 C :    0.043169
   4 C :   -0.148283
   5 C :    0.052497
   6 H :    0.014514
   7 H :    0.002558
   8 H :    0.018847
   9 H :   -0.001241
  10 H :   -0.000041
  11 H :    0.007541
  12 H :    0.004695
  13 H :    0.004465
  14 H :   -0.006705
  15 H :    0.024256
  16 H :    0.007174
  17 H :    0.019550
Sum of atomic charges:   -0.0000000

LOEWDIN ATOMIC CHARGES
----------------------
   0 C :   -0.064263
   1 C :   -0.038064
   2 C :   -0.030879
   3 C :   -0.030938
   4 C :   -0.035852
   5 C :   -0.069534
   6 H :    0.026302
   7 H :    0.021489
   8 H :    0.027720
   9 H :    0.022123
  10 H :    0.021011
  11 H :    0.014799
  12 H :    0.014274
  13 H :    0.021666
  14 H :    0.021200
  15 H :    0.028689
  16 H :    0.022894
  17 H :    0.027362

  Mayer bond orders larger than 0.1
B(  0-C ,  1-C ) :   1.1030 B(  0-C ,  6-H ) :   0.9569 B(  0-C ,  7-H ) :   0.9492
B(  0-C ,  8-H ) :   0.9573 B(  1-C ,  2-C ) :   1.0868 B(  1-C ,  4-C ) :   1.0391
B(  1-C ,  9-H ) :   0.9007 B(  2-C ,  3-C ) :   1.1312 B(  2-C , 10-H ) :   0.9175
B(  2-C , 11-H ) :   0.9291 B(  3-C ,  4-C ) :   1.0831 B(  3-C , 12-H ) :   0.9301
B(  3-C , 13-H ) :   0.9195 B(  4-C ,  5-C ) :   1.1111 B(  4-C , 14-H ) :   0.8990
B(  5-C , 15-H ) :   0.9567 B(  5-C , 16-H ) :   0.9457 B(  5-C , 17-H ) :   0.9557

FINAL SINGLE POINT ENERGY      -235.334599633865

DIPOLE MOMENT
-------------
                                X             Y             Z
Electronic contribution:      0.91563       1.07024       0.32186
Nuclear contribution   :     -0.95650      -1.10915      -0.33861
                        -----------------------------------------
Total Dipole Moment    :     -0.04087      -0.03891      -0.01675
                        -----------------------------------------
Magnitude (a.u.)       :      0.05887
Magnitude (Debye)      :      0.14963

                             ****ORCA TERMINATED NORMALLY****
TOTAL RUN TIME: 0 days 0 hours 0 minutes 7 seconds 456 msec
