                         Program Version 3.0.3 - RELEASE   -
|  1> ! RI PBE def2-SVP def2-SVP/J NBO PAL2
|  2> % maxcore 2000
|  3> % output
|  4>     # printlevel mini
|  5>     print[ P_Basis ] 0
|  6>     print[ P_SCFInfo ] 1
|  7>     print[ P_SCFIterInfo ] 1
|  8>     print[ P_OrbEn ] 0
|  9>     print[ P_Cartesian ] 0
| 10> end
| 11> *xyz 0 1
| 12>  C        1.0156430000     0.1913020000    -0.1039530000
| 13>  C        2.5176870000     0.2143810000    -0.0539510000
| 14>  C        3.3736380000    -0.7860190000    -0.7873640000
| 15>  C        2.7955640000    -1.8889950000    -1.6290530000
| 16>  C        3.3395400000     0.6467510000    -1.2330270000
| 17>  C        4.5329940000     1.5427600000    -1.0623580000
| 18>  H        0.6047730000     1.1740560000     0.1440360000
| 19>  H        0.6439620000    -0.0739390000    -1.0955010000
| 20>  H        0.6015730000    -0.5291300000     0.6076760000
| 21>  H        2.9173470000     0.5207100000     0.9098360000
| 22>  H        4.2791940000    -1.0709500000    -0.2570490000
| 23>  H        2.4988090000    -2.7465200000    -1.0179240000
| 24>  H        1.9155600000    -1.5601600000    -2.1850470000
| 25>  H        3.5278240000    -2.2422740000    -2.3605620000
| 26>  H        2.7655910000     0.8212910000    -2.1409510000
| 27>  H        5.2452690000     1.4233190000    -1.8840510000
| 28>  H        5.0602520000     1.3123190000    -0.1326530000
| 29>  H        4.2415010000     2.5964870000    -1.0240030000
| 30> *
| 31>
| 32>                          ****END OF INPUT****
 Total Charge           Charge          ....    0
 Multiplicity           Mult            ....    1
 Number of Electrons    NEL             ....   48
 Basis Dimension        Dim             ....  144

MULLIKEN ATOMIC CHARGES
-----------------------
   0 C :    0.089010
   1 C :   -0.119662
   2 C :   -0.123952
   3 C :    0.079292
   4 C :   -0.137480
   5 C :    0.073627
   6 H :    0.017482
   7 H :   -0.001204
   8 H :    0.019742
   9 H :    0.002541
  10 H :    0.006570
  11 H :    0.019418
  12 H :    0.000016
  13 H :    0.021273
  14 H :    0.005629
  15 H :    0.023182
  16 H :    0.003812
  17 H :    0.020705
Sum of atomic charges:   -0.0000000

LOEWDIN ATOMIC CHARGES
----------------------
   0 C :   -0.056199
   1 C :   -0.044897
   2 C :   -0.045814
   3 C :   -0.058034
   4 C :   -0.045522
   5 C :   -0.057754
   6 H :    0.029026
   7 H :    0.023328
   8 H :    0.027777
   9 H :    0.022067
  10 H :    0.022647
  11 H :    0.027857
  12 H :    0.023705
  13 H :    0.029667
  14 H :    0.021289
  15 H :    0.027831
  16 H :    0.025704
  17 H :    0.027322

  Mayer bond orders larger than 0.1
B(  0-C ,  1-C ) :   1.1136 B(  0-C ,  6-H ) :   0.9564 B(  0-C ,  7-H ) :   0.9455
B(  0-C ,  8-H ) :   0.9569 B(  1-C ,  2-C ) :   0.9554 B(  1-C ,  4-C ) :   0.9500
B(  1-C ,  9-H ) :   0.9333 B(  2-C ,  3-C ) :   1.1147 B(  2-C ,  4-C ) :   0.9481
B(  2-C , 10-H ) :   0.9343 B(  3-C , 11-H ) :   0.9558 B(  3-C , 12-H ) :   0.9450
B(  3-C , 13-H ) :   0.9572 B(  4-C ,  5-C ) :   1.0997 B(  4-C , 14-H ) :   0.9423
B(  5-C , 15-H ) :   0.9603 B(  5-C , 16-H ) :   0.9462 B(  5-C , 17-H ) :   0.9593

FINAL SINGLE POINT ENERGY      -235.331635308965

DIPOLE MOMENT
-------------
                                X             Y             Z
Electronic contribution:      0.67144       0.16971       0.55210
Nuclear contribution   :     -0.68161      -0.17284      -0.55975
                        -----------------------------------------
Total Dipole Moment    :     -0.01017      -0.00312      -0.00765
                        -----------------------------------------
Magnitude (a.u.)       :      0.01311
Magnitude (Debye)      :      0.03332

                             ****ORCA TERMINATED NORMALLY****
TOTAL RUN TIME: 0 days 0 hours 0 minutes 7 seconds 107 msec
