                         Program Version 3.0.3 - RELEASE   -
|  1> ! RI PBE def2-SVP def2-SVP/J NBO PAL2
|  2> % maxcore 2000
|  3> % output
|  4>     # printlevel mini
|  5>     print[ P_Basis ] 0
|  6>     print[ P_SCFInfo ] 1
|  7>     print[ P_SCFIterInfo ] 1
|  8>     print[ P_OrbEn ] 0
|  9>     print[ P_Cartesian ] 0
| 10> end
| 11> *xyz 0 1
| 12>  C        0.9681740000     0.1096970000    -0.2457590000
| 13>  C        2.4537950000    -0.0268480000     0.0201790000
| 14>  C        3.0982030000     1.1892700000     0.6815470000
| 15>  C        4.4494610000     0.6822740000     1.1983980000
| 16>  C        4.2756140000    -0.8431360000     1.3917560000
| 17>  C        2.8291600000    -1.1474680000     0.9869070000
| 18>  H        0.5563180000    -0.7974500000    -0.6960150000
| 19>  H        0.4255720000     0.2941200000     0.6870100000
| 20>  H        0.7568070000     0.9414240000    -0.9231290000
| 21>  H        2.9704810000    -0.2110640000    -0.9323390000
| 22>  H        2.4651690000     1.5081280000     1.5184270000
| 23>  H        3.1919930000     2.0443480000     0.0073700000
| 24>  H        4.7467320000     1.1852710000     2.1207620000
| 25>  H        5.2362770000     0.8843750000     0.4673440000
| 26>  H        4.4873190000    -1.1580820000     2.4155310000
| 27>  H        4.9717970000    -1.3879580000     0.7491160000
| 28>  H        2.1686260000    -1.0912180000     1.8606260000
| 29>  H        2.7064920000    -2.1444640000     0.5562690000
| 30> *
| 31>
| 32>                          ****END OF INPUT****
 Total Charge           Charge          ....    0
 Multiplicity           Mult            ....    1
 Number of Electrons    NEL             ....   48
 Basis Dimension        Dim             ....  144

MULLIKEN ATOMIC CHARGES
-----------------------
   0 C :    0.052305
   1 C :   -0.186357
   2 C :    0.012977
   3 C :    0.002647
   4 C :    0.013770
   5 C :    0.028031
   6 H :    0.015104
   7 H :    0.008579
   8 H :    0.017585
   9 H :    0.007168
  10 H :    0.001922
  11 H :    0.008918
  12 H :    0.005171
  13 H :    0.004168
  14 H :   -0.000152
  15 H :    0.004841
  16 H :   -0.000241
  17 H :    0.003563
Sum of atomic charges:   -0.0000000

LOEWDIN ATOMIC CHARGES
----------------------
   0 C :   -0.060514
   1 C :   -0.048993
   2 C :   -0.039482
   3 C :   -0.044711
   4 C :   -0.042877
   5 C :   -0.037845
   6 H :    0.025726
   7 H :    0.023109
   8 H :    0.026075
   9 H :    0.022611
  10 H :    0.020681
  11 H :    0.021957
  12 H :    0.023409
  13 H :    0.023502
  14 H :    0.022252
  15 H :    0.024013
  16 H :    0.020372
  17 H :    0.020714

  Mayer bond orders larger than 0.1
B(  0-C ,  1-C ) :   1.1010 B(  0-C ,  6-H ) :   0.9595 B(  0-C ,  7-H ) :   0.9514
B(  0-C ,  8-H ) :   0.9602 B(  1-C ,  2-C ) :   1.0611 B(  1-C ,  5-C ) :   1.0576
B(  1-C ,  9-H ) :   0.9145 B(  2-C ,  3-C ) :   1.1308 B(  2-C , 10-H ) :   0.9240
B(  2-C , 11-H ) :   0.9348 B(  3-C ,  4-C ) :   1.1134 B(  3-C , 12-H ) :   0.9327
B(  3-C , 13-H ) :   0.9272 B(  4-C ,  5-C ) :   1.1358 B(  4-C , 14-H ) :   0.9332
B(  4-C , 15-H ) :   0.9252 B(  5-C , 16-H ) :   0.9227 B(  5-C , 17-H ) :   0.9349

FINAL SINGLE POINT ENERGY      -235.358611956031

DIPOLE MOMENT
-------------
                                X             Y             Z
Electronic contribution:      1.18562      -0.11567       0.15597
Nuclear contribution   :     -1.17708       0.11235      -0.18885
                        -----------------------------------------
Total Dipole Moment    :      0.00855      -0.00332      -0.03288
                        -----------------------------------------
Magnitude (a.u.)       :      0.03413
Magnitude (Debye)      :      0.08676

                             ****ORCA TERMINATED NORMALLY****
TOTAL RUN TIME: 0 days 0 hours 0 minutes 7 seconds 355 msec
