                         Program Version 3.0.3 - RELEASE   -
|  1> ! RI PBE def2-SVP def2-SVP/J NBO PAL2
|  2> % maxcore 2000
|  3> % output
|  4>     # printlevel mini
|  5>     print[ P_Basis ] 0
|  6>     print[ P_SCFInfo ] 1
|  7>     print[ P_SCFIterInfo ] 1
|  8>     print[ P_OrbEn ] 0
|  9>     print[ P_Cartesian ] 0
| 10> end
| 11> *xyz 0 1
| 12>  C        0.8140370000    -0.0003390000     0.1213730000
| 13>  C        2.3247820000     0.0406510000     0.0348160000
| 14>  C        2.7837110000     0.0400360000    -1.4139730000
| 15>  C        3.0373440000     1.1436800000     0.8612400000
| 16>  C        4.0701290000     0.1007780000     1.3250490000
| 17>  C        3.0968010000    -1.0059510000     0.8809860000
| 18>  H        0.3676990000     0.8665170000    -0.3763450000
| 19>  H        0.4773490000    -0.0000960000     1.1615900000
| 20>  H        0.4165450000    -0.8995290000    -0.3601230000
| 21>  H        2.3876470000     0.9090890000    -1.9482510000
| 22>  H        2.4365560000    -0.8592400000    -1.9320070000
| 23>  H        3.8739200000     0.0694740000    -1.4918190000
| 24>  H        2.4108810000     1.4885900000     1.6879010000
| 25>  H        3.4020350000     2.0165680000     0.3143640000
| 26>  H        4.3624830000     0.1185170000     2.3758310000
| 27>  H        4.9780860000     0.1203290000     0.7195690000
| 28>  H        2.4899390000    -1.3697260000     1.7141580000
| 29>  H        3.5094570000    -1.8672380000     0.3500400000
| 30> *
| 31>
| 32>                          ****END OF INPUT****
 Total Charge           Charge          ....    0
 Multiplicity           Mult            ....    1
 Number of Electrons    NEL             ....   48
 Basis Dimension        Dim             ....  144

MULLIKEN ATOMIC CHARGES
-----------------------
   0 C :    0.091061
   1 C :   -0.438643
   2 C :    0.086414
   3 C :    0.105676
   4 C :   -0.027618
   5 C :    0.103945
   6 H :    0.013408
   7 H :    0.003545
   8 H :    0.012374
   9 H :    0.013405
  10 H :    0.013842
  11 H :    0.004269
  12 H :   -0.004571
  13 H :    0.002045
  14 H :    0.006736
  15 H :    0.016120
  16 H :   -0.004694
  17 H :    0.002687
Sum of atomic charges:   -0.0000000

LOEWDIN ATOMIC CHARGES
----------------------
   0 C :   -0.055986
   1 C :   -0.059767
   2 C :   -0.049396
   3 C :   -0.025704
   4 C :   -0.035619
   5 C :   -0.025978
   6 H :    0.025436
   7 H :    0.020173
   8 H :    0.025264
   9 H :    0.024119
  10 H :    0.024152
  11 H :    0.023354
  12 H :    0.021285
  13 H :    0.014014
  14 H :    0.017454
  15 H :    0.021766
  16 H :    0.021296
  17 H :    0.014138

  Mayer bond orders larger than 0.1
B(  0-C ,  1-C ) :   1.0730 B(  0-C ,  6-H ) :   0.9569 B(  0-C ,  7-H ) :   0.9473
B(  0-C ,  8-H ) :   0.9569 B(  1-C ,  2-C ) :   1.0394 B(  1-C ,  3-C ) :   1.0507
B(  1-C ,  5-C ) :   1.0516 B(  2-C ,  9-H ) :   0.9548 B(  2-C , 10-H ) :   0.9552
B(  2-C , 11-H ) :   0.9531 B(  3-C ,  4-C ) :   1.1344 B(  3-C , 12-H ) :   0.9107
B(  3-C , 13-H ) :   0.9311 B(  4-C ,  5-C ) :   1.1349 B(  4-C , 14-H ) :   0.9264
B(  4-C , 15-H ) :   0.9292 B(  5-C , 16-H ) :   0.9103 B(  5-C , 17-H ) :   0.9312

FINAL SINGLE POINT ENERGY      -235.332382925749

DIPOLE MOMENT
-------------
                                X             Y             Z
Electronic contribution:      0.89522       0.03502       1.11683
Nuclear contribution   :     -0.91662      -0.03571      -1.12795
                        -----------------------------------------
Total Dipole Moment    :     -0.02140      -0.00069      -0.01112
                        -----------------------------------------
Magnitude (a.u.)       :      0.02412
Magnitude (Debye)      :      0.06132

                             ****ORCA TERMINATED NORMALLY****
TOTAL RUN TIME: 0 days 0 hours 0 minutes 7 seconds 522 msec
