                         Program Version 3.0.3 - RELEASE   -
|  1> ! RI PBE def2-SVP def2-SVP/J NBO PAL2
|  2> % maxcore 2000
|  3> % output
|  4>     # printlevel mini
|  5>     print[ P_Basis ] 0
|  6>     print[ P_SCFInfo ] 1
|  7>     print[ P_SCFIterInfo ] 1
|  8>     print[ P_OrbEn ] 0
|  9>     print[ P_Cartesian ] 0
| 10> end
| 11> *xyz 0 1
| 12>  C        0.9958620000    -0.1763800000     0.0102210000
| 13>  C        2.5048310000    -0.1840730000     0.0624310000
| 14>  C        3.2360100000     1.0520420000     0.6280160000
| 15>  C        4.2233340000     0.1110150000     1.3548420000
| 16>  C        5.5375160000    -0.0862720000     0.6269550000
| 17>  C        3.2075830000    -1.0342520000     1.1421650000
| 18>  H        0.6018180000    -1.1533520000    -0.2846770000
| 19>  H        0.5744730000     0.0706980000     0.9895070000
| 20>  H        0.6251830000     0.5615130000    -0.7072900000
| 21>  H        2.9047570000    -0.4329290000    -0.9252560000
| 22>  H        2.6011810000     1.5984300000     1.3311690000
| 23>  H        3.6586930000     1.7646890000    -0.0846930000
| 24>  H        4.4197270000     0.3657850000     2.3994970000
| 25>  H        6.1445090000     0.8230320000     0.6555650000
| 26>  H        6.1211220000    -0.8934500000     1.0785770000
| 27>  H        5.3759050000    -0.3431600000    -0.4243680000
| 28>  H        2.5633930000    -1.1749130000     2.0146360000
| 29>  H        3.6073030000    -2.0070250000     0.8448130000
| 30> *
| 31>
| 32>                          ****END OF INPUT****
 Total Charge           Charge          ....    0
 Multiplicity           Mult            ....    1
 Number of Electrons    NEL             ....   48
 Basis Dimension        Dim             ....  144

MULLIKEN ATOMIC CHARGES
-----------------------
   0 C :    0.069694
   1 C :   -0.238767
   2 C :    0.115543
   3 C :   -0.207007
   4 C :    0.048125
   5 C :    0.128913
   6 H :    0.016619
   7 H :    0.003601
   8 H :    0.018676
   9 H :    0.005391
  10 H :   -0.005360
  11 H :    0.004392
  12 H :   -0.002785
  13 H :    0.022836
  14 H :    0.019729
  15 H :    0.007043
  16 H :   -0.006487
  17 H :   -0.000155
Sum of atomic charges:    0.0000000

LOEWDIN ATOMIC CHARGES
----------------------
   0 C :   -0.063855
   1 C :   -0.039012
   2 C :   -0.029077
   3 C :   -0.037046
   4 C :   -0.061828
   5 C :   -0.027364
   6 H :    0.026668
   7 H :    0.020903
   8 H :    0.026921
   9 H :    0.021779
  10 H :    0.021627
  11 H :    0.014379
  12 H :    0.015203
  13 H :    0.026573
  14 H :    0.026001
  15 H :    0.023171
  16 H :    0.021273
  17 H :    0.013685

  Mayer bond orders larger than 0.1
B(  0-C ,  1-C ) :   1.1010 B(  0-C ,  6-H ) :   0.9577 B(  0-C ,  7-H ) :   0.9492
B(  0-C ,  8-H ) :   0.9585 B(  1-C ,  2-C ) :   1.0844 B(  1-C ,  5-C ) :   1.0824
B(  1-C ,  9-H ) :   0.9076 B(  2-C ,  3-C ) :   1.0889 B(  2-C , 10-H ) :   0.9056
B(  2-C , 11-H ) :   0.9297 B(  3-C ,  4-C ) :   1.0753 B(  3-C ,  5-C ) :   1.0916
B(  3-C , 12-H ) :   0.9131 B(  4-C , 13-H ) :   0.9582 B(  4-C , 14-H ) :   0.9569
B(  4-C , 15-H ) :   0.9555 B(  5-C , 16-H ) :   0.9063 B(  5-C , 17-H ) :   0.9295

FINAL SINGLE POINT ENERGY      -235.332632834425

DIPOLE MOMENT
-------------
                                X             Y             Z
Electronic contribution:      0.15637       0.14547       0.59342
Nuclear contribution   :     -0.17047      -0.14849      -0.61197
                        -----------------------------------------
Total Dipole Moment    :     -0.01411      -0.00302      -0.01855
                        -----------------------------------------
Magnitude (a.u.)       :      0.02350
Magnitude (Debye)      :      0.05974

                             ****ORCA TERMINATED NORMALLY****
TOTAL RUN TIME: 0 days 0 hours 0 minutes 7 seconds 414 msec
