                         Program Version 3.0.3 - RELEASE   -
|  1> ! RI PBE def2-SVP def2-SVP/J NBO PAL2
|  2> % maxcore 2000
|  3> % output
|  4>     # printlevel mini
|  5>     print[ P_Basis ] 0
|  6>     print[ P_SCFInfo ] 1
|  7>     print[ P_SCFIterInfo ] 1
|  8>     print[ P_OrbEn ] 0
|  9>     print[ P_Cartesian ] 0
| 10> end
| 11> *xyz 0 1
| 12>  C        1.0487030000     0.2652830000    -0.3164480000
| 13>  C        2.4886440000    -0.1089970000    -0.0004960000
| 14>  C        2.9581860000     0.4269310000     1.3246070000
| 15>  C        4.4191320000     0.6505730000     1.5799730000
| 16>  C        3.4921530000     1.8222350000     1.4393230000
| 17>  C        3.1682230000     2.6773180000     2.6309110000
| 18>  H        0.9230290000     1.3509030000    -0.3451900000
| 19>  H        0.3655020000    -0.1251500000     0.4429600000
| 20>  H        0.7333900000    -0.1352400000    -1.2829410000
| 21>  H        3.1502200000     0.2688200000    -0.7886080000
| 22>  H        2.5973930000    -1.1998420000    -0.0119480000
| 23>  H        2.3799340000     0.0835120000     2.1798180000
| 24>  H        5.1090350000     0.4384690000     0.7708370000
| 25>  H        4.8090280000     0.4329380000     2.5678840000
| 26>  H        3.5681520000     2.3622680000     0.4987120000
| 27>  H        3.9373990000     3.4366310000     2.7991730000
| 28>  H        3.1011590000     2.0695180000     3.5373980000
| 29>  H        2.2112160000     3.1919400000     2.5056470000
| 30> *
| 31>
| 32>                          ****END OF INPUT****
 Total Charge           Charge          ....    0
 Multiplicity           Mult            ....    1
 Number of Electrons    NEL             ....   48
 Basis Dimension        Dim             ....  144

MULLIKEN ATOMIC CHARGES
-----------------------
   0 C :   -0.010659
   1 C :    0.041141
   2 C :   -0.137689
   3 C :    0.031646
   4 C :   -0.167039
   5 C :    0.075689
   6 H :    0.020548
   7 H :    0.015512
   8 H :    0.015288
   9 H :   -0.005756
  10 H :    0.018841
  11 H :    0.007440
  12 H :    0.018353
  13 H :    0.014738
  14 H :    0.014223
  15 H :    0.024101
  16 H :    0.003732
  17 H :    0.019889
Sum of atomic charges:   -0.0000000

LOEWDIN ATOMIC CHARGES
----------------------
   0 C :   -0.066745
   1 C :   -0.040119
   2 C :   -0.043397
   3 C :   -0.043868
   4 C :   -0.047899
   5 C :   -0.056620
   6 H :    0.025051
   7 H :    0.024607
   8 H :    0.025026
   9 H :    0.023640
  10 H :    0.027022
  11 H :    0.021985
  12 H :    0.023790
  13 H :    0.022847
  14 H :    0.022955
  15 H :    0.028484
  16 H :    0.025548
  17 H :    0.027694

  Mayer bond orders larger than 0.1
B(  0-C ,  1-C ) :   1.1184 B(  0-C ,  6-H ) :   0.9685 B(  0-C ,  7-H ) :   0.9628
B(  0-C ,  8-H ) :   0.9586 B(  1-C ,  2-C ) :   1.0823 B(  1-C ,  9-H ) :   0.9168
B(  1-C , 10-H ) :   0.9307 B(  2-C ,  3-C ) :   0.9904 B(  2-C ,  4-C ) :   0.9479
B(  2-C , 11-H ) :   0.9418 B(  3-C ,  4-C ) :   1.0147 B(  3-C , 12-H ) :   0.9351
B(  3-C , 13-H ) :   0.9383 B(  4-C ,  5-C ) :   1.0991 B(  4-C , 14-H ) :   0.9380
B(  5-C , 15-H ) :   0.9580 B(  5-C , 16-H ) :   0.9488 B(  5-C , 17-H ) :   0.9606

FINAL SINGLE POINT ENERGY      -235.330431398438

DIPOLE MOMENT
-------------
                                X             Y             Z
Electronic contribution:      1.78358      -0.55004       0.34845
Nuclear contribution   :     -1.81926       0.56883      -0.35507
                        -----------------------------------------
Total Dipole Moment    :     -0.03568       0.01879      -0.00662
                        -----------------------------------------
Magnitude (a.u.)       :      0.04087
Magnitude (Debye)      :      0.10388

                             ****ORCA TERMINATED NORMALLY****
TOTAL RUN TIME: 0 days 0 hours 0 minutes 7 seconds 21 msec
