                         Program Version 3.0.3 - RELEASE   -
|  1> ! RI PBE def2-SVP def2-SVP/J NBO PAL2
|  2> % maxcore 2000
|  3> % output
|  4>     # printlevel mini
|  5>     print[ P_Basis ] 0
|  6>     print[ P_SCFInfo ] 1
|  7>     print[ P_SCFIterInfo ] 1
|  8>     print[ P_OrbEn ] 0
|  9>     print[ P_Cartesian ] 0
| 10> end
| 11> *xyz 0 1
| 12>  C        1.0135160000    -0.2586560000    -0.4246220000
| 13>  C        2.2508480000     0.5998550000    -0.2080670000
| 14>  C        2.9298300000     0.9858920000    -1.4947910000
| 15>  C        4.3793310000     1.3699700000    -1.5231280000
| 16>  C        3.9308000000     0.1022360000    -2.1898660000
| 17>  C        4.3497040000    -1.2389380000    -1.6556310000
| 18>  H        1.2676140000    -1.1971140000    -0.9236950000
| 19>  H        0.2821360000     0.2590700000    -1.0515640000
| 20>  H        0.5249380000    -0.5028320000     0.5217750000
| 21>  H        2.9559990000     0.0752820000     0.4438260000
| 22>  H        1.9738690000     1.5131650000     0.3310510000
| 23>  H        2.2881370000     1.5518080000    -2.1657530000
| 24>  H        4.9314800000     1.2658230000    -0.5945810000
| 25>  H        4.6926460000     2.2069890000    -2.1352400000
| 26>  H        3.8896640000     0.1451260000    -3.2743470000
| 27>  H        3.6659540000    -2.0300510000    -1.9763220000
| 28>  H        4.3829690000    -1.2501790000    -0.5646570000
| 29>  H        5.3494460000    -1.5009460000    -2.0131880000
| 30> *
| 31>
| 32>                          ****END OF INPUT****
 Total Charge           Charge          ....    0
 Multiplicity           Mult            ....    1
 Number of Electrons    NEL             ....   48
 Basis Dimension        Dim             ....  144

MULLIKEN ATOMIC CHARGES
-----------------------
   0 C :   -0.014527
   1 C :    0.056439
   2 C :   -0.135029
   3 C :    0.004137
   4 C :   -0.172135
   5 C :    0.075276
   6 H :    0.018938
   7 H :    0.016954
   8 H :    0.015887
   9 H :   -0.006924
  10 H :    0.010753
  11 H :    0.012914
  12 H :    0.020827
  13 H :    0.025320
  14 H :    0.023857
  15 H :    0.025215
  16 H :    0.004940
  17 H :    0.017157
Sum of atomic charges:   -0.0000000

LOEWDIN ATOMIC CHARGES
----------------------
   0 C :   -0.065891
   1 C :   -0.040281
   2 C :   -0.043574
   3 C :   -0.047032
   4 C :   -0.048490
   5 C :   -0.059796
   6 H :    0.024893
   7 H :    0.024558
   8 H :    0.025206
   9 H :    0.021578
  10 H :    0.027564
  11 H :    0.024557
  12 H :    0.023376
  13 H :    0.023974
  14 H :    0.026835
  15 H :    0.027489
  16 H :    0.025007
  17 H :    0.030026

  Mayer bond orders larger than 0.1
B(  0-C ,  1-C ) :   1.1153 B(  0-C ,  6-H ) :   0.9677 B(  0-C ,  7-H ) :   0.9639
B(  0-C ,  8-H ) :   0.9579 B(  1-C ,  2-C ) :   1.0943 B(  1-C ,  9-H ) :   0.9192
B(  1-C , 10-H ) :   0.9243 B(  2-C ,  3-C ) :   0.9878 B(  2-C ,  4-C ) :   0.9598
B(  2-C , 11-H ) :   0.9376 B(  3-C ,  4-C ) :   1.0094 B(  3-C , 12-H ) :   0.9451
B(  3-C , 13-H ) :   0.9397 B(  4-C ,  5-C ) :   1.1209 B(  4-C , 14-H ) :   0.9382
B(  5-C , 15-H ) :   0.9557 B(  5-C , 16-H ) :   0.9459 B(  5-C , 17-H ) :   0.9514

FINAL SINGLE POINT ENERGY      -235.328343067614

DIPOLE MOMENT
-------------
                                X             Y             Z
Electronic contribution:      1.18998       2.04267      -1.28362
Nuclear contribution   :     -1.20758      -2.07629       1.27692
                        -----------------------------------------
Total Dipole Moment    :     -0.01761      -0.03362      -0.00670
                        -----------------------------------------
Magnitude (a.u.)       :      0.03854
Magnitude (Debye)      :      0.09796

                             ****ORCA TERMINATED NORMALLY****
TOTAL RUN TIME: 0 days 0 hours 0 minutes 7 seconds 83 msec
