                         Program Version 3.0.3 - RELEASE   -
|  1> ! RI PBE def2-SVP def2-SVP/J NBO PAL2
|  2> % maxcore 2000
|  3> % output
|  4>     # printlevel mini
|  5>     print[ P_Basis ] 0
|  6>     print[ P_SCFInfo ] 1
|  7>     print[ P_SCFIterInfo ] 1
|  8>     print[ P_OrbEn ] 0
|  9>     print[ P_Cartesian ] 0
| 10> end
| 11> *xyz 0 1
| 12>  C        0.8198280000     0.0202300000     0.5476410000
| 13>  C        2.2386030000    -0.1809470000     0.0445750000
| 14>  C        2.9780960000     1.0427600000    -0.4604990000
| 15>  C        4.3737640000     0.7251040000    -0.9334710000
| 16>  C        2.2469800000     2.1255550000    -1.1961240000
| 17>  C        2.7739430000     2.3787320000     0.1888230000
| 18>  H        0.7792100000     0.7064150000     1.3967020000
| 19>  H        0.1597660000     0.4088210000    -0.2312810000
| 20>  H        0.3997450000    -0.9311470000     0.8813920000
| 21>  H        2.2269780000    -0.9218830000    -0.7646650000
| 22>  H        2.8400070000    -0.6273650000     0.8464570000
| 23>  H        4.3549140000    -0.0003100000    -1.7531270000
| 24>  H        4.9746090000     0.2974200000    -0.1244660000
| 25>  H        4.8856300000     1.6212070000    -1.2920460000
| 26>  H        1.1735530000     2.0466520000    -1.3150100000
| 27>  H        2.7526190000     2.5981680000    -2.0301940000
| 28>  H        2.0504220000     2.4679400000     0.9895510000
| 29>  H        3.6382330000     3.0236590000     0.2973520000
| 30> *
| 31>
| 32>                          ****END OF INPUT****
 Total Charge           Charge          ....    0
 Multiplicity           Mult            ....    1
 Number of Electrons    NEL             ....   48
 Basis Dimension        Dim             ....  144

MULLIKEN ATOMIC CHARGES
-----------------------
   0 C :   -0.042323
   1 C :    0.060431
   2 C :   -0.291496
   3 C :    0.077980
   4 C :   -0.016292
   5 C :   -0.020928
   6 H :    0.026196
   7 H :    0.027649
   8 H :    0.017441
   9 H :    0.012782
  10 H :    0.006755
  11 H :    0.019228
  12 H :    0.017962
  13 H :    0.003833
  14 H :    0.027134
  15 H :    0.021589
  16 H :    0.027226
  17 H :    0.024832
Sum of atomic charges:   -0.0000000

LOEWDIN ATOMIC CHARGES
----------------------
   0 C :   -0.069624
   1 C :   -0.033948
   2 C :   -0.061062
   3 C :   -0.048387
   4 C :   -0.045007
   5 C :   -0.046333
   6 H :    0.025321
   7 H :    0.025645
   8 H :    0.030346
   9 H :    0.026888
  10 H :    0.026056
  11 H :    0.026794
  12 H :    0.026581
  13 H :    0.025456
  14 H :    0.022192
  15 H :    0.023122
  16 H :    0.022337
  17 H :    0.023623

  Mayer bond orders larger than 0.1
B(  0-C ,  1-C ) :   1.1301 B(  0-C ,  6-H ) :   0.9588 B(  0-C ,  7-H ) :   0.9578
B(  0-C ,  8-H ) :   0.9525 B(  1-C ,  2-C ) :   1.0530 B(  1-C ,  9-H ) :   0.9297
B(  1-C , 10-H ) :   0.9258 B(  2-C ,  3-C ) :   1.0994 B(  2-C ,  4-C ) :   0.9786
B(  2-C ,  5-C ) :   0.9785 B(  3-C , 11-H ) :   0.9567 B(  3-C , 12-H ) :   0.9553
B(  3-C , 13-H ) :   0.9409 B(  4-C ,  5-C ) :   1.0224 B(  4-C , 14-H ) :   0.9431
B(  4-C , 15-H ) :   0.9433 B(  5-C , 16-H ) :   0.9421 B(  5-C , 17-H ) :   0.9440

FINAL SINGLE POINT ENERGY      -235.327625572681

DIPOLE MOMENT
-------------
                                X             Y             Z
Electronic contribution:      0.50013       1.14174      -0.40236
Nuclear contribution   :     -0.50349      -1.23175       0.41675
                        -----------------------------------------
Total Dipole Moment    :     -0.00336      -0.09001       0.01439
                        -----------------------------------------
Magnitude (a.u.)       :      0.09122
Magnitude (Debye)      :      0.23186

                             ****ORCA TERMINATED NORMALLY****
TOTAL RUN TIME: 0 days 0 hours 0 minutes 7 seconds 197 msec
