                         Program Version 3.0.3 - RELEASE   -
|  1> ! RI PBE def2-SVP def2-SVP/J NBO PAL2
|  2> % maxcore 2000
|  3> % output
|  4>     # printlevel mini
|  5>     print[ P_Basis ] 0
|  6>     print[ P_SCFInfo ] 1
|  7>     print[ P_SCFIterInfo ] 1
|  8>     print[ P_OrbEn ] 0
|  9>     print[ P_Cartesian ] 0
| 10> end
| 11> *xyz 0 1
| 12>  C        1.2272520000     0.4333700000    -0.4236480000
| 13>  C        2.2684850000     0.0134180000     0.6034350000
| 14>  C        3.1838470000     1.1535980000     1.0469030000
| 15>  C        4.3977870000     1.4237910000     0.1819570000
| 16>  C        5.4014820000     0.3530990000    -0.1174510000
| 17>  C        4.5595130000     0.9183800000    -1.2206110000
| 18>  H        1.6857380000     0.8794540000    -1.3087230000
| 19>  H        0.5490580000     1.1792370000     0.0004640000
| 20>  H        0.6225610000    -0.4159080000    -0.7513670000
| 21>  H        2.8644770000    -0.8202580000     0.2149160000
| 22>  H        1.7519450000    -0.3851150000     1.4819920000
| 23>  H        3.5386040000     0.9612770000     2.0657190000
| 24>  H        2.5849940000     2.0699640000     1.1077670000
| 25>  H        4.8327550000     2.4032340000     0.3569990000
| 26>  H        5.1765860000    -0.6553310000     0.2117800000
| 27>  H        6.4537330000     0.6071960000    -0.0832770000
| 28>  H        3.7893440000     0.2776040000    -1.6307930000
| 29>  H        5.0295390000     1.5682110000    -1.9486420000
| 30> *
| 31>
| 32>                          ****END OF INPUT****
 Total Charge           Charge          ....    0
 Multiplicity           Mult            ....    1
 Number of Electrons    NEL             ....   48
 Basis Dimension        Dim             ....  144

MULLIKEN ATOMIC CHARGES
-----------------------
   0 C :   -0.018023
   1 C :   -0.070216
   2 C :    0.093330
   3 C :   -0.152391
   4 C :   -0.043595
   5 C :   -0.034811
   6 H :    0.021073
   7 H :    0.015848
   8 H :    0.017612
   9 H :    0.010292
  10 H :    0.008674
  11 H :    0.004999
  12 H :    0.007309
  13 H :    0.012972
  14 H :    0.031751
  15 H :    0.032934
  16 H :    0.031717
  17 H :    0.030527
Sum of atomic charges:    0.0000000

LOEWDIN ATOMIC CHARGES
----------------------
   0 C :   -0.066797
   1 C :   -0.049806
   2 C :   -0.035476
   3 C :   -0.044156
   4 C :   -0.051081
   5 C :   -0.048198
   6 H :    0.022788
   7 H :    0.023958
   8 H :    0.026085
   9 H :    0.020603
  10 H :    0.026947
  11 H :    0.027188
  12 H :    0.026015
  13 H :    0.025538
  14 H :    0.021875
  15 H :    0.025490
  16 H :    0.023108
  17 H :    0.025919

  Mayer bond orders larger than 0.1
B(  0-C ,  1-C ) :   1.1119 B(  0-C ,  6-H ) :   0.9649 B(  0-C ,  7-H ) :   0.9612
B(  0-C ,  8-H ) :   0.9607 B(  1-C ,  2-C ) :   1.1030 B(  1-C ,  9-H ) :   0.9371
B(  1-C , 10-H ) :   0.9315 B(  2-C ,  3-C ) :   1.0730 B(  2-C , 11-H ) :   0.9226
B(  2-C , 12-H ) :   0.9321 B(  3-C ,  4-C ) :   0.9907 B(  3-C ,  5-C ) :   1.0143
B(  3-C , 13-H ) :   0.9380 B(  4-C ,  5-C ) :   1.0396 B(  4-C , 14-H ) :   0.9472
B(  4-C , 15-H ) :   0.9461 B(  5-C , 16-H ) :   0.9340 B(  5-C , 17-H ) :   0.9482

FINAL SINGLE POINT ENERGY      -235.321484096726

DIPOLE MOMENT
-------------
                                X             Y             Z
Electronic contribution:      2.53297       0.76664       0.39925
Nuclear contribution   :     -2.56859      -0.74048      -0.34088
                        -----------------------------------------
Total Dipole Moment    :     -0.03562       0.02616       0.05836
                        -----------------------------------------
Magnitude (a.u.)       :      0.07321
Magnitude (Debye)      :      0.18608

                             ****ORCA TERMINATED NORMALLY****
TOTAL RUN TIME: 0 days 0 hours 0 minutes 7 seconds 369 msec
