                         Program Version 3.0.3 - RELEASE   -
|  1> ! RI PBE def2-SVP def2-SVP/J NBO PAL2
|  2> % maxcore 2000
|  3> % output
|  4>     # printlevel mini
|  5>     print[ P_Basis ] 0
|  6>     print[ P_SCFInfo ] 1
|  7>     print[ P_SCFIterInfo ] 1
|  8>     print[ P_OrbEn ] 0
|  9>     print[ P_Cartesian ] 0
| 10> end
| 11> *xyz 0 1
| 12>  C        1.1277090000     0.3961990000    -0.6159250000
| 13>  C        2.4407090000    -0.0054610000     0.0403190000
| 14>  C        3.2374080000    -0.9207300000    -0.8829450000
| 15>  C        3.3063900000     1.1574420000     0.4835230000
| 16>  C        3.4226760000     2.4352990000    -0.2911790000
| 17>  C        2.7646200000     2.4284570000     1.0578610000
| 18>  H        1.2963510000     0.9194140000    -1.5612280000
| 19>  H        0.5219450000     1.0395810000     0.0256260000
| 20>  H        0.5339390000    -0.4929210000    -0.8408460000
| 21>  H        2.1935510000    -0.5759780000     0.9458400000
| 22>  H        3.5130350000    -0.3946050000    -1.8018190000
| 23>  H        2.6570520000    -1.8038680000    -1.1629030000
| 24>  H        4.1597480000    -1.2624660000    -0.4060520000
| 25>  H        4.2367210000     0.8250730000     0.9370090000
| 26>  H        2.7816470000     2.5740540000    -1.1529860000
| 27>  H        4.4002250000     2.8913020000    -0.3876450000
| 28>  H        1.6909190000     2.5669120000     1.0879400000
| 29>  H        3.2917450000     2.8768150000     1.8910010000
| 30> *
| 31>
| 32>                          ****END OF INPUT****
 Total Charge           Charge          ....    0
 Multiplicity           Mult            ....    1
 Number of Electrons    NEL             ....   48
 Basis Dimension        Dim             ....  144

MULLIKEN ATOMIC CHARGES
-----------------------
   0 C :   -0.017957
   1 C :   -0.046982
   2 C :    0.034412
   3 C :   -0.124020
   4 C :   -0.032608
   5 C :   -0.029485
   6 H :    0.017825
   7 H :    0.023859
   8 H :    0.016152
   9 H :    0.008270
  10 H :    0.009639
  11 H :    0.011725
  12 H :    0.007540
  13 H :    0.009942
  14 H :    0.028603
  15 H :    0.028098
  16 H :    0.028008
  17 H :    0.026978
Sum of atomic charges:   -0.0000000

LOEWDIN ATOMIC CHARGES
----------------------
   0 C :   -0.061824
   1 C :   -0.040920
   2 C :   -0.055431
   3 C :   -0.040248
   4 C :   -0.048006
   5 C :   -0.048969
   6 H :    0.023558
   7 H :    0.024808
   8 H :    0.028513
   9 H :    0.027849
  10 H :    0.023874
  11 H :    0.023009
  12 H :    0.022949
  13 H :    0.025128
  14 H :    0.022754
  15 H :    0.024844
  16 H :    0.022764
  17 H :    0.025347

  Mayer bond orders larger than 0.1
B(  0-C ,  1-C ) :   1.0958 B(  0-C ,  6-H ) :   0.9540 B(  0-C ,  7-H ) :   0.9550
B(  0-C ,  8-H ) :   0.9541 B(  1-C ,  2-C ) :   1.0900 B(  1-C ,  3-C ) :   1.0414
B(  1-C ,  9-H ) :   0.9032 B(  2-C , 10-H ) :   0.9605 B(  2-C , 11-H ) :   0.9587
B(  2-C , 12-H ) :   0.9571 B(  3-C ,  4-C ) :   0.9967 B(  3-C ,  5-C ) :   0.9956
B(  3-C , 13-H ) :   0.9391 B(  4-C ,  5-C ) :   1.0451 B(  4-C , 14-H ) :   0.9457
B(  4-C , 15-H ) :   0.9472 B(  5-C , 16-H ) :   0.9438 B(  5-C , 17-H ) :   0.9436

FINAL SINGLE POINT ENERGY      -235.325328680750

DIPOLE MOMENT
-------------
                                X             Y             Z
Electronic contribution:      1.05838       1.39486       1.63311
Nuclear contribution   :     -1.06213      -1.46135      -1.61421
                        -----------------------------------------
Total Dipole Moment    :     -0.00375      -0.06650       0.01890
                        -----------------------------------------
Magnitude (a.u.)       :      0.06923
Magnitude (Debye)      :      0.17598

                             ****ORCA TERMINATED NORMALLY****
TOTAL RUN TIME: 0 days 0 hours 0 minutes 7 seconds 196 msec
