                         Program Version 3.0.3 - RELEASE   -
|  1> ! RI PBE def2-SVP def2-SVP/J NBO PAL2
|  2> % maxcore 2000
|  3> % output
|  4>     # printlevel mini
|  5>     print[ P_Basis ] 0
|  6>     print[ P_SCFInfo ] 1
|  7>     print[ P_SCFIterInfo ] 1
|  8>     print[ P_OrbEn ] 0
|  9>     print[ P_Cartesian ] 0
| 10> end
| 11> *xyz 0 1
| 12>  C        0.5062040000    -0.0409110000    -0.0605780000
| 13>  C        1.9644350000    -0.4394400000     0.0925440000
| 14>  C        2.8947200000     0.3287630000    -0.8331800000
| 15>  C        4.3568320000    -0.0618930000    -0.6885850000
| 16>  C        5.2871140000     0.7062900000    -1.6143290000
| 17>  C        6.7453450000     0.3077690000    -1.4612000000
| 18>  H       -0.1391910000    -0.6071910000     0.6149940000
| 19>  H        0.1545680000    -0.2172050000    -1.0811190000
| 20>  H        0.3631440000     1.0214800000     0.1564330000
| 21>  H        2.0737980000    -1.5135160000    -0.0975490000
| 22>  H        2.2808000000    -0.2842170000     1.1305970000
| 23>  H        2.7857960000     1.4042780000    -0.6439090000
| 24>  H        2.5786860000     0.1742850000    -1.8727370000
| 25>  H        4.4657510000    -1.1374110000    -0.8778380000
| 26>  H        4.6728740000     0.0926030000     0.3509670000
| 27>  H        5.1777480000     1.7803710000    -1.4242660000
| 28>  H        4.9707470000     0.5510390000    -2.6523780000
| 29>  H        7.0969930000     0.4841150000    -0.4406710000
| 30>  H        7.3907350000     0.8740130000    -2.1368080000
| 31>  H        6.8884020000    -0.7546320000    -1.6781590000
| 32> *
| 33>
| 34>                          ****END OF INPUT****
 Total Charge           Charge          ....    0
 Multiplicity           Mult            ....    1
 Number of Electrons    NEL             ....   50
 Basis Dimension        Dim             ....  154

MULLIKEN ATOMIC CHARGES
-----------------------
   0 C :   -0.002401
   1 C :   -0.043973
   2 C :   -0.024406
   3 C :   -0.024405
   4 C :   -0.043973
   5 C :   -0.002402
   6 H :    0.018275
   7 H :    0.014522
   8 H :    0.016239
   9 H :    0.010753
  10 H :    0.006643
  11 H :    0.003210
  12 H :    0.001138
  13 H :    0.003210
  14 H :    0.001138
  15 H :    0.010754
  16 H :    0.006642
  17 H :    0.014523
  18 H :    0.018275
  19 H :    0.016239
Sum of atomic charges:   -0.0000000

LOEWDIN ATOMIC CHARGES
----------------------
   0 C :   -0.067008
   1 C :   -0.048071
   2 C :   -0.043608
   3 C :   -0.043608
   4 C :   -0.048071
   5 C :   -0.067008
   6 H :    0.026175
   7 H :    0.023499
   8 H :    0.024091
   9 H :    0.022452
  10 H :    0.021293
  11 H :    0.020966
  12 H :    0.020210
  13 H :    0.020966
  14 H :    0.020210
  15 H :    0.022452
  16 H :    0.021293
  17 H :    0.023499
  18 H :    0.026175
  19 H :    0.024091

  Mayer bond orders larger than 0.1
B(  0-C ,  1-C ) :   1.1189 B(  0-C ,  6-H ) :   0.9592 B(  0-C ,  7-H ) :   0.9658
B(  0-C ,  8-H ) :   0.9644 B(  1-C ,  2-C ) :   1.0922 B(  1-C ,  9-H ) :   0.9367
B(  1-C , 10-H ) :   0.9378 B(  2-C ,  3-C ) :   1.0932 B(  2-C , 11-H ) :   0.9329
B(  2-C , 12-H ) :   0.9356 B(  3-C ,  4-C ) :   1.0922 B(  3-C , 13-H ) :   0.9329
B(  3-C , 14-H ) :   0.9356 B(  4-C ,  5-C ) :   1.1189 B(  4-C , 15-H ) :   0.9367
B(  4-C , 16-H ) :   0.9378 B(  5-C , 17-H ) :   0.9658 B(  5-C , 18-H ) :   0.9592
B(  5-C , 19-H ) :   0.9644

FINAL SINGLE POINT ENERGY      -236.553889624607

DIPOLE MOMENT
-------------
                                X             Y             Z
Electronic contribution:     -0.00000       0.00000       0.00001
Nuclear contribution   :      0.00000      -0.00000      -0.00001
                        -----------------------------------------
Total Dipole Moment    :     -0.00000      -0.00000      -0.00000
                        -----------------------------------------
Magnitude (a.u.)       :      0.00000
Magnitude (Debye)      :      0.00000

                             ****ORCA TERMINATED NORMALLY****
TOTAL RUN TIME: 0 days 0 hours 0 minutes 7 seconds 241 msec
