                         Program Version 3.0.3 - RELEASE   -
|  1> ! RI PBE def2-SVP def2-SVP/J NBO PAL2
|  2> % maxcore 2000
|  3> % output
|  4>     # printlevel mini
|  5>     print[ P_Basis ] 0
|  6>     print[ P_SCFInfo ] 1
|  7>     print[ P_SCFIterInfo ] 1
|  8>     print[ P_OrbEn ] 0
|  9>     print[ P_Cartesian ] 0
| 10> end
| 11> *xyz 0 1
| 12>  C        1.6351900000     0.3103770000    -0.5537460000
| 13>  C        2.6627430000     0.5129550000     0.5536380000
| 14>  C        3.9538900000     1.0829770000    -0.0197290000
| 15>  C        2.9170780000    -0.7473910000     1.4025040000
| 16>  C        3.4123560000    -1.9417060000     0.5953420000
| 17>  C        1.6955350000    -1.1347450000     2.2262290000
| 18>  H        0.6871300000    -0.0765310000    -0.1737750000
| 19>  H        2.0009600000    -0.3844090000    -1.3148850000
| 20>  H        1.4240090000     1.2581530000    -1.0556920000
| 21>  H        2.2558370000     1.2628400000     1.2453520000
| 22>  H        3.7708370000     2.0400910000    -0.5150750000
| 23>  H        4.6992110000     1.2488460000     0.7630520000
| 24>  H        4.3930040000     0.4124120000    -0.7635540000
| 25>  H        3.7128520000    -0.4767380000     2.1095110000
| 26>  H        2.6436720000    -2.3043200000    -0.0927610000
| 27>  H        4.3031070000    -1.7051990000     0.0092360000
| 28>  H        3.6687420000    -2.7708490000     1.2598840000
| 29>  H        1.3340020000    -0.2934090000     2.8238980000
| 30>  H        1.9311270000    -1.9539770000     2.9105530000
| 31>  H        0.8726370000    -1.4713760000     1.5896190000
| 32> *
| 33>
| 34>                          ****END OF INPUT****
 Total Charge           Charge          ....    0
 Multiplicity           Mult            ....    1
 Number of Electrons    NEL             ....   50
 Basis Dimension        Dim             ....  154

MULLIKEN ATOMIC CHARGES
-----------------------
   0 C :    0.021501
   1 C :   -0.133715
   2 C :    0.028042
   3 C :   -0.119046
   4 C :    0.011021
   5 C :    0.029002
   6 H :    0.010422
   7 H :    0.017944
   8 H :    0.011727
   9 H :    0.000992
  10 H :    0.012058
  11 H :    0.012358
  12 H :    0.016301
  13 H :   -0.000745
  14 H :    0.016597
  15 H :    0.013781
  16 H :    0.013511
  17 H :    0.009981
  18 H :    0.013858
  19 H :    0.014411
Sum of atomic charges:   -0.0000000

LOEWDIN ATOMIC CHARGES
----------------------
   0 C :   -0.059887
   1 C :   -0.045021
   2 C :   -0.060632
   3 C :   -0.043972
   4 C :   -0.061346
   5 C :   -0.059586
   6 H :    0.022411
   7 H :    0.023220
   8 H :    0.025785
   9 H :    0.022863
  10 H :    0.025263
  11 H :    0.024056
  12 H :    0.021830
  13 H :    0.022962
  14 H :    0.023013
  15 H :    0.022999
  16 H :    0.026123
  17 H :    0.023176
  18 H :    0.025162
  19 H :    0.021581

  Mayer bond orders larger than 0.1
B(  0-C ,  1-C ) :   1.0766 B(  0-C ,  6-H ) :   0.9587 B(  0-C ,  7-H ) :   0.9588
B(  0-C ,  8-H ) :   0.9562 B(  1-C ,  2-C ) :   1.0913 B(  1-C ,  3-C ) :   1.0411
B(  1-C ,  9-H ) :   0.9097 B(  2-C , 10-H ) :   0.9556 B(  2-C , 11-H ) :   0.9540
B(  2-C , 12-H ) :   0.9565 B(  3-C ,  4-C ) :   1.0770 B(  3-C ,  5-C ) :   1.0872
B(  3-C , 13-H ) :   0.9080 B(  4-C , 14-H ) :   0.9593 B(  4-C , 15-H ) :   0.9577
B(  4-C , 16-H ) :   0.9567 B(  5-C , 17-H ) :   0.9561 B(  5-C , 18-H ) :   0.9575
B(  5-C , 19-H ) :   0.9571

FINAL SINGLE POINT ENERGY      -236.551811784281

DIPOLE MOMENT
-------------
                                X             Y             Z
Electronic contribution:      0.22602       0.59870       0.82212
Nuclear contribution   :     -0.22128      -0.58074      -0.79594
                        -----------------------------------------
Total Dipole Moment    :      0.00474       0.01796       0.02618
                        -----------------------------------------
Magnitude (a.u.)       :      0.03210
Magnitude (Debye)      :      0.08159

                             ****ORCA TERMINATED NORMALLY****
TOTAL RUN TIME: 0 days 0 hours 0 minutes 8 seconds 262 msec
