                         Program Version 3.0.3 - RELEASE   -
|  1> ! RI PBE def2-SVP def2-SVP/J NBO PAL2
|  2> % maxcore 2000
|  3> % output
|  4>     # printlevel mini
|  5>     print[ P_Basis ] 0
|  6>     print[ P_SCFInfo ] 1
|  7>     print[ P_SCFIterInfo ] 1
|  8>     print[ P_OrbEn ] 0
|  9>     print[ P_Cartesian ] 0
| 10> end
| 11> *xyz 0 1
| 12>  C        0.7741740000    -0.5917070000    -0.1300340000
| 13>  C        2.1069170000     0.0125120000    -0.5427550000
| 14>  C        2.9406600000    -0.8385000000    -1.5020360000
| 15>  C        4.3361380000    -0.2442690000    -1.6423520000
| 16>  C        2.2562470000    -1.0047190000    -2.8585220000
| 17>  C        2.9470820000    -1.9739580000    -3.8050750000
| 18>  H        0.2773010000     0.0331950000     0.6159130000
| 19>  H        0.9121120000    -1.5836710000     0.3103180000
| 20>  H        0.0869600000    -0.6963790000    -0.9723200000
| 21>  H        2.7035160000     0.1966800000     0.3577680000
| 22>  H        1.9416910000     0.9973530000    -0.9983740000
| 23>  H        3.0408310000    -1.8389130000    -1.0554750000
| 24>  H        4.2878720000     0.7502620000    -2.0984600000
| 25>  H        4.8156950000    -0.1370430000    -0.6659200000
| 26>  H        4.9878820000    -0.8629610000    -2.2621510000
| 27>  H        2.1781030000    -0.0179140000    -3.3331560000
| 28>  H        1.2292480000    -1.3469770000    -2.7008260000
| 29>  H        3.9431110000    -1.6304870000    -4.0922080000
| 30>  H        2.3700840000    -2.1015260000    -4.7240760000
| 31>  H        3.0565570000    -2.9607680000    -3.3453700000
| 32> *
| 33>
| 34>                          ****END OF INPUT****
 Total Charge           Charge          ....    0
 Multiplicity           Mult            ....    1
 Number of Electrons    NEL             ....   50
 Basis Dimension        Dim             ....  154

MULLIKEN ATOMIC CHARGES
-----------------------
   0 C :   -0.022356
   1 C :    0.000527
   2 C :   -0.143256
   3 C :    0.022984
   4 C :   -0.015042
   5 C :   -0.001679
   6 H :    0.020905
   7 H :    0.015418
   8 H :    0.026876
   9 H :    0.003556
  10 H :   -0.000238
  11 H :   -0.003142
  12 H :    0.008140
  13 H :    0.012857
  14 H :    0.019846
  15 H :    0.002948
  16 H :    0.004013
  17 H :    0.015798
  18 H :    0.017194
  19 H :    0.014650
Sum of atomic charges:   -0.0000000

LOEWDIN ATOMIC CHARGES
----------------------
   0 C :   -0.071449
   1 C :   -0.040829
   2 C :   -0.046308
   3 C :   -0.061048
   4 C :   -0.042489
   5 C :   -0.066409
   6 H :    0.028004
   7 H :    0.024872
   8 H :    0.023194
   9 H :    0.022741
  10 H :    0.021358
  11 H :    0.020182
  12 H :    0.023859
  13 H :    0.024611
  14 H :    0.023620
  15 H :    0.021374
  16 H :    0.021583
  17 H :    0.021818
  18 H :    0.026912
  19 H :    0.024403

  Mayer bond orders larger than 0.1
B(  0-C ,  1-C ) :   1.1229 B(  0-C ,  6-H ) :   0.9570 B(  0-C ,  7-H ) :   0.9603
B(  0-C ,  8-H ) :   0.9587 B(  1-C ,  2-C ) :   1.0698 B(  1-C ,  9-H ) :   0.9343
B(  1-C , 10-H ) :   0.9281 B(  2-C ,  3-C ) :   1.0867 B(  2-C ,  4-C ) :   1.0599
B(  2-C , 11-H ) :   0.9077 B(  3-C , 12-H ) :   0.9561 B(  3-C , 13-H ) :   0.9542
B(  3-C , 14-H ) :   0.9572 B(  4-C ,  5-C ) :   1.1216 B(  4-C , 15-H ) :   0.9324
B(  4-C , 16-H ) :   0.9298 B(  5-C , 17-H ) :   0.9603 B(  5-C , 18-H ) :   0.9576
B(  5-C , 19-H ) :   0.9624

FINAL SINGLE POINT ENERGY      -236.552059571863

DIPOLE MOMENT
-------------
                                X             Y             Z
Electronic contribution:     -0.00655       0.28413       0.41036
Nuclear contribution   :     -0.00932      -0.29106      -0.39949
                        -----------------------------------------
Total Dipole Moment    :     -0.01587      -0.00693       0.01087
                        -----------------------------------------
Magnitude (a.u.)       :      0.02045
Magnitude (Debye)      :      0.05197

                             ****ORCA TERMINATED NORMALLY****
TOTAL RUN TIME: 0 days 0 hours 0 minutes 8 seconds 195 msec
