                         Program Version 3.0.3 - RELEASE   -
|  1> ! RI PBE def2-SVP def2-SVP/J NBO PAL2
|  2> % maxcore 2000
|  3> % output
|  4>     # printlevel mini
|  5>     print[ P_Basis ] 0
|  6>     print[ P_SCFInfo ] 1
|  7>     print[ P_SCFIterInfo ] 1
|  8>     print[ P_OrbEn ] 0
|  9>     print[ P_Cartesian ] 0
| 10> end
| 11> *xyz 0 1
| 12>  C        2.3065650000    -0.9769710000    -0.0365810000
| 13>  C        2.3100770000     0.5381500000    -0.1649070000
| 14>  C        2.4601250000     1.1113550000    -1.5836650000
| 15>  C        1.3052480000     0.6605130000    -2.4756630000
| 16>  C        3.7854880000     0.6775550000    -2.2064740000
| 17>  C        2.4383260000     2.6353880000    -1.4793020000
| 18>  H        2.1949480000    -1.2697320000     1.0101170000
| 19>  H        3.2368160000    -1.4205500000    -0.3989240000
| 20>  H        1.4818530000    -1.4326190000    -0.5894440000
| 21>  H        3.1206180000     0.9461830000     0.4510010000
| 22>  H        1.3808050000     0.9342230000     0.2621620000
| 23>  H        1.3061070000    -0.4218160000    -2.6241520000
| 24>  H        1.3758200000     1.1274200000    -3.4621060000
| 25>  H        0.3405740000     0.9409070000    -2.0420840000
| 26>  H        4.6307870000     0.9703950000    -1.5764560000
| 27>  H        3.8312070000    -0.4044660000    -2.3500870000
| 28>  H        3.9218430000     1.1449080000    -3.1857810000
| 29>  H        1.4992300000     2.9863940000    -1.0413940000
| 30>  H        2.5421280000     3.0982820000    -2.4648450000
| 31>  H        3.2567340000     2.9984700000    -0.8506130000
| 32> *
| 33>
| 34>                          ****END OF INPUT****
 Total Charge           Charge          ....    0
 Multiplicity           Mult            ....    1
 Number of Electrons    NEL             ....   50
 Basis Dimension        Dim             ....  154

MULLIKEN ATOMIC CHARGES
-----------------------
   0 C :    0.001214
   1 C :    0.013287
   2 C :   -0.342550
   3 C :    0.060051
   4 C :    0.059137
   5 C :    0.080074
   6 H :    0.014723
   7 H :    0.017549
   8 H :    0.018188
   9 H :    0.001695
  10 H :    0.000023
  11 H :    0.016572
  12 H :    0.005137
  13 H :    0.007743
  14 H :    0.008740
  15 H :    0.014353
  16 H :    0.005999
  17 H :    0.005353
  18 H :    0.006028
  19 H :    0.006686
Sum of atomic charges:   -0.0000000

LOEWDIN ATOMIC CHARGES
----------------------
   0 C :   -0.067681
   1 C :   -0.034941
   2 C :   -0.068129
   3 C :   -0.049992
   4 C :   -0.050555
   5 C :   -0.046800
   6 H :    0.027775
   7 H :    0.023528
   8 H :    0.023765
   9 H :    0.021201
  10 H :    0.020716
  11 H :    0.021706
  12 H :    0.023417
  13 H :    0.022846
  14 H :    0.023177
  15 H :    0.021514
  16 H :    0.023477
  17 H :    0.021785
  18 H :    0.021340
  19 H :    0.021850

  Mayer bond orders larger than 0.1
B(  0-C ,  1-C ) :   1.1186 B(  0-C ,  6-H ) :   0.9562 B(  0-C ,  7-H ) :   0.9595
B(  0-C ,  8-H ) :   0.9596 B(  1-C ,  2-C ) :   1.0280 B(  1-C ,  9-H ) :   0.9317
B(  1-C , 10-H ) :   0.9340 B(  2-C ,  3-C ) :   1.0450 B(  2-C ,  4-C ) :   1.0474
B(  2-C ,  5-C ) :   1.0553 B(  3-C , 11-H ) :   0.9576 B(  3-C , 12-H ) :   0.9547
B(  3-C , 13-H ) :   0.9599 B(  4-C , 14-H ) :   0.9578 B(  4-C , 15-H ) :   0.9562
B(  4-C , 16-H ) :   0.9547 B(  5-C , 17-H ) :   0.9566 B(  5-C , 18-H ) :   0.9568
B(  5-C , 19-H ) :   0.9573

FINAL SINGLE POINT ENERGY      -236.552894011475

DIPOLE MOMENT
-------------
                                X             Y             Z
Electronic contribution:     -0.03315       0.48882       0.26789
Nuclear contribution   :      0.03076      -0.50418      -0.25149
                        -----------------------------------------
Total Dipole Moment    :     -0.00239      -0.01537       0.01640
                        -----------------------------------------
Magnitude (a.u.)       :      0.02260
Magnitude (Debye)      :      0.05744

                             ****ORCA TERMINATED NORMALLY****
TOTAL RUN TIME: 0 days 0 hours 0 minutes 8 seconds 45 msec
