                         Program Version 3.0.3 - RELEASE   -
|  1> ! RI PBE def2-SVP def2-SVP/J NBO PAL2
|  2> % maxcore 2000
|  3> % output
|  4>     # printlevel mini
|  5>     print[ P_Basis ] 0
|  6>     print[ P_SCFInfo ] 1
|  7>     print[ P_SCFIterInfo ] 1
|  8>     print[ P_OrbEn ] 0
|  9>     print[ P_Cartesian ] 0
| 10> end
| 11> *xyz 0 1
| 12>  C        1.0640390000    -0.4180340000    -0.0226780000
| 13>  C        2.5655910000    -0.5375860000    -0.2256730000
| 14>  C        3.3598380000     0.3063290000     0.7596810000
| 15>  C        4.8776990000     0.1589430000     0.6743420000
| 16>  C        5.5498880000     0.9032990000     1.8200950000
| 17>  C        5.4329210000     0.6299480000    -0.6636900000
| 18>  H        0.5108870000    -1.0299330000    -0.7391100000
| 19>  H        0.7313520000     0.6168610000    -0.1437850000
| 20>  H        0.7747010000    -0.7395100000     0.9819820000
| 21>  H        2.8145040000    -0.2482540000    -1.2516060000
| 22>  H        2.8668680000    -1.5871840000    -0.1241890000
| 23>  H        3.0417010000     0.0467800000     1.7771850000
| 24>  H        3.0983680000     1.3650090000     0.6250300000
| 25>  H        5.1131860000    -0.9089720000     0.7814940000
| 26>  H        5.3440980000     1.9768860000     1.7574940000
| 27>  H        5.1884940000     0.5526950000     2.7904810000
| 28>  H        6.6350760000     0.7733180000     1.7980720000
| 29>  H        5.0294650000     0.0590800000    -1.5024540000
| 30>  H        6.5213190000     0.5318940000    -0.6920200000
| 31>  H        5.1920120000     1.6853120000    -0.8306520000
| 32> *
| 33>
| 34>                          ****END OF INPUT****
 Total Charge           Charge          ....    0
 Multiplicity           Mult            ....    1
 Number of Electrons    NEL             ....   50
 Basis Dimension        Dim             ....  154

MULLIKEN ATOMIC CHARGES
-----------------------
   0 C :   -0.004359
   1 C :   -0.036572
   2 C :    0.001497
   3 C :   -0.135657
   4 C :    0.018979
   5 C :    0.004884
   6 H :    0.017829
   7 H :    0.014291
   8 H :    0.014159
   9 H :    0.012449
  10 H :    0.006518
  11 H :   -0.003281
  12 H :   -0.003047
  13 H :    0.003754
  14 H :    0.013707
  15 H :    0.010725
  16 H :    0.017377
  17 H :    0.017195
  18 H :    0.017655
  19 H :    0.011896
Sum of atomic charges:    0.0000000

LOEWDIN ATOMIC CHARGES
----------------------
   0 C :   -0.064668
   1 C :   -0.048310
   2 C :   -0.038064
   3 C :   -0.048074
   4 C :   -0.060335
   5 C :   -0.062264
   6 H :    0.025792
   7 H :    0.023687
   8 H :    0.023126
   9 H :    0.021448
  10 H :    0.022052
  11 H :    0.020443
  12 H :    0.019334
  13 H :    0.022732
  14 H :    0.023584
  15 H :    0.023149
  16 H :    0.024180
  17 H :    0.022675
  18 H :    0.025623
  19 H :    0.023890

  Mayer bond orders larger than 0.1
B(  0-C ,  1-C ) :   1.1189 B(  0-C ,  6-H ) :   0.9605 B(  0-C ,  7-H ) :   0.9659
B(  0-C ,  8-H ) :   0.9655 B(  1-C ,  2-C ) :   1.0904 B(  1-C ,  9-H ) :   0.9311
B(  1-C , 10-H ) :   0.9360 B(  2-C ,  3-C ) :   1.0620 B(  2-C , 11-H ) :   0.9337
B(  2-C , 12-H ) :   0.9308 B(  3-C ,  4-C ) :   1.0847 B(  3-C ,  5-C ) :   1.0826
B(  3-C , 13-H ) :   0.9101 B(  4-C , 14-H ) :   0.9608 B(  4-C , 15-H ) :   0.9577
B(  4-C , 16-H ) :   0.9604 B(  5-C , 17-H ) :   0.9567 B(  5-C , 18-H ) :   0.9591
B(  5-C , 19-H ) :   0.9598

FINAL SINGLE POINT ENERGY      -236.553498539914

DIPOLE MOMENT
-------------
                                X             Y             Z
Electronic contribution:      0.35310      -0.56089       0.17281
Nuclear contribution   :     -0.35664       0.51823      -0.18588
                        -----------------------------------------
Total Dipole Moment    :     -0.00354      -0.04266      -0.01307
                        -----------------------------------------
Magnitude (a.u.)       :      0.04476
Magnitude (Debye)      :      0.11376

                             ****ORCA TERMINATED NORMALLY****
TOTAL RUN TIME: 0 days 0 hours 0 minutes 7 seconds 749 msec
