                         Program Version 3.0.3 - RELEASE   -
|  1> ! RI PBE def2-SVP def2-SVP/J NBO PAL2
|  2> % maxcore 2000
|  3> % output
|  4>     # printlevel mini
|  5>     print[ P_Basis ] 0
|  6>     print[ P_SCFInfo ] 1
|  7>     print[ P_SCFIterInfo ] 1
|  8>     print[ P_OrbEn ] 0
|  9>     print[ P_Cartesian ] 0
| 10> end
| 11> *xyz 0 1
| 12>  C       -1.2740050000     0.1924740000    -0.3310250000
| 13>  C       -0.4012750000    -0.4936250000     0.7592210000
| 14>  C       -0.4305530000     0.8862520000     1.4776290000
| 15>  C       -0.3422220000     1.3914150000     0.0086030000
| 16>  C        1.0086840000     0.8108680000    -0.3986910000
| 17>  C        0.9699500000    -0.4255650000     0.0936540000
| 18>  H       -2.3092830000     0.3503260000    -0.0160550000
| 19>  H       -1.2242610000    -0.2122200000    -1.3434250000
| 20>  H       -0.6996730000    -1.4172100000     1.2526540000
| 21>  H        0.4013900000     1.1249540000     2.1425340000
| 22>  H       -1.3925120000     1.1044130000     1.9498210000
| 23>  H       -0.5795940000     2.4158680000    -0.2736690000
| 24>  H        1.7875530000     1.3131450000    -0.9545780000
| 25>  H        1.7084010000    -1.2135030000     0.0515270000
| 26> *
| 27>
| 28>                          ****END OF INPUT****
 Total Charge           Charge          ....    0
 Multiplicity           Mult            ....    1
 Number of Electrons    NEL             ....   44
 Basis Dimension        Dim             ....  124

MULLIKEN ATOMIC CHARGES
-----------------------
   0 C :    0.086890
   1 C :   -0.095910
   2 C :    0.089878
   3 C :   -0.102604
   4 C :    0.018826
   5 C :    0.010738
   6 H :    0.016970
   7 H :    0.012228
   8 H :   -0.018683
   9 H :    0.015137
  10 H :    0.013815
  11 H :   -0.017571
  12 H :   -0.015691
  13 H :   -0.014023
Sum of atomic charges:   -0.0000000

LOEWDIN ATOMIC CHARGES
----------------------
   0 C :   -0.006104
   1 C :   -0.025011
   2 C :   -0.005718
   3 C :   -0.025433
   4 C :   -0.027324
   5 C :   -0.028861
   6 H :    0.017897
   7 H :    0.013062
   8 H :    0.008534
   9 H :    0.013821
  10 H :    0.017277
  11 H :    0.008814
  12 H :    0.019389
  13 H :    0.019658

  Mayer bond orders larger than 0.1
B(  0-C ,  1-C ) :   0.9784 B(  0-C ,  3-C ) :   0.9790 B(  0-C ,  6-H ) :   0.9413
B(  0-C ,  7-H ) :   0.9367 B(  1-C ,  2-C ) :   0.9783 B(  1-C ,  5-C ) :   0.9348
B(  1-C ,  8-H ) :   0.9669 B(  2-C ,  3-C ) :   0.9804 B(  2-C ,  9-H ) :   0.9370
B(  2-C , 10-H ) :   0.9414 B(  3-C ,  4-C ) :   0.9353 B(  3-C , 11-H ) :   0.9674
B(  4-C ,  5-C ) :   1.7893 B(  4-C , 12-H ) :   1.0168 B(  5-C , 13-H ) :   1.0177

FINAL SINGLE POINT ENERGY      -232.883942076695

DIPOLE MOMENT
-------------
                                X             Y             Z
Electronic contribution:      1.33382      -0.24794      -0.52291
Nuclear contribution   :     -1.41928       0.26720       0.55938
                        -----------------------------------------
Total Dipole Moment    :     -0.08545       0.01926       0.03646
                        -----------------------------------------
Magnitude (a.u.)       :      0.09488
Magnitude (Debye)      :      0.24117

                             ****ORCA TERMINATED NORMALLY****
TOTAL RUN TIME: 0 days 0 hours 0 minutes 5 seconds 939 msec
