                         Program Version 3.0.3 - RELEASE   -
|  1> ! RI PBE def2-SVP def2-SVP/J NBO PAL2
|  2> % maxcore 2000
|  3> % output
|  4>     # printlevel mini
|  5>     print[ P_Basis ] 0
|  6>     print[ P_SCFInfo ] 1
|  7>     print[ P_SCFIterInfo ] 1
|  8>     print[ P_OrbEn ] 0
|  9>     print[ P_Cartesian ] 0
| 10> end
| 11> *xyz 0 1
| 12>  C        0.3647410000     1.4186780000     0.5061510000
| 13>  C        0.8953960000     0.4128120000    -0.4650430000
| 14>  C        0.9772660000    -1.0377240000    -0.0242870000
| 15>  C       -0.4511150000    -1.3944740000     0.2859090000
| 16>  C       -1.2890580000    -0.4040350000    -0.0130760000
| 17>  C       -0.5676060000     0.7970630000    -0.4999790000
| 18>  H        0.6559860000     2.4509060000     0.3501900000
| 19>  H        0.2395520000     1.1285210000     1.5437160000
| 20>  H        1.5716510000     0.7663380000    -1.2330250000
| 21>  H        1.6341270000    -1.1738520000     0.8425950000
| 22>  H        1.3790330000    -1.6757540000    -0.8204070000
| 23>  H       -0.7393320000    -2.3445370000     0.7202740000
| 24>  H       -2.3647710000    -0.4365110000     0.1141850000
| 25>  H       -0.9905800000     1.4165410000    -1.2819130000
| 26> *
| 27>
| 28>                          ****END OF INPUT****
 Total Charge           Charge          ....    0
 Multiplicity           Mult            ....    1
 Number of Electrons    NEL             ....   44
 Basis Dimension        Dim             ....  124

MULLIKEN ATOMIC CHARGES
-----------------------
   0 C :    0.028632
   1 C :   -0.167755
   2 C :    0.167398
   3 C :   -0.123795
   4 C :    0.041927
   5 C :   -0.075273
   6 H :    0.027561
   7 H :    0.033097
   8 H :    0.017158
   9 H :    0.027751
  10 H :    0.026359
  11 H :   -0.011792
  12 H :   -0.008531
  13 H :    0.017262
Sum of atomic charges:   -0.0000000

LOEWDIN ATOMIC CHARGES
----------------------
   0 C :   -0.032137
   1 C :   -0.036217
   2 C :   -0.033027
   3 C :   -0.039555
   4 C :   -0.031772
   5 C :   -0.040808
   6 H :    0.028025
   7 H :    0.025370
   8 H :    0.023838
   9 H :    0.034724
  10 H :    0.034469
  11 H :    0.019616
  12 H :    0.024059
  13 H :    0.023414

  Mayer bond orders larger than 0.1
B(  0-C ,  1-C ) :   0.9960 B(  0-C ,  5-C ) :   0.9768 B(  0-C ,  6-H ) :   0.9369
B(  0-C ,  7-H ) :   0.9447 B(  1-C ,  2-C ) :   1.0699 B(  1-C ,  5-C ) :   0.9395
B(  1-C ,  8-H ) :   0.9474 B(  2-C ,  3-C ) :   1.0269 B(  2-C ,  9-H ) :   0.9125
B(  2-C , 10-H ) :   0.9148 B(  3-C ,  4-C ) :   1.8293 B(  3-C , 11-H ) :   0.9800
B(  4-C ,  5-C ) :   1.0236 B(  4-C , 12-H ) :   0.9972 B(  5-C , 13-H ) :   0.9549

FINAL SINGLE POINT ENERGY      -232.915653369120

DIPOLE MOMENT
-------------
                                X             Y             Z
Electronic contribution:     -1.14940      -0.31201      -0.48132
Nuclear contribution   :      1.24835       0.34473       0.43542
                        -----------------------------------------
Total Dipole Moment    :      0.09894       0.03271      -0.04590
                        -----------------------------------------
Magnitude (a.u.)       :      0.11387
Magnitude (Debye)      :      0.28943

                             ****ORCA TERMINATED NORMALLY****
TOTAL RUN TIME: 0 days 0 hours 0 minutes 6 seconds 296 msec
