                         Program Version 3.0.3 - RELEASE   -
|  1> ! RI PBE def2-SVP def2-SVP/J NBO PAL2
|  2> % maxcore 2000
|  3> % output
|  4>     # printlevel mini
|  5>     print[ P_Basis ] 0
|  6>     print[ P_SCFInfo ] 1
|  7>     print[ P_SCFIterInfo ] 1
|  8>     print[ P_OrbEn ] 0
|  9>     print[ P_Cartesian ] 0
| 10> end
| 11> *xyz 0 1
| 12>  C       -0.7561030000     1.1630960000    -0.0016180000
| 13>  C        0.6294890000     1.2383410000    -0.0006410000
| 14>  C        1.3875770000     0.0760390000     0.0009720000
| 15>  C        0.7601520000    -1.1616620000     0.0016100000
| 16>  C       -0.6254390000    -1.2369060000     0.0006450000
| 17>  C       -1.3835270000    -0.0746030000    -0.0009680000
| 18>  H       -1.3484730000     2.0713090000    -0.0028840000
| 19>  H        1.1199820000     2.2053680000    -0.0011420000
| 20>  H        2.4702980000     0.1349400000     0.0017340000
| 21>  H        1.3525240000    -2.0698740000     0.0028680000
| 22>  H       -1.1159320000    -2.2039330000     0.0011500000
| 23>  H       -2.4662480000    -0.1335050000    -0.0017250000
| 24> *
| 25>
| 26>                          ****END OF INPUT****
 Total Charge           Charge          ....    0
 Multiplicity           Mult            ....    1
 Number of Electrons    NEL             ....   42
 Basis Dimension        Dim             ....  114

MULLIKEN ATOMIC CHARGES
-----------------------
   0 C :    0.020208
   1 C :    0.016911
   2 C :    0.004512
   3 C :    0.020208
   4 C :    0.016911
   5 C :    0.004513
   6 H :   -0.015460
   7 H :   -0.017299
   8 H :   -0.008872
   9 H :   -0.015460
  10 H :   -0.017299
  11 H :   -0.008872
Sum of atomic charges:   -0.0000000

LOEWDIN ATOMIC CHARGES
----------------------
   0 C :   -0.027364
   1 C :   -0.027324
   2 C :   -0.029668
   3 C :   -0.027364
   4 C :   -0.027324
   5 C :   -0.029668
   6 H :    0.027946
   7 H :    0.027491
   8 H :    0.028919
   9 H :    0.027946
  10 H :    0.027491
  11 H :    0.028919

  Mayer bond orders larger than 0.1
B(  0-C ,  1-C ) :   1.3891 B(  0-C ,  5-C ) :   1.3840 B(  0-C ,  6-H ) :   0.9842
B(  1-C ,  2-C ) :   1.3867 B(  1-C ,  7-H ) :   0.9844 B(  2-C ,  3-C ) :   1.3840
B(  2-C ,  8-H ) :   0.9854 B(  3-C ,  4-C ) :   1.3891 B(  3-C ,  9-H ) :   0.9842
B(  4-C ,  5-C ) :   1.3867 B(  4-C , 10-H ) :   0.9844 B(  5-C , 11-H ) :   0.9854

FINAL SINGLE POINT ENERGY      -231.771628139811

DIPOLE MOMENT
-------------
                                X             Y             Z
Electronic contribution:     -0.00000       0.00000      -0.00000
Nuclear contribution   :      0.00000      -0.00000       0.00000
                        -----------------------------------------
Total Dipole Moment    :     -0.00000       0.00000       0.00000
                        -----------------------------------------
Magnitude (a.u.)       :      0.00000
Magnitude (Debye)      :      0.00000

                             ****ORCA TERMINATED NORMALLY****
TOTAL RUN TIME: 0 days 0 hours 0 minutes 5 seconds 3 msec
