                         Program Version 3.0.3 - RELEASE   -
|  1> ! RI PBE def2-SVP def2-SVP/J NBO PAL2
|  2> % maxcore 2000
|  3> % output
|  4>     # printlevel mini
|  5>     print[ P_Basis ] 0
|  6>     print[ P_SCFInfo ] 1
|  7>     print[ P_SCFIterInfo ] 1
|  8>     print[ P_OrbEn ] 0
|  9>     print[ P_Cartesian ] 0
| 10> end
| 11> *xyz 0 1
| 12>  C        1.4591800000    -0.2581830000     0.0497380000
| 13>  C        0.4280870000    -1.3400990000     0.0354530000
| 14>  C       -0.8781590000    -1.1094830000     0.0123850000
| 15>  C       -1.4764400000     0.2600970000    -0.0021050000
| 16>  C       -0.4453410000     1.3420110000     0.0117730000
| 17>  C        0.8609050000     1.1113960000     0.0348410000
| 18>  H        2.1369820000    -0.3780650000    -0.8069640000
| 19>  H        2.1068640000    -0.3723140000     0.9302010000
| 20>  H        0.7888950000    -2.3649570000     0.0448140000
| 21>  H       -1.5680930000    -1.9488340000     0.0031880000
| 22>  H       -2.1538070000     0.3799010000     0.8549590000
| 23>  H       -2.1245730000     0.3743060000    -0.8822210000
| 24>  H       -0.8061420000     2.3668690000     0.0021110000
| 25>  H        1.5508440000     1.9507460000     0.0437360000
| 26> *
| 27>
| 28>                          ****END OF INPUT****
 Total Charge           Charge          ....    0
 Multiplicity           Mult            ....    1
 Number of Electrons    NEL             ....   44
 Basis Dimension        Dim             ....  124

MULLIKEN ATOMIC CHARGES
-----------------------
   0 C :    0.160717
   1 C :   -0.102130
   2 C :   -0.094028
   3 C :    0.160720
   4 C :   -0.102133
   5 C :   -0.094027
   6 H :    0.028676
   7 H :    0.027997
   8 H :   -0.013325
   9 H :   -0.007908
  10 H :    0.028688
  11 H :    0.027986
  12 H :   -0.013326
  13 H :   -0.007907
Sum of atomic charges:    0.0000000

LOEWDIN ATOMIC CHARGES
----------------------
   0 C :   -0.046796
   1 C :   -0.041341
   2 C :   -0.040769
   3 C :   -0.046796
   4 C :   -0.041341
   5 C :   -0.040769
   6 H :    0.040585
   7 H :    0.040496
   8 H :    0.023224
   9 H :    0.024601
  10 H :    0.040593
  11 H :    0.040488
  12 H :    0.023224
  13 H :    0.024601

  Mayer bond orders larger than 0.1
B(  0-C ,  1-C ) :   1.0361 B(  0-C ,  5-C ) :   1.0361 B(  0-C ,  6-H ) :   0.8907
B(  0-C ,  7-H ) :   0.8903 B(  1-C ,  2-C ) :   1.9364 B(  1-C ,  8-H ) :   0.9654
B(  2-C ,  3-C ) :   1.0361 B(  2-C ,  9-H ) :   0.9641 B(  3-C ,  4-C ) :   1.0361
B(  3-C , 10-H ) :   0.8906 B(  3-C , 11-H ) :   0.8903 B(  4-C ,  5-C ) :   1.9364
B(  4-C , 12-H ) :   0.9654 B(  5-C , 13-H ) :   0.9641

FINAL SINGLE POINT ENERGY      -232.930014988088

DIPOLE MOMENT
-------------
                                X             Y             Z
Electronic contribution:      0.00000       0.00000      -0.00024
Nuclear contribution   :     -0.00001      -0.00000       0.00032
                        -----------------------------------------
Total Dipole Moment    :     -0.00000       0.00000       0.00008
                        -----------------------------------------
Magnitude (a.u.)       :      0.00008
Magnitude (Debye)      :      0.00019

                             ****ORCA TERMINATED NORMALLY****
TOTAL RUN TIME: 0 days 0 hours 0 minutes 5 seconds 572 msec
