                         Program Version 3.0.3 - RELEASE   -
|  1> ! RI PBE def2-SVP def2-SVP/J NBO PAL2
|  2> % maxcore 2000
|  3> % output
|  4>     # printlevel mini
|  5>     print[ P_Basis ] 0
|  6>     print[ P_SCFInfo ] 1
|  7>     print[ P_SCFIterInfo ] 1
|  8>     print[ P_OrbEn ] 0
|  9>     print[ P_Cartesian ] 0
| 10> end
| 11> *xyz 0 1
| 12>  C        0.3076550000    -1.4040900000     0.2107990000
| 13>  C       -1.0834890000    -0.9413340000    -0.2077530000
| 14>  C       -1.3154810000     0.4979480000     0.1421710000
| 15>  C       -0.2961980000     1.3608050000     0.1497860000
| 16>  C        1.0572700000     0.9098750000    -0.1513490000
| 17>  C        1.3558990000    -0.3917560000    -0.1415710000
| 18>  H        0.5343500000    -2.3731740000    -0.2406750000
| 19>  H        0.3328210000    -1.5622750000     1.3000280000
| 20>  H       -1.8455780000    -1.5803060000     0.2453240000
| 21>  H       -1.1991050000    -1.0548190000    -1.2967120000
| 22>  H       -2.3293000000     0.8380840000     0.3264420000
| 23>  H       -0.4640700000     2.4124060000     0.3567320000
| 24>  H        1.8218850000     1.6505940000    -0.3600850000
| 25>  H        2.3711610000    -0.7275580000    -0.3258460000
| 26> *
| 27>
| 28>                          ****END OF INPUT****
 Total Charge           Charge          ....    0
 Multiplicity           Mult            ....    1
 Number of Electrons    NEL             ....   44
 Basis Dimension        Dim             ....  124

MULLIKEN ATOMIC CHARGES
-----------------------
   0 C :    0.053101
   1 C :    0.055337
   2 C :   -0.086311
   3 C :    0.013472
   4 C :    0.010486
   5 C :   -0.084692
   6 H :    0.008353
   7 H :    0.030255
   8 H :    0.011062
   9 H :    0.029692
  10 H :   -0.008412
  11 H :   -0.013336
  12 H :   -0.010855
  13 H :   -0.008151
Sum of atomic charges:   -0.0000000

LOEWDIN ATOMIC CHARGES
----------------------
   0 C :   -0.041231
   1 C :   -0.041325
   2 C :   -0.027312
   3 C :   -0.048793
   4 C :   -0.049661
   5 C :   -0.026890
   6 H :    0.031019
   7 H :    0.037178
   8 H :    0.031556
   9 H :    0.036929
  10 H :    0.022688
  11 H :    0.026232
  12 H :    0.026783
  13 H :    0.022826

  Mayer bond orders larger than 0.1
B(  0-C ,  1-C ) :   1.1101 B(  0-C ,  5-C ) :   1.0505 B(  0-C ,  6-H ) :   0.9204
B(  0-C ,  7-H ) :   0.9055 B(  1-C ,  2-C ) :   1.0492 B(  1-C ,  8-H ) :   0.9207
B(  1-C ,  9-H ) :   0.9055 B(  2-C ,  3-C ) :   1.8137 B(  2-C , 10-H ) :   0.9639
B(  3-C ,  4-C ) :   1.0984 B(  3-C , 11-H ) :   0.9692 B(  4-C ,  5-C ) :   1.8157
B(  4-C , 12-H ) :   0.9680 B(  5-C , 13-H ) :   0.9633

FINAL SINGLE POINT ENERGY      -232.930721369428

DIPOLE MOMENT
-------------
                                X             Y             Z
Electronic contribution:      0.62740       1.88114      -0.00010
Nuclear contribution   :     -0.68517      -2.05792       0.00205
                        -----------------------------------------
Total Dipole Moment    :     -0.05778      -0.17678       0.00195
                        -----------------------------------------
Magnitude (a.u.)       :      0.18599
Magnitude (Debye)      :      0.47275

                             ****ORCA TERMINATED NORMALLY****
TOTAL RUN TIME: 0 days 0 hours 0 minutes 5 seconds 810 msec
