                         Program Version 3.0.3 - RELEASE   -
|  1> ! RI PBE def2-SVP def2-SVP/J NBO PAL2
|  2> % maxcore 2000
|  3> % output
|  4>     # printlevel mini
|  5>     print[ P_Basis ] 0
|  6>     print[ P_SCFInfo ] 1
|  7>     print[ P_SCFIterInfo ] 1
|  8>     print[ P_OrbEn ] 0
|  9>     print[ P_Cartesian ] 0
| 10> end
| 11> *xyz 0 1
| 12>  C        0.4041380000     1.3655520000     0.2995510000
| 13>  C        1.3791360000     0.3682010000    -0.3101910000
| 14>  C        1.0490700000    -1.0520280000     0.1312520000
| 15>  C       -0.4197900000    -1.3339140000     0.0593410000
| 16>  C       -1.3416520000    -0.3874460000    -0.0865500000
| 17>  C       -1.0219280000     1.0740310000    -0.1501280000
| 18>  H        0.6825320000     2.3899130000     0.0365300000
| 19>  H        0.4578840000     1.2951740000     1.3922620000
| 20>  H        2.4090100000     0.6190350000    -0.0410400000
| 21>  H        1.3154090000     0.4288540000    -1.4029480000
| 22>  H        1.4025680000    -1.2217210000     1.1575780000
| 23>  H        1.5914120000    -1.7766540000    -0.4859040000
| 24>  H       -0.7310270000    -2.3731590000     0.1254790000
| 25>  H       -2.3881930000    -0.6716560000    -0.1590060000
| 26>  H       -1.7354050000     1.6318810000     0.4661960000
| 27>  H       -1.1775650000     1.4365280000    -1.1755420000
| 28> *
| 29>
| 30>                          ****END OF INPUT****
 Total Charge           Charge          ....    0
 Multiplicity           Mult            ....    1
 Number of Electrons    NEL             ....   46
 Basis Dimension        Dim             ....  134

MULLIKEN ATOMIC CHARGES
-----------------------
   0 C :   -0.023379
   1 C :   -0.025334
   2 C :    0.065968
   3 C :   -0.081369
   4 C :   -0.082055
   5 C :    0.064656
   6 H :    0.001575
   7 H :    0.018457
   8 H :    0.002352
   9 H :    0.018479
  10 H :    0.017106
  11 H :    0.015051
  12 H :   -0.012427
  13 H :   -0.011593
  14 H :    0.015254
  15 H :    0.017261
Sum of atomic charges:   -0.0000000

LOEWDIN ATOMIC CHARGES
----------------------
   0 C :   -0.041112
   1 C :   -0.041377
   2 C :   -0.045570
   3 C :   -0.048368
   4 C :   -0.048589
   5 C :   -0.045677
   6 H :    0.023292
   7 H :    0.025400
   8 H :    0.023470
   9 H :    0.025399
  10 H :    0.032192
  11 H :    0.032529
  12 H :    0.021739
  13 H :    0.021912
  14 H :    0.032566
  15 H :    0.032195

  Mayer bond orders larger than 0.1
B(  0-C ,  1-C ) :   1.0908 B(  0-C ,  5-C ) :   1.1034 B(  0-C ,  6-H ) :   0.9278
B(  0-C ,  7-H ) :   0.9397 B(  1-C ,  2-C ) :   1.1037 B(  1-C ,  8-H ) :   0.9276
B(  1-C ,  9-H ) :   0.9396 B(  2-C ,  3-C ) :   1.0409 B(  2-C , 10-H ) :   0.9101
B(  2-C , 11-H ) :   0.9182 B(  3-C ,  4-C ) :   1.9325 B(  3-C , 12-H ) :   0.9588
B(  4-C ,  5-C ) :   1.0410 B(  4-C , 13-H ) :   0.9587 B(  5-C , 14-H ) :   0.9182
B(  5-C , 15-H ) :   0.9102

FINAL SINGLE POINT ENERGY      -234.147283090418

DIPOLE MOMENT
-------------
                                X             Y             Z
Electronic contribution:     -1.35440      -1.32048      -0.00650
Nuclear contribution   :      1.43623       1.39991       0.00671
                        -----------------------------------------
Total Dipole Moment    :      0.08183       0.07943       0.00021
                        -----------------------------------------
Magnitude (a.u.)       :      0.11404
Magnitude (Debye)      :      0.28987

                             ****ORCA TERMINATED NORMALLY****
TOTAL RUN TIME: 0 days 0 hours 0 minutes 6 seconds 301 msec
