                         Program Version 3.0.3 - RELEASE   -
|  1> ! RI PBE def2-SVP def2-SVP/J NBO PAL2
|  2> % maxcore 2000
|  3> % output
|  4>     # printlevel mini
|  5>     print[ P_Basis ] 0
|  6>     print[ P_SCFInfo ] 1
|  7>     print[ P_SCFIterInfo ] 1
|  8>     print[ P_OrbEn ] 0
|  9>     print[ P_Cartesian ] 0
| 10> end
| 11> *xyz 0 1
| 12>  C        1.1208170000    -0.0218040000     0.1505570000
| 13>  C        2.5962440000     0.0810110000    -0.1040640000
| 14>  C        3.1998740000    -0.4900150000    -1.3490220000
| 15>  C        3.1277610000     0.9968470000    -1.1808840000
| 16>  C        4.3228630000     1.8272930000    -0.9354160000
| 17>  C        5.5879140000     1.4513580000    -1.0744830000
| 18>  H        0.8647560000    -0.9804570000     0.6107760000
| 19>  H        0.5578380000     0.0568070000    -0.7835730000
| 20>  H        0.7732020000     0.7722520000     0.8172100000
| 21>  H        3.2252970000     0.0208110000     0.7790790000
| 22>  H        2.5309820000    -0.9439910000    -2.0709780000
| 23>  H        4.1676670000    -0.9697130000    -1.2756450000
| 24>  H        2.3505060000     1.4973730000    -1.7534010000
| 25>  H        4.1168670000     2.8408110000    -0.5943210000
| 26>  H        5.8570940000     0.4617040000    -1.4277310000
| 27>  H        6.4025100000     2.1270120000    -0.8420130000
| 28> *
| 29>
| 30>                          ****END OF INPUT****
 Total Charge           Charge          ....    0
 Multiplicity           Mult            ....    1
 Number of Electrons    NEL             ....   46
 Basis Dimension        Dim             ....  134

MULLIKEN ATOMIC CHARGES
-----------------------
   0 C :    0.069635
   1 C :   -0.151626
   2 C :    0.010371
   3 C :   -0.069494
   4 C :   -0.005603
   5 C :   -0.042037
   6 H :    0.024834
   7 H :    0.005986
   8 H :    0.026906
   9 H :    0.024797
  10 H :    0.023289
  11 H :    0.030845
  12 H :    0.018500
  13 H :   -0.000530
  14 H :    0.011484
  15 H :    0.022642
Sum of atomic charges:   -0.0000000

LOEWDIN ATOMIC CHARGES
----------------------
   0 C :   -0.057194
   1 C :   -0.031234
   2 C :   -0.040080
   3 C :   -0.045551
   4 C :   -0.023779
   5 C :   -0.071737
   6 H :    0.030336
   7 H :    0.026601
   8 H :    0.029752
   9 H :    0.027525
  10 H :    0.026683
  11 H :    0.026772
  12 H :    0.030960
  13 H :    0.027676
  14 H :    0.019056
  15 H :    0.024215

  Mayer bond orders larger than 0.1
B(  0-C ,  1-C ) :   1.0977 B(  0-C ,  6-H ) :   0.9575 B(  0-C ,  7-H ) :   0.9472
B(  0-C ,  8-H ) :   0.9617 B(  1-C ,  2-C ) :   1.0079 B(  1-C ,  3-C ) :   0.9238
B(  1-C ,  9-H ) :   0.9426 B(  2-C ,  3-C ) :   1.0034 B(  2-C , 10-H ) :   0.9344
B(  2-C , 11-H ) :   0.9326 B(  3-C ,  4-C ) :   1.0729 B(  3-C , 12-H ) :   0.9252
B(  4-C ,  5-C ) :   1.9938 B(  4-C , 13-H ) :   0.9544 B(  5-C , 14-H ) :   0.9361
B(  5-C , 15-H ) :   0.9429

FINAL SINGLE POINT ENERGY      -234.106713516872

DIPOLE MOMENT
-------------
                                X             Y             Z
Electronic contribution:      1.76052       1.20348      -0.69882
Nuclear contribution   :     -1.98554      -1.25533       0.78047
                        -----------------------------------------
Total Dipole Moment    :     -0.22502      -0.05184       0.08165
                        -----------------------------------------
Magnitude (a.u.)       :      0.24493
Magnitude (Debye)      :      0.62255

                             ****ORCA TERMINATED NORMALLY****
TOTAL RUN TIME: 0 days 0 hours 0 minutes 6 seconds 787 msec
