                         Program Version 3.0.3 - RELEASE   -
|  1> ! RI PBE def2-SVP def2-SVP/J NBO PAL2
|  2> % maxcore 2000
|  3> % output
|  4>     # printlevel mini
|  5>     print[ P_Basis ] 0
|  6>     print[ P_SCFInfo ] 1
|  7>     print[ P_SCFIterInfo ] 1
|  8>     print[ P_OrbEn ] 0
|  9>     print[ P_Cartesian ] 0
| 10> end
| 11> *xyz 0 1
| 12>  C        1.0452800000     0.0824830000     0.0270140000
| 13>  C        2.5451330000     0.0423420000     0.0579030000
| 14>  C        3.3069750000    -0.7456470000    -0.9514550000
| 15>  C        3.3313670000     0.7650890000    -1.0112760000
| 16>  C        4.5259270000     1.4759120000    -0.6748190000
| 17>  C        5.5298370000     2.0719910000    -0.3882910000
| 18>  H        0.6197080000    -0.7749040000     0.5555040000
| 19>  H        0.6750050000     0.0547660000    -1.0012680000
| 20>  H        0.6618610000     0.9917500000     0.4968510000
| 21>  H        2.9920530000     0.0898180000     1.0453380000
| 22>  H        2.7479540000    -1.2553610000    -1.7274760000
| 23>  H        4.2204660000    -1.2384060000    -0.6453450000
| 24>  H        2.7405340000     1.2176050000    -1.8018100000
| 25>  H        6.4182020000     2.6000610000    -0.1357790000
| 26> *
| 27>
| 28>                          ****END OF INPUT****
 Total Charge           Charge          ....    0
 Multiplicity           Mult            ....    1
 Number of Electrons    NEL             ....   44
 Basis Dimension        Dim             ....  124

MULLIKEN ATOMIC CHARGES
-----------------------
   0 C :    0.071239
   1 C :   -0.147899
   2 C :    0.040052
   3 C :   -0.151602
   4 C :    0.450596
   5 C :   -0.475857
   6 H :    0.029665
   7 H :    0.006725
   8 H :    0.031440
   9 H :    0.034419
  10 H :    0.030421
  11 H :    0.039947
  12 H :    0.044570
  13 H :   -0.003716
Sum of atomic charges:    0.0000000

LOEWDIN ATOMIC CHARGES
----------------------
   0 C :   -0.053207
   1 C :   -0.025584
   2 C :   -0.021541
   3 C :   -0.052281
   4 C :   -0.015564
   5 C :   -0.095936
   6 H :    0.032451
   7 H :    0.027048
   8 H :    0.032706
   9 H :    0.033327
  10 H :    0.028912
  11 H :    0.033841
  12 H :    0.043076
  13 H :    0.032751

  Mayer bond orders larger than 0.1
B(  0-C ,  1-C ) :   1.0963 B(  0-C ,  6-H ) :   0.9582 B(  0-C ,  7-H ) :   0.9483
B(  0-C ,  8-H ) :   0.9613 B(  1-C ,  2-C ) :   0.9999 B(  1-C ,  3-C ) :   0.9141
B(  1-C ,  9-H ) :   0.9450 B(  2-C ,  3-C ) :   0.9655 B(  2-C , 10-H ) :   0.9378
B(  2-C , 11-H ) :   0.9427 B(  3-C ,  4-C ) :   1.0361 B(  3-C , 12-H ) :   0.9232
B(  4-C ,  5-C ) :   2.2715 B(  4-C , 13-H ) :  -0.1060 B(  5-C , 13-H ) :   1.0966

FINAL SINGLE POINT ENERGY      -232.864988565742

DIPOLE MOMENT
-------------
                                X             Y             Z
Electronic contribution:      4.67488       2.48126      -0.56081
Nuclear contribution   :     -5.03746      -2.73173       0.59675
                        -----------------------------------------
Total Dipole Moment    :     -0.36259      -0.25047       0.03594
                        -----------------------------------------
Magnitude (a.u.)       :      0.44215
Magnitude (Debye)      :      1.12385

                             ****ORCA TERMINATED NORMALLY****
TOTAL RUN TIME: 0 days 0 hours 0 minutes 5 seconds 851 msec
