                         Program Version 3.0.3 - RELEASE   -
|  1> ! RI PBE def2-SVP def2-SVP/J NBO PAL2
|  2> % maxcore 2000
|  3> % output
|  4>     # printlevel mini
|  5>     print[ P_Basis ] 0
|  6>     print[ P_SCFInfo ] 1
|  7>     print[ P_SCFIterInfo ] 1
|  8>     print[ P_OrbEn ] 0
|  9>     print[ P_Cartesian ] 0
| 10> end
| 11> *xyz 0 1
| 12>  C        1.0869900000    -0.1032910000     0.3217970000
| 13>  C        2.3567490000    -0.0776020000    -0.0603220000
| 14>  C        3.2231360000     1.1570840000    -0.1723290000
| 15>  C        4.4607030000     0.6923330000    -0.9409070000
| 16>  C        4.6241040000    -0.7589860000    -0.4960430000
| 17>  C        3.1862080000    -1.2779840000    -0.4587390000
| 18>  H        0.5517430000     0.8058080000     0.5747110000
| 19>  H        0.5351960000    -1.0343820000     0.3960200000
| 20>  H        3.5144740000     1.4840470000     0.8330460000
| 21>  H        2.7021870000     1.9945350000    -0.6408630000
| 22>  H        5.3422710000     1.3065910000    -0.7475920000
| 23>  H        4.2661540000     0.7269340000    -2.0181350000
| 24>  H        5.0580870000    -0.7887230000     0.5090630000
| 25>  H        5.2744970000    -1.3422010000    -1.1507910000
| 26>  H        3.0420720000    -2.1287390000     0.2103510000
| 27>  H        2.8860190000    -1.6054250000    -1.4613460000
| 28> *
| 29>
| 30>                          ****END OF INPUT****
 Total Charge           Charge          ....    0
 Multiplicity           Mult            ....    1
 Number of Electrons    NEL             ....   46
 Basis Dimension        Dim             ....  134

MULLIKEN ATOMIC CHARGES
-----------------------
   0 C :   -0.050453
   1 C :   -0.216123
   2 C :    0.099063
   3 C :   -0.041557
   4 C :   -0.037286
   5 C :    0.095236
   6 H :    0.004002
   7 H :    0.004901
   8 H :    0.023511
   9 H :    0.015145
  10 H :    0.011098
  11 H :    0.022495
  12 H :    0.018030
  13 H :    0.011943
  14 H :    0.017111
  15 H :    0.022885
Sum of atomic charges:   -0.0000000

LOEWDIN ATOMIC CHARGES
----------------------
   0 C :   -0.086168
   1 C :   -0.029667
   2 C :   -0.035956
   3 C :   -0.042975
   4 C :   -0.042415
   5 C :   -0.036569
   6 H :    0.020250
   7 H :    0.020318
   8 H :    0.037073
   9 H :    0.031415
  10 H :    0.023066
  11 H :    0.025196
  12 H :    0.024340
  13 H :    0.023528
  14 H :    0.031820
  15 H :    0.036742

  Mayer bond orders larger than 0.1
B(  0-C ,  1-C ) :   2.0301 B(  0-C ,  6-H ) :   0.9328 B(  0-C ,  7-H ) :   0.9340
B(  1-C ,  2-C ) :   1.0487 B(  1-C ,  5-C ) :   1.0463 B(  2-C ,  3-C ) :   1.0892
B(  2-C ,  8-H ) :   0.9084 B(  2-C ,  9-H ) :   0.9246 B(  3-C ,  4-C ) :   1.0883
B(  3-C , 10-H ) :   0.9356 B(  3-C , 11-H ) :   0.9404 B(  4-C ,  5-C ) :   1.0901
B(  4-C , 12-H ) :   0.9394 B(  4-C , 13-H ) :   0.9344 B(  5-C , 14-H ) :   0.9244
B(  5-C , 15-H ) :   0.9094

FINAL SINGLE POINT ENERGY      -234.139350197140

DIPOLE MOMENT
-------------
                                X             Y             Z
Electronic contribution:     -1.09839      -0.02208       0.33202
Nuclear contribution   :      1.32475       0.02677      -0.39888
                        -----------------------------------------
Total Dipole Moment    :      0.22635       0.00468      -0.06686
                        -----------------------------------------
Magnitude (a.u.)       :      0.23607
Magnitude (Debye)      :      0.60004

                             ****ORCA TERMINATED NORMALLY****
TOTAL RUN TIME: 0 days 0 hours 0 minutes 6 seconds 715 msec
