                         Program Version 3.0.3 - RELEASE   -
|  1> ! RI PBE def2-SVP def2-SVP/J NBO PAL2
|  2> % maxcore 2000
|  3> % output
|  4>     # printlevel mini
|  5>     print[ P_Basis ] 0
|  6>     print[ P_SCFInfo ] 1
|  7>     print[ P_SCFIterInfo ] 1
|  8>     print[ P_OrbEn ] 0
|  9>     print[ P_Cartesian ] 0
| 10> end
| 11> *xyz 0 1
| 12>  C        0.9417630000    -0.0297760000    -0.0842220000
| 13>  C        2.2780300000    -0.0297680000    -0.0877070000
| 14>  C        3.1567640000     1.1427460000    -0.0897420000
| 15>  C        4.4292640000     0.7036380000    -0.0933490000
| 16>  C        4.4292710000    -0.7631520000    -0.0935490000
| 17>  C        3.1567760000    -1.2022730000    -0.0900580000
| 18>  H        0.3774260000     0.8961850000    -0.0825830000
| 19>  H        0.3774370000    -0.9557440000    -0.0828330000
| 20>  H        2.8122970000     2.1670860000    -0.0886260000
| 21>  H        5.3199250000     1.3177430000    -0.0957180000
| 22>  H        5.3199390000    -1.3772480000    -0.0960840000
| 23>  H        2.8123170000    -2.2266170000    -0.0892180000
| 24> *
| 25>
| 26>                          ****END OF INPUT****
 Total Charge           Charge          ....    0
 Multiplicity           Mult            ....    1
 Number of Electrons    NEL             ....   42
 Basis Dimension        Dim             ....  114

MULLIKEN ATOMIC CHARGES
-----------------------
   0 C :   -0.008621
   1 C :   -0.017041
   2 C :    0.014176
   3 C :    0.008928
   4 C :    0.008928
   5 C :    0.014175
   6 H :    0.027640
   7 H :    0.027640
   8 H :   -0.022497
   9 H :   -0.015417
  10 H :   -0.015416
  11 H :   -0.022496
Sum of atomic charges:   -0.0000000

LOEWDIN ATOMIC CHARGES
----------------------
   0 C :    0.012966
   1 C :   -0.022998
   2 C :   -0.046158
   3 C :   -0.025322
   4 C :   -0.025322
   5 C :   -0.046158
   6 H :    0.030708
   7 H :    0.030708
   8 H :    0.022872
   9 H :    0.022916
  10 H :    0.022916
  11 H :    0.022872

  Mayer bond orders larger than 0.1
B(  0-C ,  1-C ) :   1.8393 B(  0-C ,  3-C ) :   0.1049 B(  0-C ,  4-C ) :   0.1049
B(  0-C ,  6-H ) :   0.9326 B(  0-C ,  7-H ) :   0.9326 B(  1-C ,  2-C ) :   1.0580
B(  1-C ,  5-C ) :   1.0580 B(  2-C ,  3-C ) :   1.6507 B(  2-C ,  8-H ) :   1.0051
B(  3-C ,  4-C ) :   1.0781 B(  3-C ,  9-H ) :   0.9961 B(  4-C ,  5-C ) :   1.6507
B(  4-C , 10-H ) :   0.9961 B(  5-C , 11-H ) :   1.0051

FINAL SINGLE POINT ENERGY      -231.715199695874

DIPOLE MOMENT
-------------
                                X             Y             Z
Electronic contribution:      0.93729       0.00001      -0.00246
Nuclear contribution   :     -1.18797      -0.00001       0.00309
                        -----------------------------------------
Total Dipole Moment    :     -0.25069      -0.00000       0.00063
                        -----------------------------------------
Magnitude (a.u.)       :      0.25069
Magnitude (Debye)      :      0.63719

                             ****ORCA TERMINATED NORMALLY****
TOTAL RUN TIME: 0 days 0 hours 0 minutes 5 seconds 506 msec
