                         Program Version 3.0.3 - RELEASE   -
|  1> ! RI PBE def2-SVP def2-SVP/J NBO PAL2
|  2> % maxcore 2000
|  3> % output
|  4>     # printlevel mini
|  5>     print[ P_Basis ] 0
|  6>     print[ P_SCFInfo ] 1
|  7>     print[ P_SCFIterInfo ] 1
|  8>     print[ P_OrbEn ] 0
|  9>     print[ P_Cartesian ] 0
| 10> end
| 11> *xyz 0 1
| 12>  C        1.1055280000     0.0650290000     0.1774510000
| 13>  C        2.4031800000     0.0648260000    -0.0920830000
| 14>  C        3.2682130000    -1.1675720000    -0.2717120000
| 15>  C        4.6262680000    -0.5994480000    -0.5544880000
| 16>  C        4.6264420000     0.7284050000    -0.5546500000
| 17>  C        3.2685350000     1.2969540000    -0.2720140000
| 18>  H        0.5496050000    -0.8592200000     0.2930070000
| 19>  H        0.5498470000     0.9894520000     0.2927810000
| 20>  H        2.9079130000    -1.8000910000    -1.0916570000
| 21>  H        3.2650550000    -1.7995000000     0.6243220000
| 22>  H        5.4965070000    -1.2194130000    -0.7355540000
| 23>  H        5.4968430000     1.3480990000    -0.7358680000
| 24>  H        2.9084010000     1.9293670000    -1.0921130000
| 25>  H        3.2655430000     1.9291020000     0.6238660000
| 26> *
| 27>
| 28>                          ****END OF INPUT****
 Total Charge           Charge          ....    0
 Multiplicity           Mult            ....    1
 Number of Electrons    NEL             ....   44
 Basis Dimension        Dim             ....  124

MULLIKEN ATOMIC CHARGES
-----------------------
   0 C :   -0.026918
   1 C :   -0.244431
   2 C :    0.143170
   3 C :   -0.072429
   4 C :   -0.072432
   5 C :    0.143165
   6 H :    0.003882
   7 H :    0.003882
   8 H :    0.037920
   9 H :    0.037590
  10 H :   -0.014453
  11 H :   -0.014457
  12 H :    0.037917
  13 H :    0.037594
Sum of atomic charges:   -0.0000000

LOEWDIN ATOMIC CHARGES
----------------------
   0 C :   -0.079378
   1 C :   -0.019546
   2 C :   -0.037718
   3 C :   -0.038424
   4 C :   -0.038424
   5 C :   -0.037718
   6 H :    0.021753
   7 H :    0.021753
   8 H :    0.041030
   9 H :    0.041099
  10 H :    0.021722
  11 H :    0.021721
  12 H :    0.041030
  13 H :    0.041099

  Mayer bond orders larger than 0.1
B(  0-C ,  1-C ) :   2.0368 B(  0-C ,  6-H ) :   0.9302 B(  0-C ,  7-H ) :   0.9302
B(  1-C ,  2-C ) :   1.0353 B(  1-C ,  5-C ) :   1.0353 B(  2-C ,  3-C ) :   1.0248
B(  2-C ,  8-H ) :   0.9028 B(  2-C ,  9-H ) :   0.9027 B(  3-C ,  4-C ) :   1.8638
B(  3-C , 10-H ) :   0.9853 B(  4-C ,  5-C ) :   1.0248 B(  4-C , 11-H ) :   0.9853
B(  5-C , 12-H ) :   0.9028 B(  5-C , 13-H ) :   0.9027

FINAL SINGLE POINT ENERGY      -232.920571846572

DIPOLE MOMENT
-------------
                                X             Y             Z
Electronic contribution:      1.19814      -0.00019      -0.24967
Nuclear contribution   :     -1.08944       0.00017       0.22679
                        -----------------------------------------
Total Dipole Moment    :      0.10869      -0.00002      -0.02289
                        -----------------------------------------
Magnitude (a.u.)       :      0.11108
Magnitude (Debye)      :      0.28234

                             ****ORCA TERMINATED NORMALLY****
TOTAL RUN TIME: 0 days 0 hours 0 minutes 5 seconds 766 msec
