                         Program Version 3.0.3 - RELEASE   -
|  1> ! RI PBE def2-SVP def2-SVP/J NBO PAL2
|  2> % maxcore 2000
|  3> % output
|  4>     # printlevel mini
|  5>     print[ P_Basis ] 0
|  6>     print[ P_SCFInfo ] 1
|  7>     print[ P_SCFIterInfo ] 1
|  8>     print[ P_OrbEn ] 0
|  9>     print[ P_Cartesian ] 0
| 10> end
| 11> *xyz 0 1
| 12>  C        1.0347330000     0.1041530000    -0.1935210000
| 13>  C        2.3428670000     0.0951120000     0.0635760000
| 14>  C        3.2321860000    -1.1248380000     0.1989150000
| 15>  C        4.6424010000    -0.5779260000     0.4950980000
| 16>  C        4.4557240000     0.9081930000     0.5061990000
| 17>  C        3.1901350000     1.2605710000     0.2681530000
| 18>  H        0.4746650000    -0.8134030000    -0.3334770000
| 19>  H        0.4855940000     1.0355160000    -0.2713710000
| 20>  H        3.2143060000    -1.7176240000    -0.7182760000
| 21>  H        2.8750430000    -1.7744240000     1.0010490000
| 22>  H        5.3738840000    -0.8809040000    -0.2619220000
| 23>  H        5.0350860000    -0.9361390000     1.4529300000
| 24>  H        5.2697530000     1.6000160000     0.6890040000
| 25>  H        2.8168240000     2.2769060000     0.2274520000
| 26> *
| 27>
| 28>                          ****END OF INPUT****
 Total Charge           Charge          ....    0
 Multiplicity           Mult            ....    1
 Number of Electrons    NEL             ....   44
 Basis Dimension        Dim             ....  124

MULLIKEN ATOMIC CHARGES
-----------------------
   0 C :   -0.050455
   1 C :   -0.133812
   2 C :    0.072384
   3 C :    0.043253
   4 C :   -0.083242
   5 C :    0.051617
   6 H :    0.005444
   7 H :    0.004907
   8 H :    0.030128
   9 H :    0.032257
  10 H :    0.029290
  11 H :    0.024918
  12 H :   -0.005020
  13 H :   -0.021670
Sum of atomic charges:   -0.0000000

LOEWDIN ATOMIC CHARGES
----------------------
   0 C :   -0.084182
   1 C :   -0.031917
   2 C :   -0.029451
   3 C :   -0.039237
   4 C :   -0.019394
   5 C :   -0.031110
   6 H :    0.020982
   7 H :    0.021793
   8 H :    0.038091
   9 H :    0.038485
  10 H :    0.034036
  11 H :    0.033167
  12 H :    0.022722
  13 H :    0.026015

  Mayer bond orders larger than 0.1
B(  0-C ,  1-C ) :   1.9225 B(  0-C ,  4-C ) :   0.1312 B(  0-C ,  6-H ) :   0.9357
B(  0-C ,  7-H ) :   0.9281 B(  1-C ,  2-C ) :   1.0455 B(  1-C ,  5-C ) :   1.0935
B(  2-C ,  3-C ) :   1.1008 B(  2-C ,  8-H ) :   0.9166 B(  2-C ,  9-H ) :   0.9168
B(  3-C ,  4-C ) :   1.0659 B(  3-C , 10-H ) :   0.9163 B(  3-C , 11-H ) :   0.9161
B(  4-C ,  5-C ) :   1.7293 B(  4-C , 12-H ) :   0.9788 B(  5-C , 13-H ) :   0.9990

FINAL SINGLE POINT ENERGY      -232.929232181383

DIPOLE MOMENT
-------------
                                X             Y             Z
Electronic contribution:      0.01036       1.65337       0.05399
Nuclear contribution   :      0.29343      -1.76943       0.00070
                        -----------------------------------------
Total Dipole Moment    :      0.30378      -0.11607       0.05469
                        -----------------------------------------
Magnitude (a.u.)       :      0.32977
Magnitude (Debye)      :      0.83820

                             ****ORCA TERMINATED NORMALLY****
TOTAL RUN TIME: 0 days 0 hours 0 minutes 6 seconds 208 msec
