                         Program Version 3.0.3 - RELEASE   -
|  1> ! RI PBE def2-SVP def2-SVP/J NBO PAL2
|  2> % maxcore 2000
|  3> % output
|  4>     # printlevel mini
|  5>     print[ P_Basis ] 0
|  6>     print[ P_SCFInfo ] 1
|  7>     print[ P_SCFIterInfo ] 1
|  8>     print[ P_OrbEn ] 0
|  9>     print[ P_Cartesian ] 0
| 10> end
| 11> *xyz 0 1
| 12>  C        0.9943060000    -0.0126170000     0.1101830000
| 13>  C        2.4796950000    -0.0491940000     0.0540500000
| 14>  C        3.2619820000    -1.1240910000    -0.0186180000
| 15>  C        4.7211350000    -0.7779670000     0.0056890000
| 16>  C        4.7170650000     0.7397780000    -0.2431620000
| 17>  C        3.3054440000     1.2077220000     0.1374930000
| 18>  H        0.5631920000    -1.0138850000     0.0619260000
| 19>  H        0.5838240000     0.5779460000    -0.7158610000
| 20>  H        0.6491320000     0.4642160000     1.0342190000
| 21>  H        2.8969750000    -2.1456210000    -0.0452800000
| 22>  H        5.3049230000    -1.3215740000    -0.7431290000
| 23>  H        5.1608900000    -1.0304850000     0.9797960000
| 24>  H        4.8828220000     0.9282620000    -1.3070260000
| 25>  H        5.5031230000     1.2637220000     0.3035570000
| 26>  H        2.9317110000     2.0002920000    -0.5190250000
| 27>  H        3.2659810000     1.6123960000     1.1581880000
| 28> *
| 29>
| 30>                          ****END OF INPUT****
 Total Charge           Charge          ....    0
 Multiplicity           Mult            ....    1
 Number of Electrons    NEL             ....   46
 Basis Dimension        Dim             ....  134

MULLIKEN ATOMIC CHARGES
-----------------------
   0 C :    0.085777
   1 C :   -0.190340
   2 C :   -0.094783
   3 C :    0.045454
   4 C :   -0.014579
   5 C :    0.057923
   6 H :    0.011563
   7 H :    0.025608
   8 H :    0.023061
   9 H :   -0.029496
  10 H :    0.015743
  11 H :    0.018069
  12 H :    0.015720
  13 H :    0.004611
  14 H :    0.010895
  15 H :    0.014774
Sum of atomic charges:    0.0000000

LOEWDIN ATOMIC CHARGES
----------------------
   0 C :   -0.058717
   1 C :   -0.045301
   2 C :   -0.055785
   3 C :   -0.041866
   4 C :   -0.033072
   5 C :   -0.036316
   6 H :    0.031232
   7 H :    0.035176
   8 H :    0.035473
   9 H :    0.016024
  10 H :    0.025532
  11 H :    0.027174
  12 H :    0.026733
  13 H :    0.021560
  14 H :    0.024195
  15 H :    0.027958

  Mayer bond orders larger than 0.1
B(  0-C ,  1-C ) :   1.1096 B(  0-C ,  6-H ) :   0.9510 B(  0-C ,  7-H ) :   0.9418
B(  0-C ,  8-H ) :   0.9407 B(  1-C ,  2-C ) :   1.8608 B(  1-C ,  5-C ) :   1.0461
B(  2-C ,  3-C ) :   1.0201 B(  2-C ,  9-H ) :   0.9844 B(  3-C ,  4-C ) :   1.1055
B(  3-C , 10-H ) :   0.9307 B(  3-C , 11-H ) :   0.9160 B(  4-C ,  5-C ) :   1.0989
B(  4-C , 12-H ) :   0.9413 B(  4-C , 13-H ) :   0.9354 B(  5-C , 14-H ) :   0.9304
B(  5-C , 15-H ) :   0.9080

FINAL SINGLE POINT ENERGY      -234.146173927345

DIPOLE MOMENT
-------------
                                X             Y             Z
Electronic contribution:      0.52065      -1.03571      -0.07751
Nuclear contribution   :     -0.59546       1.12145       0.10807
                        -----------------------------------------
Total Dipole Moment    :     -0.07481       0.08574       0.03057
                        -----------------------------------------
Magnitude (a.u.)       :      0.11782
Magnitude (Debye)      :      0.29948

                             ****ORCA TERMINATED NORMALLY****
TOTAL RUN TIME: 0 days 0 hours 0 minutes 6 seconds 857 msec
