                         Program Version 3.0.3 - RELEASE   -
|  1> ! RI PBE def2-SVP def2-SVP/J NBO PAL2
|  2> % maxcore 2000
|  3> % output
|  4>     # printlevel mini
|  5>     print[ P_Basis ] 0
|  6>     print[ P_SCFInfo ] 1
|  7>     print[ P_SCFIterInfo ] 1
|  8>     print[ P_OrbEn ] 0
|  9>     print[ P_Cartesian ] 0
| 10> end
| 11> *xyz 0 1
| 12>  C        1.0305900000     0.1119990000     0.0181450000
| 13>  C        2.5162440000     0.0977680000     0.0198560000
| 14>  C        3.3595490000     1.1458390000     0.0232090000
| 15>  C        4.7390140000     0.6701000000     0.0237580000
| 16>  C        4.7455540000    -0.6712690000     0.0207410000
| 17>  C        3.3338200000    -1.1593680000     0.0179850000
| 18>  H        0.6461540000     1.1332720000     0.0199820000
| 19>  H        0.6226710000    -0.4028010000     0.8946230000
| 20>  H        0.6247320000    -0.3988660000    -0.8615860000
| 21>  H        3.0660480000     2.1887610000     0.0252150000
| 22>  H        5.6110810000     1.3117880000     0.0262280000
| 23>  H        5.6128730000    -1.3169880000     0.0203040000
| 24>  H        3.1130660000    -1.7860350000     0.8921790000
| 25>  H        3.1151230000    -1.7820880000    -0.8595390000
| 26> *
| 27>
| 28>                          ****END OF INPUT****
 Total Charge           Charge          ....    0
 Multiplicity           Mult            ....    1
 Number of Electrons    NEL             ....   44
 Basis Dimension        Dim             ....  124

MULLIKEN ATOMIC CHARGES
-----------------------
   0 C :    0.089525
   1 C :   -0.208975
   2 C :   -0.015096
   3 C :    0.021105
   4 C :   -0.082446
   5 C :    0.107048
   6 H :    0.013148
   7 H :    0.026105
   8 H :    0.026025
   9 H :   -0.032408
  10 H :   -0.021471
  11 H :   -0.012935
  12 H :    0.045219
  13 H :    0.045154
Sum of atomic charges:   -0.0000000

LOEWDIN ATOMIC CHARGES
----------------------
   0 C :   -0.059306
   1 C :   -0.040422
   2 C :   -0.055004
   3 C :   -0.038654
   4 C :   -0.046257
   5 C :   -0.033887
   6 H :    0.033575
   7 H :    0.035617
   8 H :    0.035602
   9 H :    0.018773
  10 H :    0.021364
  11 H :    0.019348
  12 H :    0.054631
  13 H :    0.054621

  Mayer bond orders larger than 0.1
B(  0-C ,  1-C ) :   1.1091 B(  0-C ,  6-H ) :   0.9492 B(  0-C ,  7-H ) :   0.9419
B(  0-C ,  8-H ) :   0.9419 B(  1-C ,  2-C ) :   1.7352 B(  1-C ,  5-C ) :   1.0689
B(  2-C ,  3-C ) :   1.0741 B(  2-C ,  9-H ) :   1.0002 B(  3-C ,  4-C ) :   1.7367
B(  3-C , 10-H ) :   0.9958 B(  4-C ,  5-C ) :   1.0467 B(  4-C , 11-H ) :   0.9906
B(  5-C , 12-H ) :   0.8879 B(  5-C , 13-H ) :   0.8879

FINAL SINGLE POINT ENERGY      -232.934088950820

DIPOLE MOMENT
-------------
                                X             Y             Z
Electronic contribution:      3.03115       0.88335       0.00565
Nuclear contribution   :     -3.28050      -1.10790      -0.00634
                        -----------------------------------------
Total Dipole Moment    :     -0.24935      -0.22455      -0.00069
                        -----------------------------------------
Magnitude (a.u.)       :      0.33556
Magnitude (Debye)      :      0.85293

                             ****ORCA TERMINATED NORMALLY****
TOTAL RUN TIME: 0 days 0 hours 0 minutes 5 seconds 965 msec
