                         Program Version 3.0.3 - RELEASE   -
|  1> ! RI PBE def2-SVP def2-SVP/J NBO PAL2
|  2> % maxcore 2000
|  3> % output
|  4>     # printlevel mini
|  5>     print[ P_Basis ] 0
|  6>     print[ P_SCFInfo ] 1
|  7>     print[ P_SCFIterInfo ] 1
|  8>     print[ P_OrbEn ] 0
|  9>     print[ P_Cartesian ] 0
| 10> end
| 11> *xyz 0 1
| 12>  C        1.0396310000     0.1032540000     0.0442650000
| 13>  C        2.5265310000     0.0415750000     0.0460970000
| 14>  C        3.3090430000    -1.0521040000     0.0477310000
| 15>  C        4.7452390000    -0.6472300000     0.0492040000
| 16>  C        4.6792630000     0.8441970000     0.0481880000
| 17>  C        3.3937240000     1.2240410000     0.0463970000
| 18>  H        0.6002320000    -0.8951510000     0.0443780000
| 19>  H        0.6683900000     0.6389120000    -0.8351120000
| 20>  H        0.6662710000     0.6400440000     0.9220530000
| 21>  H        2.9688980000    -2.0796060000     0.0479690000
| 22>  H        5.2859960000    -1.0321860000    -0.8257150000
| 23>  H        5.2838880000    -1.0310850000     0.9259050000
| 24>  H        5.5463170000     1.4907230000     0.0488270000
| 25>  H        3.0297750000     2.2448160000     0.0453140000
| 26> *
| 27>
| 28>                          ****END OF INPUT****
 Total Charge           Charge          ....    0
 Multiplicity           Mult            ....    1
 Number of Electrons    NEL             ....   44
 Basis Dimension        Dim             ....  124

MULLIKEN ATOMIC CHARGES
-----------------------
   0 C :    0.081393
   1 C :   -0.081487
   2 C :   -0.132702
   3 C :    0.092560
   4 C :   -0.078784
   5 C :    0.014423
   6 H :    0.012836
   7 H :    0.028815
   8 H :    0.028850
   9 H :   -0.023997
  10 H :    0.048289
  11 H :    0.048241
  12 H :   -0.010568
  13 H :   -0.027869
Sum of atomic charges:   -0.0000000

LOEWDIN ATOMIC CHARGES
----------------------
   0 C :   -0.059463
   1 C :   -0.044612
   2 C :   -0.056456
   3 C :   -0.037200
   4 C :   -0.038045
   5 C :   -0.037488
   6 H :    0.032369
   7 H :    0.037165
   8 H :    0.037170
   9 H :    0.016928
  10 H :    0.054784
  11 H :    0.054772
  12 H :    0.020074
  13 H :    0.020003

  Mayer bond orders larger than 0.1
B(  0-C ,  1-C ) :   1.1007 B(  0-C ,  6-H ) :   0.9520 B(  0-C ,  7-H ) :   0.9426
B(  0-C ,  8-H ) :   0.9427 B(  1-C ,  2-C ) :   1.7412 B(  1-C ,  5-C ) :   1.0925
B(  2-C ,  3-C ) :   1.0394 B(  2-C ,  9-H ) :   0.9934 B(  3-C ,  4-C ) :   1.0658
B(  3-C , 10-H ) :   0.8906 B(  3-C , 11-H ) :   0.8906 B(  4-C ,  5-C ) :   1.7296
B(  4-C , 12-H ) :   0.9869 B(  5-C , 13-H ) :   1.0042

FINAL SINGLE POINT ENERGY      -232.934068629364

DIPOLE MOMENT
-------------
                                X             Y             Z
Electronic contribution:      1.90264       0.52797       0.00198
Nuclear contribution   :     -1.86314      -0.59781      -0.00188
                        -----------------------------------------
Total Dipole Moment    :      0.03950      -0.06984       0.00010
                        -----------------------------------------
Magnitude (a.u.)       :      0.08024
Magnitude (Debye)      :      0.20394

                             ****ORCA TERMINATED NORMALLY****
TOTAL RUN TIME: 0 days 0 hours 0 minutes 5 seconds 717 msec
