                         Program Version 3.0.3 - RELEASE   -
|  1> ! RI PBE def2-SVP def2-SVP/J NBO PAL2
|  2> % maxcore 2000
|  3> % output
|  4>     # printlevel mini
|  5>     print[ P_Basis ] 0
|  6>     print[ P_SCFInfo ] 1
|  7>     print[ P_SCFIterInfo ] 1
|  8>     print[ P_OrbEn ] 0
|  9>     print[ P_Cartesian ] 0
| 10> end
| 11> *xyz 0 1
| 12>  C        0.9060650000     0.0496300000     0.0264300000
| 13>  C        2.4308380000     0.0495500000    -0.0613570000
| 14>  C        3.0103630000     1.2173020000    -0.7988060000
| 15>  C        3.8055010000     0.7774940000    -1.7851060000
| 16>  C        3.8055550000    -0.6836690000    -1.7828250000
| 17>  C        3.0104490000    -1.1204560000    -0.7951570000
| 18>  H        0.5465090000     0.9340080000     0.5572520000
| 19>  H        0.5465760000    -0.8331140000     0.5600080000
| 20>  H        0.4665110000     0.0480540000    -0.9731400000
| 21>  H        2.8353590000     0.0511660000     0.9637690000
| 22>  H        2.7999500000     2.2483810000    -0.5464040000
| 23>  H        4.3639900000     1.3917720000    -2.4800150000
| 24>  H        4.3640910000    -1.3000730000    -2.4758130000
| 25>  H        2.8001130000    -2.1507570000    -0.5395370000
| 26> *
| 27>
| 28>                          ****END OF INPUT****
 Total Charge           Charge          ....    0
 Multiplicity           Mult            ....    1
 Number of Electrons    NEL             ....   44
 Basis Dimension        Dim             ....  124

MULLIKEN ATOMIC CHARGES
-----------------------
   0 C :    0.020153
   1 C :   -0.047101
   2 C :   -0.031714
   3 C :    0.006718
   4 C :    0.006770
   5 C :   -0.031665
   6 H :    0.023462
   7 H :    0.023486
   8 H :    0.032375
   9 H :    0.048232
  10 H :   -0.010297
  11 H :   -0.015039
  12 H :   -0.015046
  13 H :   -0.010334
Sum of atomic charges:   -0.0000000

LOEWDIN ATOMIC CHARGES
----------------------
   0 C :   -0.042257
   1 C :   -0.041297
   2 C :   -0.033840
   3 C :   -0.039056
   4 C :   -0.039044
   5 C :   -0.033826
   6 H :    0.027302
   7 H :    0.027304
   8 H :    0.031787
   9 H :    0.058199
  10 H :    0.020265
  11 H :    0.022102
  12 H :    0.022101
  13 H :    0.020260

  Mayer bond orders larger than 0.1
B(  0-C ,  1-C ) :   1.0511 B(  0-C ,  6-H ) :   0.9623 B(  0-C ,  7-H ) :   0.9623
B(  0-C ,  8-H ) :   0.9674 B(  1-C ,  2-C ) :   1.0261 B(  1-C ,  5-C ) :   1.0261
B(  1-C ,  9-H ) :   0.8632 B(  2-C ,  3-C ) :   1.7301 B(  2-C , 10-H ) :   0.9927
B(  3-C ,  4-C ) :   1.0947 B(  3-C , 11-H ) :   0.9955 B(  4-C ,  5-C ) :   1.7300
B(  4-C , 12-H ) :   0.9955 B(  5-C , 13-H ) :   0.9928

FINAL SINGLE POINT ENERGY      -232.927274731270

DIPOLE MOMENT
-------------
                                X             Y             Z
Electronic contribution:      3.14880      -0.00230      -1.50860
Nuclear contribution   :     -3.29230       0.00251       1.68349
                        -----------------------------------------
Total Dipole Moment    :     -0.14350       0.00021       0.17489
                        -----------------------------------------
Magnitude (a.u.)       :      0.22622
Magnitude (Debye)      :      0.57502

                             ****ORCA TERMINATED NORMALLY****
TOTAL RUN TIME: 0 days 0 hours 0 minutes 5 seconds 799 msec
