                         Program Version 3.0.3 - RELEASE   -
|  1> ! RI PBE def2-SVP def2-SVP/J NBO PAL2
|  2> % maxcore 2000
|  3> % output
|  4>     # printlevel mini
|  5>     print[ P_Basis ] 0
|  6>     print[ P_SCFInfo ] 1
|  7>     print[ P_SCFIterInfo ] 1
|  8>     print[ P_OrbEn ] 0
|  9>     print[ P_Cartesian ] 0
| 10> end
| 11> *xyz 0 1
| 12>  C        1.0622550000     0.0753140000     0.0574220000
| 13>  C        2.5822830000     0.0780280000    -0.0069810000
| 14>  C        3.1067380000    -1.1478040000    -0.7874340000
| 15>  C        3.4187670000    -0.5960010000    -2.1459620000
| 16>  C        3.4160890000     0.7317790000    -2.1532890000
| 17>  C        3.1018020000     1.2972790000    -0.8009280000
| 18>  H        0.6890240000    -0.8064180000     0.5851570000
| 19>  H        0.6352630000     0.0688910000    -0.9502850000
| 20>  H        0.6854560000     0.9613040000     0.5754000000
| 21>  H        2.9764950000     0.0844500000     1.0124570000
| 22>  H        2.3696320000    -1.9576850000    -0.8164100000
| 23>  H        4.0094730000    -1.5707450000    -0.3287500000
| 24>  H        3.6475900000    -1.2220240000    -3.0010670000
| 25>  H        3.6424030000     1.3492450000    -3.0152560000
| 26>  H        2.3614310000     2.1038070000    -0.8388260000
| 27>  H        4.0028100000     1.7288990000    -0.3469590000
| 28> *
| 29>
| 30>                          ****END OF INPUT****
 Total Charge           Charge          ....    0
 Multiplicity           Mult            ....    1
 Number of Electrons    NEL             ....   46
 Basis Dimension        Dim             ....  134

MULLIKEN ATOMIC CHARGES
-----------------------
   0 C :    0.032273
   1 C :   -0.171873
   2 C :    0.090323
   3 C :   -0.067190
   4 C :   -0.067400
   5 C :    0.090856
   6 H :    0.018060
   7 H :    0.016524
   8 H :    0.018028
   9 H :   -0.000398
  10 H :    0.011943
  11 H :    0.019659
  12 H :   -0.011109
  13 H :   -0.011248
  14 H :    0.011989
  15 H :    0.019564
Sum of atomic charges:   -0.0000000

LOEWDIN ATOMIC CHARGES
----------------------
   0 C :   -0.058183
   1 C :   -0.033901
   2 C :   -0.037683
   3 C :   -0.040300
   4 C :   -0.040278
   5 C :   -0.037640
   6 H :    0.023936
   7 H :    0.025754
   8 H :    0.023937
   9 H :    0.021449
  10 H :    0.025604
  11 H :    0.030704
  12 H :    0.020173
  13 H :    0.020137
  14 H :    0.025622
  15 H :    0.030669

  Mayer bond orders larger than 0.1
B(  0-C ,  1-C ) :   1.0779 B(  0-C ,  6-H ) :   0.9591 B(  0-C ,  7-H ) :   0.9627
B(  0-C ,  8-H ) :   0.9591 B(  1-C ,  2-C ) :   1.0640 B(  1-C ,  5-C ) :   1.0638
B(  1-C ,  9-H ) :   0.9174 B(  2-C ,  3-C ) :   1.0331 B(  2-C , 10-H ) :   0.9293
B(  2-C , 11-H ) :   0.9100 B(  3-C ,  4-C ) :   1.8664 B(  3-C , 12-H ) :   0.9831
B(  4-C ,  5-C ) :   1.0330 B(  4-C , 13-H ) :   0.9831 B(  5-C , 14-H ) :   0.9293
B(  5-C , 15-H ) :   0.9101

FINAL SINGLE POINT ENERGY      -234.140122411920

DIPOLE MOMENT
-------------
                                X             Y             Z
Electronic contribution:      2.32555      -0.00663      -2.05036
Nuclear contribution   :     -2.29932       0.00719       2.14330
                        -----------------------------------------
Total Dipole Moment    :      0.02623       0.00055       0.09294
                        -----------------------------------------
Magnitude (a.u.)       :      0.09657
Magnitude (Debye)      :      0.24546

                             ****ORCA TERMINATED NORMALLY****
TOTAL RUN TIME: 0 days 0 hours 0 minutes 6 seconds 799 msec
