                         Program Version 3.0.3 - RELEASE   -
|  1> ! RI PBE def2-SVP def2-SVP/J NBO PAL2
|  2> % maxcore 2000
|  3> % output
|  4>     # printlevel mini
|  5>     print[ P_Basis ] 0
|  6>     print[ P_SCFInfo ] 1
|  7>     print[ P_SCFIterInfo ] 1
|  8>     print[ P_OrbEn ] 0
|  9>     print[ P_Cartesian ] 0
| 10> end
| 11> *xyz 0 1
| 12>  C        0.9919940000    -0.0679030000    -0.1030700000
| 13>  C        2.5159650000    -0.1080120000    -0.0142010000
| 14>  C        3.0608840000    -1.3924290000     0.6471520000
| 15>  C        3.4194670000    -1.0108350000     2.0940950000
| 16>  C        3.5188150000     0.4849570000     2.0344510000
| 17>  C        3.0471690000     0.9695000000     0.8919340000
| 18>  H        0.6172810000    -0.8535720000    -0.7645780000
| 19>  H        0.6418090000     0.8922250000    -0.4913440000
| 20>  H        0.5429140000    -0.2101300000     0.8839460000
| 21>  H        2.9165270000     0.0004710000    -1.0286190000
| 22>  H        3.9657970000    -1.7128680000     0.1254500000
| 23>  H        2.3476420000    -2.2178440000     0.5914550000
| 24>  H        4.3477530000    -1.4831420000     2.4288240000
| 25>  H        2.6472530000    -1.3162610000     2.8112850000
| 26>  H        3.9000180000     1.0844930000     2.8536290000
| 27>  H        2.9846220000     2.0233610000     0.6421700000
| 28> *
| 29>
| 30>                          ****END OF INPUT****
 Total Charge           Charge          ....    0
 Multiplicity           Mult            ....    1
 Number of Electrons    NEL             ....   46
 Basis Dimension        Dim             ....  134

MULLIKEN ATOMIC CHARGES
-----------------------
   0 C :    0.040422
   1 C :   -0.101548
   2 C :    0.014820
   3 C :    0.050698
   4 C :   -0.072839
   5 C :   -0.023350
   6 H :    0.019213
   7 H :    0.013246
   8 H :    0.013976
   9 H :    0.006680
  10 H :    0.015357
  11 H :    0.003032
  12 H :    0.015930
  13 H :    0.024873
  14 H :   -0.009592
  15 H :   -0.010917
Sum of atomic charges:    0.0000000

LOEWDIN ATOMIC CHARGES
----------------------
   0 C :   -0.056679
   1 C :   -0.043764
   2 C :   -0.030339
   3 C :   -0.042255
   4 C :   -0.037726
   5 C :   -0.036084
   6 H :    0.024443
   7 H :    0.024800
   8 H :    0.024539
   9 H :    0.024826
  10 H :    0.028474
  11 H :    0.021716
  12 H :    0.027675
  13 H :    0.030232
  14 H :    0.020225
  15 H :    0.019917

  Mayer bond orders larger than 0.1
B(  0-C ,  1-C ) :   1.0651 B(  0-C ,  6-H ) :   0.9583 B(  0-C ,  7-H ) :   0.9610
B(  0-C ,  8-H ) :   0.9619 B(  1-C ,  2-C ) :   1.0690 B(  1-C ,  5-C ) :   1.0092
B(  1-C ,  9-H ) :   0.9110 B(  2-C ,  3-C ) :   1.0988 B(  2-C , 10-H ) :   0.9320
B(  2-C , 11-H ) :   0.9378 B(  3-C ,  4-C ) :   1.0378 B(  3-C , 12-H ) :   0.9310
B(  3-C , 13-H ) :   0.9150 B(  4-C ,  5-C ) :   1.8722 B(  4-C , 14-H ) :   0.9820
B(  5-C , 15-H ) :   0.9872

FINAL SINGLE POINT ENERGY      -234.139675536230

DIPOLE MOMENT
-------------
                                X             Y             Z
Electronic contribution:      2.17857       1.51435       0.97430
Nuclear contribution   :     -2.20486      -1.57922      -0.98633
                        -----------------------------------------
Total Dipole Moment    :     -0.02629      -0.06487      -0.01203
                        -----------------------------------------
Magnitude (a.u.)       :      0.07102
Magnitude (Debye)      :      0.18053

                             ****ORCA TERMINATED NORMALLY****
TOTAL RUN TIME: 0 days 0 hours 0 minutes 6 seconds 483 msec
