                         Program Version 3.0.3 - RELEASE   -
|  1> ! RI PBE def2-SVP def2-SVP/J NBO PAL2
|  2> % maxcore 2000
|  3> % output
|  4>     # printlevel mini
|  5>     print[ P_Basis ] 0
|  6>     print[ P_SCFInfo ] 1
|  7>     print[ P_SCFIterInfo ] 1
|  8>     print[ P_OrbEn ] 0
|  9>     print[ P_Cartesian ] 0
| 10> end
| 11> *xyz 0 1
| 12>  C        1.9922130000     1.1981110000    -0.0538060000
| 13>  C        2.6759340000     0.1068570000     0.2658780000
| 14>  C        3.2845090000    -0.8398090000    -0.6985950000
| 15>  C        4.7806100000    -1.2109990000    -0.5451490000
| 16>  C        4.4294350000    -2.6515040000    -0.9565490000
| 17>  C        2.9712390000    -2.3512340000    -0.5677580000
| 18>  H        1.5720090000     1.8499470000     0.7034810000
| 19>  H        1.8284870000     1.4784500000    -1.0900930000
| 20>  H        2.8172950000    -0.1382380000     1.3188540000
| 21>  H        3.0884500000    -0.5084310000    -1.7231610000
| 22>  H        5.0837230000    -1.1593880000     0.5041610000
| 23>  H        5.5029440000    -0.6547150000    -1.1446950000
| 24>  H        4.9385330000    -3.4694610000    -0.4451720000
| 25>  H        4.5339820000    -2.7961010000    -2.0341860000
| 26>  H        2.7750590000    -2.6142770000     0.4752660000
| 27>  H        2.1686860000    -2.7559070000    -1.1864860000
| 28> *
| 29>
| 30>                          ****END OF INPUT****
 Total Charge           Charge          ....    0
 Multiplicity           Mult            ....    1
 Number of Electrons    NEL             ....   46
 Basis Dimension        Dim             ....  134

MULLIKEN ATOMIC CHARGES
-----------------------
   0 C :   -0.032177
   1 C :    0.015739
   2 C :   -0.168863
   3 C :    0.060694
   4 C :   -0.025096
   5 C :    0.063139
   6 H :    0.021223
   7 H :    0.013379
   8 H :   -0.010340
   9 H :   -0.004594
  10 H :    0.003564
  11 H :    0.017570
  12 H :    0.009848
  13 H :    0.016328
  14 H :    0.003177
  15 H :    0.016411
Sum of atomic charges:   -0.0000000

LOEWDIN ATOMIC CHARGES
----------------------
   0 C :   -0.064606
   1 C :   -0.030405
   2 C :   -0.037310
   3 C :   -0.023245
   4 C :   -0.036549
   5 C :   -0.022564
   6 H :    0.023919
   7 H :    0.020886
   8 H :    0.022458
   9 H :    0.027324
  10 H :    0.022580
  11 H :    0.017381
  12 H :    0.015891
  13 H :    0.024422
  14 H :    0.022658
  15 H :    0.017161

  Mayer bond orders larger than 0.1
B(  0-C ,  1-C ) :   1.9997 B(  0-C ,  6-H ) :   0.9354 B(  0-C ,  7-H ) :   0.9500
B(  1-C ,  2-C ) :   1.0504 B(  1-C ,  8-H ) :   0.9453 B(  2-C ,  3-C ) :   1.0469
B(  2-C ,  5-C ) :   1.0462 B(  2-C ,  9-H ) :   0.9173 B(  3-C ,  4-C ) :   1.1178
B(  3-C , 10-H ) :   0.9235 B(  3-C , 11-H ) :   0.9346 B(  4-C ,  5-C ) :   1.1168
B(  4-C , 12-H ) :   0.9351 B(  4-C , 13-H ) :   0.9326 B(  5-C , 14-H ) :   0.9232
B(  5-C , 15-H ) :   0.9348

FINAL SINGLE POINT ENERGY      -234.106986495117

DIPOLE MOMENT
-------------
                                X             Y             Z
Electronic contribution:     -0.54943       0.86656       0.26615
Nuclear contribution   :      0.61943      -0.97710      -0.29800
                        -----------------------------------------
Total Dipole Moment    :      0.07000      -0.11054      -0.03185
                        -----------------------------------------
Magnitude (a.u.)       :      0.13466
Magnitude (Debye)      :      0.34227

                             ****ORCA TERMINATED NORMALLY****
TOTAL RUN TIME: 0 days 0 hours 0 minutes 6 seconds 598 msec
