                         Program Version 3.0.3 - RELEASE   -
|  1> ! RI PBE def2-SVP def2-SVP/J NBO PAL2
|  2> % maxcore 2000
|  3> % output
|  4>     # printlevel mini
|  5>     print[ P_Basis ] 0
|  6>     print[ P_SCFInfo ] 1
|  7>     print[ P_SCFIterInfo ] 1
|  8>     print[ P_OrbEn ] 0
|  9>     print[ P_Cartesian ] 0
| 10> end
| 11> *xyz 0 1
| 12>  C        0.9568080000    -0.0693910000     0.0488830000
| 13>  C        2.1583290000    -0.0696820000     0.0784820000
| 14>  C        3.6011870000    -0.0703370000     0.1448940000
| 15>  C        4.3231250000     1.0056070000     0.9959040000
| 16>  C        5.3498260000    -0.0676940000     1.3993180000
| 17>  C        4.3218820000    -1.1421380000     1.0021570000
| 18>  H       -0.1068380000    -0.0690710000     0.0182930000
| 19>  H        4.0146130000    -0.0735290000    -0.8685950000
| 20>  H        3.6992980000     1.3031790000     1.8403430000
| 21>  H        4.6738260000     1.8988890000     0.4782090000
| 22>  H        5.7085770000    -0.0649080000     2.4287160000
| 23>  H        6.2122810000    -0.0701450000     0.7291160000
| 24>  H        3.6977170000    -1.4340670000     1.8483160000
| 25>  H        4.6715480000    -2.0388240000     0.4896740000
| 26> *
| 27>
| 28>                          ****END OF INPUT****
 Total Charge           Charge          ....    0
 Multiplicity           Mult            ....    1
 Number of Electrons    NEL             ....   44
 Basis Dimension        Dim             ....  124

MULLIKEN ATOMIC CHARGES
-----------------------
   0 C :   -0.525579
   1 C :    0.481747
   2 C :   -0.203739
   3 C :    0.065735
   4 C :   -0.025700
   5 C :    0.066026
   6 H :   -0.004917
   7 H :    0.036560
   8 H :    0.017083
   9 H :    0.020802
  10 H :    0.015904
  11 H :    0.018347
  12 H :    0.017042
  13 H :    0.020689
Sum of atomic charges:   -0.0000000

LOEWDIN ATOMIC CHARGES
----------------------
   0 C :   -0.091459
   1 C :   -0.020518
   2 C :   -0.047440
   3 C :   -0.013662
   4 C :   -0.036434
   5 C :   -0.013623
   6 H :    0.032523
   7 H :    0.046949
   8 H :    0.029559
   9 H :    0.019528
  10 H :    0.019410
  11 H :    0.026110
  12 H :    0.029545
  13 H :    0.019512

  Mayer bond orders larger than 0.1
B(  0-C ,  1-C ) :   2.2491 B(  0-C ,  6-H ) :   1.1083 B(  1-C ,  2-C ) :   0.9999
B(  1-C ,  6-H ) :  -0.1180 B(  2-C ,  3-C ) :   1.0681 B(  2-C ,  5-C ) :   1.0680
B(  2-C ,  7-H ) :   0.8645 B(  3-C ,  4-C ) :   1.1234 B(  3-C ,  8-H ) :   0.9214
B(  3-C ,  9-H ) :   0.9320 B(  4-C ,  5-C ) :   1.1234 B(  4-C , 10-H ) :   0.9378
B(  4-C , 11-H ) :   0.9282 B(  5-C , 12-H ) :   0.9214 B(  5-C , 13-H ) :   0.9320

FINAL SINGLE POINT ENERGY      -232.864200355038

DIPOLE MOMENT
-------------
                                X             Y             Z
Electronic contribution:     -3.86244      -0.00254      -1.67878
Nuclear contribution   :      4.18181       0.00256       1.74762
                        -----------------------------------------
Total Dipole Moment    :      0.31937       0.00002       0.06884
                        -----------------------------------------
Magnitude (a.u.)       :      0.32670
Magnitude (Debye)      :      0.83042

                             ****ORCA TERMINATED NORMALLY****
TOTAL RUN TIME: 0 days 0 hours 0 minutes 5 seconds 727 msec
