                         Program Version 3.0.3 - RELEASE   -
|  1> ! RI PBE def2-SVP def2-SVP/J NBO PAL2
|  2> % maxcore 2000
|  3> % output
|  4>     # printlevel mini
|  5>     print[ P_Basis ] 0
|  6>     print[ P_SCFInfo ] 1
|  7>     print[ P_SCFIterInfo ] 1
|  8>     print[ P_OrbEn ] 0
|  9>     print[ P_Cartesian ] 0
| 10> end
| 11> *xyz 0 1
| 12>  C        1.3804450000     1.0975580000    -0.3681110000
| 13>  C        2.2653900000     0.1964240000     0.0345960000
| 14>  C        3.0208340000    -0.7267380000    -0.8651820000
| 15>  C        4.5160190000    -0.5741940000    -0.7324430000
| 16>  C        5.2500860000    -1.2995450000     0.3538320000
| 17>  C        5.4208560000    -1.7151530000    -1.0770610000
| 18>  H        0.8676910000     1.7450920000     0.3338240000
| 19>  H        1.1343920000     1.2183520000    -1.4190650000
| 20>  H        2.4887900000     0.1108650000     1.0968490000
| 21>  H        2.7150270000    -0.5604840000    -1.9036100000
| 22>  H        2.7593950000    -1.7653180000    -0.6222840000
| 23>  H        4.8864860000     0.4178950000    -0.9716970000
| 24>  H        4.6739490000    -1.9512160000     1.0010380000
| 25>  H        6.0755020000    -0.7998470000     0.8452130000
| 26>  H        4.9584060000    -2.6439060000    -1.3910150000
| 27>  H        6.3628340000    -1.4981970000    -1.5649940000
| 28> *
| 29>
| 30>                          ****END OF INPUT****
 Total Charge           Charge          ....    0
 Multiplicity           Mult            ....    1
 Number of Electrons    NEL             ....   46
 Basis Dimension        Dim             ....  134

MULLIKEN ATOMIC CHARGES
-----------------------
   0 C :   -0.040922
   1 C :   -0.081214
   2 C :    0.161343
   3 C :   -0.168374
   4 C :   -0.034360
   5 C :   -0.023408
   6 H :    0.023678
   7 H :    0.013940
   8 H :    0.003235
   9 H :    0.004636
  10 H :   -0.002303
  11 H :    0.020080
  12 H :    0.030752
  13 H :    0.033118
  14 H :    0.027258
  15 H :    0.032539
Sum of atomic charges:   -0.0000000

LOEWDIN ATOMIC CHARGES
----------------------
   0 C :   -0.069583
   1 C :   -0.026753
   2 C :   -0.031697
   3 C :   -0.041119
   4 C :   -0.048162
   5 C :   -0.045308
   6 H :    0.023972
   7 H :    0.020339
   8 H :    0.025082
   9 H :    0.030004
  10 H :    0.033403
  11 H :    0.026867
  12 H :    0.024375
  13 H :    0.027077
  14 H :    0.024621
  15 H :    0.026881

  Mayer bond orders larger than 0.1
B(  0-C ,  1-C ) :   2.0124 B(  0-C ,  6-H ) :   0.9448 B(  0-C ,  7-H ) :   0.9482
B(  1-C ,  2-C ) :   1.0573 B(  1-C ,  8-H ) :   0.9547 B(  2-C ,  3-C ) :   1.0609
B(  2-C ,  9-H ) :   0.9237 B(  2-C , 10-H ) :   0.8953 B(  3-C ,  4-C ) :   0.9924
B(  3-C ,  5-C ) :   0.9844 B(  3-C , 11-H ) :   0.9465 B(  4-C ,  5-C ) :   1.0471
B(  4-C , 12-H ) :   0.9485 B(  4-C , 13-H ) :   0.9480 B(  5-C , 14-H ) :   0.9457
B(  5-C , 15-H ) :   0.9475

FINAL SINGLE POINT ENERGY      -234.102549014247

DIPOLE MOMENT
-------------
                                X             Y             Z
Electronic contribution:     -0.29452       0.48889       0.12340
Nuclear contribution   :      0.41133      -0.56847      -0.14139
                        -----------------------------------------
Total Dipole Moment    :      0.11681      -0.07958      -0.01799
                        -----------------------------------------
Magnitude (a.u.)       :      0.14248
Magnitude (Debye)      :      0.36216

                             ****ORCA TERMINATED NORMALLY****
TOTAL RUN TIME: 0 days 0 hours 0 minutes 6 seconds 707 msec
