                         Program Version 3.0.3 - RELEASE   -
|  1> ! RI PBE def2-SVP def2-SVP/J NBO PAL2
|  2> % maxcore 2000
|  3> % output
|  4>     # printlevel mini
|  5>     print[ P_Basis ] 0
|  6>     print[ P_SCFInfo ] 1
|  7>     print[ P_SCFIterInfo ] 1
|  8>     print[ P_OrbEn ] 0
|  9>     print[ P_Cartesian ] 0
| 10> end
| 11> *xyz 0 1
| 12>  C        5.6890790000    -1.7836310000     0.5354790000
| 13>  C        4.8366240000    -0.9808880000     0.2704050000
| 14>  C        3.8147410000     0.0000290000    -0.0638920000
| 15>  C        4.3822000000     1.2892370000    -0.6104000000
| 16>  C        3.5840980000     2.5490630000    -0.4918590000
| 17>  C        4.8262220000     2.3631530000     0.3291050000
| 18>  H        6.4433870000    -2.4956950000     0.7727100000
| 19>  H        3.2209550000     0.2173700000     0.8314570000
| 20>  H        3.1229260000    -0.4406890000    -0.7909010000
| 21>  H        4.9688900000     1.1682590000    -1.5146460000
| 22>  H        2.6291090000     2.4941080000     0.0180450000
| 23>  H        3.6106890000     3.2540300000    -1.3131860000
| 24>  H        4.7087470000     2.1799320000     1.3908140000
| 25>  H        5.7042440000     2.9414320000     0.0710580000
| 26> *
| 27>
| 28>                          ****END OF INPUT****
 Total Charge           Charge          ....    0
 Multiplicity           Mult            ....    1
 Number of Electrons    NEL             ....   44
 Basis Dimension        Dim             ....  124

MULLIKEN ATOMIC CHARGES
-----------------------
   0 C :   -0.497522
   1 C :    0.338877
   2 C :    0.146299
   3 C :   -0.161341
   4 C :   -0.030084
   5 C :   -0.028699
   6 H :   -0.003916
   7 H :    0.020606
   8 H :    0.042071
   9 H :    0.031015
  10 H :    0.027204
  11 H :    0.039177
  12 H :    0.038759
  13 H :    0.037553
Sum of atomic charges:   -0.0000000

LOEWDIN ATOMIC CHARGES
----------------------
   0 C :   -0.091801
   1 C :   -0.019527
   2 C :   -0.039451
   3 C :   -0.034400
   4 C :   -0.046651
   5 C :   -0.044132
   6 H :    0.033055
   7 H :    0.048513
   8 H :    0.051359
   9 H :    0.030670
  10 H :    0.025242
  11 H :    0.029177
  12 H :    0.028559
  13 H :    0.029387

  Mayer bond orders larger than 0.1
B(  0-C ,  1-C ) :   2.3419 B(  0-C ,  6-H ) :   1.1027 B(  1-C ,  2-C ) :   1.0610
B(  1-C ,  6-H ) :  -0.1116 B(  2-C ,  3-C ) :   1.0685 B(  2-C ,  7-H ) :   0.8836
B(  2-C ,  8-H ) :   0.8914 B(  3-C ,  4-C ) :   0.9920 B(  3-C ,  5-C ) :   0.9959
B(  3-C ,  9-H ) :   0.9466 B(  4-C ,  5-C ) :   1.0486 B(  4-C , 10-H ) :   0.9431
B(  4-C , 11-H ) :   0.9456 B(  5-C , 12-H ) :   0.9468 B(  5-C , 13-H ) :   0.9485

FINAL SINGLE POINT ENERGY      -232.859100653932

DIPOLE MOMENT
-------------
                                X             Y             Z
Electronic contribution:      1.32737      -3.77375       0.32729
Nuclear contribution   :     -1.49206       3.99616      -0.41606
                        -----------------------------------------
Total Dipole Moment    :     -0.16469       0.22242      -0.08877
                        -----------------------------------------
Magnitude (a.u.)       :      0.29064
Magnitude (Debye)      :      0.73875

                             ****ORCA TERMINATED NORMALLY****
TOTAL RUN TIME: 0 days 0 hours 0 minutes 5 seconds 825 msec
