                         Program Version 3.0.3 - RELEASE   -
|  1> ! RI PBE def2-SVP def2-SVP/J NBO PAL2
|  2> % maxcore 2000
|  3> % output
|  4>     # printlevel mini
|  5>     print[ P_Basis ] 0
|  6>     print[ P_SCFInfo ] 1
|  7>     print[ P_SCFIterInfo ] 1
|  8>     print[ P_OrbEn ] 0
|  9>     print[ P_Cartesian ] 0
| 10> end
| 11> *xyz 0 1
| 12>  C        0.8490670000     0.1093090000    -0.0677320000
| 13>  C        2.3324400000     0.0842450000    -0.2101900000
| 14>  C        3.1031800000     1.1597500000    -0.3276700000
| 15>  C        4.5720740000     1.1680650000    -0.4917680000
| 16>  C        5.3266810000    -0.0142160000    -1.0094000000
| 17>  C        5.1823960000     1.2048360000    -1.8686120000
| 18>  H        0.3628420000    -0.4358470000    -0.8833910000
| 19>  H        0.4645730000     1.1312320000    -0.0665730000
| 20>  H        0.5337550000    -0.3753200000     0.8620240000
| 21>  H        2.8014450000    -0.8980150000    -0.2121870000
| 22>  H        2.6301790000     2.1419560000    -0.3074380000
| 23>  H        5.0966270000     1.7725200000     0.2438670000
| 24>  H        4.7638700000    -0.8939750000    -1.2944780000
| 25>  H        6.2970880000    -0.2262080000    -0.5782820000
| 26>  H        4.5023480000     1.1433700000    -2.7095120000
| 27>  H        6.0505470000     1.8322060000    -2.0294580000
| 28> *
| 29>
| 30>                          ****END OF INPUT****
 Total Charge           Charge          ....    0
 Multiplicity           Mult            ....    1
 Number of Electrons    NEL             ....   46
 Basis Dimension        Dim             ....  134

MULLIKEN ATOMIC CHARGES
-----------------------
   0 C :    0.047498
   1 C :   -0.107673
   2 C :   -0.000982
   3 C :   -0.093883
   4 C :   -0.027922
   5 C :   -0.031503
   6 H :    0.032049
   7 H :    0.015138
   8 H :    0.029030
   9 H :   -0.006931
  10 H :   -0.013277
  11 H :    0.029773
  12 H :    0.033347
  13 H :    0.028523
  14 H :    0.034407
  15 H :    0.032405
Sum of atomic charges:   -0.0000000

LOEWDIN ATOMIC CHARGES
----------------------
   0 C :   -0.064241
   1 C :   -0.046980
   2 C :   -0.042926
   3 C :   -0.046298
   4 C :   -0.041858
   5 C :   -0.037950
   6 H :    0.035577
   7 H :    0.029211
   8 H :    0.035500
   9 H :    0.020515
  10 H :    0.022595
  11 H :    0.033086
  12 H :    0.025267
  13 H :    0.026954
  14 H :    0.026511
  15 H :    0.025038

  Mayer bond orders larger than 0.1
B(  0-C ,  1-C ) :   1.0798 B(  0-C ,  6-H ) :   0.9486 B(  0-C ,  7-H ) :   0.9614
B(  0-C ,  8-H ) :   0.9465 B(  1-C ,  2-C ) :   1.9196 B(  1-C ,  9-H ) :   0.9452
B(  2-C ,  3-C ) :   1.0635 B(  2-C , 10-H ) :   0.9537 B(  3-C ,  4-C ) :   1.0091
B(  3-C ,  5-C ) :   0.9794 B(  3-C , 11-H ) :   0.9261 B(  4-C ,  5-C ) :   1.0428
B(  4-C , 12-H ) :   0.9439 B(  4-C , 13-H ) :   0.9418 B(  5-C , 14-H ) :   0.9516
B(  5-C , 15-H ) :   0.9481

FINAL SINGLE POINT ENERGY      -234.108201902693

DIPOLE MOMENT
-------------
                                X             Y             Z
Electronic contribution:      1.71337       0.79786       0.29456
Nuclear contribution   :     -1.73373      -0.81872      -0.28791
                        -----------------------------------------
Total Dipole Moment    :     -0.02036      -0.02086       0.00664
                        -----------------------------------------
Magnitude (a.u.)       :      0.02989
Magnitude (Debye)      :      0.07599

                             ****ORCA TERMINATED NORMALLY****
TOTAL RUN TIME: 0 days 0 hours 0 minutes 6 seconds 666 msec
