                         Program Version 3.0.3 - RELEASE   -
|  1> ! RI PBE def2-SVP def2-SVP/J NBO PAL2
|  2> % maxcore 2000
|  3> % output
|  4>     # printlevel mini
|  5>     print[ P_Basis ] 0
|  6>     print[ P_SCFInfo ] 1
|  7>     print[ P_SCFIterInfo ] 1
|  8>     print[ P_OrbEn ] 0
|  9>     print[ P_Cartesian ] 0
| 10> end
| 11> *xyz 0 1
| 12>  C        0.9021360000    -0.0961810000    -0.2271750000
| 13>  C        2.3980670000    -0.0263700000    -0.2064180000
| 14>  C        3.1300150000    -0.2493380000    -1.2939960000
| 15>  C        2.9844610000     0.3024460000     1.1176000000
| 16>  C        3.3243660000    -0.8039800000     2.0831170000
| 17>  C        4.4090640000     0.0277340000     1.4707740000
| 18>  H        0.5386880000    -0.8363290000     0.4926940000
| 19>  H        0.5229680000    -0.3558480000    -1.2162740000
| 20>  H        0.4663870000     0.8649540000     0.0657870000
| 21>  H        2.6656370000    -0.5109980000    -2.2383650000
| 22>  H        4.2107550000    -0.1739150000    -1.2813950000
| 23>  H        2.5448110000     1.1816640000     1.5825130000
| 24>  H        3.2152200000    -1.8196970000     1.7222930000
| 25>  H        3.0889900000    -0.6647380000     3.1311370000
| 26>  H        5.0385420000    -0.4441410000     0.7274140000
| 27>  H        4.9210740000     0.7463170000     2.0984140000
| 28> *
| 29>
| 30>                          ****END OF INPUT****
 Total Charge           Charge          ....    0
 Multiplicity           Mult            ....    1
 Number of Electrons    NEL             ....   46
 Basis Dimension        Dim             ....  134

MULLIKEN ATOMIC CHARGES
-----------------------
   0 C :    0.077319
   1 C :   -0.110088
   2 C :   -0.047538
   3 C :   -0.101652
   4 C :   -0.031392
   5 C :   -0.026592
   6 H :    0.027235
   7 H :    0.011580
   8 H :    0.024077
   9 H :    0.004261
  10 H :    0.010877
  11 H :    0.019191
  12 H :    0.038913
  13 H :    0.035708
  14 H :    0.035254
  15 H :    0.032849
Sum of atomic charges:    0.0000000

LOEWDIN ATOMIC CHARGES
----------------------
   0 C :   -0.052773
   1 C :   -0.026558
   2 C :   -0.082007
   3 C :   -0.039654
   4 C :   -0.036894
   5 C :   -0.041106
   6 H :    0.035315
   7 H :    0.029316
   8 H :    0.035024
   9 H :    0.019330
  10 H :    0.018801
  11 H :    0.030775
  12 H :    0.028486
  13 H :    0.025889
  14 H :    0.027312
  15 H :    0.028743

  Mayer bond orders larger than 0.1
B(  0-C ,  1-C ) :   1.0787 B(  0-C ,  6-H ) :   0.9459 B(  0-C ,  7-H ) :   0.9495
B(  0-C ,  8-H ) :   0.9446 B(  1-C ,  2-C ) :   1.9833 B(  1-C ,  3-C ) :   1.0421
B(  2-C ,  9-H ) :   0.9284 B(  2-C , 10-H ) :   0.9324 B(  3-C ,  4-C ) :   0.9789
B(  3-C ,  5-C ) :   1.0055 B(  3-C , 11-H ) :   0.9286 B(  4-C ,  5-C ) :   1.0547
B(  4-C , 12-H ) :   0.9472 B(  4-C , 13-H ) :   0.9468 B(  5-C , 14-H ) :   0.9399
B(  5-C , 15-H ) :   0.9385

FINAL SINGLE POINT ENERGY      -234.108057767447

DIPOLE MOMENT
-------------
                                X             Y             Z
Electronic contribution:      1.00167       0.52506       0.05776
Nuclear contribution   :     -1.12521      -0.49651       0.14627
                        -----------------------------------------
Total Dipole Moment    :     -0.12354       0.02855       0.20403
                        -----------------------------------------
Magnitude (a.u.)       :      0.24022
Magnitude (Debye)      :      0.61058

                             ****ORCA TERMINATED NORMALLY****
TOTAL RUN TIME: 0 days 0 hours 0 minutes 6 seconds 400 msec
