                         Program Version 3.0.3 - RELEASE   -
|  1> ! RI PBE def2-SVP def2-SVP/J NBO PAL2
|  2> % maxcore 2000
|  3> % output
|  4>     # printlevel mini
|  5>     print[ P_Basis ] 0
|  6>     print[ P_SCFInfo ] 1
|  7>     print[ P_SCFIterInfo ] 1
|  8>     print[ P_OrbEn ] 0
|  9>     print[ P_Cartesian ] 0
| 10> end
| 11> *xyz 0 1
| 12>  C        0.9009700000     0.0190480000    -0.0546550000
| 13>  C        2.3518100000     0.0185770000    -0.0750700000
| 14>  C        3.5555210000     0.0174690000    -0.0887820000
| 15>  C        4.9885050000     0.0163830000    -0.1041660000
| 16>  C        5.7322060000    -0.7231880000    -1.1887210000
| 17>  C        5.7340040000     0.7676850000    -1.1790730000
| 18>  H        0.4981810000     0.9313170000    -0.5025640000
| 19>  H        0.5265210000    -0.0417670000     0.9705430000
| 20>  H        0.4968870000    -0.8331720000    -0.6073950000
| 21>  H        5.4541250000     0.0095950000     0.8759690000
| 22>  H        5.1317050000    -1.2257250000    -1.9354320000
| 23>  H        6.6378100000    -1.2435140000    -0.9032680000
| 24>  H        5.1354560000     1.2816670000    -1.9195260000
| 25>  H        6.6411080000     1.2813450000    -0.8863400000
| 26> *
| 27>
| 28>                          ****END OF INPUT****
 Total Charge           Charge          ....    0
 Multiplicity           Mult            ....    1
 Number of Electrons    NEL             ....   44
 Basis Dimension        Dim             ....  124

MULLIKEN ATOMIC CHARGES
-----------------------
   0 C :    0.056365
   1 C :   -0.213593
   2 C :    0.036163
   3 C :   -0.191306
   4 C :   -0.013548
   5 C :   -0.012575
   6 H :    0.043630
   7 H :    0.043925
   8 H :    0.044559
   9 H :    0.044905
  10 H :    0.044369
  11 H :    0.036456
  12 H :    0.044426
  13 H :    0.036223
Sum of atomic charges:   -0.0000000

LOEWDIN ATOMIC CHARGES
----------------------
   0 C :   -0.068137
   1 C :   -0.072833
   2 C :   -0.059963
   3 C :   -0.052662
   4 C :   -0.028465
   5 C :   -0.028357
   6 H :    0.047940
   7 H :    0.049813
   8 H :    0.048294
   9 H :    0.041795
  10 H :    0.032298
  11 H :    0.028979
  12 H :    0.032320
  13 H :    0.028978

  Mayer bond orders larger than 0.1
B(  0-C ,  1-C ) :   1.1315 B(  0-C ,  6-H ) :   0.9330 B(  0-C ,  7-H ) :   0.9343
B(  0-C ,  8-H ) :   0.9331 B(  1-C ,  2-C ) :   2.4884 B(  2-C ,  3-C ) :   1.0402
B(  3-C ,  4-C ) :   0.9665 B(  3-C ,  5-C ) :   0.9666 B(  3-C ,  9-H ) :   0.9262
B(  4-C ,  5-C ) :   1.0407 B(  4-C , 10-H ) :   0.9533 B(  4-C , 11-H ) :   0.9447
B(  5-C , 12-H ) :   0.9532 B(  5-C , 13-H ) :   0.9446

FINAL SINGLE POINT ENERGY      -232.872574177357

DIPOLE MOMENT
-------------
                                X             Y             Z
Electronic contribution:      0.40622      -0.00516       1.06411
Nuclear contribution   :     -0.41814       0.00431      -1.11438
                        -----------------------------------------
Total Dipole Moment    :     -0.01191      -0.00084      -0.05027
                        -----------------------------------------
Magnitude (a.u.)       :      0.05167
Magnitude (Debye)      :      0.13133

                             ****ORCA TERMINATED NORMALLY****
TOTAL RUN TIME: 0 days 0 hours 0 minutes 5 seconds 472 msec
