                         Program Version 3.0.3 - RELEASE   -
|  1> ! RI PBE def2-SVP def2-SVP/J NBO PAL2
|  2> % maxcore 2000
|  3> % output
|  4>     # printlevel mini
|  5>     print[ P_Basis ] 0
|  6>     print[ P_SCFInfo ] 1
|  7>     print[ P_SCFIterInfo ] 1
|  8>     print[ P_OrbEn ] 0
|  9>     print[ P_Cartesian ] 0
| 10> end
| 11> *xyz 0 1
| 12>  C        0.8584360000     0.0381030000     0.0719520000
| 13>  C        2.1996000000     0.0381410000     0.0719290000
| 14>  C        2.9492830000    -0.3988070000    -1.0626350000
| 15>  C        3.5921950000    -0.7635440000    -2.0096910000
| 16>  C        2.9493090000     0.4750780000     1.2064630000
| 17>  C        3.5922300000     0.8397810000     2.1535280000
| 18>  H        0.3073870000    -0.2965810000    -0.7970250000
| 19>  H        0.3074830000     0.3727680000     0.9410070000
| 20>  H        4.1595020000    -1.0872390000    -2.8501030000
| 21>  H        4.1592870000     1.1633010000     2.9941760000
| 22> *
| 23>
| 24>                          ****END OF INPUT****
 Total Charge           Charge          ....    0
 Multiplicity           Mult            ....    1
 Number of Electrons    NEL             ....   40
 Basis Dimension        Dim             ....  104

MULLIKEN ATOMIC CHARGES
-----------------------
   0 C :    0.046726
   1 C :   -0.136798
   2 C :    0.450106
   3 C :   -0.451880
   4 C :    0.450104
   5 C :   -0.451870
   6 H :    0.036655
   7 H :    0.036655
   8 H :    0.010151
   9 H :    0.010152
Sum of atomic charges:   -0.0000000

LOEWDIN ATOMIC CHARGES
----------------------
   0 C :    0.007506
   1 C :   -0.063255
   2 C :   -0.000827
   3 C :   -0.046071
   4 C :   -0.000826
   5 C :   -0.046068
   6 H :    0.035558
   7 H :    0.035559
   8 H :    0.039212
   9 H :    0.039213

  Mayer bond orders larger than 0.1
B(  0-C ,  1-C ) :   1.8611 B(  0-C ,  3-C ) :   0.1185 B(  0-C ,  5-C ) :   0.1185
B(  0-C ,  6-H ) :   0.9329 B(  0-C ,  7-H ) :   0.9329 B(  1-C ,  2-C ) :   0.9933
B(  1-C ,  4-C ) :   0.9933 B(  2-C ,  3-C ) :   2.2673 B(  2-C ,  8-H ) :  -0.1054
B(  3-C ,  8-H ) :   1.0954 B(  4-C ,  5-C ) :   2.2673 B(  4-C ,  9-H ) :  -0.1054
B(  5-C ,  9-H ) :   1.0954

FINAL SINGLE POINT ENERGY      -230.401697076517

DIPOLE MOMENT
-------------
                                X             Y             Z
Electronic contribution:      1.51659       0.00016      -0.00021
Nuclear contribution   :     -1.62327      -0.00022       0.00032
                        -----------------------------------------
Total Dipole Moment    :     -0.10668      -0.00007       0.00011
                        -----------------------------------------
Magnitude (a.u.)       :      0.10668
Magnitude (Debye)      :      0.27116

                             ****ORCA TERMINATED NORMALLY****
TOTAL RUN TIME: 0 days 0 hours 0 minutes 4 seconds 723 msec
