                         Program Version 3.0.3 - RELEASE   -
|  1> ! RI PBE def2-SVP def2-SVP/J NBO PAL2
|  2> % maxcore 2000
|  3> % output
|  4>     # printlevel mini
|  5>     print[ P_Basis ] 0
|  6>     print[ P_SCFInfo ] 1
|  7>     print[ P_SCFIterInfo ] 1
|  8>     print[ P_OrbEn ] 0
|  9>     print[ P_Cartesian ] 0
| 10> end
| 11> *xyz 0 1
| 12>  C        1.3136840000    -0.3915970000     0.4592520000
| 13>  C        2.5907880000    -0.2417130000     0.1011570000
| 14>  C        3.0290300000     0.5055180000    -1.0516790000
| 15>  C        4.3150600000     0.6546830000    -1.4096840000
| 16>  C        4.7533010000     1.4019020000    -2.5625270000
| 17>  C        6.0304040000     1.5517660000    -2.9206360000
| 18>  H        1.0328680000    -0.9630680000     1.3351260000
| 19>  H        0.5110490000     0.0561520000    -0.1179040000
| 20>  H        3.3702040000    -0.7045330000     0.7031120000
| 21>  H        2.2547650000     0.9716120000    -1.6590060000
| 22>  H        5.0893250000     0.1885970000    -0.8023520000
| 23>  H        3.9738860000     1.8647360000    -3.1644730000
| 24>  H        6.8330380000     1.1040160000    -2.3434810000
| 25>  H        6.3112180000     2.1232290000    -3.7965150000
| 26> *
| 27>
| 28>                          ****END OF INPUT****
 Total Charge           Charge          ....    0
 Multiplicity           Mult            ....    1
 Number of Electrons    NEL             ....   44
 Basis Dimension        Dim             ....  124

MULLIKEN ATOMIC CHARGES
-----------------------
   0 C :   -0.029217
   1 C :   -0.003368
   2 C :    0.007680
   3 C :    0.007680
   4 C :   -0.003369
   5 C :   -0.029216
   6 H :    0.027575
   7 H :    0.018609
   8 H :   -0.005806
   9 H :   -0.015473
  10 H :   -0.015474
  11 H :   -0.005806
  12 H :    0.018609
  13 H :    0.027575
Sum of atomic charges:    0.0000000

LOEWDIN ATOMIC CHARGES
----------------------
   0 C :   -0.047998
   1 C :   -0.032376
   2 C :   -0.027081
   3 C :   -0.027082
   4 C :   -0.032376
   5 C :   -0.047997
   6 H :    0.026234
   7 H :    0.023464
   8 H :    0.030049
   9 H :    0.027708
  10 H :    0.027708
  11 H :    0.030049
  12 H :    0.023464
  13 H :    0.026234

  Mayer bond orders larger than 0.1
B(  0-C ,  1-C ) :   1.8636 B(  0-C ,  3-C ) :   0.1195 B(  0-C ,  6-H ) :   0.9430
B(  0-C ,  7-H ) :   0.9473 B(  1-C ,  2-C ) :   1.1487 B(  1-C ,  8-H ) :   0.9606
B(  2-C ,  3-C ) :   1.6643 B(  2-C ,  5-C ) :   0.1195 B(  2-C ,  9-H ) :   0.9642
B(  3-C ,  4-C ) :   1.1487 B(  3-C , 10-H ) :   0.9642 B(  4-C ,  5-C ) :   1.8636
B(  4-C , 11-H ) :   0.9606 B(  5-C , 12-H ) :   0.9473 B(  5-C , 13-H ) :   0.9430

FINAL SINGLE POINT ENERGY      -232.905654022786

DIPOLE MOMENT
-------------
                                X             Y             Z
Electronic contribution:      0.00000       0.00001       0.00001
Nuclear contribution   :     -0.00000      -0.00000      -0.00000
                        -----------------------------------------
Total Dipole Moment    :     -0.00000       0.00000       0.00000
                        -----------------------------------------
Magnitude (a.u.)       :      0.00000
Magnitude (Debye)      :      0.00001

                             ****ORCA TERMINATED NORMALLY****
TOTAL RUN TIME: 0 days 0 hours 0 minutes 5 seconds 853 msec
