                         Program Version 3.0.3 - RELEASE   -
|  1> ! RI PBE def2-SVP def2-SVP/J NBO PAL2
|  2> % maxcore 2000
|  3> % output
|  4>     # printlevel mini
|  5>     print[ P_Basis ] 0
|  6>     print[ P_SCFInfo ] 1
|  7>     print[ P_SCFIterInfo ] 1
|  8>     print[ P_OrbEn ] 0
|  9>     print[ P_Cartesian ] 0
| 10> end
| 11> *xyz 0 1
| 12>  C        1.1574440000    -0.9839330000     0.0729950000
| 13>  C        2.4071030000    -0.5251770000    -0.0169080000
| 14>  C        3.1406480000    -0.4301020000    -1.2542620000
| 15>  C        4.3991400000     0.0331180000    -1.3364910000
| 16>  C        5.1309980000     0.1325910000    -2.5397010000
| 17>  C        5.7825540000     0.2303980000    -3.5479710000
| 18>  H        0.6400890000    -1.0396790000     1.0226290000
| 19>  H        0.6157190000    -1.3178080000    -0.8060290000
| 20>  H        2.9237270000    -0.1977430000     0.8828260000
| 21>  H        2.6365360000    -0.7538600000    -2.1611260000
| 22>  H        4.9073300000     0.3581930000    -0.4311960000
| 23>  H        6.3509240000     0.3133120000    -4.4437660000
| 24> *
| 25>
| 26>                          ****END OF INPUT****
 Total Charge           Charge          ....    0
 Multiplicity           Mult            ....    1
 Number of Electrons    NEL             ....   42
 Basis Dimension        Dim             ....  114

MULLIKEN ATOMIC CHARGES
-----------------------
   0 C :   -0.019751
   1 C :   -0.012009
   2 C :    0.027373
   3 C :   -0.069724
   4 C :    0.395854
   5 C :   -0.412699
   6 H :    0.031552
   7 H :    0.025361
   8 H :   -0.001619
   9 H :    0.003044
  10 H :    0.024924
  11 H :    0.007694
Sum of atomic charges:    0.0000000

LOEWDIN ATOMIC CHARGES
----------------------
   0 C :   -0.037895
   1 C :   -0.033176
   2 C :   -0.002946
   3 C :   -0.046294
   4 C :   -0.018826
   5 C :   -0.061595
   6 H :    0.028262
   7 H :    0.026047
   8 H :    0.031277
   9 H :    0.035495
  10 H :    0.043101
  11 H :    0.036550

  Mayer bond orders larger than 0.1
B(  0-C ,  1-C ) :   1.8655 B(  0-C ,  3-C ) :   0.1242 B(  0-C ,  6-H ) :   0.9419
B(  0-C ,  7-H ) :   0.9468 B(  1-C ,  2-C ) :   1.1478 B(  1-C ,  8-H ) :   0.9616
B(  2-C ,  3-C ) :   1.6947 B(  2-C ,  5-C ) :   0.1151 B(  2-C ,  9-H ) :   0.9681
B(  3-C ,  4-C ) :   1.0411 B(  3-C , 10-H ) :   0.9451 B(  4-C ,  5-C ) :   2.2531
B(  5-C , 11-H ) :   1.0863

FINAL SINGLE POINT ENERGY      -231.658499441166

DIPOLE MOMENT
-------------
                                X             Y             Z
Electronic contribution:      3.25429       0.90932      -2.18661
Nuclear contribution   :     -3.41330      -0.94731       2.32455
                        -----------------------------------------
Total Dipole Moment    :     -0.15901      -0.03799       0.13795
                        -----------------------------------------
Magnitude (a.u.)       :      0.21391
Magnitude (Debye)      :      0.54372

                             ****ORCA TERMINATED NORMALLY****
TOTAL RUN TIME: 0 days 0 hours 0 minutes 5 seconds 245 msec
