                         Program Version 3.0.3 - RELEASE   -
|  1> ! RI PBE def2-SVP def2-SVP/J NBO PAL2
|  2> % maxcore 2000
|  3> % output
|  4>     # printlevel mini
|  5>     print[ P_Basis ] 0
|  6>     print[ P_SCFInfo ] 1
|  7>     print[ P_SCFIterInfo ] 1
|  8>     print[ P_OrbEn ] 0
|  9>     print[ P_Cartesian ] 0
| 10> end
| 11> *xyz 0 1
| 12>  C        2.6182280000    -1.1792630000     0.1858950000
| 13>  C        2.0856220000     0.0170300000     0.4268510000
| 14>  C        2.8075600000     1.1919690000     0.9128660000
| 15>  C        2.1357560000     2.3081130000     1.2249290000
| 16>  C        4.2733260000     1.1271600000     1.0206680000
| 17>  C        4.9824250000     1.6146600000     2.0324470000
| 18>  H        2.0089610000    -1.9997680000    -0.1730450000
| 19>  H        3.6706640000    -1.3838410000     0.3469760000
| 20>  H        1.0200960000     0.1620210000     0.2653660000
| 21>  H        1.0543360000     2.3468720000     1.1540780000
| 22>  H        2.6497050000     3.2062440000     1.5443410000
| 23>  H        4.7920600000     0.6329870000     0.2022490000
| 24>  H        4.5033590000     2.0736810000     2.8907580000
| 25>  H        6.0646900000     1.5590440000     2.0390220000
| 26> *
| 27>
| 28>                          ****END OF INPUT****
 Total Charge           Charge          ....    0
 Multiplicity           Mult            ....    1
 Number of Electrons    NEL             ....   44
 Basis Dimension        Dim             ....  124

MULLIKEN ATOMIC CHARGES
-----------------------
   0 C :   -0.030370
   1 C :   -0.009303
   2 C :    0.000806
   3 C :   -0.043370
   4 C :   -0.040540
   5 C :   -0.030346
   6 H :    0.027744
   7 H :    0.022063
   8 H :   -0.010983
   9 H :    0.019977
  10 H :    0.021764
  11 H :    0.016794
  12 H :    0.024756
  13 H :    0.031008
Sum of atomic charges:   -0.0000000

LOEWDIN ATOMIC CHARGES
----------------------
   0 C :   -0.050220
   1 C :   -0.024943
   2 C :   -0.036780
   3 C :   -0.034860
   4 C :   -0.023780
   5 C :   -0.041461
   6 H :    0.027572
   7 H :    0.023329
   8 H :    0.029855
   9 H :    0.023371
  10 H :    0.024570
  11 H :    0.031567
  12 H :    0.024840
  13 H :    0.026940

  Mayer bond orders larger than 0.1
B(  0-C ,  1-C ) :   1.9085 B(  0-C ,  3-C ) :   0.1335 B(  0-C ,  6-H ) :   0.9417
B(  0-C ,  7-H ) :   0.9341 B(  1-C ,  2-C ) :   1.1087 B(  1-C ,  8-H ) :   0.9547
B(  2-C ,  3-C ) :   1.8538 B(  2-C ,  4-C ) :   1.0363 B(  3-C ,  9-H ) :   0.9396
B(  3-C , 10-H ) :   0.9362 B(  4-C ,  5-C ) :   1.9741 B(  4-C , 11-H ) :   0.9365
B(  5-C , 12-H ) :   0.9493 B(  5-C , 13-H ) :   0.9425

FINAL SINGLE POINT ENERGY      -232.893172072443

DIPOLE MOMENT
-------------
                                X             Y             Z
Electronic contribution:     -0.46078       0.14260      -0.45573
Nuclear contribution   :      0.47249      -0.14821       0.44849
                        -----------------------------------------
Total Dipole Moment    :      0.01171      -0.00561      -0.00724
                        -----------------------------------------
Magnitude (a.u.)       :      0.01486
Magnitude (Debye)      :      0.03778

                             ****ORCA TERMINATED NORMALLY****
TOTAL RUN TIME: 0 days 0 hours 0 minutes 6 seconds 29 msec
