                         Program Version 3.0.3 - RELEASE   -
|  1> ! RI PBE def2-SVP def2-SVP/J NBO PAL2
|  2> % maxcore 2000
|  3> % output
|  4>     # printlevel mini
|  5>     print[ P_Basis ] 0
|  6>     print[ P_SCFInfo ] 1
|  7>     print[ P_SCFIterInfo ] 1
|  8>     print[ P_OrbEn ] 0
|  9>     print[ P_Cartesian ] 0
| 10> end
| 11> *xyz 0 1
| 12>  C        2.9090400000     0.5112560000    -1.2957940000
| 13>  C        2.3349630000    -0.1853450000    -0.3198130000
| 14>  C        3.0505530000    -0.9271470000     0.7195890000
| 15>  C        2.3897070000    -1.6052290000     1.6696180000
| 16>  C        4.4780990000    -0.9141370000     0.7014650000
| 17>  C        5.6795650000    -0.8897510000     0.6673320000
| 18>  H        2.3135750000     1.0366940000    -2.0320370000
| 19>  H        3.9881350000     0.5734500000    -1.3828620000
| 20>  H        1.2514500000    -0.2338890000    -0.2518720000
| 21>  H        1.3060390000    -1.6156390000     1.6841310000
| 22>  H        2.9135910000    -2.1551030000     2.4400950000
| 23>  H        6.7436630000    -0.8761010000     0.6477180000
| 24> *
| 25>
| 26>                          ****END OF INPUT****
 Total Charge           Charge          ....    0
 Multiplicity           Mult            ....    1
 Number of Electrons    NEL             ....   42
 Basis Dimension        Dim             ....  114

MULLIKEN ATOMIC CHARGES
-----------------------
   0 C :   -0.011098
   1 C :   -0.001043
   2 C :   -0.033795
   3 C :   -0.014727
   4 C :    0.398001
   5 C :   -0.454398
   6 H :    0.028028
   7 H :    0.034472
   8 H :   -0.008618
   9 H :    0.026338
  10 H :    0.030998
  11 H :    0.005841
Sum of atomic charges:   -0.0000000

LOEWDIN ATOMIC CHARGES
----------------------
   0 C :   -0.035781
   1 C :   -0.022364
   2 C :   -0.049269
   3 C :   -0.015730
   4 C :   -0.002651
   5 C :   -0.060963
   6 H :    0.028843
   7 H :    0.030161
   8 H :    0.031905
   9 H :    0.027152
  10 H :    0.031750
  11 H :    0.036948

  Mayer bond orders larger than 0.1
B(  0-C ,  1-C ) :   1.9095 B(  0-C ,  3-C ) :   0.1351 B(  0-C ,  6-H ) :   0.9395
B(  0-C ,  7-H ) :   0.9298 B(  1-C ,  2-C ) :   1.1079 B(  1-C ,  8-H ) :   0.9558
B(  2-C ,  3-C ) :   1.8335 B(  2-C ,  4-C ) :   0.9632 B(  3-C ,  5-C ) :   0.1112
B(  3-C ,  9-H ) :   0.9362 B(  3-C , 10-H ) :   0.9407 B(  4-C ,  5-C ) :   2.2821
B(  4-C , 11-H ) :  -0.1082 B(  5-C , 11-H ) :   1.0982

FINAL SINGLE POINT ENERGY      -231.651976978399

DIPOLE MOMENT
-------------
                                X             Y             Z
Electronic contribution:      1.92457      -0.63197       0.88866
Nuclear contribution   :     -2.01279       0.64029      -0.89776
                        -----------------------------------------
Total Dipole Moment    :     -0.08821       0.00832      -0.00910
                        -----------------------------------------
Magnitude (a.u.)       :      0.08907
Magnitude (Debye)      :      0.22640

                             ****ORCA TERMINATED NORMALLY****
TOTAL RUN TIME: 0 days 0 hours 0 minutes 5 seconds 361 msec
