                         Program Version 3.0.3 - RELEASE   -
|  1> ! RI PBE def2-SVP def2-SVP/J NBO PAL2
|  2> % maxcore 2000
|  3> % output
|  4>     # printlevel mini
|  5>     print[ P_Basis ] 0
|  6>     print[ P_SCFInfo ] 1
|  7>     print[ P_SCFIterInfo ] 1
|  8>     print[ P_OrbEn ] 0
|  9>     print[ P_Cartesian ] 0
| 10> end
| 11> *xyz 0 1
| 12>  C        0.9415380000    -0.2189150000     0.2638220000
| 13>  C        2.1270950000     0.2291130000    -0.1544670000
| 14>  C        2.8083000000     1.3339250000     0.4045140000
| 15>  C        3.4262890000     2.2729320000     0.8519150000
| 16>  C        4.1075430000     3.3777870000     1.4107460000
| 17>  C        5.2924200000     3.8266580000     0.9914410000
| 18>  H        0.4740030000    -1.0729770000    -0.2101040000
| 19>  H        0.4150880000     0.2545650000     1.0837970000
| 20>  H        2.6260680000    -0.2718990000    -0.9807160000
| 21>  H        3.6091620000     3.8781190000     2.2377630000
| 22>  H        5.8182350000     3.3539250000     0.1706280000
| 23>  H        5.7599570000     4.6807780000     1.4652610000
| 24> *
| 25>
| 26>                          ****END OF INPUT****
 Total Charge           Charge          ....    0
 Multiplicity           Mult            ....    1
 Number of Electrons    NEL             ....   42
 Basis Dimension        Dim             ....  114

MULLIKEN ATOMIC CHARGES
-----------------------
   0 C :   -0.009688
   1 C :   -0.085947
   2 C :   -0.006194
   3 C :   -0.006164
   4 C :   -0.085933
   5 C :   -0.009673
   6 H :    0.034825
   7 H :    0.034242
   8 H :    0.032745
   9 H :    0.032730
  10 H :    0.034227
  11 H :    0.034831
Sum of atomic charges:   -0.0000000

LOEWDIN ATOMIC CHARGES
----------------------
   0 C :   -0.021039
   1 C :   -0.046798
   2 C :   -0.035450
   3 C :   -0.035452
   4 C :   -0.046794
   5 C :   -0.021038
   6 H :    0.028725
   7 H :    0.030052
   8 H :    0.044511
   9 H :    0.044508
  10 H :    0.030049
  11 H :    0.028726

  Mayer bond orders larger than 0.1
B(  0-C ,  1-C ) :   1.8874 B(  0-C ,  3-C ) :   0.1148 B(  0-C ,  6-H ) :   0.9444
B(  0-C ,  7-H ) :   0.9550 B(  1-C ,  2-C ) :   1.0720 B(  1-C ,  8-H ) :   0.9496
B(  2-C ,  3-C ) :   2.3446 B(  2-C ,  5-C ) :   0.1148 B(  3-C ,  4-C ) :   1.0720
B(  4-C ,  5-C ) :   1.8874 B(  4-C ,  9-H ) :   0.9496 B(  5-C , 10-H ) :   0.9550
B(  5-C , 11-H ) :   0.9444

FINAL SINGLE POINT ENERGY      -231.660116879691

DIPOLE MOMENT
-------------
                                X             Y             Z
Electronic contribution:      0.00055      -0.00082       0.00107
Nuclear contribution   :     -0.00058       0.00088      -0.00116
                        -----------------------------------------
Total Dipole Moment    :     -0.00003       0.00006      -0.00009
                        -----------------------------------------
Magnitude (a.u.)       :      0.00011
Magnitude (Debye)      :      0.00028

                             ****ORCA TERMINATED NORMALLY****
TOTAL RUN TIME: 0 days 0 hours 0 minutes 5 seconds 155 msec
