                         Program Version 3.0.3 - RELEASE   -
|  1> ! RI PBE def2-SVP def2-SVP/J NBO PAL2
|  2> % maxcore 2000
|  3> % output
|  4>     # printlevel mini
|  5>     print[ P_Basis ] 0
|  6>     print[ P_SCFInfo ] 1
|  7>     print[ P_SCFIterInfo ] 1
|  8>     print[ P_OrbEn ] 0
|  9>     print[ P_Cartesian ] 0
| 10> end
| 11> *xyz 0 1
| 12>  C        1.0042700000    -0.0479140000     0.0549070000
| 13>  C        2.3343660000    -0.0177290000     0.1571670000
| 14>  C        3.0329830000     0.3293210000     1.3331850000
| 15>  C        3.6657250000     0.6218600000     2.3244910000
| 16>  C        4.3660970000     0.9517860000     3.4425090000
| 17>  C        4.9892700000     1.2441910000     4.4333820000
| 18>  H        0.5281970000    -0.3231610000    -0.8778100000
| 19>  H        0.3664380000     0.1999080000     0.8947040000
| 20>  H        2.9477120000    -0.2719390000    -0.7042800000
| 21>  H        5.5385330000     1.5021860000     5.3076450000
| 22> *
| 23>
| 24>                          ****END OF INPUT****
 Total Charge           Charge          ....    0
 Multiplicity           Mult            ....    1
 Number of Electrons    NEL             ....   40
 Basis Dimension        Dim             ....  104

MULLIKEN ATOMIC CHARGES
-----------------------
   0 C :   -0.004933
   1 C :   -0.094432
   2 C :   -0.022668
   3 C :    0.032612
   4 C :    0.357396
   5 C :   -0.411149
   6 H :    0.039668
   7 H :    0.044472
   8 H :    0.042254
   9 H :    0.016779
Sum of atomic charges:   -0.0000000

LOEWDIN ATOMIC CHARGES
----------------------
   0 C :   -0.010487
   1 C :   -0.046963
   2 C :    0.002689
   3 C :   -0.047405
   4 C :   -0.028994
   5 C :   -0.024488
   6 H :    0.031481
   7 H :    0.033898
   8 H :    0.049191
   9 H :    0.041078

  Mayer bond orders larger than 0.1
B(  0-C ,  1-C ) :   1.8927 B(  0-C ,  3-C ) :   0.1144 B(  0-C ,  6-H ) :   0.9422
B(  0-C ,  7-H ) :   0.9534 B(  1-C ,  2-C ) :   1.0824 B(  1-C ,  8-H ) :   0.9421
B(  2-C ,  3-C ) :   2.2280 B(  2-C ,  5-C ) :   0.2470 B(  3-C ,  4-C ) :   0.9628
B(  4-C ,  5-C ) :   2.1349 B(  4-C ,  9-H ) :  -0.1004 B(  5-C ,  9-H ) :   1.0896

FINAL SINGLE POINT ENERGY      -230.421425033552

DIPOLE MOMENT
-------------
                                X             Y             Z
Electronic contribution:      2.98025       0.78385       2.66114
Nuclear contribution   :     -3.15192      -0.84169      -2.85213
                        -----------------------------------------
Total Dipole Moment    :     -0.17168      -0.05784      -0.19099
                        -----------------------------------------
Magnitude (a.u.)       :      0.26324
Magnitude (Debye)      :      0.66911

                             ****ORCA TERMINATED NORMALLY****
TOTAL RUN TIME: 0 days 0 hours 0 minutes 5 seconds 72 msec
