                         Program Version 3.0.3 - RELEASE   -
|  1> ! RI PBE def2-SVP def2-SVP/J NBO PAL2
|  2> % maxcore 2000
|  3> % output
|  4>     # printlevel mini
|  5>     print[ P_Basis ] 0
|  6>     print[ P_SCFInfo ] 1
|  7>     print[ P_SCFIterInfo ] 1
|  8>     print[ P_OrbEn ] 0
|  9>     print[ P_Cartesian ] 0
| 10> end
| 11> *xyz 0 1
| 12>  C        1.0975380000    -0.4154070000     0.8576270000
| 13>  C        2.0718740000     0.0525710000     0.0902880000
| 14>  C        3.0710700000    -0.7840680000    -0.6361120000
| 15>  C        4.5123850000    -0.4815540000    -0.2111840000
| 16>  C        5.5162010000    -1.2566010000    -0.9971030000
| 17>  C        6.3913230000    -2.1112420000    -0.4863250000
| 18>  H        0.4043800000     0.2465820000     1.3637250000
| 19>  H        0.9558480000    -1.4820620000     1.0040700000
| 20>  H        2.1787450000     1.1306480000    -0.0258170000
| 21>  H        2.9804160000    -0.6019890000    -1.7148730000
| 22>  H        2.8563310000    -1.8449880000    -0.4774530000
| 23>  H        4.6319510000    -0.6893840000     0.8562180000
| 24>  H        4.6972360000     0.5921180000    -0.3459220000
| 25>  H        5.5020230000    -1.0989850000    -2.0751140000
| 26>  H        6.4387350000    -2.3014270000     0.5817830000
| 27>  H        7.0938350000    -2.6485320000    -1.1129260000
| 28> *
| 29>
| 30>                          ****END OF INPUT****
 Total Charge           Charge          ....    0
 Multiplicity           Mult            ....    1
 Number of Electrons    NEL             ....   46
 Basis Dimension        Dim             ....  134

MULLIKEN ATOMIC CHARGES
-----------------------
   0 C :   -0.036894
   1 C :   -0.075618
   2 C :    0.030140
   3 C :    0.028389
   4 C :   -0.073127
   5 C :   -0.037616
   6 H :    0.024199
   7 H :    0.016768
   8 H :    0.003517
   9 H :    0.025511
  10 H :    0.012446
  11 H :    0.013500
  12 H :    0.024656
  13 H :    0.003147
  14 H :    0.017143
  15 H :    0.023839
Sum of atomic charges:    0.0000000

LOEWDIN ATOMIC CHARGES
----------------------
   0 C :   -0.066792
   1 C :   -0.030017
   2 C :   -0.038636
   3 C :   -0.038806
   4 C :   -0.029391
   5 C :   -0.067358
   6 H :    0.024633
   7 H :    0.021774
   8 H :    0.024538
   9 H :    0.034549
  10 H :    0.030018
  11 H :    0.030233
  12 H :    0.034331
  13 H :    0.024514
  14 H :    0.021849
  15 H :    0.024562

  Mayer bond orders larger than 0.1
B(  0-C ,  1-C ) :   2.0184 B(  0-C ,  6-H ) :   0.9433 B(  0-C ,  7-H ) :   0.9488
B(  1-C ,  2-C ) :   1.0592 B(  1-C ,  8-H ) :   0.9512 B(  2-C ,  3-C ) :   1.0574
B(  2-C ,  9-H ) :   0.9146 B(  2-C , 10-H ) :   0.9362 B(  3-C ,  4-C ) :   1.0607
B(  3-C , 11-H ) :   0.9354 B(  3-C , 12-H ) :   0.9155 B(  4-C ,  5-C ) :   2.0185
B(  4-C , 13-H ) :   0.9503 B(  5-C , 14-H ) :   0.9483 B(  5-C , 15-H ) :   0.9432

FINAL SINGLE POINT ENERGY      -234.104950541553

DIPOLE MOMENT
-------------
                                X             Y             Z
Electronic contribution:      0.02709       0.38649      -0.37287
Nuclear contribution   :     -0.02290      -0.30523       0.29496
                        -----------------------------------------
Total Dipole Moment    :      0.00420       0.08126      -0.07791
                        -----------------------------------------
Magnitude (a.u.)       :      0.11265
Magnitude (Debye)      :      0.28634

                             ****ORCA TERMINATED NORMALLY****
TOTAL RUN TIME: 0 days 0 hours 0 minutes 6 seconds 50 msec
