                         Program Version 3.0.3 - RELEASE   -
|  1> ! RI PBE def2-SVP def2-SVP/J NBO PAL2
|  2> % maxcore 2000
|  3> % output
|  4>     # printlevel mini
|  5>     print[ P_Basis ] 0
|  6>     print[ P_SCFInfo ] 1
|  7>     print[ P_SCFIterInfo ] 1
|  8>     print[ P_OrbEn ] 0
|  9>     print[ P_Cartesian ] 0
| 10> end
| 11> *xyz 0 1
| 12>  C        1.6198990000    -1.0453200000     0.1231850000
| 13>  C        2.4433990000    -0.0849170000    -0.2718660000
| 14>  C        3.1244640000     0.8851000000     0.6344030000
| 15>  C        4.6536450000     0.7897730000     0.5335260000
| 16>  C        5.3356690000     1.7610240000     1.3711780000
| 17>  C        5.8780870000     2.5712880000     2.0717550000
| 18>  H        1.1539180000    -1.7210890000    -0.5845240000
| 19>  H        1.3775540000    -1.1867890000     1.1721820000
| 20>  H        2.6591880000     0.0202940000    -1.3345640000
| 21>  H        2.8163720000     0.7159640000     1.6692010000
| 22>  H        2.8272480000     1.9073650000     0.3757960000
| 23>  H        4.9628920000     0.9337940000    -0.5077290000
| 24>  H        4.9740750000    -0.2193210000     0.8125120000
| 25>  H        6.3646810000     3.2873340000     2.6905330000
| 26> *
| 27>
| 28>                          ****END OF INPUT****
 Total Charge           Charge          ....    0
 Multiplicity           Mult            ....    1
 Number of Electrons    NEL             ....   44
 Basis Dimension        Dim             ....  124

MULLIKEN ATOMIC CHARGES
-----------------------
   0 C :   -0.031084
   1 C :   -0.082821
   2 C :    0.037760
   3 C :    0.056854
   4 C :    0.343479
   5 C :   -0.501960
   6 H :    0.027196
   7 H :    0.018700
   8 H :    0.007055
   9 H :    0.019366
  10 H :    0.032536
  11 H :    0.036415
  12 H :    0.039370
  13 H :   -0.002865
Sum of atomic charges:   -0.0000000

LOEWDIN ATOMIC CHARGES
----------------------
   0 C :   -0.061309
   1 C :   -0.031901
   2 C :   -0.028517
   3 C :   -0.042021
   4 C :   -0.022164
   5 C :   -0.091400
   6 H :    0.025882
   7 H :    0.022804
   8 H :    0.025604
   9 H :    0.033151
  10 H :    0.039162
  11 H :    0.047627
  12 H :    0.049446
  13 H :    0.033636

  Mayer bond orders larger than 0.1
B(  0-C ,  1-C ) :   2.0195 B(  0-C ,  6-H ) :   0.9436 B(  0-C ,  7-H ) :   0.9491
B(  1-C ,  2-C ) :   1.0596 B(  1-C ,  8-H ) :   0.9501 B(  2-C ,  3-C ) :   1.0628
B(  2-C ,  9-H ) :   0.9370 B(  2-C , 10-H ) :   0.9168 B(  3-C ,  4-C ) :   1.0584
B(  3-C , 11-H ) :   0.9002 B(  3-C , 12-H ) :   0.9004 B(  4-C ,  5-C ) :   2.3317
B(  4-C , 13-H ) :  -0.1112 B(  5-C , 13-H ) :   1.1020

FINAL SINGLE POINT ENERGY      -232.862213271446

DIPOLE MOMENT
-------------
                                X             Y             Z
Electronic contribution:      2.93150       2.22560       1.24580
Nuclear contribution   :     -3.04116      -2.33304      -1.39741
                        -----------------------------------------
Total Dipole Moment    :     -0.10966      -0.10744      -0.15161
                        -----------------------------------------
Magnitude (a.u.)       :      0.21576
Magnitude (Debye)      :      0.54842

                             ****ORCA TERMINATED NORMALLY****
TOTAL RUN TIME: 0 days 0 hours 0 minutes 5 seconds 892 msec
