                         Program Version 3.0.3 - RELEASE   -
|  1> ! RI PBE def2-SVP def2-SVP/J NBO PAL2
|  2> % maxcore 2000
|  3> % output
|  4>     # printlevel mini
|  5>     print[ P_Basis ] 0
|  6>     print[ P_SCFInfo ] 1
|  7>     print[ P_SCFIterInfo ] 1
|  8>     print[ P_OrbEn ] 0
|  9>     print[ P_Cartesian ] 0
| 10> end
| 11> *xyz 0 1
| 12>  C        0.8940950000     0.0740680000     0.0698330000
| 13>  C        2.0975420000     0.0903380000     0.0397180000
| 14>  C        3.5090000000     0.0890970000     0.0420060000
| 15>  C        4.2538510000     0.6203900000    -0.9421030000
| 16>  C        5.6653040000     0.6191840000    -0.9398720000
| 17>  C        6.8687500000     0.6354930000    -0.9700830000
| 18>  H       -0.1700660000     0.0638000000     0.0888190000
| 19>  H        4.0001500000    -0.3711270000     0.8944720000
| 20>  H        3.7626550000     1.0806060000    -1.7945510000
| 21>  H        7.9329090000     0.6457800000    -0.9891390000
| 22> *
| 23>
| 24>                          ****END OF INPUT****
 Total Charge           Charge          ....    0
 Multiplicity           Mult            ....    1
 Number of Electrons    NEL             ....   40
 Basis Dimension        Dim             ....  104

MULLIKEN ATOMIC CHARGES
-----------------------
   0 C :   -0.396669
   1 C :    0.392740
   2 C :   -0.049388
   3 C :   -0.049404
   4 C :    0.392754
   5 C :   -0.396668
   6 H :    0.011362
   7 H :    0.041953
   8 H :    0.041958
   9 H :    0.011363
Sum of atomic charges:   -0.0000000

LOEWDIN ATOMIC CHARGES
----------------------
   0 C :   -0.048217
   1 C :   -0.019635
   2 C :   -0.021125
   3 C :   -0.021126
   4 C :   -0.019635
   5 C :   -0.048215
   6 H :    0.038183
   7 H :    0.050792
   8 H :    0.050795
   9 H :    0.038183

  Mayer bond orders larger than 0.1
B(  0-C ,  1-C ) :   2.2521 B(  0-C ,  3-C ) :   0.1200 B(  0-C ,  6-H ) :   1.0870
B(  1-C ,  2-C ) :   1.0592 B(  2-C ,  3-C ) :   1.7242 B(  2-C ,  5-C ) :   0.1200
B(  2-C ,  7-H ) :   0.9436 B(  3-C ,  4-C ) :   1.0592 B(  3-C ,  8-H ) :   0.9436
B(  4-C ,  5-C ) :   2.2521 B(  5-C ,  9-H ) :   1.0870

FINAL SINGLE POINT ENERGY      -230.410524289104

DIPOLE MOMENT
-------------
                                X             Y             Z
Electronic contribution:      0.00005      -0.00001       0.00005
Nuclear contribution   :     -0.00004       0.00001      -0.00006
                        -----------------------------------------
Total Dipole Moment    :      0.00001      -0.00000      -0.00001
                        -----------------------------------------
Magnitude (a.u.)       :      0.00001
Magnitude (Debye)      :      0.00004

                             ****ORCA TERMINATED NORMALLY****
TOTAL RUN TIME: 0 days 0 hours 0 minutes 4 seconds 399 msec
