                         Program Version 3.0.3 - RELEASE   -
|  1> ! RI PBE def2-SVP def2-SVP/J NBO PAL2
|  2> % maxcore 2000
|  3> % output
|  4>     # printlevel mini
|  5>     print[ P_Basis ] 0
|  6>     print[ P_SCFInfo ] 1
|  7>     print[ P_SCFIterInfo ] 1
|  8>     print[ P_OrbEn ] 0
|  9>     print[ P_Cartesian ] 0
| 10> end
| 11> *xyz 0 1
| 12>  C        1.0347660000     0.0719000000    -0.0473000000
| 13>  C        2.2417710000     0.0719000000    -0.0473000000
| 14>  C        3.5969780000     0.0719000000    -0.0473000000
| 15>  C        4.8114440000     0.0719000000    -0.0473000000
| 16>  C        6.1666520000     0.0719000000    -0.0473000000
| 17>  C        7.3736570000     0.0719000000    -0.0473000000
| 18>  H       -0.0296840000     0.0719000000    -0.0473000000
| 19>  H        8.4381070000     0.0719000000    -0.0473000000
| 20> *
| 21>
| 22>                          ****END OF INPUT****
 Total Charge           Charge          ....    0
 Multiplicity           Mult            ....    1
 Number of Electrons    NEL             ....   38
 Basis Dimension        Dim             ....   94

MULLIKEN ATOMIC CHARGES
-----------------------
   0 C :   -0.409644
   1 C :    0.371024
   2 C :    0.017888
   3 C :    0.017889
   4 C :    0.371025
   5 C :   -0.409645
   6 H :    0.020732
   7 H :    0.020732
Sum of atomic charges:   -0.0000000

LOEWDIN ATOMIC CHARGES
----------------------
   0 C :   -0.003088
   1 C :   -0.028060
   2 C :   -0.012416
   3 C :   -0.012416
   4 C :   -0.028060
   5 C :   -0.003088
   6 H :    0.043564
   7 H :    0.043564

  Mayer bond orders larger than 0.1
B(  0-C ,  1-C ) :   2.0907 B(  0-C ,  3-C ) :   0.2282 B(  0-C ,  5-C ) :   0.1081
B(  0-C ,  6-H ) :   1.0974 B(  1-C ,  2-C ) :   0.9696 B(  1-C ,  6-H ) :  -0.1082
B(  2-C ,  3-C ) :   2.1411 B(  2-C ,  5-C ) :   0.2282 B(  3-C ,  4-C ) :   0.9696
B(  4-C ,  5-C ) :   2.0907 B(  4-C ,  7-H ) :  -0.1082 B(  5-C ,  7-H ) :   1.0974

FINAL SINGLE POINT ENERGY      -229.183069944747

DIPOLE MOMENT
-------------
                                X             Y             Z
Electronic contribution:     -0.00000      -0.00000       0.00000
Nuclear contribution   :      0.00000       0.00000       0.00000
                        -----------------------------------------
Total Dipole Moment    :     -0.00000      -0.00000       0.00000
                        -----------------------------------------
Magnitude (a.u.)       :      0.00000
Magnitude (Debye)      :      0.00000

                             ****ORCA TERMINATED NORMALLY****
TOTAL RUN TIME: 0 days 0 hours 0 minutes 3 seconds 938 msec
