                         Program Version 3.0.3 - RELEASE   -
|  1> ! RI PBE def2-SVP def2-SVP/J NBO PAL2
|  2> % maxcore 2000
|  3> % output
|  4>     # printlevel mini
|  5>     print[ P_Basis ] 0
|  6>     print[ P_SCFInfo ] 1
|  7>     print[ P_SCFIterInfo ] 1
|  8>     print[ P_OrbEn ] 0
|  9>     print[ P_Cartesian ] 0
| 10> end
| 11> *xyz 0 1
| 12>  C        0.8955390000    -0.0643290000     0.0682540000
| 13>  C        2.0958110000    -0.0772860000     0.0668610000
| 14>  C        3.5478100000    -0.0624000000     0.0702930000
| 15>  C        4.1118610000     1.3453930000     0.3239020000
| 16>  C        5.5638730000     1.3602750000     0.3273330000
| 17>  C        6.7641540000     1.3477090000     0.3257430000
| 18>  H       -0.1687360000    -0.0616360000     0.0684290000
| 19>  H        3.9228850000    -0.4349150000    -0.8873300000
| 20>  H        3.9219770000    -0.7454360000     0.8383750000
| 21>  H        3.7367930000     1.7179090000     1.2815270000
| 22>  H        3.7376940000     2.0284320000    -0.4441770000
| 23>  H        7.8284300000     1.3450230000     0.3255920000
| 24> *
| 25>
| 26>                          ****END OF INPUT****
 Total Charge           Charge          ....    0
 Multiplicity           Mult            ....    1
 Number of Electrons    NEL             ....   42
 Basis Dimension        Dim             ....  114

MULLIKEN ATOMIC CHARGES
-----------------------
   0 C :   -0.497462
   1 C :    0.349499
   2 C :    0.048773
   3 C :    0.048768
   4 C :    0.349544
   5 C :   -0.497499
   6 H :   -0.000486
   7 H :    0.047517
   8 H :    0.052152
   9 H :    0.047513
  10 H :    0.052165
  11 H :   -0.000484
Sum of atomic charges:   -0.0000000

LOEWDIN ATOMIC CHARGES
----------------------
   0 C :   -0.083066
   1 C :   -0.024780
   2 C :   -0.034366
   3 C :   -0.034359
   4 C :   -0.024783
   5 C :   -0.083061
   6 H :    0.034678
   7 H :    0.053272
   8 H :    0.054256
   9 H :    0.053272
  10 H :    0.054260
  11 H :    0.034679

  Mayer bond orders larger than 0.1
B(  0-C ,  1-C ) :   2.3309 B(  0-C ,  6-H ) :   1.1035 B(  1-C ,  2-C ) :   1.0651
B(  1-C ,  6-H ) :  -0.1125 B(  2-C ,  3-C ) :   1.0756 B(  2-C ,  7-H ) :   0.8985
B(  2-C ,  8-H ) :   0.8971 B(  3-C ,  4-C ) :   1.0651 B(  3-C ,  9-H ) :   0.8985
B(  3-C , 10-H ) :   0.8972 B(  4-C ,  5-C ) :   2.3308 B(  4-C , 11-H ) :  -0.1125
B(  5-C , 11-H ) :   1.1035

FINAL SINGLE POINT ENERGY      -231.619305764566

DIPOLE MOMENT
-------------
                                X             Y             Z
Electronic contribution:      0.00002      -0.00003      -0.00000
Nuclear contribution   :     -0.00000       0.00001       0.00003
                        -----------------------------------------
Total Dipole Moment    :      0.00001      -0.00002       0.00002
                        -----------------------------------------
Magnitude (a.u.)       :      0.00003
Magnitude (Debye)      :      0.00008

                             ****ORCA TERMINATED NORMALLY****
TOTAL RUN TIME: 0 days 0 hours 0 minutes 5 seconds 293 msec
