                         Program Version 3.0.3 - RELEASE   -
|  1> ! RI PBE def2-SVP def2-SVP/J NBO PAL2
|  2> % maxcore 2000
|  3> % output
|  4>     # printlevel mini
|  5>     print[ P_Basis ] 0
|  6>     print[ P_SCFInfo ] 1
|  7>     print[ P_SCFIterInfo ] 1
|  8>     print[ P_OrbEn ] 0
|  9>     print[ P_Cartesian ] 0
| 10> end
| 11> *xyz 0 1
| 12>  C        0.8639050000    -0.0141350000    -0.3170610000
| 13>  C        2.3351630000     0.0341510000    -0.1033940000
| 14>  C        3.0210640000     0.6412720000     0.8775140000
| 15>  C        2.3931850000     1.4193630000     1.9903520000
| 16>  C        4.4770010000     0.5400240000     0.8643200000
| 17>  C        5.3124040000     1.0768270000     1.7536250000
| 18>  H        0.5101550000    -1.0506310000    -0.3266630000
| 19>  H        0.6026520000     0.4078780000    -1.2933900000
| 20>  H        0.2987420000     0.5250670000     0.4423680000
| 21>  H        2.9238340000    -0.4979310000    -0.8491630000
| 22>  H        1.3072350000     1.4437530000     1.9226660000
| 23>  H        2.7540240000     2.4522510000     1.9903710000
| 24>  H        2.6607400000     0.9897360000     2.9603520000
| 25>  H        4.8937590000    -0.0338460000     0.0390790000
| 26>  H        4.9627530000     1.6593350000     2.5983260000
| 27>  H        6.3836830000     0.9469880000     1.6604990000
| 28> *
| 29>
| 30>                          ****END OF INPUT****
 Total Charge           Charge          ....    0
 Multiplicity           Mult            ....    1
 Number of Electrons    NEL             ....   46
 Basis Dimension        Dim             ....  134

MULLIKEN ATOMIC CHARGES
-----------------------
   0 C :    0.057324
   1 C :   -0.155579
   2 C :   -0.062994
   3 C :    0.051917
   4 C :   -0.010755
   5 C :   -0.049034
   6 H :    0.032856
   7 H :    0.031840
   8 H :    0.017753
   9 H :   -0.009417
  10 H :    0.011216
  11 H :    0.035927
  12 H :    0.031594
  13 H :   -0.018984
  14 H :    0.012097
  15 H :    0.024238
Sum of atomic charges:   -0.0000000

LOEWDIN ATOMIC CHARGES
----------------------
   0 C :   -0.066693
   1 C :   -0.035691
   2 C :   -0.047074
   3 C :   -0.058272
   4 C :   -0.027162
   5 C :   -0.071644
   6 H :    0.039698
   7 H :    0.039683
   8 H :    0.028464
   9 H :    0.022944
  10 H :    0.028106
  11 H :    0.038696
  12 H :    0.037540
  13 H :    0.026833
  14 H :    0.019382
  15 H :    0.025190

  Mayer bond orders larger than 0.1
B(  0-C ,  1-C ) :   1.0934 B(  0-C ,  6-H ) :   0.9399 B(  0-C ,  7-H ) :   0.9385
B(  0-C ,  8-H ) :   0.9529 B(  1-C ,  2-C ) :   1.7821 B(  1-C ,  5-C ) :   0.1330
B(  1-C ,  9-H ) :   0.9431 B(  2-C ,  3-C ) :   1.1193 B(  2-C ,  4-C ) :   1.1242
B(  3-C , 10-H ) :   0.9421 B(  3-C , 11-H ) :   0.9311 B(  3-C , 12-H ) :   0.9325
B(  4-C ,  5-C ) :   1.8978 B(  4-C , 13-H ) :   0.9553 B(  5-C , 14-H ) :   0.9310
B(  5-C , 15-H ) :   0.9410

FINAL SINGLE POINT ENERGY      -234.122110217216

DIPOLE MOMENT
-------------
                                X             Y             Z
Electronic contribution:      2.47208      -0.58650      -0.64679
Nuclear contribution   :     -2.77668       0.55976       0.57794
                        -----------------------------------------
Total Dipole Moment    :     -0.30460      -0.02674      -0.06886
                        -----------------------------------------
Magnitude (a.u.)       :      0.31342
Magnitude (Debye)      :      0.79666

                             ****ORCA TERMINATED NORMALLY****
TOTAL RUN TIME: 0 days 0 hours 0 minutes 6 seconds 684 msec
