                         Program Version 3.0.3 - RELEASE   -
|  1> ! RI PBE def2-SVP def2-SVP/J NBO PAL2
|  2> % maxcore 2000
|  3> % output
|  4>     # printlevel mini
|  5>     print[ P_Basis ] 0
|  6>     print[ P_SCFInfo ] 1
|  7>     print[ P_SCFIterInfo ] 1
|  8>     print[ P_OrbEn ] 0
|  9>     print[ P_Cartesian ] 0
| 10> end
| 11> *xyz 0 1
| 12>  C        1.0471650000    -0.1820970000    -0.1690010000
| 13>  C        2.5348180000    -0.0763360000    -0.0646500000
| 14>  C        3.2033400000     0.7504580000     0.7511080000
| 15>  C        2.5476110000     1.7112200000     1.6990460000
| 16>  C        4.6284650000     0.7509310000     0.7515750000
| 17>  C        5.8313030000     0.7867730000     0.7869400000
| 18>  H        0.7623990000    -0.9311080000    -0.9080150000
| 19>  H        0.5904800000     0.7658980000    -0.4695900000
| 20>  H        0.5904790000    -0.4699230000     0.7829470000
| 21>  H        3.1243540000    -0.7250760000    -0.7047320000
| 22>  H        1.4609590000     1.6550050000     1.6435810000
| 23>  H        2.8542530000     2.7370600000     1.4774140000
| 24>  H        2.8542530000     1.5033920000     2.7277710000
| 25>  H        6.8949420000     0.8071330000     0.8070280000
| 26> *
| 27>
| 28>                          ****END OF INPUT****
 Total Charge           Charge          ....    0
 Multiplicity           Mult            ....    1
 Number of Electrons    NEL             ....   44
 Basis Dimension        Dim             ....  124

MULLIKEN ATOMIC CHARGES
-----------------------
   0 C :    0.016207
   1 C :   -0.085162
   2 C :   -0.162044
   3 C :    0.061711
   4 C :    0.398933
   5 C :   -0.451434
   6 H :    0.027477
   7 H :    0.046055
   8 H :    0.046084
   9 H :    0.002627
  10 H :    0.019799
  11 H :    0.040137
  12 H :    0.040431
  13 H :   -0.000822
Sum of atomic charges:    0.0000000

LOEWDIN ATOMIC CHARGES
----------------------
   0 C :   -0.073962
   1 C :   -0.021762
   2 C :   -0.062593
   3 C :   -0.049930
   4 C :   -0.009423
   5 C :   -0.080689
   6 H :    0.035823
   7 H :    0.040863
   8 H :    0.040863
   9 H :    0.030630
  10 H :    0.030734
  11 H :    0.042961
  12 H :    0.043012
  13 H :    0.033474

  Mayer bond orders larger than 0.1
B(  0-C ,  1-C ) :   1.0753 B(  0-C ,  6-H ) :   0.9529 B(  0-C ,  7-H ) :   0.9481
B(  0-C ,  8-H ) :   0.9481 B(  1-C ,  2-C ) :   1.8255 B(  1-C ,  5-C ) :   0.1240
B(  1-C ,  9-H ) :   0.9447 B(  2-C ,  3-C ) :   1.0868 B(  2-C ,  4-C ) :   1.0342
B(  3-C , 10-H ) :   0.9420 B(  3-C , 11-H ) :   0.9434 B(  3-C , 12-H ) :   0.9434
B(  4-C ,  5-C ) :   2.2737 B(  4-C , 13-H ) :  -0.1053 B(  5-C , 13-H ) :   1.0962

FINAL SINGLE POINT ENERGY      -232.874334824908

DIPOLE MOMENT
-------------
                                X             Y             Z
Electronic contribution:      5.72826      -0.27709      -0.27320
Nuclear contribution   :     -6.12415       0.29907       0.29507
                        -----------------------------------------
Total Dipole Moment    :     -0.39589       0.02198       0.02187
                        -----------------------------------------
Magnitude (a.u.)       :      0.39711
Magnitude (Debye)      :      1.00936

                             ****ORCA TERMINATED NORMALLY****
TOTAL RUN TIME: 0 days 0 hours 0 minutes 5 seconds 587 msec
