                         Program Version 3.0.3 - RELEASE   -
|  1> ! RI PBE def2-SVP def2-SVP/J NBO PAL2
|  2> % maxcore 2000
|  3> % output
|  4>     # printlevel mini
|  5>     print[ P_Basis ] 0
|  6>     print[ P_SCFInfo ] 1
|  7>     print[ P_SCFIterInfo ] 1
|  8>     print[ P_OrbEn ] 0
|  9>     print[ P_Cartesian ] 0
| 10> end
| 11> *xyz 0 1
| 12>  C        0.7629860000     0.2109220000    -0.0459540000
| 13>  C        2.2484110000     0.2590380000    -0.1167430000
| 14>  C        3.0638310000     0.3810070000     0.9333740000
| 15>  C        4.5073040000     0.4263670000     0.8489000000
| 16>  C        5.3227270000     0.5483110000     1.8990180000
| 17>  C        6.8081530000     0.5963810000     1.8282300000
| 18>  H        0.3756440000    -0.7215410000    -0.4701920000
| 19>  H        0.3117630000     1.0246840000    -0.6236080000
| 20>  H        0.4094770000     0.2884820000     0.9841070000
| 21>  H        2.6917950000     0.1881610000    -1.1091830000
| 22>  H        2.6318170000     0.4527740000     1.9311400000
| 23>  H        4.9393170000     0.3546170000    -0.1488680000
| 24>  H        4.8793450000     0.6191850000     2.8914590000
| 25>  H        7.1616530000     0.5190170000     0.7981500000
| 26>  H        7.2593420000    -0.2175280000     2.4057060000
| 27>  H        7.1955430000     1.5287330000     2.2526650000
| 28> *
| 29>
| 30>                          ****END OF INPUT****
 Total Charge           Charge          ....    0
 Multiplicity           Mult            ....    1
 Number of Electrons    NEL             ....   46
 Basis Dimension        Dim             ....  134

MULLIKEN ATOMIC CHARGES
-----------------------
   0 C :    0.049773
   1 C :   -0.120241
   2 C :    0.019280
   3 C :    0.019281
   4 C :   -0.120240
   5 C :    0.049768
   6 H :    0.031929
   7 H :    0.034176
   8 H :    0.015523
   9 H :   -0.008083
  10 H :   -0.022355
  11 H :   -0.022356
  12 H :   -0.008083
  13 H :    0.015523
  14 H :    0.034180
  15 H :    0.031927
Sum of atomic charges:   -0.0000000

LOEWDIN ATOMIC CHARGES
----------------------
   0 C :   -0.064336
   1 C :   -0.039096
   2 C :   -0.046246
   3 C :   -0.046246
   4 C :   -0.039097
   5 C :   -0.064336
   6 H :    0.036868
   7 H :    0.037385
   8 H :    0.030057
   9 H :    0.021337
  10 H :    0.024031
  11 H :    0.024031
  12 H :    0.021337
  13 H :    0.030057
  14 H :    0.037387
  15 H :    0.036867

  Mayer bond orders larger than 0.1
B(  0-C ,  1-C ) :   1.0817 B(  0-C ,  6-H ) :   0.9449 B(  0-C ,  7-H ) :   0.9450
B(  0-C ,  8-H ) :   0.9605 B(  1-C ,  2-C ) :   1.7924 B(  1-C ,  4-C ) :   0.1327
B(  1-C ,  9-H ) :   0.9579 B(  2-C ,  3-C ) :   1.1379 B(  2-C , 10-H ) :   0.9632
B(  3-C ,  4-C ) :   1.7924 B(  3-C , 11-H ) :   0.9632 B(  4-C ,  5-C ) :   1.0817
B(  4-C , 12-H ) :   0.9579 B(  5-C , 13-H ) :   0.9605 B(  5-C , 14-H ) :   0.9450
B(  5-C , 15-H ) :   0.9449

FINAL SINGLE POINT ENERGY      -234.126315001001

DIPOLE MOMENT
-------------
                                X             Y             Z
Electronic contribution:     -0.00001       0.00008       0.00000
Nuclear contribution   :      0.00001      -0.00010       0.00000
                        -----------------------------------------
Total Dipole Moment    :      0.00000      -0.00002       0.00000
                        -----------------------------------------
Magnitude (a.u.)       :      0.00002
Magnitude (Debye)      :      0.00006

                             ****ORCA TERMINATED NORMALLY****
TOTAL RUN TIME: 0 days 0 hours 0 minutes 6 seconds 16 msec
