                         Program Version 3.0.3 - RELEASE   -
|  1> ! RI PBE def2-SVP def2-SVP/J NBO PAL2
|  2> % maxcore 2000
|  3> % output
|  4>     # printlevel mini
|  5>     print[ P_Basis ] 0
|  6>     print[ P_SCFInfo ] 1
|  7>     print[ P_SCFIterInfo ] 1
|  8>     print[ P_OrbEn ] 0
|  9>     print[ P_Cartesian ] 0
| 10> end
| 11> *xyz 0 1
| 12>  C        0.9128990000    -0.2198330000    -0.5223810000
| 13>  C        2.3955560000    -0.3017350000    -0.6551760000
| 14>  C        3.2069100000    -0.9293170000     0.1873260000
| 15>  C        4.6964290000    -1.0167790000     0.0620020000
| 16>  C        5.3816320000    -0.3609490000     1.2586480000
| 17>  C        5.1448750000    -2.4690770000    -0.0839940000
| 18>  H        0.5775850000     0.8202570000    -0.4557440000
| 19>  H        0.5632750000    -0.7471760000     0.3675250000
| 20>  H        0.4121350000    -0.6535000000    -1.3940650000
| 21>  H        2.8325880000     0.1992580000    -1.5189990000
| 22>  H        2.7757590000    -1.4332940000     1.0548100000
| 23>  H        4.9895900000    -0.4727480000    -0.8438970000
| 24>  H        5.1007180000    -0.8645010000     2.1889300000
| 25>  H        5.1002760000     0.6902540000     1.3497440000
| 26>  H        6.4696010000    -0.4185360000     1.1659870000
| 27>  H        4.8548620000    -3.0535570000     0.7947420000
| 28>  H        6.2319610000    -2.5345380000    -0.1816580000
| 29>  H        4.6928570000    -2.9375290000    -0.9607600000
| 30> *
| 31>
| 32>                          ****END OF INPUT****
 Total Charge           Charge          ....    0
 Multiplicity           Mult            ....    1
 Number of Electrons    NEL             ....   48
 Basis Dimension        Dim             ....  144

MULLIKEN ATOMIC CHARGES
-----------------------
   0 C :    0.041360
   1 C :   -0.109824
   2 C :   -0.015010
   3 C :   -0.090525
   4 C :    0.008571
   5 C :    0.012886
   6 H :    0.029004
   7 H :    0.017624
   8 H :    0.030068
   9 H :   -0.009826
  10 H :   -0.020893
  11 H :   -0.002237
  12 H :    0.012075
  13 H :    0.023538
  14 H :    0.020934
  15 H :    0.014515
  16 H :    0.019139
  17 H :    0.018602
Sum of atomic charges:   -0.0000000

LOEWDIN ATOMIC CHARGES
----------------------
   0 C :   -0.065291
   1 C :   -0.050865
   2 C :   -0.036759
   3 C :   -0.047232
   4 C :   -0.057245
   5 C :   -0.056537
   6 H :    0.034752
   7 H :    0.029947
   8 H :    0.035177
   9 H :    0.020301
  10 H :    0.018091
  11 H :    0.026305
  12 H :    0.023263
  13 H :    0.026777
  14 H :    0.025127
  15 H :    0.023450
  16 H :    0.024941
  17 H :    0.025796

  Mayer bond orders larger than 0.1
B(  0-C ,  1-C ) :   1.0827 B(  0-C ,  6-H ) :   0.9481 B(  0-C ,  7-H ) :   0.9613
B(  0-C ,  8-H ) :   0.9478 B(  1-C ,  2-C ) :   1.9291 B(  1-C ,  9-H ) :   0.9516
B(  2-C ,  3-C ) :   1.0271 B(  2-C , 10-H ) :   0.9462 B(  3-C ,  4-C ) :   1.0669
B(  3-C ,  5-C ) :   1.0647 B(  3-C , 11-H ) :   0.9131 B(  4-C , 12-H ) :   0.9625
B(  4-C , 13-H ) :   0.9618 B(  4-C , 14-H ) :   0.9596 B(  5-C , 15-H ) :   0.9631
B(  5-C , 16-H ) :   0.9594 B(  5-C , 17-H ) :   0.9620

FINAL SINGLE POINT ENERGY      -235.335557638450

DIPOLE MOMENT
-------------
                                X             Y             Z
Electronic contribution:     -0.93373       0.68042      -0.89897
Nuclear contribution   :      0.90344      -0.65089       0.86260
                        -----------------------------------------
Total Dipole Moment    :     -0.03029       0.02953      -0.03637
                        -----------------------------------------
Magnitude (a.u.)       :      0.05579
Magnitude (Debye)      :      0.14181

                             ****ORCA TERMINATED NORMALLY****
TOTAL RUN TIME: 0 days 0 hours 0 minutes 6 seconds 886 msec
