                         Program Version 3.0.3 - RELEASE   -
|  1> ! RI PBE def2-SVP def2-SVP/J NBO PAL2
|  2> % maxcore 2000
|  3> % output
|  4>     # printlevel mini
|  5>     print[ P_Basis ] 0
|  6>     print[ P_SCFInfo ] 1
|  7>     print[ P_SCFIterInfo ] 1
|  8>     print[ P_OrbEn ] 0
|  9>     print[ P_Cartesian ] 0
| 10> end
| 11> *xyz 0 1
| 12>  C        0.9408210000    -0.0990580000     0.1017680000
| 13>  C        2.4013600000    -0.0973050000     0.3886800000
| 14>  C        3.2852820000    -0.9264040000    -0.1695360000
| 15>  C        4.7194940000    -0.9491170000     0.0906260000
| 16>  C        5.2914410000     0.0316060000     1.0669580000
| 17>  C        5.4964900000    -1.8361870000    -0.5396050000
| 18>  H        0.6140490000     0.8701880000    -0.2893420000
| 19>  H        0.3596460000    -0.2771970000     1.0126370000
| 20>  H        0.6765910000    -0.8675920000    -0.6271520000
| 21>  H        2.7492190000     0.6411950000     1.1076780000
| 22>  H        2.9271580000    -1.6621660000    -0.8881200000
| 23>  H        4.8415530000    -0.0901320000     2.0568080000
| 24>  H        5.0967030000     1.0608640000     0.7511590000
| 25>  H        6.3695590000    -0.0982900000     1.1631310000
| 26>  H        5.0800350000    -2.5456550000    -1.2464170000
| 27>  H        6.5657970000    -1.8782400000    -0.3677710000
| 28> *
| 29>
| 30>                          ****END OF INPUT****
 Total Charge           Charge          ....    0
 Multiplicity           Mult            ....    1
 Number of Electrons    NEL             ....   46
 Basis Dimension        Dim             ....  134

MULLIKEN ATOMIC CHARGES
-----------------------
   0 C :    0.049003
   1 C :   -0.125579
   2 C :    0.022761
   3 C :   -0.111720
   4 C :    0.059722
   5 C :   -0.057101
   6 H :    0.031849
   7 H :    0.033894
   8 H :    0.022366
   9 H :   -0.003452
  10 H :   -0.028875
  11 H :    0.034687
  12 H :    0.033138
  13 H :    0.016096
  14 H :    0.010912
  15 H :    0.012300
Sum of atomic charges:   -0.0000000

LOEWDIN ATOMIC CHARGES
----------------------
   0 C :   -0.063379
   1 C :   -0.037728
   2 C :   -0.043319
   3 C :   -0.031505
   4 C :   -0.057049
   5 C :   -0.065857
   6 H :    0.037521
   7 H :    0.038099
   8 H :    0.031193
   9 H :    0.021775
  10 H :    0.025002
  11 H :    0.036822
  12 H :    0.036263
  13 H :    0.032160
  14 H :    0.019972
  15 H :    0.020031

  Mayer bond orders larger than 0.1
B(  0-C ,  1-C ) :   1.0876 B(  0-C ,  6-H ) :   0.9437 B(  0-C ,  7-H ) :   0.9435
B(  0-C ,  8-H ) :   0.9613 B(  1-C ,  2-C ) :   1.8052 B(  1-C ,  5-C ) :   0.1337
B(  1-C ,  9-H ) :   0.9414 B(  2-C ,  3-C ) :   1.1230 B(  2-C , 10-H ) :   0.9595
B(  3-C ,  4-C ) :   1.1035 B(  3-C ,  5-C ) :   1.8758 B(  4-C , 11-H ) :   0.9336
B(  4-C , 12-H ) :   0.9352 B(  4-C , 13-H ) :   0.9461 B(  5-C , 14-H ) :   0.9419
B(  5-C , 15-H ) :   0.9313

FINAL SINGLE POINT ENERGY      -234.123931052807

DIPOLE MOMENT
-------------
                                X             Y             Z
Electronic contribution:      1.14264      -1.15298      -0.78372
Nuclear contribution   :     -1.32608       1.32820       0.91177
                        -----------------------------------------
Total Dipole Moment    :     -0.18344       0.17522       0.12806
                        -----------------------------------------
Magnitude (a.u.)       :      0.28417
Magnitude (Debye)      :      0.72231

                             ****ORCA TERMINATED NORMALLY****
TOTAL RUN TIME: 0 days 0 hours 0 minutes 6 seconds 632 msec
