                         Program Version 3.0.3 - RELEASE   -
|  1> ! RI PBE def2-SVP def2-SVP/J NBO PAL2
|  2> % maxcore 2000
|  3> % output
|  4>     # printlevel mini
|  5>     print[ P_Basis ] 0
|  6>     print[ P_SCFInfo ] 1
|  7>     print[ P_SCFIterInfo ] 1
|  8>     print[ P_OrbEn ] 0
|  9>     print[ P_Cartesian ] 0
| 10> end
| 11> *xyz 0 1
| 12>  C        0.9757680000     0.0644410000     0.0075750000
| 13>  C        2.4622380000     0.0591010000     0.0074210000
| 14>  C        3.2189820000     0.4264930000     1.0450110000
| 15>  C        4.6362410000     0.4236500000     1.0508150000
| 16>  C        5.8413750000     0.4348370000     1.0938410000
| 17>  C        7.2900730000     0.4438800000     1.1335110000
| 18>  H        0.5850150000     0.7157560000    -0.7812480000
| 19>  H        0.5751460000     0.4065960000     0.9636400000
| 20>  H        0.5791380000    -0.9364610000    -0.1924360000
| 21>  H        2.9570230000    -0.2676720000    -0.9039580000
| 22>  H        2.7334620000     0.7554100000     1.9625040000
| 23>  H        7.7015420000     1.0753850000     0.3413790000
| 24>  H        7.6938250000    -0.5635350000     1.0001910000
| 25>  H        7.6538220000     0.8266800000     2.0904130000
| 26> *
| 27>
| 28>                          ****END OF INPUT****
 Total Charge           Charge          ....    0
 Multiplicity           Mult            ....    1
 Number of Electrons    NEL             ....   44
 Basis Dimension        Dim             ....  124

MULLIKEN ATOMIC CHARGES
-----------------------
   0 C :    0.034388
   1 C :   -0.086455
   2 C :   -0.072857
   3 C :   -0.017659
   4 C :   -0.169552
   5 C :    0.054964
   6 H :    0.038495
   7 H :    0.020572
   8 H :    0.036450
   9 H :    0.005119
  10 H :    0.013621
  11 H :    0.049624
  12 H :    0.047192
  13 H :    0.046098
Sum of atomic charges:   -0.0000000

LOEWDIN ATOMIC CHARGES
----------------------
   0 C :   -0.064394
   1 C :   -0.014977
   2 C :   -0.064334
   3 C :   -0.062394
   4 C :   -0.053690
   5 C :   -0.067486
   6 H :    0.039641
   7 H :    0.031499
   8 H :    0.039152
   9 H :    0.028050
  10 H :    0.036898
  11 H :    0.051141
  12 H :    0.050688
  13 H :    0.050206

  Mayer bond orders larger than 0.1
B(  0-C ,  1-C ) :   1.0879 B(  0-C ,  6-H ) :   0.9453 B(  0-C ,  7-H ) :   0.9590
B(  0-C ,  8-H ) :   0.9453 B(  1-C ,  2-C ) :   1.8318 B(  1-C ,  4-C ) :   0.1218
B(  1-C ,  9-H ) :   0.9580 B(  2-C ,  3-C ) :   1.0527 B(  2-C , 10-H ) :   0.9364
B(  3-C ,  4-C ) :   2.4523 B(  4-C ,  5-C ) :   1.1310 B(  5-C , 11-H ) :   0.9317
B(  5-C , 12-H ) :   0.9313 B(  5-C , 13-H ) :   0.9337

FINAL SINGLE POINT ENERGY      -232.886093257075

DIPOLE MOMENT
-------------
                                X             Y             Z
Electronic contribution:      1.80704       0.35365       1.00807
Nuclear contribution   :     -1.76115      -0.38620      -1.10005
                        -----------------------------------------
Total Dipole Moment    :      0.04589      -0.03255      -0.09198
                        -----------------------------------------
Magnitude (a.u.)       :      0.10782
Magnitude (Debye)      :      0.27407

                             ****ORCA TERMINATED NORMALLY****
TOTAL RUN TIME: 0 days 0 hours 0 minutes 5 seconds 326 msec
