                         Program Version 3.0.3 - RELEASE   -
|  1> ! RI PBE def2-SVP def2-SVP/J NBO PAL2
|  2> % maxcore 2000
|  3> % output
|  4>     # printlevel mini
|  5>     print[ P_Basis ] 0
|  6>     print[ P_SCFInfo ] 1
|  7>     print[ P_SCFIterInfo ] 1
|  8>     print[ P_OrbEn ] 0
|  9>     print[ P_Cartesian ] 0
| 10> end
| 11> *xyz 0 1
| 12>  C        0.6736200000     0.2411030000     0.0421900000
| 13>  C        2.1562300000     0.3612630000     0.1320510000
| 14>  C        3.0125000000    -0.0192760000    -0.8084150000
| 15>  C        4.5026570000     0.1083780000    -0.7172110000
| 16>  C        5.0629220000     0.9918710000    -1.7895820000
| 17>  C        5.9300650000     0.6078080000    -2.7156140000
| 18>  H        0.2775430000    -0.3808780000     0.8514220000
| 19>  H        0.3661020000    -0.2000560000    -0.9079390000
| 20>  H        0.1914030000     1.2195190000     0.1358880000
| 21>  H        2.5528430000     0.7942930000     1.0502540000
| 22>  H        2.6273090000    -0.4479980000    -1.7330680000
| 23>  H        4.9692970000    -0.8807010000    -0.7931600000
| 24>  H        4.7648300000     0.5137140000     0.2670810000
| 25>  H        4.7001340000     2.0181300000    -1.7913980000
| 26>  H        6.3087800000    -0.4095190000    -2.7483520000
| 27>  H        6.2961550000     1.2934610000    -3.4710560000
| 28> *
| 29>
| 30>                          ****END OF INPUT****
 Total Charge           Charge          ....    0
 Multiplicity           Mult            ....    1
 Number of Electrons    NEL             ....   46
 Basis Dimension        Dim             ....  134

MULLIKEN ATOMIC CHARGES
-----------------------
   0 C :    0.040881
   1 C :   -0.103043
   2 C :   -0.071119
   3 C :    0.123363
   4 C :   -0.089572
   5 C :   -0.036569
   6 H :    0.032794
   7 H :    0.019118
   8 H :    0.031140
   9 H :   -0.008430
  10 H :   -0.008423
  11 H :    0.011311
  12 H :    0.012421
  13 H :    0.005138
  14 H :    0.015857
  15 H :    0.025132
Sum of atomic charges:    0.0000000

LOEWDIN ATOMIC CHARGES
----------------------
   0 C :   -0.064841
   1 C :   -0.047264
   2 C :   -0.043409
   3 C :   -0.039375
   4 C :   -0.025255
   5 C :   -0.068835
   6 H :    0.036382
   7 H :    0.030899
   8 H :    0.036086
   9 H :    0.020607
  10 H :    0.021961
  11 H :    0.035265
  12 H :    0.036559
  13 H :    0.025883
  14 H :    0.020732
  15 H :    0.024605

  Mayer bond orders larger than 0.1
B(  0-C ,  1-C ) :   1.0839 B(  0-C ,  6-H ) :   0.9474 B(  0-C ,  7-H ) :   0.9613
B(  0-C ,  8-H ) :   0.9475 B(  1-C ,  2-C ) :   1.9291 B(  1-C ,  9-H ) :   0.9497
B(  2-C ,  3-C ) :   1.0427 B(  2-C , 10-H ) :   0.9503 B(  3-C ,  4-C ) :   1.0487
B(  3-C , 11-H ) :   0.9100 B(  3-C , 12-H ) :   0.9115 B(  4-C ,  5-C ) :   2.0074
B(  4-C , 13-H ) :   0.9555 B(  5-C , 14-H ) :   0.9462 B(  5-C , 15-H ) :   0.9451

FINAL SINGLE POINT ENERGY      -234.110659327589

DIPOLE MOMENT
-------------
                                X             Y             Z
Electronic contribution:      1.90794       0.24749      -0.38006
Nuclear contribution   :     -2.06498      -0.24577       0.51082
                        -----------------------------------------
Total Dipole Moment    :     -0.15705       0.00171       0.13076
                        -----------------------------------------
Magnitude (a.u.)       :      0.20436
Magnitude (Debye)      :      0.51945

                             ****ORCA TERMINATED NORMALLY****
TOTAL RUN TIME: 0 days 0 hours 0 minutes 6 seconds 504 msec
