                         Program Version 3.0.3 - RELEASE   -
|  1> ! RI PBE def2-SVP def2-SVP/J NBO PAL2
|  2> % maxcore 2000
|  3> % output
|  4>     # printlevel mini
|  5>     print[ P_Basis ] 0
|  6>     print[ P_SCFInfo ] 1
|  7>     print[ P_SCFIterInfo ] 1
|  8>     print[ P_OrbEn ] 0
|  9>     print[ P_Cartesian ] 0
| 10> end
| 11> *xyz 0 1
| 12>  C        0.8522930000    -0.0240540000    -0.0556150000
| 13>  C        2.3396910000    -0.0982520000    -0.0917420000
| 14>  C        3.1110060000    -0.4274780000     0.9351950000
| 15>  C        4.6093040000    -0.5088840000     0.8735550000
| 16>  C        5.2634800000     0.3322860000     1.8667670000
| 17>  C        5.7882160000     1.0253470000     2.6945410000
| 18>  H        0.5033850000     0.9809880000    -0.3130480000
| 19>  H        0.4630070000    -0.2774240000     0.9321440000
| 20>  H        0.4054010000    -0.7071300000    -0.7849020000
| 21>  H        2.8139760000     0.1420980000    -1.0428630000
| 22>  H        2.6606680000    -0.6591560000     1.8980950000
| 23>  H        4.9553450000    -0.2288460000    -0.1264240000
| 24>  H        4.9317440000    -1.5454840000     1.0354810000
| 25>  H        6.2558940000     1.6417880000     3.4250070000
| 26> *
| 27>
| 28>                          ****END OF INPUT****
 Total Charge           Charge          ....    0
 Multiplicity           Mult            ....    1
 Number of Electrons    NEL             ....   44
 Basis Dimension        Dim             ....  124

MULLIKEN ATOMIC CHARGES
-----------------------
   0 C :    0.041594
   1 C :   -0.105978
   2 C :   -0.059506
   3 C :    0.141103
   4 C :    0.295212
   5 C :   -0.471735
   6 H :    0.033694
   7 H :    0.019739
   8 H :    0.034006
   9 H :   -0.003499
  10 H :    0.001805
  11 H :    0.030217
  12 H :    0.046963
  13 H :   -0.003617
Sum of atomic charges:   -0.0000000

LOEWDIN ATOMIC CHARGES
----------------------
   0 C :   -0.062860
   1 C :   -0.041955
   2 C :   -0.036450
   3 C :   -0.043503
   4 C :   -0.020106
   5 C :   -0.090657
   6 H :    0.037579
   7 H :    0.031541
   8 H :    0.037389
   9 H :    0.022442
  10 H :    0.025960
  11 H :    0.050835
  12 H :    0.056370
  13 H :    0.033415

  Mayer bond orders larger than 0.1
B(  0-C ,  1-C ) :   1.0882 B(  0-C ,  6-H ) :   0.9479 B(  0-C ,  7-H ) :   0.9620
B(  0-C ,  8-H ) :   0.9474 B(  1-C ,  2-C ) :   1.9407 B(  1-C ,  9-H ) :   0.9496
B(  2-C ,  3-C ) :   1.0378 B(  2-C , 10-H ) :   0.9516 B(  3-C ,  4-C ) :   1.0432
B(  3-C , 11-H ) :   0.8984 B(  3-C , 12-H ) :   0.8899 B(  4-C ,  5-C ) :   2.3818
B(  4-C , 13-H ) :  -0.1091 B(  5-C , 13-H ) :   1.1005

FINAL SINGLE POINT ENERGY      -232.866287122883

DIPOLE MOMENT
-------------
                                X             Y             Z
Electronic contribution:      5.05906       0.74507       2.52343
Nuclear contribution   :     -5.31224      -0.88746      -2.76201
                        -----------------------------------------
Total Dipole Moment    :     -0.25318      -0.14239      -0.23858
                        -----------------------------------------
Magnitude (a.u.)       :      0.37589
Magnitude (Debye)      :      0.95543

                             ****ORCA TERMINATED NORMALLY****
TOTAL RUN TIME: 0 days 0 hours 0 minutes 5 seconds 483 msec
