                         Program Version 3.0.3 - RELEASE   -
|  1> ! RI PBE def2-SVP def2-SVP/J NBO PAL2
|  2> % maxcore 2000
|  3> % output
|  4>     # printlevel mini
|  5>     print[ P_Basis ] 0
|  6>     print[ P_SCFInfo ] 1
|  7>     print[ P_SCFIterInfo ] 1
|  8>     print[ P_OrbEn ] 0
|  9>     print[ P_Cartesian ] 0
| 10> end
| 11> *xyz 0 1
| 12>  C        1.2126240000    -0.3798830000    -0.3997870000
| 13>  C        2.5742630000     0.0393700000     0.0675390000
| 14>  C        3.1344760000     1.1546090000    -0.4110000000
| 15>  C        3.2670900000    -0.8037960000     1.0571300000
| 16>  C        4.6288740000    -0.3847280000     1.5241970000
| 17>  C        2.7067150000    -1.9188310000     1.5359570000
| 18>  H        0.8198810000     0.3314810000    -1.1265330000
| 19>  H        0.5070580000    -0.4397010000     0.4337120000
| 20>  H        1.2399470000    -1.3669200000    -0.8700330000
| 21>  H        2.6170660000     1.7688270000    -1.1390710000
| 22>  H        4.1148180000     1.4917620000    -0.0995750000
| 23>  H        4.6018260000     0.6025900000     1.9938710000
| 24>  H        5.3344900000    -0.3256010000     0.6906920000
| 25>  H        5.0214080000    -1.0958260000     2.2513160000
| 26>  H        1.7262140000    -2.2557810000     1.2248150000
| 27>  H        3.2241510000    -2.5330820000     2.2639810000
| 28> *
| 29>
| 30>                          ****END OF INPUT****
 Total Charge           Charge          ....    0
 Multiplicity           Mult            ....    1
 Number of Electrons    NEL             ....   46
 Basis Dimension        Dim             ....  134

MULLIKEN ATOMIC CHARGES
-----------------------
   0 C :    0.040886
   1 C :   -0.090974
   2 C :   -0.060219
   3 C :   -0.090972
   4 C :    0.040889
   5 C :   -0.060207
   6 H :    0.012455
   7 H :    0.041119
   8 H :    0.038993
   9 H :    0.010784
  10 H :    0.006955
  11 H :    0.038996
  12 H :    0.041119
  13 H :    0.012451
  14 H :    0.006942
  15 H :    0.010784
Sum of atomic charges:   -0.0000000

LOEWDIN ATOMIC CHARGES
----------------------
   0 C :   -0.057894
   1 C :   -0.028601
   2 C :   -0.059412
   3 C :   -0.028601
   4 C :   -0.057893
   5 C :   -0.059412
   6 H :    0.031272
   7 H :    0.037445
   8 H :    0.037249
   9 H :    0.020953
  10 H :    0.018989
  11 H :    0.037244
  12 H :    0.037450
  13 H :    0.031272
  14 H :    0.018986
  15 H :    0.020953

  Mayer bond orders larger than 0.1
B(  0-C ,  1-C ) :   1.1061 B(  0-C ,  6-H ) :   0.9443 B(  0-C ,  7-H ) :   0.9364
B(  0-C ,  8-H ) :   0.9352 B(  1-C ,  2-C ) :   1.9047 B(  1-C ,  3-C ) :   1.0835
B(  2-C ,  5-C ) :   0.1369 B(  2-C ,  9-H ) :   0.9318 B(  2-C , 10-H ) :   0.9219
B(  3-C ,  4-C ) :   1.1061 B(  3-C ,  5-C ) :   1.9047 B(  4-C , 11-H ) :   0.9351
B(  4-C , 12-H ) :   0.9364 B(  4-C , 13-H ) :   0.9443 B(  5-C , 14-H ) :   0.9219
B(  5-C , 15-H ) :   0.9318

FINAL SINGLE POINT ENERGY      -234.120086915784

DIPOLE MOMENT
-------------
                                X             Y             Z
Electronic contribution:     -0.00007       0.00010       0.00014
Nuclear contribution   :      0.00010      -0.00013      -0.00018
                        -----------------------------------------
Total Dipole Moment    :      0.00004      -0.00002      -0.00004
                        -----------------------------------------
Magnitude (a.u.)       :      0.00006
Magnitude (Debye)      :      0.00014

                             ****ORCA TERMINATED NORMALLY****
TOTAL RUN TIME: 0 days 0 hours 0 minutes 6 seconds 331 msec
