                         Program Version 3.0.3 - RELEASE   -
|  1> ! RI PBE def2-SVP def2-SVP/J NBO PAL2
|  2> % maxcore 2000
|  3> % output
|  4>     # printlevel mini
|  5>     print[ P_Basis ] 0
|  6>     print[ P_SCFInfo ] 1
|  7>     print[ P_SCFIterInfo ] 1
|  8>     print[ P_OrbEn ] 0
|  9>     print[ P_Cartesian ] 0
| 10> end
| 11> *xyz 0 1
| 12>  C        0.8731730000    -0.0048480000    -0.2609870000
| 13>  C        2.3466140000    -0.1939400000    -0.4315880000
| 14>  C        2.8683570000    -0.8303410000    -1.4753710000
| 15>  C        3.2192740000     0.3862100000     0.6529000000
| 16>  C        3.1724980000     1.8831940000     0.6961620000
| 17>  C        2.7758550000     2.6054310000     1.7343490000
| 18>  H        0.3141970000    -0.4322770000    -1.0940570000
| 19>  H        0.6226540000     1.0569820000    -0.1787570000
| 20>  H        0.5282740000    -0.4774620000     0.6652010000
| 21>  H        2.2415020000    -1.2431080000    -2.2584860000
| 22>  H        3.9399910000    -0.9627120000    -1.5801110000
| 23>  H        4.2518020000     0.0622230000     0.4854430000
| 24>  H        2.9067920000    -0.0084480000     1.6269110000
| 25>  H        3.4916810000     2.3888280000    -0.2136350000
| 26>  H        2.4469150000     2.1371340000     2.6572990000
| 27>  H        2.7701220000     3.6889350000     1.7032270000
| 28> *
| 29>
| 30>                          ****END OF INPUT****
 Total Charge           Charge          ....    0
 Multiplicity           Mult            ....    1
 Number of Electrons    NEL             ....   46
 Basis Dimension        Dim             ....  134

MULLIKEN ATOMIC CHARGES
-----------------------
   0 C :    0.083257
   1 C :   -0.216706
   2 C :   -0.035111
   3 C :    0.142412
   4 C :   -0.088949
   5 C :   -0.032299
   6 H :    0.014196
   7 H :    0.031077
   8 H :    0.022477
   9 H :    0.008174
  10 H :    0.007147
  11 H :    0.010785
  12 H :    0.005014
  13 H :    0.004591
  14 H :    0.015536
  15 H :    0.028399
Sum of atomic charges:    0.0000000

LOEWDIN ATOMIC CHARGES
----------------------
   0 C :   -0.055734
   1 C :   -0.029103
   2 C :   -0.078975
   3 C :   -0.030712
   4 C :   -0.023579
   5 C :   -0.068057
   6 H :    0.030449
   7 H :    0.036665
   8 H :    0.035751
   9 H :    0.019837
  10 H :    0.018771
  11 H :    0.037760
  12 H :    0.033015
  13 H :    0.027046
  14 H :    0.021101
  15 H :    0.025767

  Mayer bond orders larger than 0.1
B(  0-C ,  1-C ) :   1.0813 B(  0-C ,  6-H ) :   0.9516 B(  0-C ,  7-H ) :   0.9400
B(  0-C ,  8-H ) :   0.9396 B(  1-C ,  2-C ) :   1.9874 B(  1-C ,  3-C ) :   1.0422
B(  2-C ,  9-H ) :   0.9338 B(  2-C , 10-H ) :   0.9366 B(  3-C ,  4-C ) :   1.0637
B(  3-C , 11-H ) :   0.8997 B(  3-C , 12-H ) :   0.9115 B(  4-C ,  5-C ) :   1.9979
B(  4-C , 13-H ) :   0.9535 B(  5-C , 14-H ) :   0.9469 B(  5-C , 15-H ) :   0.9441

FINAL SINGLE POINT ENERGY      -234.110509111677

DIPOLE MOMENT
-------------
                                X             Y             Z
Electronic contribution:      1.49901       0.17919      -0.15691
Nuclear contribution   :     -1.57397      -0.16413       0.23643
                        -----------------------------------------
Total Dipole Moment    :     -0.07497       0.01506       0.07952
                        -----------------------------------------
Magnitude (a.u.)       :      0.11032
Magnitude (Debye)      :      0.28041

                             ****ORCA TERMINATED NORMALLY****
TOTAL RUN TIME: 0 days 0 hours 0 minutes 6 seconds 511 msec
