                         Program Version 3.0.3 - RELEASE   -
|  1> ! RI PBE def2-SVP def2-SVP/J NBO PAL2
|  2> % maxcore 2000
|  3> % output
|  4>     # printlevel mini
|  5>     print[ P_Basis ] 0
|  6>     print[ P_SCFInfo ] 1
|  7>     print[ P_SCFIterInfo ] 1
|  8>     print[ P_OrbEn ] 0
|  9>     print[ P_Cartesian ] 0
| 10> end
| 11> *xyz 0 1
| 12>  C        1.0890330000     0.0220420000    -0.1876350000
| 13>  C        2.5465740000     0.2261060000     0.0657660000
| 14>  C        3.1024660000     1.4263220000     0.1784810000
| 15>  C        3.3790720000    -1.0266030000     0.2149300000
| 16>  C        3.3374330000    -1.8945760000    -0.9538020000
| 17>  C        3.3003490000    -2.6039470000    -1.9214700000
| 18>  H        0.5636670000     0.9730430000    -0.2778660000
| 19>  H        0.6301110000    -0.5519390000     0.6246740000
| 20>  H        0.9338800000    -0.5533370000    -1.1048720000
| 21>  H        2.5107180000     2.3309560000     0.0926590000
| 22>  H        4.1652280000     1.5463430000     0.3580860000
| 23>  H        3.0171160000    -1.5972460000     1.0804350000
| 24>  H        4.4172820000    -0.7574840000     0.4279090000
| 25>  H        3.2725720000    -3.2337790000    -2.7788050000
| 26> *
| 27>
| 28>                          ****END OF INPUT****
 Total Charge           Charge          ....    0
 Multiplicity           Mult            ....    1
 Number of Electrons    NEL             ....   44
 Basis Dimension        Dim             ....  124

MULLIKEN ATOMIC CHARGES
-----------------------
   0 C :    0.079701
   1 C :   -0.206072
   2 C :   -0.034476
   3 C :    0.161073
   4 C :    0.307298
   5 C :   -0.482574
   6 H :    0.015491
   7 H :    0.026567
   8 H :    0.042070
   9 H :    0.011779
  10 H :    0.011993
  11 H :    0.042896
  12 H :    0.026962
  13 H :   -0.002705
Sum of atomic charges:   -0.0000000

LOEWDIN ATOMIC CHARGES
----------------------
   0 C :   -0.055466
   1 C :   -0.022066
   2 C :   -0.072612
   3 C :   -0.036822
   4 C :   -0.018910
   5 C :   -0.089905
   6 H :    0.032013
   7 H :    0.037186
   8 H :    0.041827
   9 H :    0.022073
  10 H :    0.021085
  11 H :    0.055718
  12 H :    0.051766
  13 H :    0.034113

  Mayer bond orders larger than 0.1
B(  0-C ,  1-C ) :   1.0858 B(  0-C ,  6-H ) :   0.9491 B(  0-C ,  7-H ) :   0.9399
B(  0-C ,  8-H ) :   0.9374 B(  1-C ,  2-C ) :   1.9924 B(  1-C ,  3-C ) :   1.0370
B(  2-C ,  9-H ) :   0.9373 B(  2-C , 10-H ) :   0.9356 B(  3-C ,  4-C ) :   1.0555
B(  3-C , 11-H ) :   0.8862 B(  3-C , 12-H ) :   0.8842 B(  4-C ,  5-C ) :   2.3615
B(  4-C , 13-H ) :  -0.1113 B(  5-C , 13-H ) :   1.1029

FINAL SINGLE POINT ENERGY      -232.866450455371

DIPOLE MOMENT
-------------
                                X             Y             Z
Electronic contribution:      2.26217      -2.75483      -1.42406
Nuclear contribution   :     -2.38728       2.77662       1.59797
                        -----------------------------------------
Total Dipole Moment    :     -0.12511       0.02179       0.17390
                        -----------------------------------------
Magnitude (a.u.)       :      0.21534
Magnitude (Debye)      :      0.54734

                             ****ORCA TERMINATED NORMALLY****
TOTAL RUN TIME: 0 days 0 hours 0 minutes 5 seconds 815 msec
