                         Program Version 3.0.3 - RELEASE   -
|  1> ! RI PBE def2-SVP def2-SVP/J NBO PAL2
|  2> % maxcore 2000
|  3> % output
|  4>     # printlevel mini
|  5>     print[ P_Basis ] 0
|  6>     print[ P_SCFInfo ] 1
|  7>     print[ P_SCFIterInfo ] 1
|  8>     print[ P_OrbEn ] 0
|  9>     print[ P_Cartesian ] 0
| 10> end
| 11> *xyz 0 1
| 12>  C        0.9568860000     0.0503920000    -0.0254020000
| 13>  C        2.4640530000    -0.2136010000    -0.1000610000
| 14>  C        2.8304690000    -1.3913320000     0.7548670000
| 15>  C        3.6387750000    -1.3512840000     1.8037530000
| 16>  C        2.8822620000    -0.4518630000    -1.5215200000
| 17>  C        3.7299830000     0.3029930000    -2.2046650000
| 18>  H        0.6482890000     0.2372400000     1.0053530000
| 19>  H        0.3933810000    -0.8117310000    -0.3940210000
| 20>  H        0.6856240000     0.9144740000    -0.6356310000
| 21>  H        2.9977850000     0.6662990000     0.2752190000
| 22>  H        2.3735900000    -2.3388920000     0.4702410000
| 23>  H        4.1149830000    -0.4271920000     2.1172290000
| 24>  H        3.8566790000    -2.2386290000     2.3867590000
| 25>  H        2.4299180000    -1.3170580000    -2.0057120000
| 26>  H        4.2031380000     1.1715760000    -1.7566960000
| 27>  H        3.9845860000     0.0813170000    -3.2346150000
| 28> *
| 29>
| 30>                          ****END OF INPUT****
 Total Charge           Charge          ....    0
 Multiplicity           Mult            ....    1
 Number of Electrons    NEL             ....   46
 Basis Dimension        Dim             ....  134

MULLIKEN ATOMIC CHARGES
-----------------------
   0 C :    0.023493
   1 C :   -0.029834
   2 C :   -0.032361
   3 C :   -0.035191
   4 C :   -0.031400
   5 C :   -0.033951
   6 H :    0.025681
   7 H :    0.016539
   8 H :    0.026077
   9 H :   -0.007957
  10 H :   -0.001321
  11 H :    0.015607
  12 H :    0.025390
  13 H :   -0.000622
  14 H :    0.015422
  15 H :    0.024428
Sum of atomic charges:    0.0000000

LOEWDIN ATOMIC CHARGES
----------------------
   0 C :   -0.048665
   1 C :   -0.044494
   2 C :   -0.015277
   3 C :   -0.065378
   4 C :   -0.015521
   5 C :   -0.065082
   6 H :    0.028711
   7 H :    0.024843
   8 H :    0.028829
   9 H :    0.030479
  10 H :    0.023917
  11 H :    0.021702
  12 H :    0.025167
  13 H :    0.024036
  14 H :    0.021588
  15 H :    0.025146

  Mayer bond orders larger than 0.1
B(  0-C ,  1-C ) :   1.0548 B(  0-C ,  6-H ) :   0.9600 B(  0-C ,  7-H ) :   0.9614
B(  0-C ,  8-H ) :   0.9602 B(  1-C ,  2-C ) :   1.0034 B(  1-C ,  4-C ) :   1.0028
B(  1-C ,  9-H ) :   0.9115 B(  2-C ,  3-C ) :   2.0247 B(  2-C , 10-H ) :   0.9506
B(  3-C , 11-H ) :   0.9457 B(  3-C , 12-H ) :   0.9424 B(  4-C ,  5-C ) :   2.0261
B(  4-C , 13-H ) :   0.9501 B(  5-C , 14-H ) :   0.9466 B(  5-C , 15-H ) :   0.9412

FINAL SINGLE POINT ENERGY      -234.104259643493

DIPOLE MOMENT
-------------
                                X             Y             Z
Electronic contribution:      1.36166      -0.82795      -0.31168
Nuclear contribution   :     -1.49473       0.84656       0.31537
                        -----------------------------------------
Total Dipole Moment    :     -0.13307       0.01861       0.00369
                        -----------------------------------------
Magnitude (a.u.)       :      0.13442
Magnitude (Debye)      :      0.34166

                             ****ORCA TERMINATED NORMALLY****
TOTAL RUN TIME: 0 days 0 hours 0 minutes 6 seconds 270 msec
