                         Program Version 3.0.3 - RELEASE   -
|  1> ! RI PBE def2-SVP def2-SVP/J NBO PAL2
|  2> % maxcore 2000
|  3> % output
|  4>     # printlevel mini
|  5>     print[ P_Basis ] 0
|  6>     print[ P_SCFInfo ] 1
|  7>     print[ P_SCFIterInfo ] 1
|  8>     print[ P_OrbEn ] 0
|  9>     print[ P_Cartesian ] 0
| 10> end
| 11> *xyz 0 1
| 12>  C        1.0103680000     0.0861060000     0.3294040000
| 13>  C        2.5086970000    -0.0991800000     0.0511440000
| 14>  C        2.7967620000    -1.5095340000    -0.3922080000
| 15>  C        3.3950690000    -1.8744610000    -1.5147290000
| 16>  C        2.9946050000     0.9097390000    -0.8799670000
| 17>  C        3.3751840000     1.7515110000    -1.6467600000
| 18>  H        0.6698790000    -0.6510350000     1.0600850000
| 19>  H        0.4355650000    -0.0459300000    -0.5885720000
| 20>  H        0.8108910000     1.0835370000     0.7235370000
| 21>  H        3.0391830000     0.0541040000     1.0019410000
| 22>  H        2.4538900000    -2.2688700000     0.3076720000
| 23>  H        3.7478020000    -1.1398460000    -2.2305680000
| 24>  H        3.5514530000    -2.9208050000    -1.7488030000
| 25>  H        3.7150320000     2.5001650000    -2.3225660000
| 26> *
| 27>
| 28>                          ****END OF INPUT****
 Total Charge           Charge          ....    0
 Multiplicity           Mult            ....    1
 Number of Electrons    NEL             ....   44
 Basis Dimension        Dim             ....  124

MULLIKEN ATOMIC CHARGES
-----------------------
   0 C :    0.005750
   1 C :    0.037435
   2 C :   -0.094211
   3 C :    0.000157
   4 C :    0.370734
   5 C :   -0.510035
   6 H :    0.023424
   7 H :    0.038422
   8 H :    0.032231
   9 H :    0.043152
  10 H :    0.006366
  11 H :    0.029290
  12 H :    0.020326
  13 H :   -0.003041
Sum of atomic charges:   -0.0000000

LOEWDIN ATOMIC CHARGES
----------------------
   0 C :   -0.039863
   1 C :   -0.052629
   2 C :   -0.025045
   3 C :   -0.054437
   4 C :   -0.006630
   5 C :   -0.087543
   6 H :    0.027270
   7 H :    0.033100
   8 H :    0.031850
   9 H :    0.057476
  10 H :    0.026881
  11 H :    0.028562
  12 H :    0.026481
  13 H :    0.034529

  Mayer bond orders larger than 0.1
B(  0-C ,  1-C ) :   1.0603 B(  0-C ,  6-H ) :   0.9594 B(  0-C ,  7-H ) :   0.9647
B(  0-C ,  8-H ) :   0.9605 B(  1-C ,  2-C ) :   0.9782 B(  1-C ,  4-C ) :   1.0028
B(  1-C ,  9-H ) :   0.8590 B(  2-C ,  3-C ) :   2.0372 B(  2-C , 10-H ) :   0.9562
B(  3-C , 11-H ) :   0.9173 B(  3-C , 12-H ) :   0.9423 B(  4-C ,  5-C ) :   2.3179
B(  4-C , 13-H ) :  -0.1171 B(  5-C , 13-H ) :   1.1073

FINAL SINGLE POINT ENERGY      -232.860879225588

DIPOLE MOMENT
-------------
                                X             Y             Z
Electronic contribution:      2.41333       1.95821      -1.14955
Nuclear contribution   :     -2.54581      -2.03143       1.35582
                        -----------------------------------------
Total Dipole Moment    :     -0.13248      -0.07322       0.20628
                        -----------------------------------------
Magnitude (a.u.)       :      0.25585
Magnitude (Debye)      :      0.65033

                             ****ORCA TERMINATED NORMALLY****
TOTAL RUN TIME: 0 days 0 hours 0 minutes 5 seconds 972 msec
