                         Program Version 3.0.3 - RELEASE   -
|  1> ! RI PBE def2-SVP def2-SVP/J NBO PAL2
|  2> % maxcore 2000
|  3> % output
|  4>     # printlevel mini
|  5>     print[ P_Basis ] 0
|  6>     print[ P_SCFInfo ] 1
|  7>     print[ P_SCFIterInfo ] 1
|  8>     print[ P_OrbEn ] 0
|  9>     print[ P_Cartesian ] 0
| 10> end
| 11> *xyz 0 1
| 12>  C        1.0213660000    -0.0020310000    -0.0138610000
| 13>  C        2.5306170000    -0.0486890000    -0.0180770000
| 14>  C        3.2446590000     1.2763640000     0.1019630000
| 15>  C        3.1999700000    -1.2033060000    -0.1226670000
| 16>  C        2.5229770000    -2.5342770000    -0.2432430000
| 17>  C        4.6958420000    -1.2848790000    -0.1300470000
| 18>  H        0.6614630000     1.0232070000     0.0790120000
| 19>  H        0.5941140000    -0.5701000000     0.8177560000
| 20>  H        0.5941270000    -0.4114070000    -0.9340300000
| 21>  H        2.5330860000     2.0993910000     0.1765210000
| 22>  H        3.8832610000     1.4798520000    -0.7626840000
| 23>  H        3.8832590000     1.3211560000     0.9891020000
| 24>  H        1.4362990000    -2.4664170000    -0.2371000000
| 25>  H        2.8236740000    -3.1963130000     0.5769540000
| 26>  H        2.8236810000    -3.0381420000    -1.1690570000
| 27>  H        5.1801650000    -0.3136920000    -0.0420690000
| 28>  H        5.0524200000    -1.7566220000    -1.0529480000
| 29>  H        5.0524090000    -1.9147850000     0.6930640000
| 30> *
| 31>
| 32>                          ****END OF INPUT****
 Total Charge           Charge          ....    0
 Multiplicity           Mult            ....    1
 Number of Electrons    NEL             ....   48
 Basis Dimension        Dim             ....  144

MULLIKEN ATOMIC CHARGES
-----------------------
   0 C :    0.035069
   1 C :   -0.220607
   2 C :    0.037117
   3 C :   -0.204927
   4 C :    0.041264
   5 C :    0.060163
   6 H :    0.001920
   7 H :    0.037456
   8 H :    0.035624
   9 H :    0.004364
  10 H :    0.035579
  11 H :    0.034905
  12 H :    0.013974
  13 H :    0.022985
  14 H :    0.019591
  15 H :    0.008563
  16 H :    0.017423
  17 H :    0.019538
Sum of atomic charges:   -0.0000000

LOEWDIN ATOMIC CHARGES
----------------------
   0 C :   -0.063712
   1 C :   -0.065404
   2 C :   -0.064251
   3 C :   -0.060024
   4 C :   -0.061778
   5 C :   -0.058345
   6 H :    0.025383
   7 H :    0.034571
   8 H :    0.034264
   9 H :    0.025708
  10 H :    0.034174
  11 H :    0.034258
  12 H :    0.027416
  13 H :    0.033466
  14 H :    0.032854
  15 H :    0.026632
  16 H :    0.032231
  17 H :    0.032557

  Mayer bond orders larger than 0.1
B(  0-C ,  1-C ) :   1.0922 B(  0-C ,  6-H ) :   0.9421 B(  0-C ,  7-H ) :   0.9500
B(  0-C ,  8-H ) :   0.9495 B(  1-C ,  2-C ) :   1.0927 B(  1-C ,  3-C ) :   1.8658
B(  2-C ,  9-H ) :   0.9418 B(  2-C , 10-H ) :   0.9489 B(  2-C , 11-H ) :   0.9478
B(  3-C ,  4-C ) :   1.1113 B(  3-C ,  5-C ) :   1.1088 B(  4-C , 12-H ) :   0.9421
B(  4-C , 13-H ) :   0.9422 B(  4-C , 14-H ) :   0.9421 B(  5-C , 15-H ) :   0.9423
B(  5-C , 16-H ) :   0.9433 B(  5-C , 17-H ) :   0.9436

FINAL SINGLE POINT ENERGY      -235.335340755696

DIPOLE MOMENT
-------------
                                X             Y             Z
Electronic contribution:     -0.06297       0.10779       0.01170
Nuclear contribution   :      0.06997      -0.12069      -0.01094
                        -----------------------------------------
Total Dipole Moment    :      0.00700      -0.01290       0.00076
                        -----------------------------------------
Magnitude (a.u.)       :      0.01470
Magnitude (Debye)      :      0.03735

                             ****ORCA TERMINATED NORMALLY****
TOTAL RUN TIME: 0 days 0 hours 0 minutes 7 seconds 316 msec
