                         Program Version 3.0.3 - RELEASE   -
|  1> ! RI PBE def2-SVP def2-SVP/J NBO PAL2
|  2> % maxcore 2000
|  3> % output
|  4>     # printlevel mini
|  5>     print[ P_Basis ] 0
|  6>     print[ P_SCFInfo ] 1
|  7>     print[ P_SCFIterInfo ] 1
|  8>     print[ P_OrbEn ] 0
|  9>     print[ P_Cartesian ] 0
| 10> end
| 11> *xyz 0 1
| 12>  C        1.0447550000     0.0173710000     0.1404800000
| 13>  C        2.5252750000     0.1917880000     0.0247320000
| 14>  C        2.9933080000     1.6097810000     0.0925680000
| 15>  C        3.3301320000    -0.8709900000    -0.1268430000
| 16>  C        4.7712510000    -0.8715140000    -0.2525190000
| 17>  C        5.5022040000    -1.9779100000    -0.4009770000
| 18>  H        0.5244070000     0.5618350000    -0.6555910000
| 19>  H        0.6763530000     0.4285210000     1.0871420000
| 20>  H        0.7528290000    -1.0320750000     0.0856550000
| 21>  H        2.5293350000     2.2018160000    -0.7039240000
| 22>  H        4.0729940000     1.7164080000     0.0060620000
| 23>  H        2.6820880000     2.0680830000     1.0377060000
| 24>  H        2.8624220000    -1.8534980000    -0.1613140000
| 25>  H        5.2849570000     0.0851010000    -0.2240310000
| 26>  H        5.0396260000    -2.9593330000    -0.4358110000
| 27>  H        6.5806550000    -1.9377830000    -0.4919250000
| 28> *
| 29>
| 30>                          ****END OF INPUT****
 Total Charge           Charge          ....    0
 Multiplicity           Mult            ....    1
 Number of Electrons    NEL             ....   46
 Basis Dimension        Dim             ....  134

MULLIKEN ATOMIC CHARGES
-----------------------
   0 C :    0.056506
   1 C :   -0.208097
   2 C :    0.059472
   3 C :    0.015293
   4 C :   -0.009841
   5 C :   -0.043808
   6 H :    0.027942
   7 H :    0.024609
   8 H :    0.014938
   9 H :    0.028625
  10 H :    0.017392
  11 H :    0.027009
  12 H :   -0.033903
  13 H :   -0.013361
  14 H :    0.013852
  15 H :    0.023371
Sum of atomic charges:   -0.0000000

LOEWDIN ATOMIC CHARGES
----------------------
   0 C :   -0.053828
   1 C :   -0.030361
   2 C :   -0.057572
   3 C :   -0.059354
   4 C :   -0.034608
   5 C :   -0.060939
   6 H :    0.035155
   7 H :    0.034385
   8 H :    0.029539
   9 H :    0.037753
  10 H :    0.028257
  11 H :    0.037260
  12 H :    0.024842
  13 H :    0.025443
  14 H :    0.020406
  15 H :    0.023626

  Mayer bond orders larger than 0.1
B(  0-C ,  1-C ) :   1.0864 B(  0-C ,  6-H ) :   0.9435 B(  0-C ,  7-H ) :   0.9441
B(  0-C ,  8-H ) :   0.9541 B(  1-C ,  2-C ) :   1.1070 B(  1-C ,  3-C ) :   1.7581
B(  1-C ,  5-C ) :   0.1300 B(  2-C ,  9-H ) :   0.9395 B(  2-C , 10-H ) :   0.9442
B(  2-C , 11-H ) :   0.9410 B(  3-C ,  4-C ) :   1.1377 B(  3-C , 12-H ) :   0.9475
B(  4-C ,  5-C ) :   1.8892 B(  4-C , 13-H ) :   0.9531 B(  5-C , 14-H ) :   0.9506
B(  5-C , 15-H ) :   0.9421

FINAL SINGLE POINT ENERGY      -234.123677009456

DIPOLE MOMENT
-------------
                                X             Y             Z
Electronic contribution:      1.89252      -1.73079      -0.30417
Nuclear contribution   :     -2.14478       2.01500       0.34149
                        -----------------------------------------
Total Dipole Moment    :     -0.25226       0.28421       0.03732
                        -----------------------------------------
Magnitude (a.u.)       :      0.38184
Magnitude (Debye)      :      0.97057

                             ****ORCA TERMINATED NORMALLY****
TOTAL RUN TIME: 0 days 0 hours 0 minutes 6 seconds 662 msec
