                         Program Version 3.0.3 - RELEASE   -
|  1> ! RI PBE def2-SVP def2-SVP/J NBO PAL2
|  2> % maxcore 2000
|  3> % output
|  4>     # printlevel mini
|  5>     print[ P_Basis ] 0
|  6>     print[ P_SCFInfo ] 1
|  7>     print[ P_SCFIterInfo ] 1
|  8>     print[ P_OrbEn ] 0
|  9>     print[ P_Cartesian ] 0
| 10> end
| 11> *xyz 0 1
| 12>  C        0.9515320000    -0.0372380000     0.1481610000
| 13>  C        2.4520850000     0.0219790000     0.0862380000
| 14>  C        3.1008150000     0.9557390000    -0.8903500000
| 15>  C        3.1888290000    -0.7532620000     0.8970310000
| 16>  C        4.6027360000    -0.7637510000     0.9080010000
| 17>  C        5.8075460000    -0.7822260000     0.9274160000
| 18>  H        0.4916970000     0.6457190000    -0.5661250000
| 19>  H        0.5855830000     0.2271750000     1.1440190000
| 20>  H        0.5855890000    -1.0439470000    -0.0713550000
| 21>  H        2.3630110000     1.5101850000    -1.4702030000
| 22>  H        3.7445880000     0.4093670000    -1.5854910000
| 23>  H        3.7446170000     1.6746460000    -0.3756880000
| 24>  H        2.6936070000    -1.4220680000     1.5965110000
| 25>  H        6.8712370000    -0.7989870000     0.9447960000
| 26> *
| 27>
| 28>                          ****END OF INPUT****
 Total Charge           Charge          ....    0
 Multiplicity           Mult            ....    1
 Number of Electrons    NEL             ....   44
 Basis Dimension        Dim             ....  124

MULLIKEN ATOMIC CHARGES
-----------------------
   0 C :    0.048598
   1 C :   -0.238103
   2 C :    0.087460
   3 C :   -0.064910
   4 C :    0.393670
   5 C :   -0.433668
   6 H :    0.017645
   7 H :    0.041603
   8 H :    0.041688
   9 H :    0.010987
  10 H :    0.044267
  11 H :    0.044292
  12 H :    0.007228
  13 H :   -0.000757
Sum of atomic charges:   -0.0000000

LOEWDIN ATOMIC CHARGES
----------------------
   0 C :   -0.059000
   1 C :   -0.008489
   2 C :   -0.058293
   3 C :   -0.080359
   4 C :   -0.017739
   5 C :   -0.082202
   6 H :    0.029640
   7 H :    0.042801
   8 H :    0.042797
   9 H :    0.027400
  10 H :    0.045967
  11 H :    0.045909
  12 H :    0.038558
  13 H :    0.033010

  Mayer bond orders larger than 0.1
B(  0-C ,  1-C ) :   1.0722 B(  0-C ,  6-H ) :   0.9519 B(  0-C ,  7-H ) :   0.9531
B(  0-C ,  8-H ) :   0.9533 B(  1-C ,  2-C ) :   1.1235 B(  1-C ,  3-C ) :   1.7659
B(  1-C ,  5-C ) :   0.1294 B(  2-C ,  9-H ) :   0.9466 B(  2-C , 10-H ) :   0.9346
B(  2-C , 11-H ) :   0.9351 B(  3-C ,  4-C ) :   1.0352 B(  3-C , 12-H ) :   0.9565
B(  4-C ,  5-C ) :   2.2359 B(  4-C , 13-H ) :  -0.1007 B(  5-C , 13-H ) :   1.0923

FINAL SINGLE POINT ENERGY      -232.874645289875

DIPOLE MOMENT
-------------
                                X             Y             Z
Electronic contribution:      4.44305      -2.36159       2.47003
Nuclear contribution   :     -4.83036       2.54290      -2.65970
                        -----------------------------------------
Total Dipole Moment    :     -0.38731       0.18131      -0.18967
                        -----------------------------------------
Magnitude (a.u.)       :      0.46782
Magnitude (Debye)      :      1.18911

                             ****ORCA TERMINATED NORMALLY****
TOTAL RUN TIME: 0 days 0 hours 0 minutes 5 seconds 594 msec
