                         Program Version 3.0.3 - RELEASE   -
|  1> ! RI PBE def2-SVP def2-SVP/J NBO PAL2
|  2> % maxcore 2000
|  3> % output
|  4>     # printlevel mini
|  5>     print[ P_Basis ] 0
|  6>     print[ P_SCFInfo ] 1
|  7>     print[ P_SCFIterInfo ] 1
|  8>     print[ P_OrbEn ] 0
|  9>     print[ P_Cartesian ] 0
| 10> end
| 11> *xyz 0 1
| 12>  C        1.0190850000    -0.1347050000     0.0467120000
| 13>  C        2.5464530000    -0.0086990000     0.0320830000
| 14>  C        2.9780560000     1.0666270000     1.0205850000
| 15>  C        3.1602820000    -1.3532670000     0.4374100000
| 16>  C        2.9785530000     0.2988870000    -1.3767250000
| 17>  C        3.6572400000     1.3545640000    -1.8037590000
| 18>  H        0.6677330000    -0.4175530000     1.0431330000
| 19>  H        0.6797000000    -0.8988440000    -0.6578430000
| 20>  H        0.5453790000     0.8107840000    -0.2279080000
| 21>  H        2.6456830000     0.8058150000     2.0286600000
| 22>  H        2.5459510000     2.0378430000     0.7672190000
| 23>  H        4.0653710000     1.1731330000     1.0444610000
| 24>  H        2.8215630000    -1.6433020000     1.4361360000
| 25>  H        4.2514420000    -1.2983500000     0.4483230000
| 26>  H        2.8696280000    -2.1451400000    -0.2582530000
| 27>  H        2.6823080000    -0.4555120000    -2.1060470000
| 28>  H        3.9843570000     2.1435750000    -1.1356460000
| 29>  H        3.9123180000     1.4669450000    -2.8512520000
| 30> *
| 31>
| 32>                          ****END OF INPUT****
 Total Charge           Charge          ....    0
 Multiplicity           Mult            ....    1
 Number of Electrons    NEL             ....   48
 Basis Dimension        Dim             ....  144

MULLIKEN ATOMIC CHARGES
-----------------------
   0 C :    0.071428
   1 C :   -0.311722
   2 C :    0.065466
   3 C :    0.053021
   4 C :    0.004460
   5 C :   -0.034950
   6 H :    0.009366
   7 H :    0.010018
   8 H :    0.017889
   9 H :    0.007410
  10 H :    0.018792
  11 H :    0.021336
  12 H :    0.010069
  13 H :    0.023694
  14 H :    0.012389
  15 H :   -0.007290
  16 H :    0.012433
  17 H :    0.016190
Sum of atomic charges:   -0.0000000

LOEWDIN ATOMIC CHARGES
----------------------
   0 C :   -0.041121
   1 C :   -0.070099
   2 C :   -0.047715
   3 C :   -0.044626
   4 C :   -0.013905
   5 C :   -0.072433
   6 H :    0.023322
   7 H :    0.022851
   8 H :    0.025757
   9 H :    0.025112
  10 H :    0.025243
  11 H :    0.025300
  12 H :    0.023774
  13 H :    0.026829
  14 H :    0.023505
  15 H :    0.023440
  16 H :    0.020279
  17 H :    0.024489

  Mayer bond orders larger than 0.1
B(  0-C ,  1-C ) :   1.0358 B(  0-C ,  6-H ) :   0.9553 B(  0-C ,  7-H ) :   0.9588
B(  0-C ,  8-H ) :   0.9618 B(  1-C ,  2-C ) :   1.0850 B(  1-C ,  3-C ) :   1.0342
B(  1-C ,  4-C ) :   0.9780 B(  2-C ,  9-H ) :   0.9540 B(  2-C , 10-H ) :   0.9479
B(  2-C , 11-H ) :   0.9495 B(  3-C , 12-H ) :   0.9542 B(  3-C , 13-H ) :   0.9615
B(  3-C , 14-H ) :   0.9567 B(  4-C ,  5-C ) :   2.0324 B(  4-C , 15-H ) :   0.9493
B(  5-C , 16-H ) :   0.9296 B(  5-C , 17-H ) :   0.9363

FINAL SINGLE POINT ENERGY      -235.329479312560

DIPOLE MOMENT
-------------
                                X             Y             Z
Electronic contribution:      0.74325       0.62168      -2.16210
Nuclear contribution   :     -0.80969      -0.69683       2.26411
                        -----------------------------------------
Total Dipole Moment    :     -0.06643      -0.07515       0.10201
                        -----------------------------------------
Magnitude (a.u.)       :      0.14306
Magnitude (Debye)      :      0.36363

                             ****ORCA TERMINATED NORMALLY****
TOTAL RUN TIME: 0 days 0 hours 0 minutes 7 seconds 63 msec
