                         Program Version 3.0.3 - RELEASE   -
|  1> ! RI PBE def2-SVP def2-SVP/J NBO PAL2
|  2> % maxcore 2000
|  3> % output
|  4>     # printlevel mini
|  5>     print[ P_Basis ] 0
|  6>     print[ P_SCFInfo ] 1
|  7>     print[ P_SCFIterInfo ] 1
|  8>     print[ P_OrbEn ] 0
|  9>     print[ P_Cartesian ] 0
| 10> end
| 11> *xyz 0 1
| 12>  C        0.9080200000     0.0145850000     0.0732020000
| 13>  C        2.4407360000     0.0157240000     0.0806130000
| 14>  C        2.9551490000     1.3532940000     0.6244100000
| 15>  C        2.9552330000    -1.1320350000     0.9566230000
| 16>  C        2.9288650000    -0.1674600000    -1.2875410000
| 17>  C        3.3293830000    -0.3181950000    -2.4100910000
| 18>  H        0.5323340000     0.1510170000     1.0908590000
| 19>  H        0.5208130000    -0.9295900000    -0.3144120000
| 20>  H        0.5208210000     0.8233320000    -0.5494030000
| 21>  H        2.5960670000     1.5002650000     1.6465990000
| 22>  H        2.6024630000     2.1848430000     0.0113490000
| 23>  H        4.0464960000     1.3763440000     0.6348160000
| 24>  H        2.5972410000    -1.0053570000     1.9818950000
| 25>  H        4.0465730000    -1.1517100000     0.9718740000
| 26>  H        2.6019100000    -2.0953690000     0.5840180000
| 27>  H        3.6841960000    -0.4516890000    -3.4044120000
| 28> *
| 29>
| 30>                          ****END OF INPUT****
 Total Charge           Charge          ....    0
 Multiplicity           Mult            ....    1
 Number of Electrons    NEL             ....   46
 Basis Dimension        Dim             ....  134

MULLIKEN ATOMIC CHARGES
-----------------------
   0 C :    0.076478
   1 C :   -0.345794
   2 C :    0.068604
   3 C :    0.067922
   4 C :    0.501345
   5 C :   -0.547161
   6 H :    0.012310
   7 H :    0.023082
   8 H :    0.025209
   9 H :    0.012440
  10 H :    0.022490
  11 H :    0.027056
  12 H :    0.012885
  13 H :    0.028218
  14 H :    0.023925
  15 H :   -0.009009
Sum of atomic charges:    0.0000000

LOEWDIN ATOMIC CHARGES
----------------------
   0 C :   -0.034618
   1 C :   -0.074962
   2 C :   -0.036777
   3 C :   -0.036485
   4 C :   -0.002088
   5 C :   -0.098216
   6 H :    0.024660
   7 H :    0.028858
   8 H :    0.029170
   9 H :    0.025046
  10 H :    0.028908
  11 H :    0.029553
  12 H :    0.025002
  13 H :    0.029560
  14 H :    0.029180
  15 H :    0.033208

  Mayer bond orders larger than 0.1
B(  0-C ,  1-C ) :   1.0441 B(  0-C ,  6-H ) :   0.9568 B(  0-C ,  7-H ) :   0.9596
B(  0-C ,  8-H ) :   0.9601 B(  1-C ,  2-C ) :   1.0475 B(  1-C ,  3-C ) :   1.0438
B(  1-C ,  4-C ) :   0.9364 B(  2-C ,  9-H ) :   0.9538 B(  2-C , 10-H ) :   0.9574
B(  2-C , 11-H ) :   0.9591 B(  3-C , 12-H ) :   0.9555 B(  3-C , 13-H ) :   0.9601
B(  3-C , 14-H ) :   0.9588 B(  4-C ,  5-C ) :   2.2702 B(  4-C , 15-H ) :  -0.1281
B(  5-C , 15-H ) :   1.1173

FINAL SINGLE POINT ENERGY      -234.086795119172

DIPOLE MOMENT
-------------
                                X             Y             Z
Electronic contribution:      1.64650      -0.62225      -4.62666
Nuclear contribution   :     -1.73944       0.65205       4.87618
                        -----------------------------------------
Total Dipole Moment    :     -0.09294       0.02980       0.24951
                        -----------------------------------------
Magnitude (a.u.)       :      0.26792
Magnitude (Debye)      :      0.68101

                             ****ORCA TERMINATED NORMALLY****
TOTAL RUN TIME: 0 days 0 hours 0 minutes 6 seconds 616 msec
