                         Program Version 3.0.3 - RELEASE   -
|  1> ! RI PBE def2-SVP def2-SVP/J NBO PAL2
|  2> % maxcore 2000
|  3> % output
|  4>     # printlevel mini
|  5>     print[ P_Basis ] 0
|  6>     print[ P_SCFInfo ] 1
|  7>     print[ P_SCFIterInfo ] 1
|  8>     print[ P_OrbEn ] 0
|  9>     print[ P_Cartesian ] 0
| 10> end
| 11> *xyz 0 1
| 12>  C        1.0335650000     0.2492070000    -0.1644590000
| 13>  C        2.5252420000     0.0030130000     0.0751830000
| 14>  C        2.8098880000    -0.0647640000     1.5667090000
| 15>  C        3.0142580000    -1.1943830000    -0.7069790000
| 16>  C        2.9935450000    -1.0517760000    -2.1993340000
| 17>  C        3.4492940000    -2.3137060000    -0.1352590000
| 18>  H        0.7038950000     1.1447500000     0.3681850000
| 19>  H        0.4450310000    -0.5970080000     0.2010050000
| 20>  H        0.8014510000     0.3902130000    -1.2214170000
| 21>  H        3.0643030000     0.8726820000    -0.3279450000
| 22>  H        2.2500480000    -0.8754320000     2.0417300000
| 23>  H        2.5080100000     0.8672460000     2.0502970000
| 24>  H        3.8714120000    -0.2229160000     1.7685520000
| 25>  H        3.5532150000    -0.1642470000    -2.5133350000
| 26>  H        1.9749580000    -0.9308580000    -2.5795370000
| 27>  H        3.4319860000    -1.9231200000    -2.6871350000
| 28>  H        3.4845660000    -2.4421070000     0.9394610000
| 29>  H        3.7897440000    -3.1500140000    -0.7363140000
| 30> *
| 31>
| 32>                          ****END OF INPUT****
 Total Charge           Charge          ....    0
 Multiplicity           Mult            ....    1
 Number of Electrons    NEL             ....   48
 Basis Dimension        Dim             ....  144

MULLIKEN ATOMIC CHARGES
-----------------------
   0 C :    0.009343
   1 C :   -0.089858
   2 C :    0.024555
   3 C :   -0.146687
   4 C :    0.063771
   5 C :   -0.045083
   6 H :    0.015286
   7 H :    0.021539
   8 H :    0.016041
   9 H :    0.007527
  10 H :    0.020681
  11 H :    0.010702
  12 H :    0.022081
  13 H :    0.023188
  14 H :    0.029368
  15 H :    0.011610
  16 H :    0.005812
  17 H :    0.000124
Sum of atomic charges:    0.0000000

LOEWDIN ATOMIC CHARGES
----------------------
   0 C :   -0.052765
   1 C :   -0.042854
   2 C :   -0.056540
   3 C :   -0.025608
   4 C :   -0.055587
   5 C :   -0.083204
   6 H :    0.025548
   7 H :    0.027138
   8 H :    0.022351
   9 H :    0.030537
  10 H :    0.024825
  11 H :    0.025621
  12 H :    0.026484
  13 H :    0.033649
  14 H :    0.032976
  15 H :    0.030563
  16 H :    0.017883
  17 H :    0.018983

  Mayer bond orders larger than 0.1
B(  0-C ,  1-C ) :   1.0687 B(  0-C ,  6-H ) :   0.9581 B(  0-C ,  7-H ) :   0.9615
B(  0-C ,  8-H ) :   0.9591 B(  1-C ,  2-C ) :   1.1099 B(  1-C ,  3-C ) :   1.0008
B(  1-C ,  9-H ) :   0.8921 B(  2-C , 10-H ) :   0.9509 B(  2-C , 11-H ) :   0.9546
B(  2-C , 12-H ) :   0.9537 B(  3-C ,  4-C ) :   1.0844 B(  3-C ,  5-C ) :   2.0002
B(  4-C , 13-H ) :   0.9435 B(  4-C , 14-H ) :   0.9451 B(  4-C , 15-H ) :   0.9477
B(  5-C , 16-H ) :   0.9280 B(  5-C , 17-H ) :   0.9253

FINAL SINGLE POINT ENERGY      -235.333020026237

DIPOLE MOMENT
-------------
                                X             Y             Z
Electronic contribution:      1.34758      -1.18227      -0.44541
Nuclear contribution   :     -1.42429       1.37693       0.34690
                        -----------------------------------------
Total Dipole Moment    :     -0.07671       0.19465      -0.09851
                        -----------------------------------------
Magnitude (a.u.)       :      0.23125
Magnitude (Debye)      :      0.58780

                             ****ORCA TERMINATED NORMALLY****
TOTAL RUN TIME: 0 days 0 hours 0 minutes 7 seconds 97 msec
