                         Program Version 3.0.3 - RELEASE   -
|  1> ! RI PBE def2-SVP def2-SVP/J NBO PAL2
|  2> % maxcore 2000
|  3> % output
|  4>     # printlevel mini
|  5>     print[ P_Basis ] 0
|  6>     print[ P_SCFInfo ] 1
|  7>     print[ P_SCFIterInfo ] 1
|  8>     print[ P_OrbEn ] 0
|  9>     print[ P_Cartesian ] 0
| 10> end
| 11> *xyz 0 1
| 12>  C        0.7673600000    -0.4377330000    -0.0740930000
| 13>  C        2.2592850000    -0.1497670000    -0.1528040000
| 14>  C        2.8194230000    -0.5408200000    -1.5125570000
| 15>  C        2.5667670000     1.3213000000     0.1516570000
| 16>  C        2.2288460000     1.7348740000     1.5447650000
| 17>  C        1.3973310000     2.7120690000     1.8788140000
| 18>  H        0.5619310000    -1.4975200000    -0.2450980000
| 19>  H        0.2252490000     0.1329380000    -0.8354140000
| 20>  H        0.3557850000    -0.1636440000     0.8995280000
| 21>  H        2.7648870000    -0.7566560000     0.6104270000
| 22>  H        2.3553220000     0.0521080000    -2.3073280000
| 23>  H        2.6268640000    -1.5941450000    -1.7316730000
| 24>  H        3.8993020000    -0.3781710000    -1.5635280000
| 25>  H        2.0354410000     1.9597610000    -0.5639790000
| 26>  H        3.6390260000     1.4875820000    -0.0149250000
| 27>  H        2.7196110000     1.1712140000     2.3380550000
| 28>  H        0.8835630000     3.3002950000     1.1242530000
| 29>  H        1.2021970000     2.9637260000     2.9150000000
| 30> *
| 31>
| 32>                          ****END OF INPUT****
 Total Charge           Charge          ....    0
 Multiplicity           Mult            ....    1
 Number of Electrons    NEL             ....   48
 Basis Dimension        Dim             ....  144

MULLIKEN ATOMIC CHARGES
-----------------------
   0 C :    0.033466
   1 C :   -0.175958
   2 C :    0.019839
   3 C :    0.093587
   4 C :   -0.081090
   5 C :   -0.028852
   6 H :    0.014839
   7 H :    0.007434
   8 H :    0.018770
   9 H :    0.009648
  10 H :    0.010587
  11 H :    0.017144
  12 H :    0.017192
  13 H :   -0.009254
  14 H :    0.015245
  15 H :    0.001071
  16 H :    0.016255
  17 H :    0.020079
Sum of atomic charges:   -0.0000000

LOEWDIN ATOMIC CHARGES
----------------------
   0 C :   -0.058368
   1 C :   -0.045383
   2 C :   -0.060697
   3 C :   -0.036940
   4 C :   -0.027977
   5 C :   -0.067836
   6 H :    0.024288
   7 H :    0.023105
   8 H :    0.025314
   9 H :    0.023464
  10 H :    0.024014
  11 H :    0.025464
  12 H :    0.024349
  13 H :    0.024882
  14 H :    0.033519
  15 H :    0.024611
  16 H :    0.020963
  17 H :    0.023229

  Mayer bond orders larger than 0.1
B(  0-C ,  1-C ) :   1.0772 B(  0-C ,  6-H ) :   0.9628 B(  0-C ,  7-H ) :   0.9586
B(  0-C ,  8-H ) :   0.9565 B(  1-C ,  2-C ) :   1.0863 B(  1-C ,  3-C ) :   1.0502
B(  1-C ,  9-H ) :   0.9141 B(  2-C , 10-H ) :   0.9569 B(  2-C , 11-H ) :   0.9608
B(  2-C , 12-H ) :   0.9587 B(  3-C ,  4-C ) :   1.0690 B(  3-C , 13-H ) :   0.9189
B(  3-C , 14-H ) :   0.9113 B(  4-C ,  5-C ) :   2.0014 B(  4-C , 15-H ) :   0.9534
B(  5-C , 16-H ) :   0.9464 B(  5-C , 17-H ) :   0.9427

FINAL SINGLE POINT ENERGY      -235.330380145805

DIPOLE MOMENT
-------------
                                X             Y             Z
Electronic contribution:      0.73280       1.98104       2.39421
Nuclear contribution   :     -0.64978      -2.09058      -2.44717
                        -----------------------------------------
Total Dipole Moment    :      0.08302      -0.10953      -0.05296
                        -----------------------------------------
Magnitude (a.u.)       :      0.14729
Magnitude (Debye)      :      0.37438

                             ****ORCA TERMINATED NORMALLY****
TOTAL RUN TIME: 0 days 0 hours 0 minutes 7 seconds 352 msec
