                         Program Version 3.0.3 - RELEASE   -
|  1> ! RI PBE def2-SVP def2-SVP/J NBO PAL2
|  2> % maxcore 2000
|  3> % output
|  4>     # printlevel mini
|  5>     print[ P_Basis ] 0
|  6>     print[ P_SCFInfo ] 1
|  7>     print[ P_SCFIterInfo ] 1
|  8>     print[ P_OrbEn ] 0
|  9>     print[ P_Cartesian ] 0
| 10> end
| 11> *xyz 0 1
| 12>  C        0.9984530000     0.1090610000     0.1151730000
| 13>  C        2.5105070000    -0.0352170000     0.0370360000
| 14>  C        2.9080260000    -1.3701300000    -0.5723780000
| 15>  C        3.1058180000     1.1409260000    -0.7509470000
| 16>  C        4.5585910000     1.1643800000    -0.7712260000
| 17>  C        5.7595440000     1.1758080000    -0.7728250000
| 18>  H        0.5578500000    -0.7041160000     0.6966600000
| 19>  H        0.5526370000     0.0799830000    -0.8843200000
| 20>  H        0.7076990000     1.0528900000     0.5839320000
| 21>  H        2.9185330000     0.0152790000     1.0532820000
| 22>  H        2.5080880000    -1.4659880000    -1.5872860000
| 23>  H        2.5153260000    -2.2008660000     0.0188980000
| 24>  H        3.9934390000    -1.4745770000    -0.6276850000
| 25>  H        2.7447470000     2.0836130000    -0.3250430000
| 26>  H        2.7332050000     1.1065890000    -1.7824250000
| 27>  H        6.8235480000     1.1904770000    -0.7782470000
| 28> *
| 29>
| 30>                          ****END OF INPUT****
 Total Charge           Charge          ....    0
 Multiplicity           Mult            ....    1
 Number of Electrons    NEL             ....   46
 Basis Dimension        Dim             ....  134

MULLIKEN ATOMIC CHARGES
-----------------------
   0 C :    0.041587
   1 C :   -0.180401
   2 C :    0.017029
   3 C :    0.101500
   4 C :    0.358256
   5 C :   -0.512714
   6 H :    0.020834
   7 H :    0.010175
   8 H :    0.013803
   9 H :    0.021665
  10 H :    0.007643
  11 H :    0.018294
  12 H :    0.034364
  13 H :    0.028894
  14 H :    0.024616
  15 H :   -0.005547
Sum of atomic charges:    0.0000000

LOEWDIN ATOMIC CHARGES
----------------------
   0 C :   -0.057441
   1 C :   -0.038305
   2 C :   -0.059210
   3 C :   -0.042269
   4 C :   -0.019205
   5 C :   -0.095098
   6 H :    0.027846
   7 H :    0.024041
   8 H :    0.024762
   9 H :    0.029300
  10 H :    0.023550
  11 H :    0.026323
  12 H :    0.031047
  13 H :    0.046926
  14 H :    0.045134
  15 H :    0.032597

  Mayer bond orders larger than 0.1
B(  0-C ,  1-C ) :   1.0870 B(  0-C ,  6-H ) :   0.9617 B(  0-C ,  7-H ) :   0.9566
B(  0-C ,  8-H ) :   0.9573 B(  1-C ,  2-C ) :   1.0786 B(  1-C ,  3-C ) :   1.0445
B(  1-C ,  9-H ) :   0.9168 B(  2-C , 10-H ) :   0.9575 B(  2-C , 11-H ) :   0.9613
B(  2-C , 12-H ) :   0.9578 B(  3-C ,  4-C ) :   1.0639 B(  3-C , 13-H ) :   0.8971
B(  3-C , 14-H ) :   0.8879 B(  4-C ,  5-C ) :   2.3026 B(  4-C , 15-H ) :  -0.1167
B(  5-C , 15-H ) :   1.1078

FINAL SINGLE POINT ENERGY      -234.088395753495

DIPOLE MOMENT
-------------
                                X             Y             Z
Electronic contribution:      5.47781       3.20456      -0.67297
Nuclear contribution   :     -5.77221      -3.25773       0.73502
                        -----------------------------------------
Total Dipole Moment    :     -0.29440      -0.05317       0.06206
                        -----------------------------------------
Magnitude (a.u.)       :      0.30553
Magnitude (Debye)      :      0.77660

                             ****ORCA TERMINATED NORMALLY****
TOTAL RUN TIME: 0 days 0 hours 0 minutes 6 seconds 506 msec
