                         Program Version 3.0.3 - RELEASE   -
|  1> ! RI PBE def2-SVP def2-SVP/J NBO PAL2
|  2> % maxcore 2000
|  3> % output
|  4>     # printlevel mini
|  5>     print[ P_Basis ] 0
|  6>     print[ P_SCFInfo ] 1
|  7>     print[ P_SCFIterInfo ] 1
|  8>     print[ P_OrbEn ] 0
|  9>     print[ P_Cartesian ] 0
| 10> end
| 11> *xyz 0 1
| 12>  C        1.0623310000     0.1026410000    -0.0193930000
| 13>  C        2.5959390000     0.0254620000     0.0229530000
| 14>  C        3.0906160000     0.0277540000     1.3992300000
| 15>  C        3.4720590000     0.0465130000     2.5359370000
| 16>  C        3.0906180000    -1.1340710000    -0.7184150000
| 17>  C        3.4720670000    -2.0826970000    -1.3449590000
| 18>  H        0.7208630000     0.9961330000     0.5045850000
| 19>  H        0.6274740000    -0.7737030000     0.4614030000
| 20>  H        0.7208650000     0.1407620000    -1.0544920000
| 21>  H        2.9949740000     0.9223620000    -0.4691220000
| 22>  H        3.8177410000     0.0569090000     3.5424620000
| 23>  H        3.8177530000    -2.9259670000    -1.8945910000
| 24> *
| 25>
| 26>                          ****END OF INPUT****
 Total Charge           Charge          ....    0
 Multiplicity           Mult            ....    1
 Number of Electrons    NEL             ....   42
 Basis Dimension        Dim             ....  114

MULLIKEN ATOMIC CHARGES
-----------------------
   0 C :    0.024798
   1 C :    0.006385
   2 C :    0.396498
   3 C :   -0.494266
   4 C :    0.391709
   5 C :   -0.494260
   6 H :    0.034677
   7 H :    0.043819
   8 H :    0.034114
   9 H :    0.055536
  10 H :    0.000545
  11 H :    0.000444
Sum of atomic charges:    0.0000000

LOEWDIN ATOMIC CHARGES
----------------------
   0 C :   -0.030480
   1 C :   -0.052385
   2 C :   -0.007398
   3 C :   -0.073527
   4 C :   -0.007831
   5 C :   -0.072908
   6 H :    0.033519
   7 H :    0.036143
   8 H :    0.033180
   9 H :    0.068650
  10 H :    0.036508
  11 H :    0.036528

  Mayer bond orders larger than 0.1
B(  0-C ,  1-C ) :   1.0714 B(  0-C ,  6-H ) :   0.9591 B(  0-C ,  7-H ) :   0.9625
B(  0-C ,  8-H ) :   0.9604 B(  1-C ,  2-C ) :   0.9799 B(  1-C ,  4-C ) :   0.9841
B(  1-C ,  9-H ) :   0.8542 B(  2-C ,  3-C ) :   2.3527 B(  2-C , 10-H ) :  -0.1167
B(  3-C , 10-H ) :   1.1070 B(  4-C ,  5-C ) :   2.3542 B(  4-C , 11-H ) :  -0.1165
B(  5-C , 11-H ) :   1.1068

FINAL SINGLE POINT ENERGY      -231.613048379327

DIPOLE MOMENT
-------------
                                X             Y             Z
Electronic contribution:      3.34074      -1.07760       0.58981
Nuclear contribution   :     -3.53482       1.23849      -0.67954
                        -----------------------------------------
Total Dipole Moment    :     -0.19408       0.16089      -0.08973
                        -----------------------------------------
Magnitude (a.u.)       :      0.26760
Magnitude (Debye)      :      0.68017

                             ****ORCA TERMINATED NORMALLY****
TOTAL RUN TIME: 0 days 0 hours 0 minutes 4 seconds 993 msec
