                         Program Version 3.0.3 - RELEASE   -
|  1> ! RI PBE def2-SVP def2-SVP/J NBO PAL2
|  2> % maxcore 2000
|  3> % output
|  4>     # printlevel mini
|  5>     print[ P_Basis ] 0
|  6>     print[ P_SCFInfo ] 1
|  7>     print[ P_SCFIterInfo ] 1
|  8>     print[ P_OrbEn ] 0
|  9>     print[ P_Cartesian ] 0
| 10> end
| 11> *xyz 0 1
| 12>  C        0.9034870000    -0.0618550000     0.0059310000
| 13>  C        2.3549550000    -0.0649500000     0.0194490000
| 14>  C        3.5580810000    -0.0637020000     0.0300100000
| 15>  C        5.0180880000    -0.0824610000     0.0459080000
| 16>  C        5.5476040000    -0.5569890000     1.3993350000
| 17>  C        5.5699180000    -0.9359920000    -1.0961460000
| 18>  H        0.5002820000    -0.4165280000     0.9579780000
| 19>  H        0.5158340000    -0.7109650000    -0.7834640000
| 20>  H        0.5136610000     0.9444890000    -0.1677020000
| 21>  H        5.3618930000     0.9485680000    -0.1076040000
| 22>  H        5.2323280000    -1.5848850000     1.5934500000
| 23>  H        5.1740690000     0.0700450000     2.2104560000
| 24>  H        6.6400050000    -0.5251320000     1.4115540000
| 25>  H        5.2553770000    -1.9760140000    -0.9818200000
| 26>  H        6.6624470000    -0.9062900000    -1.0981760000
| 27>  H        5.2122700000    -0.5790390000    -2.0632490000
| 28> *
| 29>
| 30>                          ****END OF INPUT****
 Total Charge           Charge          ....    0
 Multiplicity           Mult            ....    1
 Number of Electrons    NEL             ....   46
 Basis Dimension        Dim             ....  134

MULLIKEN ATOMIC CHARGES
-----------------------
   0 C :    0.056377
   1 C :   -0.244269
   2 C :   -0.029664
   3 C :   -0.105082
   4 C :    0.012543
   5 C :    0.012325
   6 H :    0.043055
   7 H :    0.044834
   8 H :    0.042652
   9 H :    0.024497
  10 H :    0.022898
  11 H :    0.028501
  12 H :    0.019824
  13 H :    0.024802
  14 H :    0.020923
  15 H :    0.025784
Sum of atomic charges:   -0.0000000

LOEWDIN ATOMIC CHARGES
----------------------
   0 C :   -0.068432
   1 C :   -0.076380
   2 C :   -0.058291
   3 C :   -0.053482
   4 C :   -0.049264
   5 C :   -0.048816
   6 H :    0.048599
   7 H :    0.048901
   8 H :    0.048419
   9 H :    0.043365
  10 H :    0.027938
  11 H :    0.029648
  12 H :    0.025250
  13 H :    0.028010
  14 H :    0.025429
  15 H :    0.029107

  Mayer bond orders larger than 0.1
B(  0-C ,  1-C ) :   1.1390 B(  0-C ,  6-H ) :   0.9322 B(  0-C ,  7-H ) :   0.9326
B(  0-C ,  8-H ) :   0.9338 B(  1-C ,  2-C ) :   2.5888 B(  2-C ,  3-C ) :   1.0212
B(  3-C ,  4-C ) :   1.0801 B(  3-C ,  5-C ) :   1.0738 B(  3-C ,  9-H ) :   0.8781
B(  4-C , 10-H ) :   0.9600 B(  4-C , 11-H ) :   0.9617 B(  4-C , 12-H ) :   0.9593
B(  5-C , 13-H ) :   0.9624 B(  5-C , 14-H ) :   0.9602 B(  5-C , 15-H ) :   0.9624

FINAL SINGLE POINT ENERGY      -234.098391764294

DIPOLE MOMENT
-------------
                                X             Y             Z
Electronic contribution:     -2.38067       1.48129      -0.24565
Nuclear contribution   :      2.31658      -1.47533       0.24468
                        -----------------------------------------
Total Dipole Moment    :     -0.06409       0.00596      -0.00098
                        -----------------------------------------
Magnitude (a.u.)       :      0.06438
Magnitude (Debye)      :      0.16364

                             ****ORCA TERMINATED NORMALLY****
TOTAL RUN TIME: 0 days 0 hours 0 minutes 6 seconds 286 msec
