                         Program Version 3.0.3 - RELEASE   -
|  1> ! RI PBE def2-SVP def2-SVP/J NBO PAL2
|  2> % maxcore 2000
|  3> % output
|  4>     # printlevel mini
|  5>     print[ P_Basis ] 0
|  6>     print[ P_SCFInfo ] 1
|  7>     print[ P_SCFIterInfo ] 1
|  8>     print[ P_OrbEn ] 0
|  9>     print[ P_Cartesian ] 0
| 10> end
| 11> *xyz 0 1
| 12>  C        0.9843050000     0.0845530000    -0.0534300000
| 13>  C        2.4306220000     0.0840790000    -0.0538750000
| 14>  C        3.6388700000     0.0837000000    -0.0541480000
| 15>  C        5.0026430000     0.0839990000    -0.0536930000
| 16>  C        6.2108920000     0.0842000000    -0.0535390000
| 17>  C        7.6572120000     0.0845470000    -0.0534240000
| 18>  H        0.5931710000    -0.1692220000     0.9355480000
| 19>  H        0.5925590000    -0.6447780000    -0.7676180000
| 20>  H        0.5931720000     1.0679930000    -0.3278800000
| 21>  H        8.0487240000    -0.1856750000    -1.0378840000
| 22>  H        8.0486270000    -0.6328030000     0.6729760000
| 23>  H        8.0483040000     1.0723970000     0.2047670000
| 24> *
| 25>
| 26>                          ****END OF INPUT****
 Total Charge           Charge          ....    0
 Multiplicity           Mult            ....    1
 Number of Electrons    NEL             ....   42
 Basis Dimension        Dim             ....  114

MULLIKEN ATOMIC CHARGES
-----------------------
   0 C :    0.057959
   1 C :   -0.184450
   2 C :   -0.030728
   3 C :   -0.030721
   4 C :   -0.184452
   5 C :    0.057945
   6 H :    0.051738
   7 H :    0.053724
   8 H :    0.051756
   9 H :    0.051754
  10 H :    0.053723
  11 H :    0.051752
Sum of atomic charges:   -0.0000000

LOEWDIN ATOMIC CHARGES
----------------------
   0 C :   -0.065607
   1 C :   -0.024453
   2 C :   -0.072521
   3 C :   -0.072520
   4 C :   -0.024453
   5 C :   -0.065609
   6 H :    0.054068
   7 H :    0.054443
   8 H :    0.054071
   9 H :    0.054074
  10 H :    0.054442
  11 H :    0.054066

  Mayer bond orders larger than 0.1
B(  0-C ,  1-C ) :   1.1501 B(  0-C ,  6-H ) :   0.9277 B(  0-C ,  7-H ) :   0.9280
B(  0-C ,  8-H ) :   0.9277 B(  1-C ,  2-C ) :   2.3419 B(  1-C ,  4-C ) :   0.2294
B(  2-C ,  3-C ) :   0.9732 B(  3-C ,  4-C ) :   2.3419 B(  4-C ,  5-C ) :   1.1501
B(  5-C ,  9-H ) :   0.9277 B(  5-C , 10-H ) :   0.9279 B(  5-C , 11-H ) :   0.9278

FINAL SINGLE POINT ENERGY      -231.655488602064

DIPOLE MOMENT
-------------
                                X             Y             Z
Electronic contribution:     -0.00001      -0.00275      -0.00137
Nuclear contribution   :      0.00001       0.00245       0.00175
                        -----------------------------------------
Total Dipole Moment    :     -0.00000      -0.00030       0.00038
                        -----------------------------------------
Magnitude (a.u.)       :      0.00048
Magnitude (Debye)      :      0.00123

                             ****ORCA TERMINATED NORMALLY****
TOTAL RUN TIME: 0 days 0 hours 0 minutes 4 seconds 880 msec
