                         Program Version 3.0.3 - RELEASE   -
|  1> ! RI PBE def2-SVP def2-SVP/J NBO PAL2
|  2> % maxcore 2000
|  3> % output
|  4>     # printlevel mini
|  5>     print[ P_Basis ] 0
|  6>     print[ P_SCFInfo ] 1
|  7>     print[ P_SCFIterInfo ] 1
|  8>     print[ P_OrbEn ] 0
|  9>     print[ P_Cartesian ] 0
| 10> end
| 11> *xyz 0 1
| 12>  C        0.9887240000    -0.0080490000     0.0639450000
| 13>  C        2.4395240000    -0.0314660000     0.0824230000
| 14>  C        3.6415520000    -0.0529310000     0.0926410000
| 15>  C        5.0982240000    -0.0899110000     0.1264460000
| 16>  C        5.6325800000    -0.9351300000     1.2468590000
| 17>  C        6.4845800000    -1.9356920000     1.0874790000
| 18>  H        0.6054680000     0.9657510000     0.3791530000
| 19>  H        0.5763720000    -0.7646160000     0.7363700000
| 20>  H        0.6064020000    -0.2096270000    -0.9399450000
| 21>  H        5.4730030000     0.9359220000     0.2388830000
| 22>  H        5.4853210000    -0.4579710000    -0.8291800000
| 23>  H        5.2753240000    -0.6793140000     2.2411950000
| 24>  H        6.8487020000    -2.2210690000     0.1052100000
| 25>  H        6.8486450000    -2.5081960000     1.9325190000
| 26> *
| 27>
| 28>                          ****END OF INPUT****
 Total Charge           Charge          ....    0
 Multiplicity           Mult            ....    1
 Number of Electrons    NEL             ....   44
 Basis Dimension        Dim             ....  124

MULLIKEN ATOMIC CHARGES
-----------------------
   0 C :    0.054582
   1 C :   -0.214566
   2 C :   -0.127613
   3 C :    0.148342
   4 C :   -0.085848
   5 C :   -0.033918
   6 H :    0.043766
   7 H :    0.047628
   8 H :    0.044735
   9 H :    0.042192
  10 H :    0.023082
  11 H :    0.011785
  12 H :    0.017347
  13 H :    0.028486
Sum of atomic charges:   -0.0000000

LOEWDIN ATOMIC CHARGES
----------------------
   0 C :   -0.067902
   1 C :   -0.068927
   2 C :   -0.067258
   3 C :   -0.043680
   4 C :   -0.018055
   5 C :   -0.062780
   6 H :    0.048599
   7 H :    0.050253
   8 H :    0.049595
   9 H :    0.055266
  10 H :    0.047595
  11 H :    0.028876
  12 H :    0.021928
  13 H :    0.026489

  Mayer bond orders larger than 0.1
B(  0-C ,  1-C ) :   1.1349 B(  0-C ,  6-H ) :   0.9336 B(  0-C ,  7-H ) :   0.9320
B(  0-C ,  8-H ) :   0.9340 B(  1-C ,  2-C ) :   2.6357 B(  2-C ,  3-C ) :   1.0448
B(  3-C ,  4-C ) :   1.0401 B(  3-C ,  9-H ) :   0.8879 B(  3-C , 10-H ) :   0.8975
B(  4-C ,  5-C ) :   2.0219 B(  4-C , 11-H ) :   0.9578 B(  5-C , 12-H ) :   0.9472
B(  5-C , 13-H ) :   0.9456

FINAL SINGLE POINT ENERGY      -232.872168280326

DIPOLE MOMENT
-------------
                                X             Y             Z
Electronic contribution:      0.41273       0.80863      -0.23605
Nuclear contribution   :     -0.55773      -0.73257       0.22316
                        -----------------------------------------
Total Dipole Moment    :     -0.14500       0.07607      -0.01290
                        -----------------------------------------
Magnitude (a.u.)       :      0.16425
Magnitude (Debye)      :      0.41748

                             ****ORCA TERMINATED NORMALLY****
TOTAL RUN TIME: 0 days 0 hours 0 minutes 5 seconds 768 msec
