                         Program Version 3.0.3 - RELEASE   -
|  1> ! RI PBE def2-SVP def2-SVP/J NBO PAL2
|  2> % maxcore 2000
|  3> % output
|  4>     # printlevel mini
|  5>     print[ P_Basis ] 0
|  6>     print[ P_SCFInfo ] 1
|  7>     print[ P_SCFIterInfo ] 1
|  8>     print[ P_OrbEn ] 0
|  9>     print[ P_Cartesian ] 0
| 10> end
| 11> *xyz 0 1
| 12>  C        0.9436840000    -0.0747690000     0.1134940000
| 13>  C        2.3927100000    -0.0476590000     0.0547300000
| 14>  C        3.5920380000    -0.0303240000    -0.0005610000
| 15>  C        5.0496840000    -0.0016500000    -0.0578400000
| 16>  C        5.6099090000    -0.8030720000    -1.1408330000
| 17>  C        6.0849200000    -1.4573130000    -2.0260650000
| 18>  H        0.5967610000    -0.4703570000     1.0712540000
| 19>  H        0.5350500000    -0.7066590000    -0.6789330000
| 20>  H        0.5268330000     0.9280660000    -0.0077940000
| 21>  H        5.4609410000    -0.3549740000     0.8951500000
| 22>  H        5.3918160000     1.0341330000    -0.1685590000
| 23>  H        6.5004650000    -2.0398110000    -2.8137530000
| 24> *
| 25>
| 26>                          ****END OF INPUT****
 Total Charge           Charge          ....    0
 Multiplicity           Mult            ....    1
 Number of Electrons    NEL             ....   42
 Basis Dimension        Dim             ....  114

MULLIKEN ATOMIC CHARGES
-----------------------
   0 C :    0.052520
   1 C :   -0.206655
   2 C :   -0.119299
   3 C :    0.180220
   4 C :    0.297978
   5 C :   -0.462325
   6 H :    0.046429
   7 H :    0.052285
   8 H :    0.046478
   9 H :    0.055041
  10 H :    0.057642
  11 H :   -0.000314
Sum of atomic charges:   -0.0000000

LOEWDIN ATOMIC CHARGES
----------------------
   0 C :   -0.067471
   1 C :   -0.054359
   2 C :   -0.065042
   3 C :   -0.044934
   4 C :   -0.014897
   5 C :   -0.078786
   6 H :    0.050483
   7 H :    0.052838
   8 H :    0.050454
   9 H :    0.068161
  10 H :    0.068479
  11 H :    0.035074

  Mayer bond orders larger than 0.1
B(  0-C ,  1-C ) :   1.1346 B(  0-C ,  6-H ) :   0.9331 B(  0-C ,  7-H ) :   0.9314
B(  0-C ,  8-H ) :   0.9335 B(  1-C ,  2-C ) :   2.6641 B(  2-C ,  3-C ) :   1.0347
B(  3-C ,  4-C ) :   1.0419 B(  3-C ,  9-H ) :   0.8737 B(  3-C , 10-H ) :   0.8750
B(  4-C ,  5-C ) :   2.4029 B(  4-C , 11-H ) :  -0.1076 B(  5-C , 11-H ) :   1.0989

FINAL SINGLE POINT ENERGY      -231.625495894159

DIPOLE MOMENT
-------------
                                X             Y             Z
Electronic contribution:      3.78465      -0.56695      -0.99072
Nuclear contribution   :     -4.03434       0.69692       1.17232
                        -----------------------------------------
Total Dipole Moment    :     -0.24969       0.12996       0.18160
                        -----------------------------------------
Magnitude (a.u.)       :      0.33498
Magnitude (Debye)      :      0.85146

                             ****ORCA TERMINATED NORMALLY****
TOTAL RUN TIME: 0 days 0 hours 0 minutes 4 seconds 835 msec
