                         Program Version 3.0.3 - RELEASE   -
|  1> ! RI PBE def2-SVP def2-SVP/J NBO PAL2
|  2> % maxcore 2000
|  3> % output
|  4>     # printlevel mini
|  5>     print[ P_Basis ] 0
|  6>     print[ P_SCFInfo ] 1
|  7>     print[ P_SCFIterInfo ] 1
|  8>     print[ P_OrbEn ] 0
|  9>     print[ P_Cartesian ] 0
| 10> end
| 11> *xyz 0 1
| 12>  C        2.1831540000     1.6017240000    -0.2638870000
| 13>  C        2.6850570000     0.2332140000     0.1843340000
| 14>  C        3.0429380000    -0.6543600000    -0.9619520000
| 15>  C        4.2411170000    -1.1824730000    -1.1821460000
| 16>  C        4.6035580000    -2.0557290000    -2.3379570000
| 17>  C        5.7271570000    -1.4723670000    -3.1881570000
| 18>  H        1.8962710000     2.2174760000     0.5918520000
| 19>  H        1.3088020000     1.5066210000    -0.9135390000
| 20>  H        2.9543090000     2.1358260000    -0.8239400000
| 21>  H        1.9038810000    -0.2496090000     0.7849160000
| 22>  H        3.5534650000     0.3485830000     0.8403180000
| 23>  H        2.2417630000    -0.8662270000    -1.6715810000
| 24>  H        5.0443580000    -0.9641200000    -0.4768310000
| 25>  H        3.7168300000    -2.2286180000    -2.9556770000
| 26>  H        4.9180290000    -3.0381650000    -1.9638200000
| 27>  H        5.4314240000    -0.5138430000    -3.6210280000
| 28>  H        5.9955250000    -2.1462520000    -4.0052250000
| 29>  H        6.6256730000    -1.3014010000    -2.5889710000
| 30> *
| 31>
| 32>                          ****END OF INPUT****
 Total Charge           Charge          ....    0
 Multiplicity           Mult            ....    1
 Number of Electrons    NEL             ....   48
 Basis Dimension        Dim             ....  144

MULLIKEN ATOMIC CHARGES
-----------------------
   0 C :   -0.046569
   1 C :    0.026034
   2 C :   -0.071808
   3 C :   -0.073565
   4 C :    0.033532
   5 C :   -0.038084
   6 H :    0.021840
   7 H :    0.023842
   8 H :    0.028881
   9 H :    0.022046
  10 H :    0.008870
  11 H :   -0.012467
  12 H :   -0.014522
  13 H :    0.006808
  14 H :    0.018944
  15 H :    0.022065
  16 H :    0.022670
  17 H :    0.021483
Sum of atomic charges:   -0.0000000

LOEWDIN ATOMIC CHARGES
----------------------
   0 C :   -0.066344
   1 C :   -0.047132
   2 C :   -0.044549
   3 C :   -0.044526
   4 C :   -0.046085
   5 C :   -0.063893
   6 H :    0.026420
   7 H :    0.025224
   8 H :    0.026736
   9 H :    0.032367
  10 H :    0.027388
  11 H :    0.019633
  12 H :    0.019154
  13 H :    0.026919
  14 H :    0.032296
  15 H :    0.025655
  16 H :    0.026110
  17 H :    0.024626

  Mayer bond orders larger than 0.1
B(  0-C ,  1-C ) :   1.1018 B(  0-C ,  6-H ) :   0.9588 B(  0-C ,  7-H ) :   0.9684
B(  0-C ,  8-H ) :   0.9682 B(  1-C ,  2-C ) :   1.0638 B(  1-C ,  9-H ) :   0.9195
B(  1-C , 10-H ) :   0.9339 B(  2-C ,  3-C ) :   1.9267 B(  2-C , 11-H ) :   0.9486
B(  3-C ,  4-C ) :   1.0644 B(  3-C , 12-H ) :   0.9487 B(  4-C ,  5-C ) :   1.0986
B(  4-C , 13-H ) :   0.9350 B(  4-C , 14-H ) :   0.9168 B(  5-C , 15-H ) :   0.9678
B(  5-C , 16-H ) :   0.9609 B(  5-C , 17-H ) :   0.9698

FINAL SINGLE POINT ENERGY      -235.334472163050

DIPOLE MOMENT
-------------
                                X             Y             Z
Electronic contribution:     -0.49946      -1.58351       1.04606
Nuclear contribution   :      0.50158       1.57475      -1.04755
                        -----------------------------------------
Total Dipole Moment    :      0.00212      -0.00876      -0.00149
                        -----------------------------------------
Magnitude (a.u.)       :      0.00914
Magnitude (Debye)      :      0.02323

                             ****ORCA TERMINATED NORMALLY****
TOTAL RUN TIME: 0 days 0 hours 0 minutes 6 seconds 761 msec
