                         Program Version 3.0.3 - RELEASE   -
|  1> ! RI PBE def2-SVP def2-SVP/J NBO PAL2
|  2> % maxcore 2000
|  3> % output
|  4>     # printlevel mini
|  5>     print[ P_Basis ] 0
|  6>     print[ P_SCFInfo ] 1
|  7>     print[ P_SCFIterInfo ] 1
|  8>     print[ P_OrbEn ] 0
|  9>     print[ P_Cartesian ] 0
| 10> end
| 11> *xyz 0 1
| 12>  C        1.3296920000    -0.2894670000     1.2202770000
| 13>  C        2.6991940000    -0.6650390000     0.6621610000
| 14>  C        3.3814300000     0.4904050000     0.0061140000
| 15>  C        4.5553210000     1.0476380000     0.3083290000
| 16>  C        5.0714510000     2.2188390000    -0.4708420000
| 17>  C        5.4616430000     0.5908670000     1.4087240000
| 18>  H        0.8254960000    -1.1579470000     1.6511020000
| 19>  H        0.6841550000     0.1162470000     0.4366090000
| 20>  H        1.4208770000     0.4719860000     1.9984720000
| 21>  H        2.5692050000    -1.4656850000    -0.0770730000
| 22>  H        3.3163310000    -1.0867690000     1.4584100000
| 23>  H        2.8250000000     0.9324010000    -0.8207680000
| 24>  H        4.3799180000     2.5164220000    -1.2605060000
| 25>  H        6.0385670000     1.9877670000    -0.9313280000
| 26>  H        5.2379290000     3.0821350000     0.1830760000
| 27>  H        5.0621040000    -0.2465730000     1.9786700000
| 28>  H        5.6591350000     1.4119630000     2.1063940000
| 29>  H        6.4340320000     0.2898970000     1.0035680000
| 30> *
| 31>
| 32>                          ****END OF INPUT****
 Total Charge           Charge          ....    0
 Multiplicity           Mult            ....    1
 Number of Electrons    NEL             ....   48
 Basis Dimension        Dim             ....  144

MULLIKEN ATOMIC CHARGES
-----------------------
   0 C :   -0.048023
   1 C :    0.036146
   2 C :   -0.085355
   3 C :   -0.196331
   4 C :    0.048618
   5 C :    0.064000
   6 H :    0.019577
   7 H :    0.022835
   8 H :    0.029677
   9 H :    0.021682
  10 H :    0.002613
  11 H :   -0.024963
  12 H :    0.012439
  13 H :    0.021057
  14 H :    0.023194
  15 H :    0.008379
  16 H :    0.022695
  17 H :    0.021757
Sum of atomic charges:   -0.0000000

LOEWDIN ATOMIC CHARGES
----------------------
   0 C :   -0.065248
   1 C :   -0.049482
   2 C :   -0.059350
   3 C :   -0.048979
   4 C :   -0.056128
   5 C :   -0.058745
   6 H :    0.025154
   7 H :    0.024817
   8 H :    0.026506
   9 H :    0.033152
  10 H :    0.024247
  11 H :    0.018805
  12 H :    0.027716
  13 H :    0.031530
  14 H :    0.031591
  15 H :    0.025629
  16 H :    0.034220
  17 H :    0.034564

  Mayer bond orders larger than 0.1
B(  0-C ,  1-C ) :   1.1007 B(  0-C ,  6-H ) :   0.9589 B(  0-C ,  7-H ) :   0.9685
B(  0-C ,  8-H ) :   0.9699 B(  1-C ,  2-C ) :   1.0716 B(  1-C ,  9-H ) :   0.9139
B(  1-C , 10-H ) :   0.9252 B(  2-C ,  3-C ) :   1.9024 B(  2-C , 11-H ) :   0.9317
B(  3-C ,  4-C ) :   1.0830 B(  3-C ,  5-C ) :   1.1033 B(  4-C , 12-H ) :   0.9530
B(  4-C , 13-H ) :   0.9451 B(  4-C , 14-H ) :   0.9470 B(  5-C , 15-H ) :   0.9459
B(  5-C , 16-H ) :   0.9410 B(  5-C , 17-H ) :   0.9413

FINAL SINGLE POINT ENERGY      -235.337990585068

DIPOLE MOMENT
-------------
                                X             Y             Z
Electronic contribution:      0.54296      -0.05249      -1.11363
Nuclear contribution   :     -0.43759       0.05250       1.17055
                        -----------------------------------------
Total Dipole Moment    :      0.10537       0.00002       0.05691
                        -----------------------------------------
Magnitude (a.u.)       :      0.11976
Magnitude (Debye)      :      0.30440

                             ****ORCA TERMINATED NORMALLY****
TOTAL RUN TIME: 0 days 0 hours 0 minutes 7 seconds 13 msec
