                         Program Version 3.0.3 - RELEASE   -
|  1> ! RI PBE def2-SVP def2-SVP/J NBO PAL2
|  2> % maxcore 2000
|  3> % output
|  4>     # printlevel mini
|  5>     print[ P_Basis ] 0
|  6>     print[ P_SCFInfo ] 1
|  7>     print[ P_SCFIterInfo ] 1
|  8>     print[ P_OrbEn ] 0
|  9>     print[ P_Cartesian ] 0
| 10> end
| 11> *xyz 0 1
| 12>  C        1.6931350000     0.7233230000     1.0394130000
| 13>  C        2.7891060000     0.2706900000     0.0789490000
| 14>  C        3.0950750000    -1.1825300000     0.1987240000
| 15>  C        4.2846430000    -1.6983720000     0.5166450000
| 16>  C        4.5503060000    -3.1166450000     0.6333320000
| 17>  C        5.7352070000    -3.6387610000     0.9499980000
| 18>  H        1.4647470000     1.7828400000     0.9030880000
| 19>  H        1.9966400000     0.5710510000     2.0776050000
| 20>  H        0.7704570000     0.1597670000     0.8775290000
| 21>  H        3.7005890000     0.8518840000     0.2481510000
| 22>  H        2.4676740000     0.4862280000    -0.9480790000
| 23>  H        2.2648260000    -1.8663420000     0.0198580000
| 24>  H        5.1220480000    -1.0269650000     0.7025280000
| 25>  H        3.7094070000    -3.7813970000     0.4450200000
| 26>  H        6.5959500000    -3.0067070000     1.1442440000
| 27>  H        5.8826100000    -4.7090630000     1.0251840000
| 28> *
| 29>
| 30>                          ****END OF INPUT****
 Total Charge           Charge          ....    0
 Multiplicity           Mult            ....    1
 Number of Electrons    NEL             ....   46
 Basis Dimension        Dim             ....  134

MULLIKEN ATOMIC CHARGES
-----------------------
   0 C :   -0.041034
   1 C :    0.039608
   2 C :   -0.080693
   3 C :    0.014539
   4 C :   -0.007991
   5 C :   -0.038357
   6 H :    0.024925
   7 H :    0.029799
   8 H :    0.022153
   9 H :    0.007922
  10 H :    0.023565
  11 H :   -0.007820
  12 H :   -0.018719
  13 H :   -0.009001
  14 H :    0.016148
  15 H :    0.024956
Sum of atomic charges:    0.0000000

LOEWDIN ATOMIC CHARGES
----------------------
   0 C :   -0.062293
   1 C :   -0.045071
   2 C :   -0.023458
   3 C :   -0.044982
   4 C :   -0.032421
   5 C :   -0.058786
   6 H :    0.027629
   7 H :    0.027438
   8 H :    0.025447
   9 H :    0.028236
  10 H :    0.034994
  11 H :    0.022209
  12 H :    0.025605
  13 H :    0.028507
  14 H :    0.022055
  15 H :    0.024891

  Mayer bond orders larger than 0.1
B(  0-C ,  1-C ) :   1.0931 B(  0-C ,  6-H ) :   0.9603 B(  0-C ,  7-H ) :   0.9704
B(  0-C ,  8-H ) :   0.9687 B(  1-C ,  2-C ) :   1.0621 B(  1-C ,  9-H ) :   0.9337
B(  1-C , 10-H ) :   0.9163 B(  2-C ,  3-C ) :   1.7972 B(  2-C ,  5-C ) :   0.1370
B(  2-C , 11-H ) :   0.9539 B(  3-C ,  4-C ) :   1.1370 B(  3-C , 12-H ) :   0.9588
B(  4-C ,  5-C ) :   1.8869 B(  4-C , 13-H ) :   0.9607 B(  5-C , 14-H ) :   0.9479
B(  5-C , 15-H ) :   0.9440

FINAL SINGLE POINT ENERGY      -234.119432256300

DIPOLE MOMENT
-------------
                                X             Y             Z
Electronic contribution:      2.24800      -2.98836      -0.69783
Nuclear contribution   :     -2.41773       3.18120       0.65847
                        -----------------------------------------
Total Dipole Moment    :     -0.16972       0.19284      -0.03936
                        -----------------------------------------
Magnitude (a.u.)       :      0.25989
Magnitude (Debye)      :      0.66059

                             ****ORCA TERMINATED NORMALLY****
TOTAL RUN TIME: 0 days 0 hours 0 minutes 6 seconds 499 msec
