                         Program Version 3.0.3 - RELEASE   -
|  1> ! RI PBE def2-SVP def2-SVP/J NBO PAL2
|  2> % maxcore 2000
|  3> % output
|  4>     # printlevel mini
|  5>     print[ P_Basis ] 0
|  6>     print[ P_SCFInfo ] 1
|  7>     print[ P_SCFIterInfo ] 1
|  8>     print[ P_OrbEn ] 0
|  9>     print[ P_Cartesian ] 0
| 10> end
| 11> *xyz 0 1
| 12>  C        0.8379300000    -0.2587280000    -0.0981970000
| 13>  C        2.3293000000    -0.1113440000     0.1889960000
| 14>  C        2.7277380000     1.3027320000     0.4296270000
| 15>  C        3.3041500000     1.7491780000     1.5484620000
| 16>  C        3.6742710000     3.0988450000     1.7715440000
| 17>  C        4.0004310000     4.2363120000     1.9926350000
| 18>  H        0.5817590000    -1.2998660000    -0.3058490000
| 19>  H        0.5432270000     0.3372810000    -0.9657200000
| 20>  H        0.2410790000     0.0758370000     0.7530490000
| 21>  H        2.8938830000    -0.4970700000    -0.6692520000
| 22>  H        2.6112360000    -0.7246390000     1.0500040000
| 23>  H        2.5185660000     2.0140490000    -0.3669520000
| 24>  H        3.5165000000     1.0516550000     2.3563730000
| 25>  H        4.2855220000     5.2442480000     2.1795900000
| 26> *
| 27>
| 28>                          ****END OF INPUT****
 Total Charge           Charge          ....    0
 Multiplicity           Mult            ....    1
 Number of Electrons    NEL             ....   44
 Basis Dimension        Dim             ....  124

MULLIKEN ATOMIC CHARGES
-----------------------
   0 C :   -0.040502
   1 C :    0.023138
   2 C :   -0.050499
   3 C :   -0.065830
   4 C :    0.380574
   5 C :   -0.413709
   6 H :    0.025965
   7 H :    0.025553
   8 H :    0.033057
   9 H :    0.032713
  10 H :    0.012750
  11 H :    0.008980
  12 H :    0.023664
  13 H :    0.004146
Sum of atomic charges:    0.0000000

LOEWDIN ATOMIC CHARGES
----------------------
   0 C :   -0.060929
   1 C :   -0.045478
   2 C :    0.002419
   3 C :   -0.062877
   4 C :   -0.019182
   5 C :   -0.073112
   6 H :    0.028786
   7 H :    0.026872
   8 H :    0.029004
   9 H :    0.038791
  10 H :    0.029376
  11 H :    0.030249
  12 H :    0.041108
  13 H :    0.034975

  Mayer bond orders larger than 0.1
B(  0-C ,  1-C ) :   1.0941 B(  0-C ,  6-H ) :   0.9605 B(  0-C ,  7-H ) :   0.9696
B(  0-C ,  8-H ) :   0.9694 B(  1-C ,  2-C ) :   1.0635 B(  1-C ,  9-H ) :   0.9157
B(  1-C , 10-H ) :   0.9341 B(  2-C ,  3-C ) :   1.8246 B(  2-C ,  5-C ) :   0.1300
B(  2-C , 11-H ) :   0.9579 B(  3-C ,  4-C ) :   1.0493 B(  3-C , 12-H ) :   0.9362
B(  4-C ,  5-C ) :   2.2806 B(  5-C , 13-H ) :   1.0857

FINAL SINGLE POINT ENERGY      -232.872931071665

DIPOLE MOMENT
-------------
                                X             Y             Z
Electronic contribution:      4.30592       5.69302       2.96999
Nuclear contribution   :     -4.47755      -6.03669      -3.16088
                        -----------------------------------------
Total Dipole Moment    :     -0.17163      -0.34367      -0.19089
                        -----------------------------------------
Magnitude (a.u.)       :      0.42896
Magnitude (Debye)      :      1.09033

                             ****ORCA TERMINATED NORMALLY****
TOTAL RUN TIME: 0 days 0 hours 0 minutes 5 seconds 685 msec
