                         Program Version 3.0.3 - RELEASE   -
|  1> ! RI PBE def2-SVP def2-SVP/J NBO PAL2
|  2> % maxcore 2000
|  3> % output
|  4>     # printlevel mini
|  5>     print[ P_Basis ] 0
|  6>     print[ P_SCFInfo ] 1
|  7>     print[ P_SCFIterInfo ] 1
|  8>     print[ P_OrbEn ] 0
|  9>     print[ P_Cartesian ] 0
| 10> end
| 11> *xyz 0 1
| 12>  C        2.5074490000    -1.0943350000    -1.1403520000
| 13>  C        2.3576630000     0.0280290000    -0.1166580000
| 14>  C        2.8129780000     1.3734860000    -0.6129220000
| 15>  C        1.9426990000     2.3579200000    -0.8185560000
| 16>  C        4.2907240000     1.5182570000    -0.8450930000
| 17>  C        4.7715620000     2.8773960000    -1.3159140000
| 18>  H        2.1326020000    -2.0375760000    -0.7362780000
| 19>  H        3.5502550000    -1.2519930000    -1.4238340000
| 20>  H        1.9437900000    -0.8685450000    -2.0487770000
| 21>  H        2.9301460000    -0.2330340000     0.7823890000
| 22>  H        1.3105690000     0.0992450000     0.1894100000
| 23>  H        0.8844130000     2.2148260000    -0.6276750000
| 24>  H        2.2450090000     3.3335640000    -1.1794690000
| 25>  H        4.6067500000     0.7540690000    -1.5655520000
| 26>  H        4.8028780000     1.2499630000     0.0887700000
| 27>  H        4.3250480000     3.1488250000    -2.2754830000
| 28>  H        5.8561060000     2.8765500000    -1.4434550000
| 29>  H        4.5213700000     3.6613620000    -0.5971510000
| 30> *
| 31>
| 32>                          ****END OF INPUT****
 Total Charge           Charge          ....    0
 Multiplicity           Mult            ....    1
 Number of Electrons    NEL             ....   48
 Basis Dimension        Dim             ....  144

MULLIKEN ATOMIC CHARGES
-----------------------
   0 C :   -0.023664
   1 C :    0.037723
   2 C :   -0.173395
   3 C :   -0.036102
   4 C :    0.029417
   5 C :   -0.038326
   6 H :    0.018674
   7 H :    0.021039
   8 H :    0.023523
   9 H :    0.011834
  10 H :    0.000021
  11 H :    0.003377
  12 H :    0.004901
  13 H :    0.023087
  14 H :    0.015387
  15 H :    0.029544
  16 H :    0.021957
  17 H :    0.031002
Sum of atomic charges:   -0.0000000

LOEWDIN ATOMIC CHARGES
----------------------
   0 C :   -0.061109
   1 C :   -0.037156
   2 C :   -0.027483
   3 C :   -0.085019
   4 C :   -0.043779
   5 C :   -0.068003
   6 H :    0.027140
   7 H :    0.021828
   8 H :    0.027339
   9 H :    0.028509
  10 H :    0.027507
  11 H :    0.019215
  12 H :    0.017648
  13 H :    0.033955
  14 H :    0.034542
  15 H :    0.027917
  16 H :    0.029282
  17 H :    0.027667

  Mayer bond orders larger than 0.1
B(  0-C ,  1-C ) :   1.1076 B(  0-C ,  6-H ) :   0.9588 B(  0-C ,  7-H ) :   0.9649
B(  0-C ,  8-H ) :   0.9658 B(  1-C ,  2-C ) :   1.0688 B(  1-C ,  9-H ) :   0.9199
B(  1-C , 10-H ) :   0.9207 B(  2-C ,  3-C ) :   2.0005 B(  2-C ,  4-C ) :   1.0312
B(  3-C , 11-H ) :   0.9270 B(  3-C , 12-H ) :   0.9189 B(  4-C ,  5-C ) :   1.1482
B(  4-C , 13-H ) :   0.9127 B(  4-C , 14-H ) :   0.9086 B(  5-C , 15-H ) :   0.9574
B(  5-C , 16-H ) :   0.9545 B(  5-C , 17-H ) :   0.9584

FINAL SINGLE POINT ENERGY      -235.333020141665

DIPOLE MOMENT
-------------
                                X             Y             Z
Electronic contribution:     -1.23420       0.76635       0.93251
Nuclear contribution   :      1.40005      -0.94332      -0.91429
                        -----------------------------------------
Total Dipole Moment    :      0.16585      -0.17697       0.01822
                        -----------------------------------------
Magnitude (a.u.)       :      0.24322
Magnitude (Debye)      :      0.61822

                             ****ORCA TERMINATED NORMALLY****
TOTAL RUN TIME: 0 days 0 hours 0 minutes 6 seconds 996 msec
