                         Program Version 3.0.3 - RELEASE   -
|  1> ! RI PBE def2-SVP def2-SVP/J NBO PAL2
|  2> % maxcore 2000
|  3> % output
|  4>     # printlevel mini
|  5>     print[ P_Basis ] 0
|  6>     print[ P_SCFInfo ] 1
|  7>     print[ P_SCFIterInfo ] 1
|  8>     print[ P_OrbEn ] 0
|  9>     print[ P_Cartesian ] 0
| 10> end
| 11> *xyz 0 1
| 12>  C        2.5308340000    -1.5926220000     0.6711830000
| 13>  C        2.5399690000    -0.1997340000     0.0461140000
| 14>  C        2.9779920000    -0.1992970000    -1.3917280000
| 15>  C        2.0908870000    -0.0916640000    -2.3860310000
| 16>  C        4.3973350000    -0.3302650000    -1.7133700000
| 17>  C        5.4059530000    -0.3655830000    -0.8440930000
| 18>  H        2.2260090000    -1.5451560000     1.7192930000
| 19>  H        3.5158460000    -2.0605880000     0.6266940000
| 20>  H        1.8310360000    -2.2454650000     0.1447460000
| 21>  H        3.1929190000     0.4592980000     0.6280710000
| 22>  H        1.5365790000     0.2295130000     0.1065320000
| 23>  H        1.0306070000     0.0249610000    -2.1911140000
| 24>  H        2.4026380000    -0.1146030000    -3.4247050000
| 25>  H        4.6245620000    -0.3900720000    -2.7755830000
| 26>  H        5.2511160000    -0.3074370000     0.2273280000
| 27>  H        6.4312850000    -0.4502760000    -1.1831260000
| 28> *
| 29>
| 30>                          ****END OF INPUT****
 Total Charge           Charge          ....    0
 Multiplicity           Mult            ....    1
 Number of Electrons    NEL             ....   46
 Basis Dimension        Dim             ....  134

MULLIKEN ATOMIC CHARGES
-----------------------
   0 C :   -0.014994
   1 C :    0.023766
   2 C :   -0.084664
   3 C :   -0.044470
   4 C :   -0.001958
   5 C :   -0.040434
   6 H :    0.023882
   7 H :    0.025478
   8 H :    0.021517
   9 H :    0.020633
  10 H :    0.002475
  11 H :    0.015660
  12 H :    0.014873
  13 H :   -0.013323
  14 H :    0.025951
  15 H :    0.025608
Sum of atomic charges:    0.0000000

LOEWDIN ATOMIC CHARGES
----------------------
   0 C :   -0.060267
   1 C :   -0.037990
   2 C :   -0.028865
   3 C :   -0.052344
   4 C :   -0.023997
   5 C :   -0.057399
   6 H :    0.027664
   7 H :    0.025665
   8 H :    0.027368
   9 H :    0.029930
  10 H :    0.029760
  11 H :    0.021542
  12 H :    0.021289
  13 H :    0.029316
  14 H :    0.021780
  15 H :    0.026546

  Mayer bond orders larger than 0.1
B(  0-C ,  1-C ) :   1.1098 B(  0-C ,  6-H ) :   0.9597 B(  0-C ,  7-H ) :   0.9666
B(  0-C ,  8-H ) :   0.9625 B(  1-C ,  2-C ) :   1.0751 B(  1-C ,  9-H ) :   0.9081
B(  1-C , 10-H ) :   0.9171 B(  2-C ,  3-C ) :   1.8788 B(  2-C ,  4-C ) :   1.1183
B(  3-C ,  5-C ) :   0.1405 B(  3-C , 11-H ) :   0.9333 B(  3-C , 12-H ) :   0.9403
B(  4-C ,  5-C ) :   1.8957 B(  4-C , 13-H ) :   0.9562 B(  5-C , 14-H ) :   0.9334
B(  5-C , 15-H ) :   0.9424

FINAL SINGLE POINT ENERGY      -234.115510780750

DIPOLE MOMENT
-------------
                                X             Y             Z
Electronic contribution:      0.94871       1.44178      -2.56928
Nuclear contribution   :     -0.98411      -1.45506       2.66780
                        -----------------------------------------
Total Dipole Moment    :     -0.03541      -0.01329       0.09853
                        -----------------------------------------
Magnitude (a.u.)       :      0.10553
Magnitude (Debye)      :      0.26825

                             ****ORCA TERMINATED NORMALLY****
TOTAL RUN TIME: 0 days 0 hours 0 minutes 6 seconds 772 msec
