                         Program Version 3.0.3 - RELEASE   -
|  1> ! RI PBE def2-SVP def2-SVP/J NBO PAL2
|  2> % maxcore 2000
|  3> % output
|  4>     # printlevel mini
|  5>     print[ P_Basis ] 0
|  6>     print[ P_SCFInfo ] 1
|  7>     print[ P_SCFIterInfo ] 1
|  8>     print[ P_OrbEn ] 0
|  9>     print[ P_Cartesian ] 0
| 10> end
| 11> *xyz 0 1
| 12>  C        1.0195940000     0.3463970000     0.0993460000
| 13>  C        2.4777620000    -0.0778000000    -0.0193350000
| 14>  C        2.8960870000    -1.0610130000     1.0423620000
| 15>  C        3.2887770000    -2.3062550000     0.7631260000
| 16>  C        2.8495010000    -0.5979700000     2.3909150000
| 17>  C        2.8003050000    -0.1648680000     3.5125900000
| 18>  H        0.7670770000     1.0784700000    -0.6707330000
| 19>  H        0.8216070000     0.7983330000     1.0735030000
| 20>  H        0.3529610000    -0.5114830000    -0.0147020000
| 21>  H        3.1186870000     0.8075240000     0.0539620000
| 22>  H        2.6631340000    -0.5278660000    -0.9980430000
| 23>  H        3.3265250000    -2.6569710000    -0.2619630000
| 24>  H        3.5809160000    -2.9963220000     1.5446670000
| 25>  H        2.7623560000     0.2036240000     4.5102950000
| 26> *
| 27>
| 28>                          ****END OF INPUT****
 Total Charge           Charge          ....    0
 Multiplicity           Mult            ....    1
 Number of Electrons    NEL             ....   44
 Basis Dimension        Dim             ....  124

MULLIKEN ATOMIC CHARGES
-----------------------
   0 C :   -0.035568
   1 C :    0.064634
   2 C :   -0.170201
   3 C :    0.006113
   4 C :    0.431980
   5 C :   -0.463674
   6 H :    0.026785
   7 H :    0.036784
   8 H :    0.025989
   9 H :    0.030065
  10 H :    0.000163
  11 H :    0.018385
  12 H :    0.024900
  13 H :    0.003645
Sum of atomic charges:   -0.0000000

LOEWDIN ATOMIC CHARGES
----------------------
   0 C :   -0.061875
   1 C :   -0.026821
   2 C :   -0.046689
   3 C :   -0.031671
   4 C :   -0.007093
   5 C :   -0.070277
   6 H :    0.028649
   7 H :    0.030658
   8 H :    0.028614
   9 H :    0.038013
  10 H :    0.028526
  11 H :    0.024336
  12 H :    0.029633
  13 H :    0.035995

  Mayer bond orders larger than 0.1
B(  0-C ,  1-C ) :   1.1132 B(  0-C ,  6-H ) :   0.9620 B(  0-C ,  7-H ) :   0.9660
B(  0-C ,  8-H ) :   0.9619 B(  1-C ,  2-C ) :   1.0604 B(  1-C ,  9-H ) :   0.9173
B(  1-C , 10-H ) :   0.9174 B(  2-C ,  3-C ) :   1.9148 B(  2-C ,  4-C ) :   1.0021
B(  3-C ,  5-C ) :   0.1257 B(  3-C , 11-H ) :   0.9323 B(  3-C , 12-H ) :   0.9373
B(  4-C ,  5-C ) :   2.2518 B(  4-C , 13-H ) :  -0.1064 B(  5-C , 13-H ) :   1.0966

FINAL SINGLE POINT ENERGY      -232.870772425691

DIPOLE MOMENT
-------------
                                X             Y             Z
Electronic contribution:      2.51679      -1.05914       4.17262
Nuclear contribution   :     -2.57300       1.13401      -4.34398
                        -----------------------------------------
Total Dipole Moment    :     -0.05621       0.07486      -0.17137
                        -----------------------------------------
Magnitude (a.u.)       :      0.19527
Magnitude (Debye)      :      0.49634

                             ****ORCA TERMINATED NORMALLY****
TOTAL RUN TIME: 0 days 0 hours 0 minutes 5 seconds 600 msec
