                         Program Version 3.0.3 - RELEASE   -
|  1> ! RI PBE def2-SVP def2-SVP/J NBO PAL2
|  2> % maxcore 2000
|  3> % output
|  4>     # printlevel mini
|  5>     print[ P_Basis ] 0
|  6>     print[ P_SCFInfo ] 1
|  7>     print[ P_SCFIterInfo ] 1
|  8>     print[ P_OrbEn ] 0
|  9>     print[ P_Cartesian ] 0
| 10> end
| 11> *xyz 0 1
| 12>  C        2.0423710000    -1.1901140000    -0.7228890000
| 13>  C        2.6073810000     0.0371160000    -0.0135950000
| 14>  C        3.0539070000     1.1327250000    -0.9431450000
| 15>  C        1.9713960000     1.7586280000    -1.7678010000
| 16>  C        4.3387020000     1.4901300000    -0.9908920000
| 17>  C        4.9805520000     2.5362560000    -1.8381270000
| 18>  H        1.7631580000    -1.9607240000    -0.0004750000
| 19>  H        2.7804930000    -1.6189150000    -1.4054380000
| 20>  H        1.1497260000    -0.9486390000    -1.3041770000
| 21>  H        3.4510110000    -0.2642010000     0.6137600000
| 22>  H        1.8409230000     0.4351390000     0.6645460000
| 23>  H        1.1365310000     2.0678380000    -1.1297470000
| 24>  H        1.5628250000     1.0467920000    -2.4920740000
| 25>  H        2.3107460000     2.6324560000    -2.3219050000
| 26>  H        5.0211710000     0.9557650000    -0.3312100000
| 27>  H        4.2744900000     3.0631830000    -2.4797470000
| 28>  H        5.7477500000     2.0950710000    -2.4832440000
| 29>  H        5.4894850000     3.2812060000    -1.2174620000
| 30> *
| 31>
| 32>                          ****END OF INPUT****
 Total Charge           Charge          ....    0
 Multiplicity           Mult            ....    1
 Number of Electrons    NEL             ....   48
 Basis Dimension        Dim             ....  144

MULLIKEN ATOMIC CHARGES
-----------------------
   0 C :   -0.037475
   1 C :    0.033848
   2 C :   -0.165727
   3 C :    0.063365
   4 C :   -0.126671
   5 C :    0.050369
   6 H :    0.021199
   7 H :    0.024755
   8 H :    0.021129
   9 H :   -0.001058
  10 H :    0.013872
  11 H :    0.017851
  12 H :    0.031300
  13 H :    0.007996
  14 H :   -0.020075
  15 H :    0.009354
  16 H :    0.028210
  17 H :    0.027757
Sum of atomic charges:   -0.0000000

LOEWDIN ATOMIC CHARGES
----------------------
   0 C :   -0.065776
   1 C :   -0.036698
   2 C :   -0.046839
   3 C :   -0.059842
   4 C :   -0.062903
   5 C :   -0.068384
   6 H :    0.027190
   7 H :    0.026538
   8 H :    0.022328
   9 H :    0.025283
  10 H :    0.027243
  11 H :    0.033580
  12 H :    0.035086
  13 H :    0.026920
  14 H :    0.019315
  15 H :    0.025635
  16 H :    0.035919
  17 H :    0.035404

  Mayer bond orders larger than 0.1
B(  0-C ,  1-C ) :   1.1048 B(  0-C ,  6-H ) :   0.9588 B(  0-C ,  7-H ) :   0.9666
B(  0-C ,  8-H ) :   0.9649 B(  1-C ,  2-C ) :   1.0670 B(  1-C ,  9-H ) :   0.9235
B(  1-C , 10-H ) :   0.9196 B(  2-C ,  3-C ) :   1.0970 B(  2-C ,  4-C ) :   1.9067
B(  3-C , 11-H ) :   0.9381 B(  3-C , 12-H ) :   0.9398 B(  3-C , 13-H ) :   0.9422
B(  4-C ,  5-C ) :   1.0915 B(  4-C , 14-H ) :   0.9338 B(  5-C , 15-H ) :   0.9533
B(  5-C , 16-H ) :   0.9448 B(  5-C , 17-H ) :   0.9445

FINAL SINGLE POINT ENERGY      -235.337181273076

DIPOLE MOMENT
-------------
                                X             Y             Z
Electronic contribution:      1.11132       0.62022       1.02425
Nuclear contribution   :     -1.17312      -0.59809      -1.07188
                        -----------------------------------------
Total Dipole Moment    :     -0.06180       0.02212      -0.04763
                        -----------------------------------------
Magnitude (a.u.)       :      0.08110
Magnitude (Debye)      :      0.20614

                             ****ORCA TERMINATED NORMALLY****
TOTAL RUN TIME: 0 days 0 hours 0 minutes 6 seconds 968 msec
