                         Program Version 3.0.3 - RELEASE   -
|  1> ! RI PBE def2-SVP def2-SVP/J NBO PAL2
|  2> % maxcore 2000
|  3> % output
|  4>     # printlevel mini
|  5>     print[ P_Basis ] 0
|  6>     print[ P_SCFInfo ] 1
|  7>     print[ P_SCFIterInfo ] 1
|  8>     print[ P_OrbEn ] 0
|  9>     print[ P_Cartesian ] 0
| 10> end
| 11> *xyz 0 1
| 12>  C        3.0265470000    -0.5208230000     1.1983760000
| 13>  C        2.5319890000     0.1425810000    -0.0750180000
| 14>  C        3.0744940000    -0.4889990000    -1.3606760000
| 15>  C        2.3944140000     0.1199740000    -2.5849960000
| 16>  C        4.5591270000    -0.3306610000    -1.4624800000
| 17>  C        5.4410520000    -1.3177870000    -1.5318270000
| 18>  H        2.6083240000    -0.0368180000     2.0839240000
| 19>  H        4.1154710000    -0.4779230000     1.2735200000
| 20>  H        2.7375740000    -1.5753780000     1.2290100000
| 21>  H        2.7966960000     1.2073020000    -0.0681760000
| 22>  H        1.4375420000     0.1038440000    -0.1090630000
| 23>  H        2.8491120000    -1.5629780000    -1.3347240000
| 24>  H        2.6059410000     1.1914950000    -2.6540920000
| 25>  H        1.3094560000    -0.0017770000    -2.5279130000
| 26>  H        2.7443200000    -0.3489430000    -3.5069330000
| 27>  H        4.9167360000     0.6996480000    -1.4888290000
| 28>  H        5.1285120000    -2.3575860000    -1.5092430000
| 29>  H        6.5047820000    -1.1263620000    -1.6158490000
| 30> *
| 31>
| 32>                          ****END OF INPUT****
 Total Charge           Charge          ....    0
 Multiplicity           Mult            ....    1
 Number of Electrons    NEL             ....   48
 Basis Dimension        Dim             ....  144

MULLIKEN ATOMIC CHARGES
-----------------------
   0 C :    0.007571
   1 C :   -0.044925
   2 C :   -0.072010
   3 C :    0.026120
   4 C :   -0.044795
   5 C :   -0.034638
   6 H :    0.015699
   7 H :    0.026135
   8 H :    0.012486
   9 H :    0.008043
  10 H :    0.014290
  11 H :   -0.005629
  12 H :    0.015073
  13 H :    0.020196
  14 H :    0.020341
  15 H :   -0.004660
  16 H :    0.016535
  17 H :    0.024168
Sum of atomic charges:    0.0000000

LOEWDIN ATOMIC CHARGES
----------------------
   0 C :   -0.067754
   1 C :   -0.039902
   2 C :   -0.045000
   3 C :   -0.054522
   4 C :   -0.018266
   5 C :   -0.069964
   6 H :    0.026285
   7 H :    0.026401
   8 H :    0.024541
   9 H :    0.021971
  10 H :    0.024125
  11 H :    0.025622
  12 H :    0.024819
  13 H :    0.025865
  14 H :    0.027304
  15 H :    0.023311
  16 H :    0.021043
  17 H :    0.024122

  Mayer bond orders larger than 0.1
B(  0-C ,  1-C ) :   1.1186 B(  0-C ,  6-H ) :   0.9580 B(  0-C ,  7-H ) :   0.9607
B(  0-C ,  8-H ) :   0.9597 B(  1-C ,  2-C ) :   1.0460 B(  1-C ,  9-H ) :   0.9341
B(  1-C , 10-H ) :   0.9362 B(  2-C ,  3-C ) :   1.0696 B(  2-C ,  4-C ) :   1.0240
B(  2-C , 11-H ) :   0.9079 B(  3-C , 12-H ) :   0.9595 B(  3-C , 13-H ) :   0.9568
B(  3-C , 14-H ) :   0.9594 B(  4-C ,  5-C ) :   2.0012 B(  4-C , 15-H ) :   0.9528
B(  5-C , 16-H ) :   0.9473 B(  5-C , 17-H ) :   0.9414

FINAL SINGLE POINT ENERGY      -235.329849319408

DIPOLE MOMENT
-------------
                                X             Y             Z
Electronic contribution:      1.72742      -0.35464      -1.12611
Nuclear contribution   :     -1.84831       0.40645       1.12859
                        -----------------------------------------
Total Dipole Moment    :     -0.12088       0.05181       0.00248
                        -----------------------------------------
Magnitude (a.u.)       :      0.13154
Magnitude (Debye)      :      0.33435

                             ****ORCA TERMINATED NORMALLY****
TOTAL RUN TIME: 0 days 0 hours 0 minutes 7 seconds 13 msec
