                         Program Version 3.0.3 - RELEASE   -
|  1> ! RI PBE def2-SVP def2-SVP/J NBO PAL2
|  2> % maxcore 2000
|  3> % output
|  4>     # printlevel mini
|  5>     print[ P_Basis ] 0
|  6>     print[ P_SCFInfo ] 1
|  7>     print[ P_SCFIterInfo ] 1
|  8>     print[ P_OrbEn ] 0
|  9>     print[ P_Cartesian ] 0
| 10> end
| 11> *xyz 0 1
| 12>  C        2.9249110000    -1.4671380000    -0.0951270000
| 13>  C        2.5444460000    -0.0103240000     0.0917870000
| 14>  C        3.0991810000     0.9222610000    -0.9926720000
| 15>  C        2.5743790000     2.3483510000    -0.8262140000
| 16>  C        4.5578430000     0.9092290000    -1.0117300000
| 17>  C        5.7592280000     0.9116090000    -1.0091640000
| 18>  H        2.5016540000    -2.0873060000     0.6980090000
| 19>  H        4.0095210000    -1.5944600000    -0.0807560000
| 20>  H        2.5565950000    -1.8520270000    -1.0503870000
| 21>  H        2.8918730000     0.3473230000     1.0667330000
| 22>  H        1.4541710000     0.0941050000     0.0906860000
| 23>  H        2.7585180000     0.5424970000    -1.9654490000
| 24>  H        2.8843750000     2.7604990000     0.1366190000
| 25>  H        1.4826200000     2.3551390000    -0.8680100000
| 26>  H        2.9553470000     3.0023220000    -1.6119480000
| 27>  H        6.8233870000     0.9131110000    -1.0131280000
| 28> *
| 29>
| 30>                          ****END OF INPUT****
 Total Charge           Charge          ....    0
 Multiplicity           Mult            ....    1
 Number of Electrons    NEL             ....   46
 Basis Dimension        Dim             ....  134

MULLIKEN ATOMIC CHARGES
-----------------------
   0 C :   -0.002591
   1 C :   -0.029059
   2 C :   -0.075156
   3 C :    0.022255
   4 C :    0.403989
   5 C :   -0.520016
   6 H :    0.022103
   7 H :    0.034717
   8 H :    0.013302
   9 H :    0.014623
  10 H :    0.016655
  11 H :    0.024149
  12 H :    0.026269
  13 H :    0.023576
  14 H :    0.032428
  15 H :   -0.007244
Sum of atomic charges:   -0.0000000

LOEWDIN ATOMIC CHARGES
----------------------
   0 C :   -0.066571
   1 C :   -0.031381
   2 C :   -0.051628
   3 C :   -0.046302
   4 C :   -0.010410
   5 C :   -0.096058
   6 H :    0.028535
   7 H :    0.030755
   8 H :    0.024888
   9 H :    0.026431
  10 H :    0.025566
  11 H :    0.044191
  12 H :    0.029962
  13 H :    0.027314
  14 H :    0.031899
  15 H :    0.032809

  Mayer bond orders larger than 0.1
B(  0-C ,  1-C ) :   1.1194 B(  0-C ,  6-H ) :   0.9591 B(  0-C ,  7-H ) :   0.9607
B(  0-C ,  8-H ) :   0.9617 B(  1-C ,  2-C ) :   1.0482 B(  1-C ,  9-H ) :   0.9336
B(  1-C , 10-H ) :   0.9353 B(  2-C ,  3-C ) :   1.0717 B(  2-C ,  4-C ) :   1.0197
B(  2-C , 11-H ) :   0.8776 B(  3-C , 12-H ) :   0.9610 B(  3-C , 13-H ) :   0.9568
B(  3-C , 14-H ) :   0.9601 B(  4-C ,  5-C ) :   2.3005 B(  4-C , 15-H ) :  -0.1231
B(  5-C , 15-H ) :   1.1140

FINAL SINGLE POINT ENERGY      -234.087168149112

DIPOLE MOMENT
-------------
                                X             Y             Z
Electronic contribution:      4.21000       1.26204      -1.46272
Nuclear contribution   :     -4.48448      -1.26924       1.48773
                        -----------------------------------------
Total Dipole Moment    :     -0.27448      -0.00720       0.02500
                        -----------------------------------------
Magnitude (a.u.)       :      0.27571
Magnitude (Debye)      :      0.70080

                             ****ORCA TERMINATED NORMALLY****
TOTAL RUN TIME: 0 days 0 hours 0 minutes 6 seconds 358 msec
