                         Program Version 3.0.3 - RELEASE   -
|  1> ! RI PBE def2-SVP def2-SVP/J NBO PAL2
|  2> % maxcore 2000
|  3> % output
|  4>     # printlevel mini
|  5>     print[ P_Basis ] 0
|  6>     print[ P_SCFInfo ] 1
|  7>     print[ P_SCFIterInfo ] 1
|  8>     print[ P_OrbEn ] 0
|  9>     print[ P_Cartesian ] 0
| 10> end
| 11> *xyz 0 1
| 12>  C        0.9761090000    -0.0033790000     0.0065150000
| 13>  C        2.4980380000     0.1132220000     0.0392430000
| 14>  C        3.0026760000     0.6492800000     1.2949750000
| 15>  C        3.3955500000     1.0930490000     2.3424170000
| 16>  C        3.8990530000     1.6344510000     3.5963100000
| 17>  C        5.3411330000     2.1264410000     3.4999460000
| 18>  H        0.6436040000    -0.4076690000    -0.9521010000
| 19>  H        0.5091350000     0.9728060000     0.1484280000
| 20>  H        0.6206420000    -0.6633530000     0.7997460000
| 21>  H        2.8367140000     0.7517090000    -0.7839980000
| 22>  H        2.9471540000    -0.8703500000    -0.1367590000
| 23>  H        3.8223700000     0.8671340000     4.3744100000
| 24>  H        3.2497520000     2.4562910000     3.9173740000
| 25>  H        6.0100000000     1.3130360000     3.2133690000
| 26>  H        5.6750750000     2.5239930000     4.4608780000
| 27>  H        5.4326960000     2.9151370000     2.7511360000
| 28> *
| 29>
| 30>                          ****END OF INPUT****
 Total Charge           Charge          ....    0
 Multiplicity           Mult            ....    1
 Number of Electrons    NEL             ....   46
 Basis Dimension        Dim             ....  134

MULLIKEN ATOMIC CHARGES
-----------------------
   0 C :   -0.032892
   1 C :    0.048091
   2 C :   -0.154470
   3 C :   -0.150542
   4 C :    0.027219
   5 C :   -0.039903
   6 H :    0.018611
   7 H :    0.031436
   8 H :    0.033727
   9 H :    0.029963
  10 H :    0.028919
  11 H :    0.035623
  12 H :    0.032879
  13 H :    0.035662
  14 H :    0.019734
  15 H :    0.035944
Sum of atomic charges:   -0.0000000

LOEWDIN ATOMIC CHARGES
----------------------
   0 C :   -0.054497
   1 C :   -0.051058
   2 C :   -0.068597
   3 C :   -0.068084
   4 C :   -0.053199
   5 C :   -0.056402
   6 H :    0.026127
   7 H :    0.029285
   8 H :    0.029632
   9 H :    0.044624
  10 H :    0.044427
  11 H :    0.045398
  12 H :    0.045435
  13 H :    0.030357
  14 H :    0.026375
  15 H :    0.030177

  Mayer bond orders larger than 0.1
B(  0-C ,  1-C ) :   1.1063 B(  0-C ,  6-H ) :   0.9594 B(  0-C ,  7-H ) :   0.9704
B(  0-C ,  8-H ) :   0.9711 B(  1-C ,  2-C ) :   1.0919 B(  1-C ,  9-H ) :   0.9007
B(  1-C , 10-H ) :   0.9001 B(  2-C ,  3-C ) :   2.5996 B(  3-C ,  4-C ) :   1.0935
B(  4-C ,  5-C ) :   1.1084 B(  4-C , 11-H ) :   0.9037 B(  4-C , 12-H ) :   0.8996
B(  5-C , 13-H ) :   0.9696 B(  5-C , 14-H ) :   0.9586 B(  5-C , 15-H ) :   0.9705

FINAL SINGLE POINT ENERGY      -234.097402297826

DIPOLE MOMENT
-------------
                                X             Y             Z
Electronic contribution:      0.08746      -0.40969       0.14033
Nuclear contribution   :     -0.08817       0.41451      -0.14255
                        -----------------------------------------
Total Dipole Moment    :     -0.00071       0.00483      -0.00221
                        -----------------------------------------
Magnitude (a.u.)       :      0.00536
Magnitude (Debye)      :      0.01362

                             ****ORCA TERMINATED NORMALLY****
TOTAL RUN TIME: 0 days 0 hours 0 minutes 6 seconds 216 msec
