                         Program Version 3.0.3 - RELEASE   -
|  1> ! RI PBE def2-SVP def2-SVP/J NBO PAL2
|  2> % maxcore 2000
|  3> % output
|  4>     # printlevel mini
|  5>     print[ P_Basis ] 0
|  6>     print[ P_SCFInfo ] 1
|  7>     print[ P_SCFIterInfo ] 1
|  8>     print[ P_OrbEn ] 0
|  9>     print[ P_Cartesian ] 0
| 10> end
| 11> *xyz 0 1
| 12>  C        0.9105750000     0.0152470000     0.0876600000
| 13>  C        2.4332950000    -0.0614350000     0.0096590000
| 14>  C        2.9581310000    -1.3740910000     0.3448720000
| 15>  C        3.3856690000    -2.4674020000     0.6228040000
| 16>  C        3.8519340000    -3.7623850000     0.9622060000
| 17>  C        5.1074650000    -4.1833670000     0.8084980000
| 18>  H        0.5658060000     1.0180490000    -0.1729200000
| 19>  H        0.5612640000    -0.2173260000     1.0950120000
| 20>  H        0.4506660000    -0.6960710000    -0.6002950000
| 21>  H        2.8777750000     0.6804090000     0.6828080000
| 22>  H        2.7686160000     0.2081090000    -0.9980740000
| 23>  H        3.1104300000    -4.4419870000     1.3763600000
| 24>  H        5.8751690000    -3.5371860000     0.3998380000
| 25>  H        5.3926030000    -5.1892750000     1.0907710000
| 26> *
| 27>
| 28>                          ****END OF INPUT****
 Total Charge           Charge          ....    0
 Multiplicity           Mult            ....    1
 Number of Electrons    NEL             ....   44
 Basis Dimension        Dim             ....  124

MULLIKEN ATOMIC CHARGES
-----------------------
   0 C :   -0.029995
   1 C :    0.043658
   2 C :   -0.087589
   3 C :   -0.065733
   4 C :   -0.101174
   5 C :   -0.012601
   6 H :    0.021367
   7 H :    0.032405
   8 H :    0.036800
   9 H :    0.039438
  10 H :    0.035052
  11 H :    0.031042
  12 H :    0.028679
  13 H :    0.028651
Sum of atomic charges:   -0.0000000

LOEWDIN ATOMIC CHARGES
----------------------
   0 C :   -0.052977
   1 C :   -0.050182
   2 C :   -0.037326
   3 C :   -0.062357
   4 C :   -0.047462
   5 C :   -0.033430
   6 H :    0.027661
   7 H :    0.030137
   8 H :    0.031168
   9 H :    0.049331
  10 H :    0.048098
  11 H :    0.042692
  12 H :    0.028098
  13 H :    0.026549

  Mayer bond orders larger than 0.1
B(  0-C ,  1-C ) :   1.1023 B(  0-C ,  6-H ) :   0.9600 B(  0-C ,  7-H ) :   0.9713
B(  0-C ,  8-H ) :   0.9712 B(  1-C ,  2-C ) :   1.0849 B(  1-C ,  9-H ) :   0.8994
B(  1-C , 10-H ) :   0.9003 B(  2-C ,  3-C ) :   2.4674 B(  2-C ,  5-C ) :   0.1294
B(  3-C ,  4-C ) :   1.0647 B(  4-C ,  5-C ) :   1.9177 B(  4-C , 11-H ) :   0.9444
B(  5-C , 12-H ) :   0.9527 B(  5-C , 13-H ) :   0.9421

FINAL SINGLE POINT ENERGY      -232.878377232310

DIPOLE MOMENT
-------------
                                X             Y             Z
Electronic contribution:      2.60220      -2.79327       0.70910
Nuclear contribution   :     -2.75103       3.03976      -0.76566
                        -----------------------------------------
Total Dipole Moment    :     -0.14882       0.24649      -0.05656
                        -----------------------------------------
Magnitude (a.u.)       :      0.29343
Magnitude (Debye)      :      0.74585

                             ****ORCA TERMINATED NORMALLY****
TOTAL RUN TIME: 0 days 0 hours 0 minutes 5 seconds 760 msec
