                         Program Version 3.0.3 - RELEASE   -
|  1> ! RI PBE def2-SVP def2-SVP/J NBO PAL2
|  2> % maxcore 2000
|  3> % output
|  4>     # printlevel mini
|  5>     print[ P_Basis ] 0
|  6>     print[ P_SCFInfo ] 1
|  7>     print[ P_SCFIterInfo ] 1
|  8>     print[ P_OrbEn ] 0
|  9>     print[ P_Cartesian ] 0
| 10> end
| 11> *xyz 0 1
| 12>  C        1.0483780000    -0.0774130000     0.0514780000
| 13>  C        2.5744450000    -0.0878360000    -0.0236290000
| 14>  C        3.0759240000    -0.2762580000    -1.3706620000
| 15>  C        3.4746790000    -0.4343230000    -2.5003690000
| 16>  C        3.9298780000    -0.6124800000    -3.7732860000
| 17>  C        4.3320180000    -0.7715990000    -4.8989460000
| 18>  H        0.7233780000     0.0670760000     1.0835620000
| 19>  H        0.6354500000    -1.0197770000    -0.3114780000
| 20>  H        0.6353290000     0.7289640000    -0.5563400000
| 21>  H        2.9751100000    -0.8827870000     0.6152740000
| 22>  H        2.9749950000     0.8519660000     0.3725710000
| 23>  H        4.6878050000    -0.9110130000    -5.8919850000
| 24> *
| 25>
| 26>                          ****END OF INPUT****
 Total Charge           Charge          ....    0
 Multiplicity           Mult            ....    1
 Number of Electrons    NEL             ....   42
 Basis Dimension        Dim             ....  114

MULLIKEN ATOMIC CHARGES
-----------------------
   0 C :   -0.030715
   1 C :    0.029391
   2 C :   -0.110414
   3 C :   -0.014087
   4 C :    0.355696
   5 C :   -0.438175
   6 H :    0.026601
   7 H :    0.038395
   8 H :    0.041063
   9 H :    0.047644
  10 H :    0.043402
  11 H :    0.011200
Sum of atomic charges:    0.0000000

LOEWDIN ATOMIC CHARGES
----------------------
   0 C :   -0.050012
   1 C :   -0.049717
   2 C :    0.002328
   3 C :   -0.072878
   4 C :   -0.030209
   5 C :   -0.039766
   6 H :    0.030009
   7 H :    0.032571
   8 H :    0.033093
   9 H :    0.053245
  10 H :    0.052485
  11 H :    0.038851

  Mayer bond orders larger than 0.1
B(  0-C ,  1-C ) :   1.1001 B(  0-C ,  6-H ) :   0.9601 B(  0-C ,  7-H ) :   0.9701
B(  0-C ,  8-H ) :   0.9706 B(  1-C ,  2-C ) :   1.0891 B(  1-C ,  9-H ) :   0.9002
B(  1-C , 10-H ) :   0.8989 B(  2-C ,  3-C ) :   2.3469 B(  2-C ,  5-C ) :   0.2632
B(  3-C ,  4-C ) :   0.9428 B(  4-C ,  5-C ) :   2.1455 B(  4-C , 11-H ) :  -0.1048
B(  5-C , 11-H ) :   1.0936

FINAL SINGLE POINT ENERGY      -231.640722972178

DIPOLE MOMENT
-------------
                                X             Y             Z
Electronic contribution:      4.79201      -0.87904      -6.28916
Nuclear contribution   :     -5.02294       0.94719       6.77458
                        -----------------------------------------
Total Dipole Moment    :     -0.23093       0.06815       0.48542
                        -----------------------------------------
Magnitude (a.u.)       :      0.54185
Magnitude (Debye)      :      1.37729

                             ****ORCA TERMINATED NORMALLY****
TOTAL RUN TIME: 0 days 0 hours 0 minutes 5 seconds 159 msec
