                         Program Version 3.0.3 - RELEASE   -
|  1> ! RI PBE def2-SVP def2-SVP/J NBO PAL2
|  2> % maxcore 2000
|  3> % output
|  4>     # printlevel mini
|  5>     print[ P_Basis ] 0
|  6>     print[ P_SCFInfo ] 1
|  7>     print[ P_SCFIterInfo ] 1
|  8>     print[ P_OrbEn ] 0
|  9>     print[ P_Cartesian ] 0
| 10> end
| 11> *xyz 0 1
| 12>  C        1.1777890000     0.5259840000    -0.0665710000
| 13>  C        2.6853480000     0.3402660000    -0.0583380000
| 14>  C        3.1010120000    -1.1285390000    -0.0895380000
| 15>  C        4.5806690000    -1.3198280000    -0.1263580000
| 16>  C        5.2951190000    -1.9652160000     0.7879480000
| 17>  C        6.7740490000    -2.1477430000     0.7533250000
| 18>  H        0.9040250000     1.5833000000    -0.0435820000
| 19>  H        0.7162190000     0.0447690000     0.8004000000
| 20>  H        0.7307700000     0.0861570000    -0.9627300000
| 21>  H        3.1160130000     0.8124700000     0.8308910000
| 22>  H        3.1258980000     0.8563370000    -0.9190460000
| 23>  H        2.6495030000    -1.5970500000    -0.9745820000
| 24>  H        2.6846520000    -1.6475340000     0.7809500000
| 25>  H        5.1010340000    -0.8761060000    -0.9762830000
| 26>  H        4.7729950000    -2.4057510000     1.6372720000
| 27>  H        7.2136510000    -1.6760240000    -0.1279170000
| 28>  H        7.0422510000    -3.2092340000     0.7405940000
| 29>  H        7.2473830000    -1.7171590000     1.6417660000
| 30> *
| 31>
| 32>                          ****END OF INPUT****
 Total Charge           Charge          ....    0
 Multiplicity           Mult            ....    1
 Number of Electrons    NEL             ....   48
 Basis Dimension        Dim             ....  144

MULLIKEN ATOMIC CHARGES
-----------------------
   0 C :   -0.000405
   1 C :   -0.065491
   2 C :    0.052523
   3 C :   -0.051680
   4 C :   -0.108387
   5 C :    0.040914
   6 H :    0.019325
   7 H :    0.015051
   8 H :    0.013177
   9 H :    0.013255
  10 H :    0.011313
  11 H :    0.011334
  12 H :   -0.000501
  13 H :   -0.016361
  14 H :   -0.009525
  15 H :    0.016523
  16 H :    0.029772
  17 H :    0.029164
Sum of atomic charges:   -0.0000000

LOEWDIN ATOMIC CHARGES
----------------------
   0 C :   -0.066259
   1 C :   -0.043947
   2 C :   -0.041846
   3 C :   -0.045197
   4 C :   -0.050667
   5 C :   -0.065313
   6 H :    0.026323
   7 H :    0.024082
   8 H :    0.023573
   9 H :    0.023611
  10 H :    0.022097
  11 H :    0.029695
  12 H :    0.025323
  13 H :    0.018834
  14 H :    0.020230
  15 H :    0.029657
  16 H :    0.034917
  17 H :    0.034888

  Mayer bond orders larger than 0.1
B(  0-C ,  1-C ) :   1.1153 B(  0-C ,  6-H ) :   0.9630 B(  0-C ,  7-H ) :   0.9643
B(  0-C ,  8-H ) :   0.9639 B(  1-C ,  2-C ) :   1.0729 B(  1-C ,  9-H ) :   0.9419
B(  1-C , 10-H ) :   0.9412 B(  2-C ,  3-C ) :   1.0650 B(  2-C , 11-H ) :   0.9131
B(  2-C , 12-H ) :   0.9319 B(  3-C ,  4-C ) :   1.9326 B(  3-C , 13-H ) :   0.9455
B(  4-C ,  5-C ) :   1.0845 B(  4-C , 14-H ) :   0.9508 B(  5-C , 15-H ) :   0.9613
B(  5-C , 16-H ) :   0.9481 B(  5-C , 17-H ) :   0.9483

FINAL SINGLE POINT ENERGY      -235.335184153069

DIPOLE MOMENT
-------------
                                X             Y             Z
Electronic contribution:      1.56524      -1.30996      -0.00434
Nuclear contribution   :     -1.54529       1.32095       0.02153
                        -----------------------------------------
Total Dipole Moment    :      0.01995       0.01099       0.01719
                        -----------------------------------------
Magnitude (a.u.)       :      0.02853
Magnitude (Debye)      :      0.07253

                             ****ORCA TERMINATED NORMALLY****
TOTAL RUN TIME: 0 days 0 hours 0 minutes 7 seconds 255 msec
