                         Program Version 3.0.3 - RELEASE   -
|  1> ! RI PBE def2-SVP def2-SVP/J NBO PAL2
|  2> % maxcore 2000
|  3> % output
|  4>     # printlevel mini
|  5>     print[ P_Basis ] 0
|  6>     print[ P_SCFInfo ] 1
|  7>     print[ P_SCFIterInfo ] 1
|  8>     print[ P_OrbEn ] 0
|  9>     print[ P_Cartesian ] 0
| 10> end
| 11> *xyz 0 1
| 12>  C        1.0363000000     0.2688160000     0.0330130000
| 13>  C        2.4714290000    -0.2273950000    -0.0088860000
| 14>  C        3.4792070000     0.8844140000     0.2780410000
| 15>  C        4.9155040000     0.4504140000     0.2151440000
| 16>  C        5.3677750000    -0.5395800000     1.2436330000
| 17>  C        5.7463400000     0.9284610000    -0.7067100000
| 18>  H        0.3281650000    -0.5364770000    -0.1752880000
| 19>  H        0.8693770000     1.0574010000    -0.7061390000
| 20>  H        0.7901890000     0.6820920000     1.0153900000
| 21>  H        2.6887910000    -0.6577480000    -0.9923560000
| 22>  H        2.5963560000    -1.0382140000     0.7157050000
| 23>  H        3.2714400000     1.2921970000     1.2769330000
| 24>  H        3.3194070000     1.7020760000    -0.4318210000
| 25>  H        4.8247600000    -1.4854040000     1.1547420000
| 26>  H        5.1775620000    -0.1633950000     2.2547180000
| 27>  H        6.4334200000    -0.7527040000     1.1514270000
| 28>  H        5.4158630000     1.6507060000    -1.4457220000
| 29>  H        6.7843050000     0.6163400000    -0.7523150000
| 30> *
| 31>
| 32>                          ****END OF INPUT****
 Total Charge           Charge          ....    0
 Multiplicity           Mult            ....    1
 Number of Electrons    NEL             ....   48
 Basis Dimension        Dim             ....  144

MULLIKEN ATOMIC CHARGES
-----------------------
   0 C :   -0.009911
   1 C :   -0.066399
   2 C :    0.063119
   3 C :   -0.187878
   4 C :    0.065597
   5 C :   -0.033696
   6 H :    0.022046
   7 H :    0.019439
   8 H :    0.015330
   9 H :    0.013258
  10 H :    0.021687
  11 H :    0.004058
  12 H :   -0.003711
  13 H :    0.029821
  14 H :    0.022842
  15 H :    0.013664
  16 H :    0.006985
  17 H :    0.003749
Sum of atomic charges:   -0.0000000

LOEWDIN ATOMIC CHARGES
----------------------
   0 C :   -0.066800
   1 C :   -0.043837
   2 C :   -0.033746
   3 C :   -0.029351
   4 C :   -0.056845
   5 C :   -0.082634
   6 H :    0.027500
   7 H :    0.024900
   8 H :    0.024322
   9 H :    0.025070
  10 H :    0.022431
  11 H :    0.027235
  12 H :    0.026293
  13 H :    0.033790
  14 H :    0.034266
  15 H :    0.031048
  16 H :    0.018456
  17 H :    0.017903

  Mayer bond orders larger than 0.1
B(  0-C ,  1-C ) :   1.1207 B(  0-C ,  6-H ) :   0.9603 B(  0-C ,  7-H ) :   0.9655
B(  0-C ,  8-H ) :   0.9630 B(  1-C ,  2-C ) :   1.0829 B(  1-C ,  9-H ) :   0.9382
B(  1-C , 10-H ) :   0.9376 B(  2-C ,  3-C ) :   1.0595 B(  2-C , 11-H ) :   0.9129
B(  2-C , 12-H ) :   0.9197 B(  3-C ,  4-C ) :   1.0816 B(  3-C ,  5-C ) :   1.9906
B(  4-C , 13-H ) :   0.9421 B(  4-C , 14-H ) :   0.9443 B(  4-C , 15-H ) :   0.9470
B(  5-C , 16-H ) :   0.9352 B(  5-C , 17-H ) :   0.9294

FINAL SINGLE POINT ENERGY      -235.334102195112

DIPOLE MOMENT
-------------
                                X             Y             Z
Electronic contribution:      2.67795       0.81348      -0.62431
Nuclear contribution   :     -2.83858      -0.93460       0.76864
                        -----------------------------------------
Total Dipole Moment    :     -0.16062      -0.12112       0.14432
                        -----------------------------------------
Magnitude (a.u.)       :      0.24759
Magnitude (Debye)      :      0.62932

                             ****ORCA TERMINATED NORMALLY****
TOTAL RUN TIME: 0 days 0 hours 0 minutes 6 seconds 969 msec
