                         Program Version 3.0.3 - RELEASE   -
|  1> ! RI PBE def2-SVP def2-SVP/J NBO PAL2
|  2> % maxcore 2000
|  3> % output
|  4>     # printlevel mini
|  5>     print[ P_Basis ] 0
|  6>     print[ P_SCFInfo ] 1
|  7>     print[ P_SCFIterInfo ] 1
|  8>     print[ P_OrbEn ] 0
|  9>     print[ P_Cartesian ] 0
| 10> end
| 11> *xyz 0 1
| 12>  C        0.8725820000    -0.0250950000    -0.0992670000
| 13>  C        2.3907380000    -0.0354010000    -0.1045480000
| 14>  C        2.9663970000    -0.9516240000     0.9763590000
| 15>  C        4.4206460000    -0.9812480000     0.9943660000
| 16>  C        5.6234160000    -0.9904540000     0.9910990000
| 17>  C        7.0748320000    -1.0057020000     0.9918290000
| 18>  H        0.4772650000     0.6332290000    -0.8758130000
| 19>  H        0.4817200000     0.3231540000     0.8610850000
| 20>  H        0.4686010000    -1.0260350000    -0.2760210000
| 21>  H        2.7766180000     0.9766860000     0.0484140000
| 22>  H        2.7635780000    -0.3622300000    -1.0796360000
| 23>  H        2.5848030000    -1.9691300000     0.8296510000
| 24>  H        2.5980970000    -0.6298130000     1.9578090000
| 25>  H        7.4743240000    -0.4238510000     0.1571700000
| 26>  H        7.4579980000    -2.0254160000     0.9013340000
| 27>  H        7.4729380000    -0.5797800000     1.9164390000
| 28> *
| 29>
| 30>                          ****END OF INPUT****
 Total Charge           Charge          ....    0
 Multiplicity           Mult            ....    1
 Number of Electrons    NEL             ....   46
 Basis Dimension        Dim             ....  134

MULLIKEN ATOMIC CHARGES
-----------------------
   0 C :    0.005494
   1 C :   -0.074888
   2 C :    0.059658
   3 C :   -0.068677
   4 C :   -0.250766
   5 C :    0.054592
   6 H :    0.022813
   7 H :    0.014992
   8 H :    0.014836
   9 H :    0.023066
  10 H :    0.020841
  11 H :    0.024461
  12 H :    0.022972
  13 H :    0.044879
  14 H :    0.042395
  15 H :    0.043331
Sum of atomic charges:   -0.0000000

LOEWDIN ATOMIC CHARGES
----------------------
   0 C :   -0.066285
   1 C :   -0.036530
   2 C :   -0.047646
   3 C :   -0.066394
   4 C :   -0.076499
   5 C :   -0.068508
   6 H :    0.028638
   7 H :    0.024497
   8 H :    0.024432
   9 H :    0.027227
  10 H :    0.026896
  11 H :    0.042618
  12 H :    0.042315
  13 H :    0.048876
  14 H :    0.048098
  15 H :    0.048265

  Mayer bond orders larger than 0.1
B(  0-C ,  1-C ) :   1.1182 B(  0-C ,  6-H ) :   0.9620 B(  0-C ,  7-H ) :   0.9631
B(  0-C ,  8-H ) :   0.9629 B(  1-C ,  2-C ) :   1.0792 B(  1-C ,  9-H ) :   0.9431
B(  1-C , 10-H ) :   0.9426 B(  2-C ,  3-C ) :   1.0664 B(  2-C , 11-H ) :   0.8973
B(  2-C , 12-H ) :   0.8985 B(  3-C ,  4-C ) :   2.5814 B(  4-C ,  5-C ) :   1.1340
B(  5-C , 13-H ) :   0.9329 B(  5-C , 14-H ) :   0.9342 B(  5-C , 15-H ) :   0.9340

FINAL SINGLE POINT ENERGY      -234.098740221285

DIPOLE MOMENT
-------------
                                X             Y             Z
Electronic contribution:      3.60328      -1.25721       1.44889
Nuclear contribution   :     -3.58721       1.28892      -1.48915
                        -----------------------------------------
Total Dipole Moment    :      0.01607       0.03172      -0.04026
                        -----------------------------------------
Magnitude (a.u.)       :      0.05372
Magnitude (Debye)      :      0.13654

                             ****ORCA TERMINATED NORMALLY****
TOTAL RUN TIME: 0 days 0 hours 0 minutes 5 seconds 968 msec
