                         Program Version 3.0.3 - RELEASE   -
|  1> ! RI PBE def2-SVP def2-SVP/J NBO PAL2
|  2> % maxcore 2000
|  3> % output
|  4>     # printlevel mini
|  5>     print[ P_Basis ] 0
|  6>     print[ P_SCFInfo ] 1
|  7>     print[ P_SCFIterInfo ] 1
|  8>     print[ P_OrbEn ] 0
|  9>     print[ P_Cartesian ] 0
| 10> end
| 11> *xyz 0 1
| 12>  C        0.8754230000     0.4536350000     0.0172140000
| 13>  C        2.3943180000     0.4589910000    -0.0100150000
| 14>  C        2.9848150000    -0.8341690000    -0.5489930000
| 15>  C        4.5108020000    -0.8307830000    -0.5809990000
| 16>  C        5.0860830000    -2.1202560000    -1.0632900000
| 17>  C        5.8640500000    -2.2624790000    -2.1273360000
| 18>  H        0.4774160000     1.3938570000     0.4058760000
| 19>  H        0.4947700000    -0.3541160000     0.6487480000
| 20>  H        0.4634170000     0.3081930000    -0.9853800000
| 21>  H        2.7802510000     0.6373480000     1.0005600000
| 22>  H        2.7479870000     1.2982010000    -0.6202540000
| 23>  H        2.6054620000    -1.0185370000    -1.5607560000
| 24>  H        2.6365840000    -1.6755670000     0.0628880000
| 25>  H        4.8802460000    -0.6288620000     0.4333130000
| 26>  H        4.8675920000    -0.0101040000    -1.2124710000
| 27>  H        4.8215490000    -3.0046460000    -0.4844440000
| 28>  H        6.1515140000    -1.4098810000    -2.7355860000
| 29>  H        6.2444100000    -3.2316360000    -2.4289640000
| 30> *
| 31>
| 32>                          ****END OF INPUT****
 Total Charge           Charge          ....    0
 Multiplicity           Mult            ....    1
 Number of Electrons    NEL             ....   48
 Basis Dimension        Dim             ....  144

MULLIKEN ATOMIC CHARGES
-----------------------
   0 C :   -0.000102
   1 C :   -0.038408
   2 C :   -0.056783
   3 C :    0.078985
   4 C :   -0.084944
   5 C :   -0.031052
   6 H :    0.016967
   7 H :    0.016827
   8 H :    0.016276
   9 H :    0.006011
  10 H :    0.009766
  11 H :    0.010910
  12 H :    0.007462
  13 H :    0.013311
  14 H :   -0.002511
  15 H :    0.003486
  16 H :    0.014346
  17 H :    0.019452
Sum of atomic charges:   -0.0000000

LOEWDIN ATOMIC CHARGES
----------------------
   0 C :   -0.065128
   1 C :   -0.047780
   2 C :   -0.039333
   3 C :   -0.041021
   4 C :   -0.028287
   5 C :   -0.068961
   6 H :    0.026123
   7 H :    0.024171
   8 H :    0.024286
   9 H :    0.021914
  10 H :    0.022948
  11 H :    0.023576
  12 H :    0.021588
  13 H :    0.032274
  14 H :    0.025979
  15 H :    0.024287
  16 H :    0.020370
  17 H :    0.022994

  Mayer bond orders larger than 0.1
B(  0-C ,  1-C ) :   1.1156 B(  0-C ,  6-H ) :   0.9605 B(  0-C ,  7-H ) :   0.9660
B(  0-C ,  8-H ) :   0.9659 B(  1-C ,  2-C ) :   1.0946 B(  1-C ,  9-H ) :   0.9356
B(  1-C , 10-H ) :   0.9363 B(  2-C ,  3-C ) :   1.0702 B(  2-C , 11-H ) :   0.9390
B(  2-C , 12-H ) :   0.9387 B(  3-C ,  4-C ) :   1.0615 B(  3-C , 13-H ) :   0.9094
B(  3-C , 14-H ) :   0.9276 B(  4-C ,  5-C ) :   2.0195 B(  4-C , 15-H ) :   0.9530
B(  5-C , 16-H ) :   0.9452 B(  5-C , 17-H ) :   0.9427

FINAL SINGLE POINT ENERGY      -235.329516642972

DIPOLE MOMENT
-------------
                                X             Y             Z
Electronic contribution:      3.30497      -1.98000      -0.81504
Nuclear contribution   :     -3.42205       2.06809       0.92414
                        -----------------------------------------
Total Dipole Moment    :     -0.11708       0.08809       0.10910
                        -----------------------------------------
Magnitude (a.u.)       :      0.18267
Magnitude (Debye)      :      0.46432

                             ****ORCA TERMINATED NORMALLY****
TOTAL RUN TIME: 0 days 0 hours 0 minutes 7 seconds 283 msec
