                         Program Version 3.0.3 - RELEASE   -
|  1> ! RI PBE def2-SVP def2-SVP/J NBO PAL2
|  2> % maxcore 2000
|  3> % output
|  4>     # printlevel mini
|  5>     print[ P_Basis ] 0
|  6>     print[ P_SCFInfo ] 1
|  7>     print[ P_SCFIterInfo ] 1
|  8>     print[ P_OrbEn ] 0
|  9>     print[ P_Cartesian ] 0
| 10> end
| 11> *xyz 0 1
| 12>  C        1.0500570000     0.1227820000     0.0954520000
| 13>  C        2.5669950000     0.0696220000     0.0391250000
| 14>  C        3.0850820000    -0.6658520000    -1.1855390000
| 15>  C        4.6122400000    -0.7160730000    -1.2350870000
| 16>  C        5.1269750000    -1.4158770000    -2.3998440000
| 17>  C        5.5314990000    -1.9972730000    -3.3695540000
| 18>  H        0.7008440000     0.6557070000     0.9825620000
| 19>  H        0.6210970000    -0.8827630000     0.1212300000
| 20>  H        0.6406790000     0.6323310000    -0.7812300000
| 21>  H        2.9521500000    -0.4164250000     0.9432390000
| 22>  H        2.9716380000     1.0885360000     0.0476820000
| 23>  H        2.7142800000    -0.1827510000    -2.0953970000
| 24>  H        2.6938550000    -1.6883480000    -1.1998630000
| 25>  H        4.9938900000    -1.2024430000    -0.3299280000
| 26>  H        5.0143320000     0.3036340000    -1.2252490000
| 27>  H        5.8958870000    -2.5120100000    -4.2266000000
| 28> *
| 29>
| 30>                          ****END OF INPUT****
 Total Charge           Charge          ....    0
 Multiplicity           Mult            ....    1
 Number of Electrons    NEL             ....   46
 Basis Dimension        Dim             ....  134

MULLIKEN ATOMIC CHARGES
-----------------------
   0 C :    0.000774
   1 C :   -0.033715
   2 C :   -0.067657
   3 C :    0.100004
   4 C :    0.342268
   5 C :   -0.510537
   6 H :    0.019726
   7 H :    0.017947
   8 H :    0.019274
   9 H :    0.007715
  10 H :    0.008972
  11 H :    0.021123
  12 H :    0.021351
  13 H :    0.027440
  14 H :    0.029863
  15 H :   -0.004549
Sum of atomic charges:   -0.0000000

LOEWDIN ATOMIC CHARGES
----------------------
   0 C :   -0.064033
   1 C :   -0.047630
   2 C :   -0.031421
   3 C :   -0.045993
   4 C :   -0.020932
   5 C :   -0.095387
   6 H :    0.027285
   7 H :    0.025145
   8 H :    0.025415
   9 H :    0.022861
  10 H :    0.023003
  11 H :    0.027789
  12 H :    0.027786
  13 H :    0.046415
  14 H :    0.046747
  15 H :    0.032950

  Mayer bond orders larger than 0.1
B(  0-C ,  1-C ) :   1.1170 B(  0-C ,  6-H ) :   0.9604 B(  0-C ,  7-H ) :   0.9653
B(  0-C ,  8-H ) :   0.9662 B(  1-C ,  2-C ) :   1.0916 B(  1-C ,  9-H ) :   0.9349
B(  1-C , 10-H ) :   0.9351 B(  2-C ,  3-C ) :   1.0720 B(  2-C , 11-H ) :   0.9413
B(  2-C , 12-H ) :   0.9402 B(  3-C ,  4-C ) :   1.0632 B(  3-C , 13-H ) :   0.8916
B(  3-C , 14-H ) :   0.8925 B(  4-C ,  5-C ) :   2.3290 B(  4-C , 15-H ) :  -0.1105
B(  5-C , 15-H ) :   1.1013

FINAL SINGLE POINT ENERGY      -234.087149515368

DIPOLE MOMENT
-------------
                                X             Y             Z
Electronic contribution:      5.92387      -2.69079      -4.39659
Nuclear contribution   :     -6.10934       2.85319       4.66029
                        -----------------------------------------
Total Dipole Moment    :     -0.18546       0.16240       0.26370
                        -----------------------------------------
Magnitude (a.u.)       :      0.36098
Magnitude (Debye)      :      0.91754

                             ****ORCA TERMINATED NORMALLY****
TOTAL RUN TIME: 0 days 0 hours 0 minutes 6 seconds 374 msec
