                         Program Version 3.0.3 - RELEASE   -
|  1> ! RI PBE def2-SVP def2-SVP/J NBO PAL2
|  2> % maxcore 2000
|  3> % output
|  4>     # printlevel mini
|  5>     print[ P_Basis ] 0
|  6>     print[ P_SCFInfo ] 1
|  7>     print[ P_SCFIterInfo ] 1
|  8>     print[ P_OrbEn ] 0
|  9>     print[ P_Cartesian ] 0
| 10> end
| 11> *xyz 0 1
| 12>  C       -1.2675110000     0.0917720000    -0.3904330000
| 13>  C       -0.3800190000    -0.6012930000     0.6804670000
| 14>  N       -0.5266220000     0.6692510000     1.4508810000
| 15>  C       -0.3870480000     1.2769690000     0.0942320000
| 16>  C        0.9980540000     0.8046780000    -0.3676240000
| 17>  C        1.0028010000    -0.4661310000     0.0289970000
| 18>  H       -2.3099810000     0.1837120000    -0.0833580000
| 19>  H       -1.1605540000    -0.2306260000    -1.4246570000
| 20>  H       -0.6536910000    -1.5359140000     1.1679030000
| 21>  H        0.2906800000     0.8534040000     2.0310870000
| 22>  H       -0.6681240000     2.3210320000    -0.0359100000
| 23>  H        1.7396290000     1.3733330000    -0.9103650000
| 24>  H        1.7493870000    -1.2374780000    -0.0955200000
| 25> *
| 26>
| 27>                          ****END OF INPUT****
 Total Charge           Charge          ....    0
 Multiplicity           Mult            ....    1
 Number of Electrons    NEL             ....   44
 Basis Dimension        Dim             ....  119

MULLIKEN ATOMIC CHARGES
-----------------------
   0 C :    0.097372
   1 C :   -0.017228
   2 N :   -0.162390
   3 C :   -0.029680
   4 C :    0.018747
   5 C :    0.008270
   6 H :    0.029429
   7 H :    0.022012
   8 H :   -0.012820
   9 H :    0.081019
  10 H :   -0.010602
  11 H :   -0.012519
  12 H :   -0.011610
Sum of atomic charges:    0.0000000

LOEWDIN ATOMIC CHARGES
----------------------
   0 C :   -0.009274
   1 C :    0.024198
   2 N :   -0.091994
   3 C :    0.022897
   4 C :   -0.038115
   5 C :   -0.039982
   6 H :    0.024244
   7 H :    0.015186
   8 H :    0.007436
   9 H :    0.036667
  10 H :    0.007815
  11 H :    0.020392
  12 H :    0.020530

  Mayer bond orders larger than 0.1
B(  0-C ,  1-C ) :   0.9868 B(  0-C ,  3-C ) :   0.9875 B(  0-C ,  6-H ) :   0.9278
B(  0-C ,  7-H ) :   0.9464 B(  1-C ,  2-N ) :   0.9920 B(  1-C ,  5-C ) :   0.9052
B(  1-C ,  8-H ) :   0.9739 B(  2-N ,  3-C ) :   0.9934 B(  2-N ,  9-H ) :   0.9393
B(  3-C ,  4-C ) :   0.9048 B(  3-C , 10-H ) :   0.9755 B(  4-C ,  5-C ) :   1.7707
B(  4-C , 11-H ) :   1.0213 B(  5-C , 12-H ) :   1.0225

FINAL SINGLE POINT ENERGY      -248.892067384450

DIPOLE MOMENT
-------------
                                X             Y             Z
Electronic contribution:      0.60851       0.26947       0.84966
Nuclear contribution   :     -0.23973      -0.35267      -1.12707
                        -----------------------------------------
Total Dipole Moment    :      0.36878      -0.08320      -0.27741
                        -----------------------------------------
Magnitude (a.u.)       :      0.46891
Magnitude (Debye)      :      1.19187

                             ****ORCA TERMINATED NORMALLY****
TOTAL RUN TIME: 0 days 0 hours 0 minutes 5 seconds 622 msec
