                         Program Version 3.0.3 - RELEASE   -
|  1> ! RI PBE def2-SVP def2-SVP/J NBO PAL2
|  2> % maxcore 2000
|  3> % output
|  4>     # printlevel mini
|  5>     print[ P_Basis ] 0
|  6>     print[ P_SCFInfo ] 1
|  7>     print[ P_SCFIterInfo ] 1
|  8>     print[ P_OrbEn ] 0
|  9>     print[ P_Cartesian ] 0
| 10> end
| 11> *xyz 0 1
| 12>  C        0.4409800000     1.3765060000     0.4741560000
| 13>  C        0.8956910000     0.3551140000    -0.5261210000
| 14>  N        0.8675090000    -1.0161890000    -0.1190210000
| 15>  C       -0.4115660000    -1.2911860000     0.2959580000
| 16>  N       -1.2891890000    -0.3892260000     0.0794140000
| 17>  C       -0.5717910000     0.7444720000    -0.4363770000
| 18>  H        0.7071500000     2.4043420000     0.2626500000
| 19>  H        0.4156720000     1.1051380000     1.5235760000
| 20>  H        1.5605790000     0.6164390000    -1.3395880000
| 21>  H        1.6652550000    -1.4647790000     0.2983460000
| 22>  H       -0.6370850000    -2.2535430000     0.7438670000
| 23>  H       -1.0782840000     1.3517130000    -1.1753600000
| 24> *
| 25>
| 26>                          ****END OF INPUT****
 Total Charge           Charge          ....    0
 Multiplicity           Mult            ....    1
 Number of Electrons    NEL             ....   44
 Basis Dimension        Dim             ....  114

MULLIKEN ATOMIC CHARGES
-----------------------
   0 C :    0.026487
   1 C :   -0.035066
   2 N :   -0.126087
   3 C :    0.079103
   4 N :   -0.160095
   5 C :   -0.027052
   6 H :    0.035673
   7 H :    0.032391
   8 H :    0.022042
   9 H :    0.118379
  10 H :    0.008951
  11 H :    0.025273
Sum of atomic charges:   -0.0000000

LOEWDIN ATOMIC CHARGES
----------------------
   0 C :   -0.061805
   1 C :   -0.007881
   2 N :   -0.005355
   3 C :    0.023453
   4 N :   -0.140050
   5 C :    0.001007
   6 H :    0.033570
   7 H :    0.028198
   8 H :    0.018438
   9 H :    0.073695
  10 H :    0.015949
  11 H :    0.020782

  Mayer bond orders larger than 0.1
B(  0-C ,  1-C ) :   0.9820 B(  0-C ,  5-C ) :   0.9631 B(  0-C ,  6-H ) :   0.9410
B(  0-C ,  7-H ) :   0.9182 B(  1-C ,  2-N ) :   1.0417 B(  1-C ,  5-C ) :   0.8989
B(  1-C ,  8-H ) :   0.9538 B(  2-N ,  3-C ) :   1.1554 B(  2-N ,  4-N ) :   0.1159
B(  2-N ,  9-H ) :   0.9387 B(  3-C ,  4-N ) :   1.7994 B(  3-C , 10-H ) :   0.9595
B(  4-N ,  5-C ) :   1.1145 B(  5-C , 11-H ) :   0.9547

FINAL SINGLE POINT ENERGY      -264.967618324027

DIPOLE MOMENT
-------------
                                X             Y             Z
Electronic contribution:     -1.24703      -2.02105      -0.38356
Nuclear contribution   :      2.40005       1.89562       0.46902
                        -----------------------------------------
Total Dipole Moment    :      1.15303      -0.12544       0.08546
                        -----------------------------------------
Magnitude (a.u.)       :      1.16297
Magnitude (Debye)      :      2.95605

                             ****ORCA TERMINATED NORMALLY****
TOTAL RUN TIME: 0 days 0 hours 0 minutes 5 seconds 462 msec
