                         Program Version 3.0.3 - RELEASE   -
|  1> ! RI PBE def2-SVP def2-SVP/J NBO PAL2
|  2> % maxcore 2000
|  3> % output
|  4>     # printlevel mini
|  5>     print[ P_Basis ] 0
|  6>     print[ P_SCFInfo ] 1
|  7>     print[ P_SCFIterInfo ] 1
|  8>     print[ P_OrbEn ] 0
|  9>     print[ P_Cartesian ] 0
| 10> end
| 11> *xyz 0 1
| 12>  C        0.4437470000     1.4252710000     0.4247720000
| 13>  C        0.8707980000     0.3236500000    -0.4934860000
| 14>  N        0.8452860000    -1.0305370000    -0.0231920000
| 15>  N       -0.3885690000    -1.3488210000     0.4857940000
| 16>  C       -1.2145650000    -0.4235160000     0.1707740000
| 17>  C       -0.5793700000     0.7535250000    -0.4596340000
| 18>  H        0.7441360000     2.4251400000     0.1394150000
| 19>  H        0.3939760000     1.2385080000     1.4910100000
| 20>  H        1.5347160000     0.5327670000    -1.3230680000
| 21>  H        1.6004580000    -1.3619640000     0.5571360000
| 22>  H       -2.2699740000    -0.5417150000     0.3786570000
| 23>  H       -1.0660380000     1.3109830000    -1.2493790000
| 24> *
| 25>
| 26>                          ****END OF INPUT****
 Total Charge           Charge          ....    0
 Multiplicity           Mult            ....    1
 Number of Electrons    NEL             ....   44
 Basis Dimension        Dim             ....  114

MULLIKEN ATOMIC CHARGES
-----------------------
   0 C :    0.027495
   1 C :    0.000537
   2 N :   -0.077721
   3 N :   -0.111378
   4 C :    0.029123
   5 C :   -0.131838
   6 H :    0.033890
   7 H :    0.039555
   8 H :    0.025822
   9 H :    0.123248
  10 H :    0.010793
  11 H :    0.030474
Sum of atomic charges:    0.0000000

LOEWDIN ATOMIC CHARGES
----------------------
   0 C :   -0.051168
   1 C :   -0.002328
   2 N :    0.008318
   3 N :   -0.047631
   4 C :   -0.051716
   5 C :   -0.054820
   6 H :    0.032601
   7 H :    0.029088
   8 H :    0.022603
   9 H :    0.065323
  10 H :    0.020879
  11 H :    0.028851

  Mayer bond orders larger than 0.1
B(  0-C ,  1-C ) :   0.9835 B(  0-C ,  5-C ) :   0.9648 B(  0-C ,  6-H ) :   0.9411
B(  0-C ,  7-H ) :   0.9304 B(  1-C ,  2-N ) :   1.0355 B(  1-C ,  5-C ) :   0.9168
B(  1-C ,  8-H ) :   0.9512 B(  2-N ,  3-N ) :   1.1025 B(  2-N ,  4-C ) :   0.1043
B(  2-N ,  9-H ) :   0.9394 B(  3-N ,  4-C ) :   1.8210 B(  4-C ,  5-C ) :   1.0178
B(  4-C , 10-H ) :   0.9861 B(  5-C , 11-H ) :   0.9482

FINAL SINGLE POINT ENERGY      -264.942236180765

DIPOLE MOMENT
-------------
                                X             Y             Z
Electronic contribution:     -0.39778      -2.95714       0.02579
Nuclear contribution   :      0.77303       3.69240      -0.15295
                        -----------------------------------------
Total Dipole Moment    :      0.37525       0.73526      -0.12715
                        -----------------------------------------
Magnitude (a.u.)       :      0.83521
Magnitude (Debye)      :      2.12295

                             ****ORCA TERMINATED NORMALLY****
TOTAL RUN TIME: 0 days 0 hours 0 minutes 5 seconds 644 msec
