                         Program Version 3.0.3 - RELEASE   -
|  1> ! RI PBE def2-SVP def2-SVP/J NBO PAL2
|  2> % maxcore 2000
|  3> % output
|  4>     # printlevel mini
|  5>     print[ P_Basis ] 0
|  6>     print[ P_SCFInfo ] 1
|  7>     print[ P_SCFIterInfo ] 1
|  8>     print[ P_OrbEn ] 0
|  9>     print[ P_Cartesian ] 0
| 10> end
| 11> *xyz 0 1
| 12>  C        0.3722800000     0.8242200000    -0.2101820000
| 13>  C       -0.6907700000    -0.1779750000     0.1278670000
| 14>  C        0.7267790000    -0.6227710000    -0.0705680000
| 15>  C        1.5324060000    -1.1457570000     1.0710310000
| 16>  C        2.8485860000    -0.5663030000     1.4031480000
| 17>  N        1.7118150000    -0.3931180000     2.3047100000
| 18>  H        0.6755090000     1.5197770000     0.5644940000
| 19>  H        0.3811620000     1.2524740000    -1.2044410000
| 20>  H       -1.4244170000    -0.4275150000    -0.6282380000
| 21>  H       -1.0710750000    -0.1763060000     1.1425390000
| 22>  H        0.9275420000    -1.1418490000    -1.0033110000
| 23>  H        1.3954610000    -2.2101200000     1.2488160000
| 24>  H        3.1716100000     0.2856710000     0.8123460000
| 25>  H        3.6479450000    -1.1930720000     1.7835210000
| 26>  H        1.3355580000     0.5447440000     2.2124690000
| 27> *
| 28>
| 29>                          ****END OF INPUT****
 Total Charge           Charge          ....    0
 Multiplicity           Mult            ....    1
 Number of Electrons    NEL             ....   46
 Basis Dimension        Dim             ....  129

MULLIKEN ATOMIC CHARGES
-----------------------
   0 C :   -0.075577
   1 C :   -0.031932
   2 C :   -0.057599
   3 C :   -0.034071
   4 C :    0.035894
   5 N :   -0.194188
   6 H :    0.032223
   7 H :    0.034173
   8 H :    0.037989
   9 H :    0.040475
  10 H :    0.025182
  11 H :    0.029641
  12 H :    0.027278
  13 H :    0.033710
  14 H :    0.096802
Sum of atomic charges:    0.0000000

LOEWDIN ATOMIC CHARGES
----------------------
   0 C :   -0.051205
   1 C :   -0.042430
   2 C :   -0.048786
   3 C :   -0.002544
   4 C :    0.002467
   5 N :   -0.099553
   6 H :    0.019047
   7 H :    0.029785
   8 H :    0.028112
   9 H :    0.028546
  10 H :    0.032922
  11 H :    0.025134
  12 H :    0.014053
  13 H :    0.019514
  14 H :    0.044938

  Mayer bond orders larger than 0.1
B(  0-C ,  1-C ) :   1.0331 B(  0-C ,  2-C ) :   0.9898 B(  0-C ,  6-H ) :   0.9442
B(  0-C ,  7-H ) :   0.9385 B(  1-C ,  2-C ) :   0.9829 B(  1-C ,  8-H ) :   0.9468
B(  1-C ,  9-H ) :   0.9542 B(  2-C ,  3-C ) :   1.0579 B(  2-C , 10-H ) :   0.9370
B(  3-C ,  4-C ) :   1.0467 B(  3-C ,  5-N ) :   1.0039 B(  3-C , 11-H ) :   0.9324
B(  4-C ,  5-N ) :   1.0023 B(  4-C , 12-H ) :   0.9440 B(  4-C , 13-H ) :   0.9415
B(  5-N , 14-H ) :   0.9546

FINAL SINGLE POINT ENERGY      -250.109541936377

DIPOLE MOMENT
-------------
                                X             Y             Z
Electronic contribution:      0.67138      -1.08147       1.36985
Nuclear contribution   :     -0.71933       1.32652      -1.98318
                        -----------------------------------------
Total Dipole Moment    :     -0.04795       0.24506      -0.61333
                        -----------------------------------------
Magnitude (a.u.)       :      0.66221
Magnitude (Debye)      :      1.68322

                             ****ORCA TERMINATED NORMALLY****
TOTAL RUN TIME: 0 days 0 hours 0 minutes 6 seconds 142 msec
