                         Program Version 3.0.3 - RELEASE   -
|  1> ! RI PBE def2-SVP def2-SVP/J NBO PAL2
|  2> % maxcore 2000
|  3> % output
|  4>     # printlevel mini
|  5>     print[ P_Basis ] 0
|  6>     print[ P_SCFInfo ] 1
|  7>     print[ P_SCFIterInfo ] 1
|  8>     print[ P_OrbEn ] 0
|  9>     print[ P_Cartesian ] 0
| 10> end
| 11> *xyz 0 1
| 12>  C       -0.4551930000     0.8522930000     0.1325390000
| 13>  C       -0.4171570000    -0.5939090000    -0.2708230000
| 14>  C        0.8342910000     0.0997670000     0.1562490000
| 15>  N        1.3712030000    -0.2429020000     1.4355340000
| 16>  C        2.6192980000    -0.9778870000     1.4282220000
| 17>  C        2.5832460000     0.4476720000     1.8255990000
| 18>  H       -0.8925010000     1.0865120000     1.0946640000
| 19>  H       -0.5998860000     1.6017130000    -0.6354280000
| 20>  H       -0.5357130000    -0.8435190000    -1.3177210000
| 21>  H       -0.8297900000    -1.3131540000     0.4250090000
| 22>  H        1.5623240000     0.3361440000    -0.6237810000
| 23>  H        3.0606080000    -1.2125560000     0.4626600000
| 24>  H        2.7158350000    -1.7554050000     2.1782570000
| 25>  H        3.0003900000     1.1680960000     1.1262320000
| 26>  H        2.6530440000     0.7289330000     2.8707880000
| 27> *
| 28>
| 29>                          ****END OF INPUT****
 Total Charge           Charge          ....    0
 Multiplicity           Mult            ....    1
 Number of Electrons    NEL             ....   46
 Basis Dimension        Dim             ....  129

MULLIKEN ATOMIC CHARGES
-----------------------
   0 C :   -0.023479
   1 C :   -0.016564
   2 C :   -0.049376
   3 N :   -0.239388
   4 C :    0.033624
   5 C :    0.036703
   6 H :    0.034584
   7 H :    0.035941
   8 H :    0.031304
   9 H :    0.036854
  10 H :   -0.002061
  11 H :    0.022996
  12 H :    0.038709
  13 H :    0.025794
  14 H :    0.034360
Sum of atomic charges:    0.0000000

LOEWDIN ATOMIC CHARGES
----------------------
   0 C :   -0.049255
   1 C :   -0.048155
   2 C :   -0.005577
   3 N :   -0.096493
   4 C :    0.004412
   5 C :    0.005292
   6 H :    0.031053
   7 H :    0.026921
   8 H :    0.026109
   9 H :    0.031460
  10 H :    0.004210
  11 H :    0.013824
  12 H :    0.021365
  13 H :    0.014185
  14 H :    0.020649

  Mayer bond orders larger than 0.1
B(  0-C ,  1-C ) :   1.0683 B(  0-C ,  2-C ) :   0.9909 B(  0-C ,  6-H ) :   0.9381
B(  0-C ,  7-H ) :   0.9449 B(  1-C ,  2-C ) :   0.9928 B(  1-C ,  8-H ) :   0.9450
B(  1-C ,  9-H ) :   0.9381 B(  2-C ,  3-N ) :   1.0874 B(  2-C , 10-H ) :   0.9142
B(  3-N ,  4-C ) :   0.9605 B(  3-N ,  5-C ) :   0.9611 B(  4-C ,  5-C ) :   1.0981
B(  4-C , 11-H ) :   0.9314 B(  4-C , 12-H ) :   0.9496 B(  5-C , 13-H ) :   0.9317
B(  5-C , 14-H ) :   0.9498

FINAL SINGLE POINT ENERGY      -250.103673172029

DIPOLE MOMENT
-------------
                                X             Y             Z
Electronic contribution:      0.11120      -0.30576       1.11656
Nuclear contribution   :      0.22080       0.38464      -1.36560
                        -----------------------------------------
Total Dipole Moment    :      0.33200       0.07888      -0.24904
                        -----------------------------------------
Magnitude (a.u.)       :      0.42246
Magnitude (Debye)      :      1.07380

                             ****ORCA TERMINATED NORMALLY****
TOTAL RUN TIME: 0 days 0 hours 0 minutes 6 seconds 26 msec
