                         Program Version 3.0.3 - RELEASE   -
|  1> ! RI PBE def2-SVP def2-SVP/J NBO PAL2
|  2> % maxcore 2000
|  3> % output
|  4>     # printlevel mini
|  5>     print[ P_Basis ] 0
|  6>     print[ P_SCFInfo ] 1
|  7>     print[ P_SCFIterInfo ] 1
|  8>     print[ P_OrbEn ] 0
|  9>     print[ P_Cartesian ] 0
| 10> end
| 11> *xyz 0 1
| 12>  C        0.8379250000     0.0102660000     1.0425310000
| 13>  C        0.3262630000     0.9873530000    -0.0299060000
| 14>  C       -1.1953730000     0.7878610000     0.0385860000
| 15>  C       -1.2087810000    -0.7628500000     0.0626610000
| 16>  C        0.3091610000    -0.9906500000     0.0008090000
| 17>  N        0.7879400000    -0.0213240000    -1.0198170000
| 18>  H        0.3732580000     0.0296010000     2.0290950000
| 19>  H        1.9245920000     0.0018150000     1.1032970000
| 20>  H        0.7066850000     2.0043020000    -0.1267980000
| 21>  H       -1.6988780000     1.2057140000    -0.8364750000
| 22>  H       -1.6424710000     1.2364520000     0.9286900000
| 23>  H       -1.7196430000    -1.1988920000    -0.7991620000
| 24>  H       -1.6633520000    -1.1758080000     0.9661240000
| 25>  H        0.6719130000    -2.0165440000    -0.0643640000
| 26>  H        0.2327600000    -0.0297940000    -1.8742810000
| 27> *
| 28>
| 29>                          ****END OF INPUT****
 Total Charge           Charge          ....    0
 Multiplicity           Mult            ....    1
 Number of Electrons    NEL             ....   46
 Basis Dimension        Dim             ....  129

MULLIKEN ATOMIC CHARGES
-----------------------
   0 C :    0.079073
   1 C :   -0.124129
   2 C :    0.098292
   3 C :    0.097523
   4 C :   -0.125526
   5 N :   -0.169995
   6 H :    0.013675
   7 H :    0.029289
   8 H :   -0.005857
   9 H :    0.008082
  10 H :    0.008008
  11 H :    0.008435
  12 H :    0.007714
  13 H :   -0.005482
  14 H :    0.080898
Sum of atomic charges:   -0.0000000

LOEWDIN ATOMIC CHARGES
----------------------
   0 C :   -0.031357
   1 C :    0.022686
   2 C :   -0.047757
   3 C :   -0.047789
   4 C :    0.022512
   5 N :   -0.094865
   6 H :    0.014024
   7 H :    0.028404
   8 H :    0.007297
   9 H :    0.018916
  10 H :    0.021710
  11 H :    0.019005
  12 H :    0.021610
  13 H :    0.007344
  14 H :    0.038258

  Mayer bond orders larger than 0.1
B(  0-C ,  1-C ) :   0.9981 B(  0-C ,  4-C ) :   0.9983 B(  0-C ,  6-H ) :   0.9468
B(  0-C ,  7-H ) :   0.9283 B(  1-C ,  2-C ) :   1.0415 B(  1-C ,  5-N ) :   0.9882
B(  1-C ,  8-H ) :   0.9672 B(  2-C ,  3-C ) :   1.0970 B(  2-C ,  9-H ) :   0.9177
B(  2-C , 10-H ) :   0.9130 B(  3-C ,  4-C ) :   1.0411 B(  3-C , 11-H ) :   0.9176
B(  3-C , 12-H ) :   0.9132 B(  4-C ,  5-N ) :   0.9885 B(  4-C , 13-H ) :   0.9675
B(  5-N , 14-H ) :   0.9402

FINAL SINGLE POINT ENERGY      -250.134935421824

DIPOLE MOMENT
-------------
                                X             Y             Z
Electronic contribution:      1.87511      -0.03346      -1.10731
Nuclear contribution   :     -2.33380       0.03871       1.19375
                        -----------------------------------------
Total Dipole Moment    :     -0.45869       0.00525       0.08643
                        -----------------------------------------
Magnitude (a.u.)       :      0.46679
Magnitude (Debye)      :      1.18650

                             ****ORCA TERMINATED NORMALLY****
TOTAL RUN TIME: 0 days 0 hours 0 minutes 6 seconds 351 msec
