                         Program Version 3.0.3 - RELEASE   -
|  1> ! RI PBE def2-SVP def2-SVP/J NBO PAL2
|  2> % maxcore 2000
|  3> % output
|  4>     # printlevel mini
|  5>     print[ P_Basis ] 0
|  6>     print[ P_SCFInfo ] 1
|  7>     print[ P_SCFIterInfo ] 1
|  8>     print[ P_OrbEn ] 0
|  9>     print[ P_Cartesian ] 0
| 10> end
| 11> *xyz 0 1
| 12>  C        0.7651170000     1.2992350000    -0.6391930000
| 13>  C       -0.3383860000     0.9888880000     0.3277580000
| 14>  C       -1.4206430000     0.0245360000    -0.1277880000
| 15>  C       -0.7613790000    -1.3524760000     0.0523620000
| 16>  N        0.6864800000    -1.1472350000    -0.0177920000
| 17>  C        0.9480240000     0.2127830000     0.3792980000
| 18>  H        1.3160990000     2.2227900000    -0.5016510000
| 19>  H        0.6313060000     1.0016720000    -1.6744800000
| 20>  H       -0.5702820000     1.7209740000     1.0910740000
| 21>  H       -1.6998460000     0.2023940000    -1.1710350000
| 22>  H       -2.3273360000     0.1258670000     0.4729710000
| 23>  H       -1.0808000000    -2.0901120000    -0.6876340000
| 24>  H       -1.0165190000    -1.7532550000     1.0396840000
| 25>  H        1.0303490000    -1.3239790000    -0.9520190000
| 26>  H        1.6590180000     0.3632180000     1.1846660000
| 27> *
| 28>
| 29>                          ****END OF INPUT****
 Total Charge           Charge          ....    0
 Multiplicity           Mult            ....    1
 Number of Electrons    NEL             ....   46
 Basis Dimension        Dim             ....  129

MULLIKEN ATOMIC CHARGES
-----------------------
   0 C :    0.032037
   1 C :   -0.152813
   2 C :    0.060126
   3 C :    0.102680
   4 N :   -0.188379
   5 C :   -0.061983
   6 H :    0.025707
   7 H :    0.015873
   8 H :    0.020087
   9 H :    0.005062
  10 H :    0.008037
  11 H :    0.006376
  12 H :    0.011298
  13 H :    0.095111
  14 H :    0.020780
Sum of atomic charges:    0.0000000

LOEWDIN ATOMIC CHARGES
----------------------
   0 C :   -0.050310
   1 C :   -0.046725
   2 C :   -0.045977
   3 C :    0.020048
   4 N :   -0.089921
   5 C :   -0.005035
   6 H :    0.027779
   7 H :    0.019631
   8 H :    0.023621
   9 H :    0.021205
  10 H :    0.026816
  11 H :    0.017271
  12 H :    0.015682
  13 H :    0.050821
  14 H :    0.015094

  Mayer bond orders larger than 0.1
B(  0-C ,  1-C ) :   0.9867 B(  0-C ,  5-C ) :   0.9806 B(  0-C ,  6-H ) :   0.9338
B(  0-C ,  7-H ) :   0.9339 B(  1-C ,  2-C ) :   1.0979 B(  1-C ,  5-C ) :   0.9332
B(  1-C ,  8-H ) :   0.9491 B(  2-C ,  3-C ) :   1.0785 B(  2-C ,  9-H ) :   0.9157
B(  2-C , 10-H ) :   0.9317 B(  3-C ,  4-N ) :   1.0687 B(  3-C , 11-H ) :   0.9433
B(  3-C , 12-H ) :   0.9401 B(  4-N ,  5-C ) :   1.1169 B(  4-N , 13-H ) :   0.9491
B(  5-C , 14-H ) :   0.9493

FINAL SINGLE POINT ENERGY      -250.140231799610

DIPOLE MOMENT
-------------
                                X             Y             Z
Electronic contribution:      1.49893      -0.38335       0.67985
Nuclear contribution   :     -1.70798       0.58743      -0.96710
                        -----------------------------------------
Total Dipole Moment    :     -0.20905       0.20408      -0.28725
                        -----------------------------------------
Magnitude (a.u.)       :      0.40971
Magnitude (Debye)      :      1.04140

                             ****ORCA TERMINATED NORMALLY****
TOTAL RUN TIME: 0 days 0 hours 0 minutes 6 seconds 298 msec
