                         Program Version 3.0.3 - RELEASE   -
|  1> ! RI PBE def2-SVP def2-SVP/J NBO PAL2
|  2> % maxcore 2000
|  3> % output
|  4>     # printlevel mini
|  5>     print[ P_Basis ] 0
|  6>     print[ P_SCFInfo ] 1
|  7>     print[ P_SCFIterInfo ] 1
|  8>     print[ P_OrbEn ] 0
|  9>     print[ P_Cartesian ] 0
| 10> end
| 11> *xyz 0 1
| 12>  C        0.6861970000     1.3242780000    -0.5636360000
| 13>  C       -0.4451660000     0.9893210000     0.3194170000
| 14>  C       -1.4824980000     0.0062460000    -0.1922150000
| 15>  C       -0.8270960000    -1.3571450000     0.0569280000
| 16>  C        0.6726190000    -1.0667540000    -0.0085590000
| 17>  N        0.8502320000     0.3132670000     0.4716490000
| 18>  H        1.2562870000     2.2363650000    -0.4161970000
| 19>  H        0.6248490000     0.9871500000    -1.5965290000
| 20>  H       -0.7219180000     1.6672860000     1.1207540000
| 21>  H       -1.6857130000     0.1610180000    -1.2555280000
| 22>  H       -2.4311560000     0.1108420000     0.3364950000
| 23>  H       -1.1423890000    -2.1258920000    -0.6519290000
| 24>  H       -1.0853920000    -1.7091020000     1.0594040000
| 25>  H        1.0558540000    -1.1722220000    -1.0298450000
| 26>  H        1.2493790000    -1.7410390000     0.6279110000
| 27> *
| 28>
| 29>                          ****END OF INPUT****
 Total Charge           Charge          ....    0
 Multiplicity           Mult            ....    1
 Number of Electrons    NEL             ....   46
 Basis Dimension        Dim             ....  129

MULLIKEN ATOMIC CHARGES
-----------------------
   0 C :    0.107935
   1 C :   -0.132740
   2 C :    0.067330
   3 C :   -0.014289
   4 C :    0.110805
   5 N :   -0.286411
   6 H :    0.028402
   7 H :    0.016293
   8 H :    0.019528
   9 H :    0.011855
  10 H :    0.014405
  11 H :    0.015257
  12 H :    0.020349
  13 H :    0.001314
  14 H :    0.019967
Sum of atomic charges:   -0.0000000

LOEWDIN ATOMIC CHARGES
----------------------
   0 C :    0.007431
   1 C :   -0.003639
   2 C :   -0.044235
   3 C :   -0.043337
   4 C :    0.014568
   5 N :   -0.121838
   6 H :    0.019612
   7 H :    0.009365
   8 H :    0.016768
   9 H :    0.026208
  10 H :    0.029783
  11 H :    0.026244
  12 H :    0.027627
  13 H :    0.012339
  14 H :    0.023105

  Mayer bond orders larger than 0.1
B(  0-C ,  1-C ) :   1.0356 B(  0-C ,  5-N ) :   0.9826 B(  0-C ,  6-H ) :   0.9441
B(  0-C ,  7-H ) :   0.9212 B(  1-C ,  2-C ) :   1.0644 B(  1-C ,  5-N ) :   0.9665
B(  1-C ,  8-H ) :   0.9487 B(  2-C ,  3-C ) :   1.1001 B(  2-C ,  9-H ) :   0.9199
B(  2-C , 10-H ) :   0.9373 B(  3-C ,  4-C ) :   1.0933 B(  3-C , 11-H ) :   0.9325
B(  3-C , 12-H ) :   0.9361 B(  4-C ,  5-N ) :   1.0020 B(  4-C , 13-H ) :   0.9308
B(  4-C , 14-H ) :   0.9419

FINAL SINGLE POINT ENERGY      -250.135385751242

DIPOLE MOMENT
-------------
                                X             Y             Z
Electronic contribution:      1.46908       1.48313       1.32587
Nuclear contribution   :     -1.90871      -1.64234      -1.70399
                        -----------------------------------------
Total Dipole Moment    :     -0.43963      -0.15921      -0.37813
                        -----------------------------------------
Magnitude (a.u.)       :      0.60133
Magnitude (Debye)      :      1.52847

                             ****ORCA TERMINATED NORMALLY****
TOTAL RUN TIME: 0 days 0 hours 0 minutes 6 seconds 209 msec
