                         Program Version 3.0.3 - RELEASE   -
|  1> ! RI PBE def2-SVP def2-SVP/J NBO PAL2
|  2> % maxcore 2000
|  3> % output
|  4>     # printlevel mini
|  5>     print[ P_Basis ] 0
|  6>     print[ P_SCFInfo ] 1
|  7>     print[ P_SCFIterInfo ] 1
|  8>     print[ P_OrbEn ] 0
|  9>     print[ P_Cartesian ] 0
| 10> end
| 11> *xyz 0 1
| 12>  C        0.7530140000     1.3163030000     0.3163930000
| 13>  C       -0.7029400000     1.2449110000    -0.1691210000
| 14>  C       -0.9923240000    -0.2329690000    -0.2327820000
| 15>  N       -0.5450010000    -0.9576470000     0.9624100000
| 16>  C        0.2873870000    -0.9672750000    -0.2462160000
| 17>  C        1.4182120000     0.0277810000    -0.1914130000
| 18>  H        0.7691060000     1.3243940000     1.4062340000
| 19>  H        1.2655870000     2.2159150000    -0.0287440000
| 20>  H       -0.8051040000     1.6673640000    -1.1744610000
| 21>  H       -1.3868270000     1.7863340000     0.4895760000
| 22>  H       -1.8610230000    -0.5986110000    -0.7696260000
| 23>  H       -1.0478800000    -1.8353540000     1.0337940000
| 24>  H        0.4014920000    -1.8968700000    -0.7933630000
| 25>  H        1.8185520000     0.1618860000    -1.2020360000
| 26>  H        2.2410290000    -0.2953500000     0.4514530000
| 27> *
| 28>
| 29>                          ****END OF INPUT****
 Total Charge           Charge          ....    0
 Multiplicity           Mult            ....    1
 Number of Electrons    NEL             ....   46
 Basis Dimension        Dim             ....  129

MULLIKEN ATOMIC CHARGES
-----------------------
   0 C :   -0.082008
   1 C :    0.135600
   2 C :   -0.109711
   3 N :   -0.176332
   4 C :   -0.108960
   5 C :    0.133610
   6 H :    0.033722
   7 H :    0.006258
   8 H :    0.006050
   9 H :    0.015265
  10 H :    0.010100
  11 H :    0.103412
  12 H :    0.010340
  13 H :    0.007756
  14 H :    0.014899
Sum of atomic charges:   -0.0000000

LOEWDIN ATOMIC CHARGES
----------------------
   0 C :   -0.039727
   1 C :   -0.037277
   2 C :   -0.006440
   3 N :   -0.111558
   4 C :   -0.006208
   5 C :   -0.037720
   6 H :    0.030099
   7 H :    0.022543
   8 H :    0.024733
   9 H :    0.027640
  10 H :    0.012223
  11 H :    0.056768
  12 H :    0.012430
  13 H :    0.025306
  14 H :    0.027187

  Mayer bond orders larger than 0.1
B(  0-C ,  1-C ) :   1.0893 B(  0-C ,  5-C ) :   1.0892 B(  0-C ,  6-H ) :   0.9252
B(  0-C ,  7-H ) :   0.9387 B(  1-C ,  2-C ) :   1.0330 B(  1-C ,  8-H ) :   0.9307
B(  1-C ,  9-H ) :   0.9222 B(  2-C ,  3-N ) :   0.9763 B(  2-C ,  4-C ) :   1.0107
B(  2-C , 10-H ) :   0.9582 B(  3-N ,  4-C ) :   0.9738 B(  3-N , 11-H ) :   0.9421
B(  4-C ,  5-C ) :   1.0375 B(  4-C , 12-H ) :   0.9568 B(  5-C , 13-H ) :   0.9295
B(  5-C , 14-H ) :   0.9240

FINAL SINGLE POINT ENERGY      -250.149043453363

DIPOLE MOMENT
-------------
                                X             Y             Z
Electronic contribution:     -1.16873      -2.05172       0.75537
Nuclear contribution   :      1.00681       1.77690      -1.21687
                        -----------------------------------------
Total Dipole Moment    :     -0.16193      -0.27482      -0.46150
                        -----------------------------------------
Magnitude (a.u.)       :      0.56101
Magnitude (Debye)      :      1.42596

                             ****ORCA TERMINATED NORMALLY****
TOTAL RUN TIME: 0 days 0 hours 0 minutes 6 seconds 392 msec
