                         Program Version 3.0.3 - RELEASE   -
|  1> ! RI PBE def2-SVP def2-SVP/J NBO PAL2
|  2> % maxcore 2000
|  3> % output
|  4>     # printlevel mini
|  5>     print[ P_Basis ] 0
|  6>     print[ P_SCFInfo ] 1
|  7>     print[ P_SCFIterInfo ] 1
|  8>     print[ P_OrbEn ] 0
|  9>     print[ P_Cartesian ] 0
| 10> end
| 11> *xyz 0 1
| 12>  C        0.3041200000     1.4120500000    -0.3445410000
| 13>  C       -0.7455290000     0.7839050000     0.4927320000
| 14>  C       -1.3647530000    -0.4275400000    -0.0944180000
| 15>  C       -0.4439960000    -1.3702600000    -0.2648380000
| 16>  C        0.8863180000    -0.9010250000     0.2532170000
| 17>  N        0.6786100000     0.4811650000     0.7057010000
| 18>  H        0.6097530000     2.4378830000    -0.1645880000
| 19>  H        0.3611370000     1.0809370000    -1.3787520000
| 20>  H       -1.2618000000     1.3557710000     1.2575990000
| 21>  H       -2.4125740000    -0.5003340000    -0.3562220000
| 22>  H       -0.6027250000    -2.3389590000    -0.7228340000
| 23>  H        1.6771470000    -0.9372540000    -0.5045520000
| 24>  H        1.2294010000    -1.5099400000     1.0979060000
| 25> *
| 26>
| 27>                          ****END OF INPUT****
 Total Charge           Charge          ....    0
 Multiplicity           Mult            ....    1
 Number of Electrons    NEL             ....   44
 Basis Dimension        Dim             ....  119

MULLIKEN ATOMIC CHARGES
-----------------------
   0 C :    0.096817
   1 C :   -0.046450
   2 C :    0.042566
   3 C :   -0.138328
   4 C :    0.189970
   5 N :   -0.287589
   6 H :    0.032192
   7 H :    0.028063
   8 H :    0.027785
   9 H :   -0.003516
  10 H :   -0.003065
  11 H :    0.028648
  12 H :    0.032908
Sum of atomic charges:   -0.0000000

LOEWDIN ATOMIC CHARGES
----------------------
   0 C :    0.013461
   1 C :   -0.001147
   2 C :   -0.039672
   3 C :   -0.045359
   4 C :    0.015278
   5 N :   -0.110508
   6 H :    0.021575
   7 H :    0.015408
   8 H :    0.021683
   9 H :    0.027846
  10 H :    0.023847
  11 H :    0.029525
  12 H :    0.028062

  Mayer bond orders larger than 0.1
B(  0-C ,  1-C ) :   1.0266 B(  0-C ,  5-N ) :   0.9624 B(  0-C ,  6-H ) :   0.9427
B(  0-C ,  7-H ) :   0.9244 B(  1-C ,  2-C ) :   1.0019 B(  1-C ,  5-N ) :   0.9536
B(  1-C ,  8-H ) :   0.9448 B(  2-C ,  3-C ) :   1.8254 B(  2-C ,  9-H ) :   0.9972
B(  3-C ,  4-C ) :   1.0120 B(  3-C , 10-H ) :   0.9786 B(  4-C ,  5-N ) :   1.0326
B(  4-C , 11-H ) :   0.9231 B(  4-C , 12-H ) :   0.9238

FINAL SINGLE POINT ENERGY      -248.919123322513

DIPOLE MOMENT
-------------
                                X             Y             Z
Electronic contribution:     -0.46933       0.22873       1.07451
Nuclear contribution   :      0.21855      -0.40683      -1.49881
                        -----------------------------------------
Total Dipole Moment    :     -0.25078      -0.17810      -0.42430
                        -----------------------------------------
Magnitude (a.u.)       :      0.52406
Magnitude (Debye)      :      1.33206

                             ****ORCA TERMINATED NORMALLY****
TOTAL RUN TIME: 0 days 0 hours 0 minutes 5 seconds 952 msec
