                         Program Version 3.0.3 - RELEASE   -
|  1> ! RI PBE def2-SVP def2-SVP/J NBO PAL2
|  2> % maxcore 2000
|  3> % output
|  4>     # printlevel mini
|  5>     print[ P_Basis ] 0
|  6>     print[ P_SCFInfo ] 1
|  7>     print[ P_SCFIterInfo ] 1
|  8>     print[ P_OrbEn ] 0
|  9>     print[ P_Cartesian ] 0
| 10> end
| 11> *xyz 0 1
| 12>  C        0.9887170000    -0.9697240000     0.0054610000
| 13>  C       -0.4464590000    -1.3696170000     0.2152070000
| 14>  C       -1.2784130000    -0.3503850000     0.0036690000
| 15>  C       -0.5301860000     0.8994180000    -0.2877250000
| 16>  N        0.3501450000     1.3782160000     0.7851860000
| 17>  C        0.9095710000     0.5236000000    -0.2479820000
| 18>  H        1.4219580000    -1.4904540000    -0.8560240000
| 19>  H        1.6239870000    -1.2141720000     0.8652100000
| 20>  H       -0.7411870000    -2.3643590000     0.5278860000
| 21>  H       -2.3585650000    -0.3945170000     0.0726390000
| 22>  H       -0.9415850000     1.6665570000    -0.9334750000
| 23>  H        0.1659090000     0.8439480000     1.6303010000
| 24>  H        1.6522080000     0.9979800000    -0.8792530000
| 25> *
| 26>
| 27>                          ****END OF INPUT****
 Total Charge           Charge          ....    0
 Multiplicity           Mult            ....    1
 Number of Electrons    NEL             ....   44
 Basis Dimension        Dim             ....  119

MULLIKEN ATOMIC CHARGES
-----------------------
   0 C :    0.159769
   1 C :   -0.127856
   2 C :    0.048705
   3 C :   -0.040374
   4 N :   -0.138420
   5 C :   -0.106217
   6 H :    0.034012
   7 H :    0.035975
   8 H :   -0.004675
   9 H :   -0.003129
  10 H :    0.021286
  11 H :    0.098752
  12 H :    0.022173
Sum of atomic charges:   -0.0000000

LOEWDIN ATOMIC CHARGES
----------------------
   0 C :   -0.045792
   1 C :   -0.033359
   2 C :   -0.047916
   3 C :   -0.005247
   4 N :   -0.082072
   5 C :    0.000157
   6 H :    0.040285
   7 H :    0.038365
   8 H :    0.021479
   9 H :    0.026287
  10 H :    0.019732
  11 H :    0.048096
  12 H :    0.019985

  Mayer bond orders larger than 0.1
B(  0-C ,  1-C ) :   1.0184 B(  0-C ,  5-C ) :   1.0303 B(  0-C ,  6-H ) :   0.9105
B(  0-C ,  7-H ) :   0.9093 B(  1-C ,  2-C ) :   1.7967 B(  1-C ,  8-H ) :   0.9765
B(  2-C ,  3-C ) :   0.9958 B(  2-C ,  9-H ) :   1.0016 B(  3-C ,  4-N ) :   0.9882
B(  3-C ,  5-C ) :   0.9813 B(  3-C , 10-H ) :   0.9554 B(  4-N ,  5-C ) :   1.0103
B(  4-N , 11-H ) :   0.9434 B(  5-C , 12-H ) :   0.9420

FINAL SINGLE POINT ENERGY      -248.927523197865

DIPOLE MOMENT
-------------
                                X             Y             Z
Electronic contribution:     -0.70886       1.36880       0.15325
Nuclear contribution   :      0.65641      -1.99830      -0.21782
                        -----------------------------------------
Total Dipole Moment    :     -0.05245      -0.62950      -0.06457
                        -----------------------------------------
Magnitude (a.u.)       :      0.63497
Magnitude (Debye)      :      1.61398

                             ****ORCA TERMINATED NORMALLY****
TOTAL RUN TIME: 0 days 0 hours 0 minutes 5 seconds 784 msec
