                         Program Version 3.0.3 - RELEASE   -
|  1> ! RI PBE def2-SVP def2-SVP/J NBO PAL2
|  2> % maxcore 2000
|  3> % output
|  4>     # printlevel mini
|  5>     print[ P_Basis ] 0
|  6>     print[ P_SCFInfo ] 1
|  7>     print[ P_SCFIterInfo ] 1
|  8>     print[ P_OrbEn ] 0
|  9>     print[ P_Cartesian ] 0
| 10> end
| 11> *xyz 0 1
| 12>  C        0.3911270000     1.3138580000    -0.2606240000
| 13>  C       -1.0510070000     1.0637260000     0.1472470000
| 14>  C       -1.3808810000    -0.3909550000     0.0344220000
| 15>  C       -0.4417520000    -1.3221500000    -0.0820470000
| 16>  C        1.0179120000    -1.0039960000    -0.0577210000
| 17>  N        1.2480850000     0.3501260000     0.4040730000
| 18>  H        0.7018990000     2.3197800000     0.0317950000
| 19>  H        0.4637450000     1.2541680000    -1.3617740000
| 20>  H       -1.7250860000     1.6509030000    -0.4859450000
| 21>  H       -1.2145190000     1.4054610000     1.1763990000
| 22>  H       -2.4283240000    -0.6787590000     0.0391460000
| 23>  H       -0.7134190000    -2.3668380000    -0.1985150000
| 24>  H        1.4342490000    -1.1952970000    -1.0661040000
| 25>  H        1.5280740000    -1.6980980000     0.6197330000
| 26>  H        2.2207970000     0.5979810000     0.2872950000
| 27> *
| 28>
| 29>                          ****END OF INPUT****
 Total Charge           Charge          ....    0
 Multiplicity           Mult            ....    1
 Number of Electrons    NEL             ....   46
 Basis Dimension        Dim             ....  129

MULLIKEN ATOMIC CHARGES
-----------------------
   0 C :    0.063094
   1 C :    0.087466
   2 C :   -0.083945
   3 C :   -0.106330
   4 C :    0.175057
   5 N :   -0.249405
   6 H :   -0.001214
   7 H :   -0.008060
   8 H :    0.011304
   9 H :    0.021646
  10 H :   -0.010206
  11 H :   -0.006223
  12 H :   -0.005186
  13 H :    0.015417
  14 H :    0.096586
Sum of atomic charges:    0.0000000

LOEWDIN ATOMIC CHARGES
----------------------
   0 C :    0.013315
   1 C :   -0.047907
   2 C :   -0.045349
   3 C :   -0.053224
   4 C :    0.009215
   5 N :   -0.101204
   6 H :    0.019914
   7 H :   -0.000667
   8 H :    0.031038
   9 H :    0.034934
  10 H :    0.022487
  11 H :    0.024637
  12 H :    0.008573
  13 H :    0.029067
  14 H :    0.055172

  Mayer bond orders larger than 0.1
B(  0-C ,  1-C ) :   1.1068 B(  0-C ,  5-N ) :   1.0572 B(  0-C ,  6-H ) :   0.9332
B(  0-C ,  7-H ) :   0.9165 B(  1-C ,  2-C ) :   1.0482 B(  1-C ,  8-H ) :   0.9168
B(  1-C ,  9-H ) :   0.9000 B(  2-C ,  3-C ) :   1.9348 B(  2-C , 10-H ) :   0.9646
B(  3-C ,  4-C ) :   1.0295 B(  3-C , 11-H ) :   0.9611 B(  4-C ,  5-N ) :   1.0653
B(  4-C , 12-H ) :   0.8982 B(  4-C , 13-H ) :   0.9186 B(  5-N , 14-H ) :   0.9392

FINAL SINGLE POINT ENERGY      -250.153812748377

DIPOLE MOMENT
-------------
                                X             Y             Z
Electronic contribution:      0.00616      -0.90541       0.84844
Nuclear contribution   :      0.24148       0.99546      -1.10661
                        -----------------------------------------
Total Dipole Moment    :      0.24763       0.09005      -0.25817
                        -----------------------------------------
Magnitude (a.u.)       :      0.36889
Magnitude (Debye)      :      0.93765

                             ****ORCA TERMINATED NORMALLY****
TOTAL RUN TIME: 0 days 0 hours 0 minutes 6 seconds 595 msec
