                         Program Version 3.0.3 - RELEASE   -
|  1> ! RI PBE def2-SVP def2-SVP/J NBO PAL2
|  2> % maxcore 2000
|  3> % output
|  4>     # printlevel mini
|  5>     print[ P_Basis ] 0
|  6>     print[ P_SCFInfo ] 1
|  7>     print[ P_SCFIterInfo ] 1
|  8>     print[ P_OrbEn ] 0
|  9>     print[ P_Cartesian ] 0
| 10> end
| 11> *xyz 0 1
| 12>  C       -1.4003620000    -0.0761290000    -0.0181070000
| 13>  C       -0.7560960000     1.1502740000     0.0047860000
| 14>  C        0.6302870000     1.1661630000     0.0435920000
| 15>  N        1.3787900000     0.0685780000     0.0601260000
| 16>  C        0.7484870000    -1.1008000000     0.0378480000
| 17>  C       -0.6320420000    -1.2289800000    -0.0012370000
| 18>  H       -2.4827260000    -0.1324850000    -0.0485770000
| 19>  H       -1.3146260000     2.0789080000    -0.0071090000
| 20>  H        1.1674140000     2.1107900000     0.0623660000
| 21>  H        1.3809450000    -1.9845270000     0.0519970000
| 22>  H       -1.0909700000    -2.2105930000    -0.0179850000
| 23> *
| 24>
| 25>                          ****END OF INPUT****
 Total Charge           Charge          ....    0
 Multiplicity           Mult            ....    1
 Number of Electrons    NEL             ....   42
 Basis Dimension        Dim             ....  109

MULLIKEN ATOMIC CHARGES
-----------------------
   0 C :    0.048339
   1 C :   -0.007911
   2 C :    0.033083
   3 N :   -0.094662
   4 C :    0.032498
   5 C :   -0.010355
   6 H :    0.005020
   7 H :   -0.005475
   8 H :    0.002505
   9 H :    0.003812
  10 H :   -0.006855
Sum of atomic charges:   -0.0000000

LOEWDIN ATOMIC CHARGES
----------------------
   0 C :   -0.004302
   1 C :   -0.044157
   2 C :    0.011699
   3 N :   -0.068576
   4 C :    0.011380
   5 C :   -0.044163
   6 H :    0.033464
   7 H :    0.031830
   8 H :    0.020531
   9 H :    0.020828
  10 H :    0.031467

  Mayer bond orders larger than 0.1
B(  0-C ,  1-C ) :   1.4113 B(  0-C ,  5-C ) :   1.4132 B(  0-C ,  6-H ) :   0.9799
B(  1-C ,  2-C ) :   1.3881 B(  1-C ,  7-H ) :   0.9679 B(  2-C ,  3-N ) :   1.5398
B(  2-C ,  8-H ) :   0.9685 B(  3-N ,  4-C ) :   1.5416 B(  4-C ,  5-C ) :   1.3874
B(  4-C ,  9-H ) :   0.9683 B(  5-C , 10-H ) :   0.9686

FINAL SINGLE POINT ENERGY      -247.788665727822

DIPOLE MOMENT
-------------
                                X             Y             Z
Electronic contribution:      1.37266       0.07154       0.03784
Nuclear contribution   :     -2.18900      -0.11398      -0.06162
                        -----------------------------------------
Total Dipole Moment    :     -0.81634      -0.04243      -0.02378
                        -----------------------------------------
Magnitude (a.u.)       :      0.81779
Magnitude (Debye)      :      2.07865

                             ****ORCA TERMINATED NORMALLY****
TOTAL RUN TIME: 0 days 0 hours 0 minutes 4 seconds 792 msec
