                         Program Version 3.0.3 - RELEASE   -
|  1> ! RI PBE def2-SVP def2-SVP/J NBO PAL2
|  2> % maxcore 2000
|  3> % output
|  4>     # printlevel mini
|  5>     print[ P_Basis ] 0
|  6>     print[ P_SCFInfo ] 1
|  7>     print[ P_SCFIterInfo ] 1
|  8>     print[ P_OrbEn ] 0
|  9>     print[ P_Cartesian ] 0
| 10> end
| 11> *xyz 0 1
| 12>  C        0.7266390000     1.2627820000    -0.2128490000
| 13>  C       -0.7306290000     1.2376410000     0.2305990000
| 14>  C       -1.4111010000    -0.0368540000    -0.2404980000
| 15>  N       -0.6832920000    -1.1926250000     0.2498060000
| 16>  C        0.6763190000    -1.2382820000    -0.2554490000
| 17>  C        1.4415830000    -0.0126180000     0.2150750000
| 18>  H        1.2363540000     2.1433830000     0.1888470000
| 19>  H        0.7682020000     1.3485650000    -1.3062400000
| 20>  H       -1.2669630000     2.1092940000    -0.1561200000
| 21>  H       -0.7834410000     1.2784020000     1.3238340000
| 22>  H       -1.4695640000    -0.0191280000    -1.3458530000
| 23>  H       -2.4362900000    -0.0823010000     0.1370810000
| 24>  H       -1.1749770000    -2.0439500000     0.0134350000
| 25>  H        0.7091130000    -1.2730400000    -1.3614590000
| 26>  H        1.1559960000    -2.1498930000     0.1113170000
| 27>  H        2.4604970000    -0.0360940000    -0.1827330000
| 28>  H        1.5150620000    -0.0445830000     1.3074080000
| 29> *
| 30>
| 31>                          ****END OF INPUT****
 Total Charge           Charge          ....    0
 Multiplicity           Mult            ....    1
 Number of Electrons    NEL             ....   48
 Basis Dimension        Dim             ....  139

MULLIKEN ATOMIC CHARGES
-----------------------
   0 C :   -0.024168
   1 C :   -0.005462
   2 C :    0.087071
   3 N :   -0.245893
   4 C :    0.088485
   5 C :   -0.005065
   6 H :    0.007795
   7 H :    0.000575
   8 H :    0.004664
   9 H :    0.011688
  10 H :   -0.019179
  11 H :    0.004024
  12 H :    0.095687
  13 H :   -0.021547
  14 H :    0.001706
  15 H :    0.006038
  16 H :    0.013583
Sum of atomic charges:   -0.0000000

LOEWDIN ATOMIC CHARGES
----------------------
   0 C :   -0.046277
   1 C :   -0.048212
   2 C :    0.009386
   3 N :   -0.102515
   4 C :    0.009175
   5 C :   -0.047887
   6 H :    0.023341
   7 H :    0.019976
   8 H :    0.023868
   9 H :    0.024761
  10 H :   -0.004114
  11 H :    0.020046
  12 H :    0.054255
  13 H :   -0.004505
  14 H :    0.019319
  15 H :    0.024386
  16 H :    0.024998

  Mayer bond orders larger than 0.1
B(  0-C ,  1-C ) :   1.1044 B(  0-C ,  5-C ) :   1.1047 B(  0-C ,  6-H ) :   0.9334
B(  0-C ,  7-H ) :   0.9280 B(  1-C ,  2-C ) :   1.1070 B(  1-C ,  8-H ) :   0.9296
B(  1-C ,  9-H ) :   0.9209 B(  2-C ,  3-N ) :   1.0681 B(  2-C , 10-H ) :   0.9088
B(  2-C , 11-H ) :   0.9341 B(  3-N ,  4-C ) :   1.0656 B(  3-N , 12-H ) :   0.9395
B(  4-C ,  5-C ) :   1.1085 B(  4-C , 13-H ) :   0.9066 B(  4-C , 14-H ) :   0.9347
B(  5-C , 15-H ) :   0.9290 B(  5-C , 16-H ) :   0.9220

FINAL SINGLE POINT ENERGY      -251.375854748802

DIPOLE MOMENT
-------------
                                X             Y             Z
Electronic contribution:     -0.79292      -1.38398       0.81799
Nuclear contribution   :      0.71577       1.25705      -1.07634
                        -----------------------------------------
Total Dipole Moment    :     -0.07715      -0.12694      -0.25835
                        -----------------------------------------
Magnitude (a.u.)       :      0.29801
Magnitude (Debye)      :      0.75748

                             ****ORCA TERMINATED NORMALLY****
TOTAL RUN TIME: 0 days 0 hours 0 minutes 7 seconds 70 msec
