                         Program Version 3.0.3 - RELEASE   -
|  1> ! RI PBE def2-SVP def2-SVP/J NBO PAL2
|  2> % maxcore 2000
|  3> % output
|  4>     # printlevel mini
|  5>     print[ P_Basis ] 0
|  6>     print[ P_SCFInfo ] 1
|  7>     print[ P_SCFIterInfo ] 1
|  8>     print[ P_OrbEn ] 0
|  9>     print[ P_Cartesian ] 0
| 10> end
| 11> *xyz 0 1
| 12>  C        1.4037090000    -0.2056680000     0.1201310000
| 13>  C        0.4082220000    -1.3288630000     0.0292810000
| 14>  C       -0.8936180000    -1.0777350000    -0.0494150000
| 15>  N       -1.3566530000     0.2305070000    -0.0490300000
| 16>  C       -0.4415840000     1.2511260000     0.0339300000
| 17>  N        0.8140260000     1.1281090000     0.1125760000
| 18>  H        2.1263320000    -0.2623840000    -0.7058430000
| 19>  H        2.0132960000    -0.3025330000     1.0293420000
| 20>  H        0.7561890000    -2.3546960000     0.0279450000
| 21>  H       -1.6481260000    -1.8512670000    -0.1164660000
| 22>  H       -2.3358290000     0.4332970000    -0.1079010000
| 23>  H       -0.8792650000     2.2496970000     0.0285520000
| 24> *
| 25>
| 26>                          ****END OF INPUT****
 Total Charge           Charge          ....    0
 Multiplicity           Mult            ....    1
 Number of Electrons    NEL             ....   44
 Basis Dimension        Dim             ....  114

MULLIKEN ATOMIC CHARGES
-----------------------
   0 C :    0.180142
   1 C :   -0.166111
   2 C :    0.075845
   3 N :   -0.101576
   4 C :    0.066836
   5 N :   -0.213852
   6 H :    0.023084
   7 H :    0.019841
   8 H :   -0.004552
   9 H :    0.001595
  10 H :    0.114683
  11 H :    0.004064
Sum of atomic charges:   -0.0000000

LOEWDIN ATOMIC CHARGES
----------------------
   0 C :    0.005971
   1 C :   -0.093564
   2 C :   -0.005261
   3 N :    0.010124
   4 C :    0.024151
   5 N :   -0.132674
   6 H :    0.023596
   7 H :    0.023107
   8 H :    0.026451
   9 H :    0.025765
  10 H :    0.078311
  11 H :    0.014024

  Mayer bond orders larger than 0.1
B(  0-C ,  1-C ) :   1.0233 B(  0-C ,  5-N ) :   1.0604 B(  0-C ,  6-H ) :   0.9281
B(  0-C ,  7-H ) :   0.9272 B(  1-C ,  2-C ) :   1.8498 B(  1-C ,  8-H ) :   0.9569
B(  2-C ,  3-N ) :   1.0927 B(  2-C ,  9-H ) :   0.9607 B(  3-N ,  4-C ) :   1.1193
B(  3-N , 10-H ) :   0.9306 B(  4-C ,  5-N ) :   1.9380 B(  4-C , 11-H ) :   0.9519

FINAL SINGLE POINT ENERGY      -264.983292779767

DIPOLE MOMENT
-------------
                                X             Y             Z
Electronic contribution:     -1.23686       1.54235      -0.04667
Nuclear contribution   :      0.15411      -1.99095      -0.03606
                        -----------------------------------------
Total Dipole Moment    :     -1.08275      -0.44860      -0.08273
                        -----------------------------------------
Magnitude (a.u.)       :      1.17492
Magnitude (Debye)      :      2.98641

                             ****ORCA TERMINATED NORMALLY****
TOTAL RUN TIME: 0 days 0 hours 0 minutes 5 seconds 398 msec
