                         Program Version 3.0.3 - RELEASE   -
|  1> ! RI PBE def2-SVP def2-SVP/J NBO PAL2
|  2> % maxcore 2000
|  3> % output
|  4>     # printlevel mini
|  5>     print[ P_Basis ] 0
|  6>     print[ P_SCFInfo ] 1
|  7>     print[ P_SCFIterInfo ] 1
|  8>     print[ P_OrbEn ] 0
|  9>     print[ P_Cartesian ] 0
| 10> end
| 11> *xyz 0 1
| 12>  C       -0.6492880000    -1.2452370000    -0.0230220000
| 13>  C       -1.4011580000    -0.0936070000    -0.0259760000
| 14>  C       -0.7075990000     1.1068150000     0.0596100000
| 15>  N        0.6135050000     1.1878080000     0.1418690000
| 16>  N        1.3339390000     0.0843270000     0.1447000000
| 17>  C        0.7285190000    -1.0928720000     0.0652520000
| 18>  H       -1.0977780000    -2.2296030000    -0.0859880000
| 19>  H       -2.4826280000    -0.1084430000    -0.0914290000
| 20>  H       -1.2268130000     2.0597840000     0.0633420000
| 21>  H        1.3920920000    -1.9515620000     0.0736310000
| 22> *
| 23>
| 24>                          ****END OF INPUT****
 Total Charge           Charge          ....    0
 Multiplicity           Mult            ....    1
 Number of Electrons    NEL             ....   42
 Basis Dimension        Dim             ....  104

MULLIKEN ATOMIC CHARGES
-----------------------
   0 C :    0.027369
   1 C :    0.017381
   2 C :    0.030023
   3 N :   -0.077260
   4 N :   -0.077755
   5 C :    0.031861
   6 H :    0.006454
   7 H :    0.013551
   8 H :    0.014025
   9 H :    0.014351
Sum of atomic charges:   -0.0000000

LOEWDIN ATOMIC CHARGES
----------------------
   0 C :   -0.017994
   1 C :   -0.019717
   2 C :   -0.006415
   3 N :   -0.040801
   4 N :   -0.041351
   5 C :   -0.006443
   6 H :    0.036979
   7 H :    0.038215
   8 H :    0.028653
   9 H :    0.028875

  Mayer bond orders larger than 0.1
B(  0-C ,  1-C ) :   1.4246 B(  0-C ,  3-N ) :   0.1004 B(  0-C ,  5-C ) :   1.3233
B(  0-C ,  6-H ) :   0.9808 B(  1-C ,  2-C ) :   1.3242 B(  1-C ,  4-N ) :   0.1009
B(  1-C ,  7-H ) :   0.9812 B(  2-C ,  3-N ) :   1.5727 B(  2-C ,  8-H ) :   0.9796
B(  3-N ,  4-N ) :   1.2991 B(  4-N ,  5-C ) :   1.5732 B(  5-C ,  9-H ) :   0.9798

FINAL SINGLE POINT ENERGY      -263.773290264359

DIPOLE MOMENT
-------------
                                X             Y             Z
Electronic contribution:      1.87957       1.23015       0.15553
Nuclear contribution   :     -3.16783      -2.06888      -0.26590
                        -----------------------------------------
Total Dipole Moment    :     -1.28826      -0.83873      -0.11037
                        -----------------------------------------
Magnitude (a.u.)       :      1.54119
Magnitude (Debye)      :      3.91739

                             ****ORCA TERMINATED NORMALLY****
TOTAL RUN TIME: 0 days 0 hours 0 minutes 4 seconds 960 msec
