                         Program Version 3.0.3 - RELEASE   -
|  1> ! RI PBE def2-SVP def2-SVP/J NBO PAL2
|  2> % maxcore 2000
|  3> % output
|  4>     # printlevel mini
|  5>     print[ P_Basis ] 0
|  6>     print[ P_SCFInfo ] 1
|  7>     print[ P_SCFIterInfo ] 1
|  8>     print[ P_OrbEn ] 0
|  9>     print[ P_Cartesian ] 0
| 10> end
| 11> *xyz 0 1
| 12>  C        0.2966020000    -1.3996470000     0.2431490000
| 13>  C       -1.0733870000    -0.9487780000    -0.2396050000
| 14>  C       -1.2278350000     0.4758310000     0.1909790000
| 15>  N       -0.2574200000     1.2964220000     0.2538500000
| 16>  N        0.9764880000     0.8878920000    -0.2619750000
| 17>  C        1.2679760000    -0.3488050000    -0.1938080000
| 18>  H        0.5796160000    -2.3709400000    -0.1646450000
| 19>  H        0.3070500000    -1.4911250000     1.3372460000
| 20>  H       -1.8782970000    -1.5589350000     0.1722610000
| 21>  H       -1.1379070000    -1.0211490000    -1.3332810000
| 22>  H       -2.1914290000     0.8468850000     0.5349650000
| 23>  H        2.2626230000    -0.6257620000    -0.5380360000
| 24> *
| 25>
| 26>                          ****END OF INPUT****
 Total Charge           Charge          ....    0
 Multiplicity           Mult            ....    1
 Number of Electrons    NEL             ....   44
 Basis Dimension        Dim             ....  114

MULLIKEN ATOMIC CHARGES
-----------------------
   0 C :    0.018696
   1 C :    0.015388
   2 C :   -0.050420
   3 N :   -0.072662
   4 N :   -0.074151
   5 C :   -0.047298
   6 H :    0.024977
   7 H :    0.054686
   8 H :    0.028624
   9 H :    0.054007
  10 H :    0.024152
  11 H :    0.024001
Sum of atomic charges:   -0.0000000

LOEWDIN ATOMIC CHARGES
----------------------
   0 C :   -0.061593
   1 C :   -0.061896
   2 C :   -0.001891
   3 N :   -0.046949
   4 N :   -0.047655
   5 C :   -0.000966
   6 H :    0.039493
   7 H :    0.047511
   8 H :    0.040173
   9 H :    0.047323
  10 H :    0.023176
  11 H :    0.023274

  Mayer bond orders larger than 0.1
B(  0-C ,  1-C ) :   1.1064 B(  0-C ,  5-C ) :   1.0055 B(  0-C ,  6-H ) :   0.9197
B(  0-C ,  7-H ) :   0.9086 B(  1-C ,  2-C ) :   1.0051 B(  1-C ,  8-H ) :   0.9199
B(  1-C ,  9-H ) :   0.9086 B(  2-C ,  3-N ) :   1.9173 B(  2-C , 10-H ) :   0.9653
B(  3-N ,  4-N ) :   1.0279 B(  4-N ,  5-C ) :   1.9164 B(  5-C , 11-H ) :   0.9646

FINAL SINGLE POINT ENERGY      -264.949407915711

DIPOLE MOMENT
-------------
                                X             Y             Z
Electronic contribution:      1.38785       4.20491      -0.00968
Nuclear contribution   :     -1.86870      -5.66253       0.01458
                        -----------------------------------------
Total Dipole Moment    :     -0.48085      -1.45762       0.00490
                        -----------------------------------------
Magnitude (a.u.)       :      1.53490
Magnitude (Debye)      :      3.90140

                             ****ORCA TERMINATED NORMALLY****
TOTAL RUN TIME: 0 days 0 hours 0 minutes 5 seconds 113 msec
