                         Program Version 3.0.3 - RELEASE   -
|  1> ! RI PBE def2-SVP def2-SVP/J NBO PAL2
|  2> % maxcore 2000
|  3> % output
|  4>     # printlevel mini
|  5>     print[ P_Basis ] 0
|  6>     print[ P_SCFInfo ] 1
|  7>     print[ P_SCFIterInfo ] 1
|  8>     print[ P_OrbEn ] 0
|  9>     print[ P_Cartesian ] 0
| 10> end
| 11> *xyz 0 1
| 12>  C        0.8724250000    -0.0009330000     0.9197330000
| 13>  C        0.3090560000    -1.0705790000    -0.0310960000
| 14>  C        0.7176900000    -0.0430520000    -1.1001210000
| 15>  N        0.3689500000     1.0040330000    -0.0789520000
| 16>  C       -1.0875320000     0.7652410000     0.0375830000
| 17>  C       -1.1870960000    -0.7879030000     0.0776330000
| 18>  H        1.9623690000     0.0273470000     0.9580840000
| 19>  H        0.4518900000     0.0927020000     1.9246650000
| 20>  H        0.6373060000    -2.1108340000    -0.0345310000
| 21>  H        0.1487390000     0.0101660000    -2.0323060000
| 22>  H        1.7889890000    -0.0198590000    -1.3051300000
| 23>  H       -1.5993500000     1.2054590000    -0.8196350000
| 24>  H       -1.4643700000     1.2423160000     0.9436520000
| 25>  H       -1.7551200000    -1.2026280000    -0.7580370000
| 26>  H       -1.6198550000    -1.1657770000     1.0065660000
| 27> *
| 28>
| 29>                          ****END OF INPUT****
 Total Charge           Charge          ....    0
 Multiplicity           Mult            ....    1
 Number of Electrons    NEL             ....   46
 Basis Dimension        Dim             ....  129

MULLIKEN ATOMIC CHARGES
-----------------------
   0 C :    0.147003
   1 C :   -0.282004
   2 C :    0.148315
   3 N :   -0.315156
   4 C :    0.084375
   5 C :    0.093358
   6 H :    0.025705
   7 H :    0.012572
   8 H :   -0.000599
   9 H :    0.013384
  10 H :    0.023270
  11 H :    0.012042
  12 H :    0.012219
  13 H :    0.013318
  14 H :    0.012198
Sum of atomic charges:   -0.0000000

LOEWDIN ATOMIC CHARGES
----------------------
   0 C :    0.031017
   1 C :   -0.044151
   2 C :    0.031159
   3 N :   -0.128915
   4 C :    0.011706
   5 C :   -0.050180
   6 H :    0.020442
   7 H :    0.010409
   8 H :    0.010363
   9 H :    0.010439
  10 H :    0.020299
  11 H :    0.017994
  12 H :    0.018083
  13 H :    0.020811
  14 H :    0.020522

  Mayer bond orders larger than 0.1
B(  0-C ,  1-C ) :   0.9897 B(  0-C ,  3-N ) :   0.9684 B(  0-C ,  6-H ) :   0.9466
B(  0-C ,  7-H ) :   0.9402 B(  1-C ,  2-C ) :   0.9895 B(  1-C ,  5-C ) :   1.0570
B(  1-C ,  8-H ) :   0.9516 B(  2-C ,  3-N ) :   0.9695 B(  2-C ,  9-H ) :   0.9404
B(  2-C , 10-H ) :   0.9460 B(  3-N ,  4-C ) :   1.0238 B(  4-C ,  5-C ) :   1.0242
B(  4-C , 11-H ) :   0.9359 B(  4-C , 12-H ) :   0.9359 B(  5-C , 13-H ) :   0.9326
B(  5-C , 14-H ) :   0.9333

FINAL SINGLE POINT ENERGY      -250.119974151507

DIPOLE MOMENT
-------------
                                X             Y             Z
Electronic contribution:      1.13877       1.08988      -0.11101
Nuclear contribution   :     -1.27618      -1.64109       0.13197
                        -----------------------------------------
Total Dipole Moment    :     -0.13741      -0.55121       0.02096
                        -----------------------------------------
Magnitude (a.u.)       :      0.56847
Magnitude (Debye)      :      1.44492

                             ****ORCA TERMINATED NORMALLY****
TOTAL RUN TIME: 0 days 0 hours 0 minutes 6 seconds 316 msec
