                         Program Version 3.0.3 - RELEASE   -
|  1> ! RI PBE def2-SVP def2-SVP/J NBO PAL2
|  2> % maxcore 2000
|  3> % output
|  4>     # printlevel mini
|  5>     print[ P_Basis ] 0
|  6>     print[ P_SCFInfo ] 1
|  7>     print[ P_SCFIterInfo ] 1
|  8>     print[ P_OrbEn ] 0
|  9>     print[ P_Cartesian ] 0
| 10> end
| 11> *xyz 0 1
| 12>  C       -0.7456170000     1.0890320000     0.0307130000
| 13>  C        0.6410620000     1.1589680000     0.0338070000
| 14>  N        1.3992330000     0.0700850000     0.0365040000
| 15>  C        0.7544570000    -1.0895520000     0.0360610000
| 16>  C       -0.6322220000    -1.1594880000     0.0329450000
| 17>  N       -1.3903930000    -0.0706050000     0.0302590000
| 18>  H       -1.3489680000     1.9923110000     0.0285390000
| 19>  H        1.1504750000     2.1183660000     0.0341180000
| 20>  H        1.3578070000    -1.9928310000     0.0382390000
| 21>  H       -1.1416350000    -2.1188860000     0.0326260000
| 22> *
| 23>
| 24>                          ****END OF INPUT****
 Total Charge           Charge          ....    0
 Multiplicity           Mult            ....    1
 Number of Electrons    NEL             ....   42
 Basis Dimension        Dim             ....  104

MULLIKEN ATOMIC CHARGES
-----------------------
   0 C :    0.027648
   1 C :    0.027181
   2 N :   -0.076133
   3 C :    0.027649
   4 C :    0.027181
   5 N :   -0.076133
   6 H :    0.010973
   7 H :    0.010330
   8 H :    0.010973
   9 H :    0.010330
Sum of atomic charges:    0.0000000

LOEWDIN ATOMIC CHARGES
----------------------
   0 C :   -0.003568
   1 C :   -0.003467
   2 N :   -0.042897
   3 C :   -0.003568
   4 C :   -0.003467
   5 N :   -0.042897
   6 H :    0.025064
   7 H :    0.024868
   8 H :    0.025064
   9 H :    0.024868

  Mayer bond orders larger than 0.1
B(  0-C ,  1-C ) :   1.3682 B(  0-C ,  3-C ) :   0.1018 B(  0-C ,  5-N ) :   1.5404
B(  0-C ,  6-H ) :   0.9631 B(  1-C ,  2-N ) :   1.5394 B(  1-C ,  4-C ) :   0.1018
B(  1-C ,  7-H ) :   0.9636 B(  2-N ,  3-C ) :   1.5404 B(  3-C ,  4-C ) :   1.3682
B(  3-C ,  8-H ) :   0.9631 B(  4-C ,  5-N ) :   1.5394 B(  4-C ,  9-H ) :   0.9636

FINAL SINGLE POINT ENERGY      -263.802737777013

DIPOLE MOMENT
-------------
                                X             Y             Z
Electronic contribution:      0.00000      -0.00000       0.00000
Nuclear contribution   :     -0.00000      -0.00000      -0.00000
                        -----------------------------------------
Total Dipole Moment    :     -0.00000      -0.00000      -0.00000
                        -----------------------------------------
Magnitude (a.u.)       :      0.00000
Magnitude (Debye)      :      0.00000

                             ****ORCA TERMINATED NORMALLY****
TOTAL RUN TIME: 0 days 0 hours 0 minutes 4 seconds 639 msec
