                         Program Version 3.0.3 - RELEASE   -
|  1> ! RI PBE def2-SVP def2-SVP/J NBO PAL2
|  2> % maxcore 2000
|  3> % output
|  4>     # printlevel mini
|  5>     print[ P_Basis ] 0
|  6>     print[ P_SCFInfo ] 1
|  7>     print[ P_SCFIterInfo ] 1
|  8>     print[ P_OrbEn ] 0
|  9>     print[ P_Cartesian ] 0
| 10> end
| 11> *xyz 0 1
| 12>  C        0.7308950000     1.1992620000    -0.2544990000
| 13>  C       -0.7165610000     1.2002140000     0.2139430000
| 14>  N       -1.4438240000     0.0007420000    -0.1686560000
| 15>  C       -0.7181410000    -1.1995140000     0.2144640000
| 16>  C        0.7293400000    -1.2006180000    -0.2539360000
| 17>  N        1.3849610000    -0.0009850000     0.2315290000
| 18>  H        1.2555210000     2.0763410000     0.1362000000
| 19>  H        0.7440650000     1.2678690000    -1.3596710000
| 20>  H       -1.2429550000     2.0747760000    -0.1776720000
| 21>  H       -0.7312800000     1.2685300000     1.3073970000
| 22>  H       -1.5881230000     0.0006180000    -1.1727860000
| 23>  H       -1.2456760000    -2.0735580000    -0.1767750000
| 24>  H       -0.7329730000    -1.2673210000     1.3079480000
| 25>  H        0.7424600000    -1.2697840000    -1.3590740000
| 26>  H        1.2528170000    -2.0781890000     0.1371970000
| 27>  H        2.3638840000    -0.0016730000    -0.0202870000
| 28> *
| 29>
| 30>                          ****END OF INPUT****
 Total Charge           Charge          ....    0
 Multiplicity           Mult            ....    1
 Number of Electrons    NEL             ....   48
 Basis Dimension        Dim             ....  134

MULLIKEN ATOMIC CHARGES
-----------------------
   0 C :    0.085296
   1 C :    0.081618
   2 N :   -0.243115
   3 C :    0.081580
   4 C :    0.085340
   5 N :   -0.255273
   6 H :    0.000168
   7 H :   -0.027584
   8 H :    0.004475
   9 H :    0.008165
  10 H :    0.090631
  11 H :    0.004504
  12 H :    0.008170
  13 H :   -0.027581
  14 H :    0.000141
  15 H :    0.103466
Sum of atomic charges:    0.0000000

LOEWDIN ATOMIC CHARGES
----------------------
   0 C :   -0.007577
   1 C :    0.001132
   2 N :   -0.096256
   3 C :    0.001129
   4 C :   -0.007575
   5 N :   -0.104803
   6 H :    0.020219
   7 H :   -0.008478
   8 H :    0.020759
   9 H :    0.022195
  10 H :    0.048868
  11 H :    0.020765
  12 H :    0.022196
  13 H :   -0.008475
  14 H :    0.020213
  15 H :    0.055688

  Mayer bond orders larger than 0.1
B(  0-C ,  1-C ) :   1.0842 B(  0-C ,  5-N ) :   1.0593 B(  0-C ,  6-H ) :   0.9251
B(  0-C ,  7-H ) :   0.8987 B(  1-C ,  2-N ) :   1.0936 B(  1-C ,  8-H ) :   0.9426
B(  1-C ,  9-H ) :   0.9180 B(  2-N ,  3-C ) :   1.0936 B(  2-N , 10-H ) :   0.9458
B(  3-C ,  4-C ) :   1.0841 B(  3-C , 11-H ) :   0.9426 B(  3-C , 12-H ) :   0.9180
B(  4-C ,  5-N ) :   1.0593 B(  4-C , 13-H ) :   0.8987 B(  4-C , 14-H ) :   0.9251
B(  5-N , 15-H ) :   0.9408

FINAL SINGLE POINT ENERGY      -267.383238443245

DIPOLE MOMENT
-------------
                                X             Y             Z
Electronic contribution:     -0.28239       0.00035       0.62238
Nuclear contribution   :      0.73344      -0.00075      -1.13182
                        -----------------------------------------
Total Dipole Moment    :      0.45105      -0.00040      -0.50944
                        -----------------------------------------
Magnitude (a.u.)       :      0.68042
Magnitude (Debye)      :      1.72949

                             ****ORCA TERMINATED NORMALLY****
TOTAL RUN TIME: 0 days 0 hours 0 minutes 6 seconds 808 msec
