                         Program Version 3.0.3 - RELEASE   -
|  1> ! RI PBE def2-SVP def2-SVP/J NBO PAL2
|  2> % maxcore 2000
|  3> % output
|  4>     # printlevel mini
|  5>     print[ P_Basis ] 0
|  6>     print[ P_SCFInfo ] 1
|  7>     print[ P_SCFIterInfo ] 1
|  8>     print[ P_OrbEn ] 0
|  9>     print[ P_Cartesian ] 0
| 10> end
| 11> *xyz 0 1
| 12>  C       -0.7442650000     1.1496960000     0.0089260000
| 13>  C        0.6398500000     1.1803420000     0.0261490000
| 14>  N        1.3735110000     0.0733680000     0.0541100000
| 15>  C        0.6989700000    -1.0697260000     0.0646270000
| 16>  N       -0.6194290000    -1.2226880000     0.0502880000
| 17>  C       -1.3336610000    -0.1030780000     0.0223630000
| 18>  H       -1.3343380000     2.0571160000    -0.0138380000
| 19>  H        1.1813090000     2.1228320000     0.0172950000
| 20>  H        1.2913600000    -1.9807090000     0.0874930000
| 21>  H       -2.4147270000    -0.2157540000     0.0103980000
| 22> *
| 23>
| 24>                          ****END OF INPUT****
 Total Charge           Charge          ....    0
 Multiplicity           Mult            ....    1
 Number of Electrons    NEL             ....   42
 Basis Dimension        Dim             ....  104

MULLIKEN ATOMIC CHARGES
-----------------------
   0 C :   -0.020056
   1 C :    0.060508
   2 N :   -0.111208
   3 C :    0.064887
   4 N :   -0.102683
   5 C :    0.047394
   6 H :    0.006589
   7 H :    0.013696
   8 H :    0.021030
   9 H :    0.019843
Sum of atomic charges:   -0.0000000

LOEWDIN ATOMIC CHARGES
----------------------
   0 C :   -0.060630
   1 C :    0.036656
   2 N :   -0.076139
   3 C :    0.033630
   4 N :   -0.074496
   5 C :    0.034331
   6 H :    0.036292
   7 H :    0.025414
   8 H :    0.018594
   9 H :    0.026349

  Mayer bond orders larger than 0.1
B(  0-C ,  1-C ) :   1.3900 B(  0-C ,  5-C ) :   1.3883 B(  0-C ,  6-H ) :   0.9632
B(  1-C ,  2-N ) :   1.5364 B(  1-C ,  7-H ) :   0.9733 B(  2-N ,  3-C ) :   1.5110
B(  3-C ,  4-N ) :   1.5091 B(  3-C ,  8-H ) :   0.9625 B(  4-N ,  5-C ) :   1.5378
B(  5-C ,  9-H ) :   0.9729

FINAL SINGLE POINT ENERGY      -263.808229246867

DIPOLE MOMENT
-------------
                                X             Y             Z
Electronic contribution:      0.74547      -1.14783       0.02822
Nuclear contribution   :     -1.21206       1.86391      -0.04676
                        -----------------------------------------
Total Dipole Moment    :     -0.46659       0.71608      -0.01855
                        -----------------------------------------
Magnitude (a.u.)       :      0.85488
Magnitude (Debye)      :      2.17293

                             ****ORCA TERMINATED NORMALLY****
TOTAL RUN TIME: 0 days 0 hours 0 minutes 4 seconds 976 msec
