                         Program Version 3.0.3 - RELEASE   -
|  1> ! RI PBE def2-SVP def2-SVP/J NBO PAL2
|  2> % maxcore 2000
|  3> % output
|  4>     # printlevel mini
|  5>     print[ P_Basis ] 0
|  6>     print[ P_SCFInfo ] 1
|  7>     print[ P_SCFIterInfo ] 1
|  8>     print[ P_OrbEn ] 0
|  9>     print[ P_Cartesian ] 0
| 10> end
| 11> *xyz 0 1
| 12>  C        0.3867060000     1.3422910000     0.2878490000
| 13>  C        1.4131840000     0.3555310000    -0.2422900000
| 14>  N        0.9334040000    -0.9871600000    -0.0037760000
| 15>  C       -0.3933540000    -1.2428010000     0.1723570000
| 16>  N       -1.3577160000    -0.4189240000     0.0851010000
| 17>  C       -1.0019480000     0.9570580000    -0.2064370000
| 18>  H        0.6471890000     2.3573560000    -0.0215560000
| 19>  H        0.3959440000     1.3178090000     1.3820540000
| 20>  H        2.3767070000     0.4891070000     0.2570320000
| 21>  H        1.5765740000     0.5226660000    -1.3147600000
| 22>  H        1.5894220000    -1.7284160000     0.1568310000
| 23>  H       -0.6137130000    -2.2851480000     0.4067450000
| 24>  H       -1.7550670000     1.6080400000     0.2465890000
| 25>  H       -1.0711420000     1.1226820000    -1.2903300000
| 26> *
| 27>
| 28>                          ****END OF INPUT****
 Total Charge           Charge          ....    0
 Multiplicity           Mult            ....    1
 Number of Electrons    NEL             ....   46
 Basis Dimension        Dim             ....  124

MULLIKEN ATOMIC CHARGES
-----------------------
   0 C :   -0.096635
   1 C :    0.145681
   2 N :   -0.186220
   3 C :    0.048701
   4 N :   -0.226919
   5 C :    0.105356
   6 H :    0.012987
   7 H :    0.034576
   8 H :    0.010811
   9 H :    0.017032
  10 H :    0.112788
  11 H :   -0.001928
  12 H :    0.011473
  13 H :    0.012296
Sum of atomic charges:   -0.0000000

LOEWDIN ATOMIC CHARGES
----------------------
   0 C :   -0.062605
   1 C :    0.025387
   2 N :   -0.022120
   3 C :    0.005197
   4 N :   -0.171469
   5 C :   -0.001536
   6 H :    0.028777
   7 H :    0.029876
   8 H :    0.023791
   9 H :    0.017274
  10 H :    0.070987
  11 H :    0.011838
  12 H :    0.023217
  13 H :    0.021384

  Mayer bond orders larger than 0.1
B(  0-C ,  1-C ) :   1.0844 B(  0-C ,  5-C ) :   1.0745 B(  0-C ,  6-H ) :   0.9279
B(  0-C ,  7-H ) :   0.9314 B(  1-C ,  2-N ) :   1.0058 B(  1-C ,  8-H ) :   0.9370
B(  1-C ,  9-H ) :   0.9418 B(  2-N ,  3-C ) :   1.1885 B(  2-N ,  4-N ) :   0.1352
B(  2-N , 10-H ) :   0.9359 B(  3-C ,  4-N ) :   1.8813 B(  3-C , 11-H ) :   0.9509
B(  4-N ,  5-C ) :   1.0699 B(  5-C , 12-H ) :   0.9331 B(  5-C , 13-H ) :   0.9332

FINAL SINGLE POINT ENERGY      -266.197611877431

DIPOLE MOMENT
-------------
                                X             Y             Z
Electronic contribution:     -1.46138      -3.10667       0.24740
Nuclear contribution   :      2.76259       3.12364      -0.26410
                        -----------------------------------------
Total Dipole Moment    :      1.30120       0.01697      -0.01670
                        -----------------------------------------
Magnitude (a.u.)       :      1.30142
Magnitude (Debye)      :      3.30795

                             ****ORCA TERMINATED NORMALLY****
TOTAL RUN TIME: 0 days 0 hours 0 minutes 5 seconds 887 msec
