                         Program Version 3.0.3 - RELEASE   -
|  1> ! RI PBE def2-SVP def2-SVP/J NBO PAL2
|  2> % maxcore 2000
|  3> % output
|  4>     # printlevel mini
|  5>     print[ P_Basis ] 0
|  6>     print[ P_SCFInfo ] 1
|  7>     print[ P_SCFIterInfo ] 1
|  8>     print[ P_OrbEn ] 0
|  9>     print[ P_Cartesian ] 0
| 10> end
| 11> *xyz 0 1
| 12>  C        0.4349240000     1.4053140000     0.2742410000
| 13>  C        1.1386490000     0.3260140000    -0.4457260000
| 14>  C        1.0439430000    -1.0805010000     0.0837250000
| 15>  C       -0.4494680000    -1.2389350000     0.1114810000
| 16>  N       -1.1133290000    -0.2639330000    -0.3543820000
| 17>  N       -0.2296630000     0.7373390000    -0.8475820000
| 18>  H        0.7115870000     2.4376750000     0.0931800000
| 19>  H        0.0353480000     1.1928960000     1.2606470000
| 20>  H        1.9239470000     0.5801230000    -1.1467240000
| 21>  H        1.4874880000    -1.2313290000     1.0726220000
| 22>  H        1.5126000000    -1.8025590000    -0.5935090000
| 23>  H       -0.9708380000    -2.1025850000     0.5127470000
| 24> *
| 25>
| 26>                          ****END OF INPUT****
 Total Charge           Charge          ....    0
 Multiplicity           Mult            ....    1
 Number of Electrons    NEL             ....   44
 Basis Dimension        Dim             ....  114

MULLIKEN ATOMIC CHARGES
-----------------------
   0 C :    0.093703
   1 C :   -0.130859
   2 C :    0.128046
   3 C :   -0.078185
   4 N :   -0.051450
   5 N :   -0.187894
   6 H :    0.044052
   7 H :    0.038044
   8 H :    0.033796
   9 H :    0.041864
  10 H :    0.044771
  11 H :    0.024111
Sum of atomic charges:   -0.0000000

LOEWDIN ATOMIC CHARGES
----------------------
   0 C :    0.013402
   1 C :   -0.014853
   2 C :   -0.060354
   3 C :   -0.014066
   4 N :   -0.036499
   5 N :   -0.072175
   6 H :    0.028564
   7 H :    0.021167
   8 H :    0.025778
   9 H :    0.041542
  10 H :    0.043895
  11 H :    0.023599

  Mayer bond orders larger than 0.1
B(  0-C ,  1-C ) :   1.0438 B(  0-C ,  5-N ) :   0.9405 B(  0-C ,  6-H ) :   0.9440
B(  0-C ,  7-H ) :   0.9325 B(  1-C ,  2-C ) :   1.0626 B(  1-C ,  5-N ) :   0.9131
B(  1-C ,  8-H ) :   0.9433 B(  2-C ,  3-C ) :   0.9846 B(  2-C ,  9-H ) :   0.9148
B(  2-C , 10-H ) :   0.9119 B(  3-C ,  4-N ) :   1.9227 B(  3-C , 11-H ) :   0.9607
B(  4-N ,  5-N ) :   0.9787

FINAL SINGLE POINT ENERGY      -264.927932958044

DIPOLE MOMENT
-------------
                                X             Y             Z
Electronic contribution:     -2.56393       0.35172      -1.54573
Nuclear contribution   :      3.58012      -0.77211       2.17213
                        -----------------------------------------
Total Dipole Moment    :      1.01619      -0.42039       0.62640
                        -----------------------------------------
Magnitude (a.u.)       :      1.26560
Magnitude (Debye)      :      3.21690

                             ****ORCA TERMINATED NORMALLY****
TOTAL RUN TIME: 0 days 0 hours 0 minutes 5 seconds 632 msec
