                         Program Version 3.0.3 - RELEASE   -
|  1> ! RI PBE def2-SVP def2-SVP/J NBO PAL2
|  2> % maxcore 2000
|  3> % output
|  4>     # printlevel mini
|  5>     print[ P_Basis ] 0
|  6>     print[ P_SCFInfo ] 1
|  7>     print[ P_SCFIterInfo ] 1
|  8>     print[ P_OrbEn ] 0
|  9>     print[ P_Cartesian ] 0
| 10> end
| 11> *xyz 0 1
| 12>  C        0.4169840000     1.4218440000     0.2455250000
| 13>  C        1.3659690000     0.3214090000    -0.1926640000
| 14>  N        0.9463890000    -0.9157170000     0.4285950000
| 15>  N       -0.3404100000    -1.3169380000     0.2441290000
| 16>  C       -1.2255680000    -0.4391830000    -0.0205910000
| 17>  C       -1.0017420000     1.0376800000    -0.1568770000
| 18>  H        0.7062600000     2.3790250000    -0.1937140000
| 19>  H        0.4837650000     1.5244610000     1.3317640000
| 20>  H        2.3923910000     0.5301820000     0.1172550000
| 21>  H        1.3516100000     0.2429630000    -1.2924100000
| 22>  H        1.5636730000    -1.6975490000     0.2796880000
| 23>  H       -2.2380320000    -0.8214020000    -0.1249770000
| 24>  H       -1.7373850000     1.5691110000     0.4562110000
| 25>  H       -1.2104130000     1.3365230000    -1.1914240000
| 26> *
| 27>
| 28>                          ****END OF INPUT****
 Total Charge           Charge          ....    0
 Multiplicity           Mult            ....    1
 Number of Electrons    NEL             ....   46
 Basis Dimension        Dim             ....  124

MULLIKEN ATOMIC CHARGES
-----------------------
   0 C :   -0.012309
   1 C :    0.074452
   2 N :   -0.124286
   3 N :   -0.090811
   4 C :   -0.110154
   5 C :    0.028729
   6 H :    0.009403
   7 H :    0.028462
   8 H :    0.009369
   9 H :    0.015931
  10 H :    0.115774
  11 H :    0.005037
  12 H :    0.026586
  13 H :    0.023816
Sum of atomic charges:    0.0000000

LOEWDIN ATOMIC CHARGES
----------------------
   0 C :   -0.046054
   1 C :    0.003133
   2 N :   -0.011649
   3 N :   -0.052478
   4 C :   -0.073125
   5 C :   -0.064300
   6 H :    0.027913
   7 H :    0.030814
   8 H :    0.024710
   9 H :    0.011862
  10 H :    0.061483
  11 H :    0.015610
  12 H :    0.037879
  13 H :    0.034201

  Mayer bond orders larger than 0.1
B(  0-C ,  1-C ) :   1.0860 B(  0-C ,  5-C ) :   1.0958 B(  0-C ,  6-H ) :   0.9297
B(  0-C ,  7-H ) :   0.9356 B(  1-C ,  2-N ) :   1.0313 B(  1-C ,  8-H ) :   0.9300
B(  1-C ,  9-H ) :   0.9317 B(  2-N ,  3-N ) :   1.0970 B(  2-N ,  4-C ) :   0.1224
B(  2-N , 10-H ) :   0.9424 B(  3-N ,  4-C ) :   1.9102 B(  4-C ,  5-C ) :   1.0157
B(  4-C , 11-H ) :   0.9642 B(  5-C , 12-H ) :   0.9193 B(  5-C , 13-H ) :   0.9210

FINAL SINGLE POINT ENERGY      -266.171461771995

DIPOLE MOMENT
-------------
                                X             Y             Z
Electronic contribution:     -0.38848      -3.94634       0.90459
Nuclear contribution   :      0.83442       4.56306      -1.22831
                        -----------------------------------------
Total Dipole Moment    :      0.44594       0.61672      -0.32373
                        -----------------------------------------
Magnitude (a.u.)       :      0.82704
Magnitude (Debye)      :      2.10218

                             ****ORCA TERMINATED NORMALLY****
TOTAL RUN TIME: 0 days 0 hours 0 minutes 5 seconds 855 msec
