                         Program Version 3.0.3 - RELEASE   -
|  1> ! RI PBE def2-SVP def2-SVP/J NBO PAL2
|  2> % maxcore 2000
|  3> % output
|  4>     # printlevel mini
|  5>     print[ P_Basis ] 0
|  6>     print[ P_SCFInfo ] 1
|  7>     print[ P_SCFIterInfo ] 1
|  8>     print[ P_OrbEn ] 0
|  9>     print[ P_Cartesian ] 0
| 10> end
| 11> *xyz 0 1
| 12>  C       -0.3796130000     0.7196880000     0.1515670000
| 13>  N       -0.3679710000    -0.6854950000    -0.2411460000
| 14>  C        0.8866900000    -0.0413410000     0.1273500000
| 15>  C        1.5355130000    -0.5182190000     1.3750830000
| 16>  C        2.8680150000    -1.1470350000     1.3179650000
| 17>  N        2.7028860000     0.1860710000     1.8936460000
| 18>  H       -0.8610240000     0.9213860000     1.1028080000
| 19>  H       -0.5349130000     1.4779110000    -0.6094690000
| 20>  H       -0.4438320000    -0.7820700000    -1.2468830000
| 21>  H        1.5819390000     0.2038880000    -0.6756430000
| 22>  H        0.8361760000    -0.8477630000     2.1385940000
| 23>  H        3.3361460000    -1.2392190000     0.3419500000
| 24>  H        3.1354920000    -1.9235680000     2.0260670000
| 25>  H        3.0034950000     0.8954750000     1.2322200000
| 26> *
| 27>
| 28>                          ****END OF INPUT****
 Total Charge           Charge          ....    0
 Multiplicity           Mult            ....    1
 Number of Electrons    NEL             ....   46
 Basis Dimension        Dim             ....  124

MULLIKEN ATOMIC CHARGES
-----------------------
   0 C :    0.064241
   1 N :   -0.192412
   2 C :   -0.067866
   3 C :   -0.003743
   4 C :    0.048112
   5 N :   -0.183112
   6 H :    0.031448
   7 H :    0.032417
   8 H :    0.109427
   9 H :   -0.008135
  10 H :    0.009171
  11 H :    0.021888
  12 H :    0.036648
  13 H :    0.101914
Sum of atomic charges:   -0.0000000

LOEWDIN ATOMIC CHARGES
----------------------
   0 C :    0.002573
   1 N :   -0.101142
   2 C :   -0.018598
   3 C :   -0.004779
   4 C :    0.002181
   5 N :   -0.099553
   6 H :    0.022025
   7 H :    0.016635
   8 H :    0.057460
   9 H :    0.012249
  10 H :    0.026562
  11 H :    0.012492
  12 H :    0.022386
  13 H :    0.049508

  Mayer bond orders larger than 0.1
B(  0-C ,  1-N ) :   1.0119 B(  0-C ,  2-C ) :   1.0336 B(  0-C ,  6-H ) :   0.9352
B(  0-C ,  7-H ) :   0.9445 B(  1-N ,  2-C ) :   0.9384 B(  1-N ,  8-H ) :   0.9401
B(  2-C ,  3-C ) :   1.0547 B(  2-C ,  9-H ) :   0.9204 B(  3-C ,  4-C ) :   1.0298
B(  3-C ,  5-N ) :   0.9941 B(  3-C , 10-H ) :   0.9184 B(  4-C ,  5-N ) :   1.0095
B(  4-C , 11-H ) :   0.9414 B(  4-C , 12-H ) :   0.9382 B(  5-N , 13-H ) :   0.9505

FINAL SINGLE POINT ENERGY      -266.120271020574

DIPOLE MOMENT
-------------
                                X             Y             Z
Electronic contribution:     -0.24945      -0.28276       0.60713
Nuclear contribution   :      0.34700       0.58403      -1.59354
                        -----------------------------------------
Total Dipole Moment    :      0.09754       0.30127      -0.98641
                        -----------------------------------------
Magnitude (a.u.)       :      1.03599
Magnitude (Debye)      :      2.63328

                             ****ORCA TERMINATED NORMALLY****
TOTAL RUN TIME: 0 days 0 hours 0 minutes 5 seconds 890 msec
