                         Program Version 3.0.3 - RELEASE   -
|  1> ! RI PBE def2-SVP def2-SVP/J NBO PAL2
|  2> % maxcore 2000
|  3> % output
|  4>     # printlevel mini
|  5>     print[ P_Basis ] 0
|  6>     print[ P_SCFInfo ] 1
|  7>     print[ P_SCFIterInfo ] 1
|  8>     print[ P_OrbEn ] 0
|  9>     print[ P_Cartesian ] 0
| 10> end
| 11> *xyz 0 1
| 12>  C        0.9111030000    -0.0025180000     0.9590250000
| 13>  C        0.3284830000    -1.0320230000    -0.0399230000
| 14>  C        0.7477260000    -0.0334600000    -1.1445840000
| 15>  C        0.3212940000     0.9840500000    -0.0614320000
| 16>  N       -1.1198570000     0.7568580000     0.1186070000
| 17>  C       -1.1623860000    -0.7298210000     0.0866710000
| 18>  H        2.0009740000     0.0000410000     0.9671640000
| 19>  H        0.5061470000     0.0260990000     1.9722330000
| 20>  H        0.6315020000    -2.0783240000    -0.0473390000
| 21>  H        0.1930550000    -0.0385960000    -2.0873750000
| 22>  H        1.8229300000    -0.0437710000    -1.3289000000
| 23>  H        0.5939830000     2.0383240000    -0.0893640000
| 24>  H       -1.6279200000     1.1355680000    -0.6717040000
| 25>  H       -1.7397020000    -1.1144870000    -0.7595860000
| 26>  H       -1.5947540000    -1.1303520000     1.0081960000
| 27> *
| 28>
| 29>                          ****END OF INPUT****
 Total Charge           Charge          ....    0
 Multiplicity           Mult            ....    1
 Number of Electrons    NEL             ....   46
 Basis Dimension        Dim             ....  129

MULLIKEN ATOMIC CHARGES
-----------------------
   0 C :    0.091360
   1 C :   -0.225393
   2 C :    0.077909
   3 C :   -0.094963
   4 N :   -0.193083
   5 C :    0.184332
   6 H :    0.023512
   7 H :    0.014986
   8 H :   -0.004842
   9 H :    0.001242
  10 H :    0.017241
  11 H :   -0.006557
  12 H :    0.095961
  13 H :    0.006542
  14 H :    0.011751
Sum of atomic charges:    0.0000000

LOEWDIN ATOMIC CHARGES
----------------------
   0 C :   -0.027453
   1 C :   -0.033947
   2 C :   -0.041939
   3 C :    0.020346
   4 N :   -0.106147
   5 C :    0.024855
   6 H :    0.023878
   7 H :    0.016780
   8 H :    0.011117
   9 H :    0.009007
  10 H :    0.022130
  11 H :    0.007206
  12 H :    0.048004
  13 H :    0.011811
  14 H :    0.014353

  Mayer bond orders larger than 0.1
B(  0-C ,  1-C ) :   0.9758 B(  0-C ,  3-C ) :   0.9837 B(  0-C ,  6-H ) :   0.9485
B(  0-C ,  7-H ) :   0.9261 B(  1-C ,  2-C ) :   0.9704 B(  1-C ,  5-C ) :   1.0261
B(  1-C ,  8-H ) :   0.9516 B(  2-C ,  3-C ) :   0.9751 B(  2-C ,  9-H ) :   0.9287
B(  2-C , 10-H ) :   0.9387 B(  3-C ,  4-N ) :   1.0748 B(  3-C , 11-H ) :   0.9569
B(  4-N ,  5-C ) :   1.0170 B(  4-N , 12-H ) :   0.9466 B(  5-C , 13-H ) :   0.9395
B(  5-C , 14-H ) :   0.9356

FINAL SINGLE POINT ENERGY      -250.130901064407

DIPOLE MOMENT
-------------
                                X             Y             Z
Electronic contribution:     -0.69862       0.93138       0.37469
Nuclear contribution   :      0.84589      -1.08736      -0.79014
                        -----------------------------------------
Total Dipole Moment    :      0.14727      -0.15599      -0.41544
                        -----------------------------------------
Magnitude (a.u.)       :      0.46756
Magnitude (Debye)      :      1.18844

                             ****ORCA TERMINATED NORMALLY****
TOTAL RUN TIME: 0 days 0 hours 0 minutes 6 seconds 353 msec
