                         Program Version 3.0.3 - RELEASE   -
|  1> ! RI PBE def2-SVP def2-SVP/J NBO PAL2
|  2> % maxcore 2000
|  3> % output
|  4>     # printlevel mini
|  5>     print[ P_Basis ] 0
|  6>     print[ P_SCFInfo ] 1
|  7>     print[ P_SCFIterInfo ] 1
|  8>     print[ P_OrbEn ] 0
|  9>     print[ P_Cartesian ] 0
| 10> end
| 11> *xyz 0 1
| 12>  C        0.6792100000     1.1788350000    -0.7446630000
| 13>  C       -0.3410720000     0.9040990000     0.3159740000
| 14>  C       -1.4178650000    -0.1067030000    -0.0279300000
| 15>  N       -0.7345580000    -1.2616200000    -0.6071900000
| 16>  C        0.6128830000    -1.2838800000    -0.0413330000
| 17>  C        0.9582990000     0.1508830000     0.3073970000
| 18>  H        1.2216580000     2.1139320000    -0.6850620000
| 19>  H        0.4781790000     0.8435740000    -1.7579480000
| 20>  H       -0.5462560000     1.6639550000     1.0603240000
| 21>  H       -2.1729660000     0.2686720000    -0.7240550000
| 22>  H       -1.9383440000    -0.4037700000     0.8903710000
| 23>  H       -0.6796200000    -1.1554270000    -1.6100550000
| 24>  H        1.3069620000    -1.7485620000    -0.7470240000
| 25>  H        0.6228200000    -1.8884180000     0.8734670000
| 26>  H        1.7269700000     0.3462190000     1.0453190000
| 27> *
| 28>
| 29>                          ****END OF INPUT****
 Total Charge           Charge          ....    0
 Multiplicity           Mult            ....    1
 Number of Electrons    NEL             ....   46
 Basis Dimension        Dim             ....  129

MULLIKEN ATOMIC CHARGES
-----------------------
   0 C :   -0.006389
   1 C :   -0.163708
   2 C :    0.195226
   3 N :   -0.278475
   4 C :    0.198359
   5 C :   -0.171624
   6 H :    0.030194
   7 H :    0.012421
   8 H :    0.017754
   9 H :    0.013663
  10 H :    0.008467
  11 H :    0.101921
  12 H :    0.013312
  13 H :    0.010169
  14 H :    0.018711
Sum of atomic charges:   -0.0000000

LOEWDIN ATOMIC CHARGES
----------------------
   0 C :   -0.049048
   1 C :   -0.058198
   2 C :    0.021357
   3 N :   -0.096442
   4 C :    0.021110
   5 C :   -0.059526
   6 H :    0.030427
   7 H :    0.015224
   8 H :    0.023084
   9 H :    0.020519
  10 H :    0.018697
  11 H :    0.049959
  12 H :    0.020651
  13 H :    0.019002
  14 H :    0.023183

  Mayer bond orders larger than 0.1
B(  0-C ,  1-C ) :   0.9805 B(  0-C ,  5-C ) :   0.9775 B(  0-C ,  6-H ) :   0.9387
B(  0-C ,  7-H ) :   0.9414 B(  1-C ,  2-C ) :   1.0314 B(  1-C ,  5-C ) :   0.9787
B(  1-C ,  8-H ) :   0.9457 B(  2-C ,  3-N ) :   1.0649 B(  2-C ,  9-H ) :   0.9432
B(  2-C , 10-H ) :   0.9262 B(  3-N ,  4-C ) :   1.0708 B(  3-N , 11-H ) :   0.9554
B(  4-C ,  5-C ) :   1.0271 B(  4-C , 12-H ) :   0.9427 B(  4-C , 13-H ) :   0.9264
B(  5-C , 14-H ) :   0.9463

FINAL SINGLE POINT ENERGY      -250.145437970465

DIPOLE MOMENT
-------------
                                X             Y             Z
Electronic contribution:     -0.27278      -0.46652       0.17048
Nuclear contribution   :      0.45794       0.79328      -0.28921
                        -----------------------------------------
Total Dipole Moment    :      0.18516       0.32676      -0.11873
                        -----------------------------------------
Magnitude (a.u.)       :      0.39390
Magnitude (Debye)      :      1.00121

                             ****ORCA TERMINATED NORMALLY****
TOTAL RUN TIME: 0 days 0 hours 0 minutes 6 seconds 257 msec
