                         Program Version 3.0.3 - RELEASE   -
|  1> ! RI PBE def2-SVP def2-SVP/J NBO PAL2
|  2> % maxcore 2000
|  3> % output
|  4>     # printlevel mini
|  5>     print[ P_Basis ] 0
|  6>     print[ P_SCFInfo ] 1
|  7>     print[ P_SCFIterInfo ] 1
|  8>     print[ P_OrbEn ] 0
|  9>     print[ P_Cartesian ] 0
| 10> end
| 11> *xyz 0 1
| 12>  C        0.6225870000     1.2735230000    -0.0690310000
| 13>  N       -0.7474700000     1.2838290000    -0.5742040000
| 14>  C       -1.4084680000     0.0889120000    -0.0568820000
| 15>  C       -0.3111150000    -0.9219650000     0.2060530000
| 16>  N        0.6624190000    -1.1363130000    -0.8546240000
| 17>  C        0.9645280000    -0.1779330000     0.1984400000
| 18>  H        0.6871340000     1.8327670000     0.8726460000
| 19>  H        1.2956250000     1.7588870000    -0.7816970000
| 20>  H       -0.7590330000     1.2933360000    -1.5828490000
| 21>  H       -2.1686270000    -0.2616110000    -0.7609710000
| 22>  H       -1.9185860000     0.3129660000     0.8882420000
| 23>  H       -0.5011880000    -1.7684130000     0.8568690000
| 24>  H        0.3757550000    -0.6534280000    -1.7026940000
| 25>  H        1.8006380000    -0.4258580000     0.8431210000
| 26> *
| 27>
| 28>                          ****END OF INPUT****
 Total Charge           Charge          ....    0
 Multiplicity           Mult            ....    1
 Number of Electrons    NEL             ....   46
 Basis Dimension        Dim             ....  124

MULLIKEN ATOMIC CHARGES
-----------------------
   0 C :    0.191059
   1 N :   -0.277066
   2 C :    0.186096
   3 C :   -0.125642
   4 N :   -0.135087
   5 C :   -0.132551
   6 H :    0.013766
   7 H :    0.020468
   8 H :    0.100630
   9 H :    0.021123
  10 H :    0.013971
  11 H :    0.023250
  12 H :    0.076650
  13 H :    0.023334
Sum of atomic charges:   -0.0000000

LOEWDIN ATOMIC CHARGES
----------------------
   0 C :    0.008623
   1 N :   -0.093752
   2 C :    0.008334
   3 C :   -0.022448
   4 N :   -0.089150
   5 C :   -0.023053
   6 H :    0.021359
   7 H :    0.022978
   8 H :    0.048563
   9 H :    0.022812
  10 H :    0.021477
  11 H :    0.019427
  12 H :    0.035406
  13 H :    0.019424

  Mayer bond orders larger than 0.1
B(  0-C ,  1-N ) :   1.0671 B(  0-C ,  5-C ) :   0.9991 B(  0-C ,  6-H ) :   0.9176
B(  0-C ,  7-H ) :   0.9371 B(  1-N ,  2-C ) :   1.0608 B(  1-N ,  8-H ) :   0.9523
B(  2-C ,  3-C ) :   1.0014 B(  2-C ,  9-H ) :   0.9382 B(  2-C , 10-H ) :   0.9179
B(  3-C ,  4-N ) :   1.0047 B(  3-C ,  5-C ) :   1.0113 B(  3-C , 11-H ) :   0.9424
B(  4-N ,  5-C ) :   1.0034 B(  4-N , 12-H ) :   0.9368 B(  5-C , 13-H ) :   0.9436

FINAL SINGLE POINT ENERGY      -266.157877788588

DIPOLE MOMENT
-------------
                                X             Y             Z
Electronic contribution:      0.59877      -1.03208      -0.46399
Nuclear contribution   :     -0.75965       1.30584       0.32175
                        -----------------------------------------
Total Dipole Moment    :     -0.16089       0.27376      -0.14224
                        -----------------------------------------
Magnitude (a.u.)       :      0.34794
Magnitude (Debye)      :      0.88438

                             ****ORCA TERMINATED NORMALLY****
TOTAL RUN TIME: 0 days 0 hours 0 minutes 5 seconds 906 msec
