                         Program Version 3.0.3 - RELEASE   -
|  1> ! RI PBE def2-SVP def2-SVP/J NBO PAL2
|  2> % maxcore 2000
|  3> % output
|  4>     # printlevel mini
|  5>     print[ P_Basis ] 0
|  6>     print[ P_SCFInfo ] 1
|  7>     print[ P_SCFIterInfo ] 1
|  8>     print[ P_OrbEn ] 0
|  9>     print[ P_Cartesian ] 0
| 10> end
| 11> *xyz 0 1
| 12>  C        0.4356270000     1.4384550000     0.2590350000
| 13>  C        1.0423970000     0.3066450000    -0.4595750000
| 14>  C        0.9683060000    -1.0673870000     0.1792450000
| 15>  N       -0.4597340000    -1.3158050000     0.3818770000
| 16>  C       -1.0826540000    -0.3405210000    -0.1278650000
| 17>  N       -0.3473150000     0.7027410000    -0.7528990000
| 18>  H        0.6896830000     2.4546770000    -0.0191780000
| 19>  H        0.1549280000     1.2923130000     1.2979740000
| 20>  H        1.7644100000     0.5004400000    -1.2438720000
| 21>  H        1.4977130000    -1.1463950000     1.1330220000
| 22>  H        1.3784430000    -1.8366440000    -0.4822640000
| 23>  H       -2.1661030000    -0.2658000000    -0.1267890000
| 24> *
| 25>
| 26>                          ****END OF INPUT****
 Total Charge           Charge          ....    0
 Multiplicity           Mult            ....    1
 Number of Electrons    NEL             ....   44
 Basis Dimension        Dim             ....  114

MULLIKEN ATOMIC CHARGES
-----------------------
   0 C :    0.083709
   1 C :   -0.143917
   2 C :    0.196343
   3 N :   -0.180267
   4 C :    0.053722
   5 N :   -0.231265
   6 H :    0.042980
   7 H :    0.043821
   8 H :    0.036325
   9 H :    0.032062
  10 H :    0.035154
  11 H :    0.031332
Sum of atomic charges:   -0.0000000

LOEWDIN ATOMIC CHARGES
----------------------
   0 C :    0.026656
   1 C :   -0.010178
   2 C :    0.006333
   3 N :   -0.102310
   4 C :    0.025514
   5 N :   -0.108750
   6 H :    0.026969
   7 H :    0.022376
   8 H :    0.026020
   9 H :    0.032282
  10 H :    0.033786
  11 H :    0.021301

  Mayer bond orders larger than 0.1
B(  0-C ,  1-C ) :   1.0420 B(  0-C ,  5-N ) :   0.9477 B(  0-C ,  6-H ) :   0.9478
B(  0-C ,  7-H ) :   0.9263 B(  1-C ,  2-C ) :   1.0420 B(  1-C ,  5-N ) :   0.9232
B(  1-C ,  8-H ) :   0.9449 B(  2-C ,  3-N ) :   1.0614 B(  2-C ,  9-H ) :   0.9230
B(  2-C , 10-H ) :   0.9270 B(  3-N ,  4-C ) :   1.9306 B(  4-C ,  5-N ) :   1.0645
B(  4-C , 11-H ) :   0.9660

FINAL SINGLE POINT ENERGY      -264.950465461077

DIPOLE MOMENT
-------------
                                X             Y             Z
Electronic contribution:     -1.96742      -0.72817      -0.83933
Nuclear contribution   :      2.53101       1.17600       0.96365
                        -----------------------------------------
Total Dipole Moment    :      0.56359       0.44784       0.12432
                        -----------------------------------------
Magnitude (a.u.)       :      0.73051
Magnitude (Debye)      :      1.85682

                             ****ORCA TERMINATED NORMALLY****
TOTAL RUN TIME: 0 days 0 hours 0 minutes 5 seconds 254 msec
