                         Program Version 3.0.3 - RELEASE   -
|  1> ! RI PBE def2-SVP def2-SVP/J NBO PAL2
|  2> % maxcore 2000
|  3> % output
|  4>     # printlevel mini
|  5>     print[ P_Basis ] 0
|  6>     print[ P_SCFInfo ] 1
|  7>     print[ P_SCFIterInfo ] 1
|  8>     print[ P_OrbEn ] 0
|  9>     print[ P_Cartesian ] 0
| 10> end
| 11> *xyz 0 1
| 12>  C        0.2914030000    -1.4349850000     0.0206550000
| 13>  N       -1.0220010000    -0.8063580000     0.0119100000
| 14>  N       -1.3018190000     0.4907580000    -0.0008080000
| 15>  C       -0.3330910000     1.3347850000    -0.0076960000
| 16>  C        1.0535680000     0.9140720000    -0.0020800000
| 17>  C        1.3561330000    -0.3825940000     0.0111120000
| 18>  H        0.4052560000    -2.0998340000    -0.8512360000
| 19>  H        0.4026620000    -2.0812950000     0.9067390000
| 20>  H       -1.8377040000    -1.3890330000     0.0167890000
| 21>  H       -0.6096000000     2.3815030000    -0.0181730000
| 22>  H        1.8347090000     1.6657670000    -0.0087680000
| 23>  H        2.3855840000    -0.7232850000     0.0155650000
| 24> *
| 25>
| 26>                          ****END OF INPUT****
 Total Charge           Charge          ....    0
 Multiplicity           Mult            ....    1
 Number of Electrons    NEL             ....   44
 Basis Dimension        Dim             ....  114

MULLIKEN ATOMIC CHARGES
-----------------------
   0 C :    0.232200
   1 N :   -0.148280
   2 N :   -0.042863
   3 C :   -0.070753
   4 C :    0.031432
   5 C :   -0.150380
   6 H :    0.016990
   7 H :    0.016536
   8 H :    0.123449
   9 H :   -0.005095
  10 H :   -0.006613
  11 H :    0.003376
Sum of atomic charges:   -0.0000000

LOEWDIN ATOMIC CHARGES
----------------------
   0 C :    0.014381
   1 N :    0.027605
   2 N :   -0.021812
   3 C :   -0.096442
   4 C :   -0.056369
   5 C :   -0.040238
   6 H :    0.015253
   7 H :    0.015130
   8 H :    0.066157
   9 H :    0.017169
  10 H :    0.031759
  11 H :    0.027407

  Mayer bond orders larger than 0.1
B(  0-C ,  1-N ) :   0.9671 B(  0-C ,  5-C ) :   1.0344 B(  0-C ,  6-H ) :   0.9223
B(  0-C ,  7-H ) :   0.9221 B(  1-N ,  2-N ) :   1.1820 B(  1-N ,  3-C ) :   0.1422
B(  1-N ,  8-H ) :   0.9464 B(  2-N ,  3-C ) :   1.7806 B(  3-C ,  4-C ) :   1.0590
B(  3-C ,  9-H ) :   0.9710 B(  4-C ,  5-C ) :   1.8228 B(  4-C , 10-H ) :   0.9698
B(  5-C , 11-H ) :   0.9617

FINAL SINGLE POINT ENERGY      -264.953565212873

DIPOLE MOMENT
-------------
                                X             Y             Z
Electronic contribution:     -2.14580       1.33226      -0.01717
Nuclear contribution   :      2.51200      -2.00569       0.02417
                        -----------------------------------------
Total Dipole Moment    :      0.36620      -0.67343       0.00700
                        -----------------------------------------
Magnitude (a.u.)       :      0.76659
Magnitude (Debye)      :      1.94851

                             ****ORCA TERMINATED NORMALLY****
TOTAL RUN TIME: 0 days 0 hours 0 minutes 5 seconds 582 msec
