                         Program Version 3.0.3 - RELEASE   -
|  1> ! RI PBE def2-SVP def2-SVP/J NBO PAL2
|  2> % maxcore 2000
|  3> % output
|  4>     # printlevel mini
|  5>     print[ P_Basis ] 0
|  6>     print[ P_SCFInfo ] 1
|  7>     print[ P_SCFIterInfo ] 1
|  8>     print[ P_OrbEn ] 0
|  9>     print[ P_Cartesian ] 0
| 10> end
| 11> *xyz 0 1
| 12>  C        0.9352720000     0.2073060000    -0.2002480000
| 13>  C        2.4338220000     0.1746550000    -0.1143370000
| 14>  C        3.2219410000    -0.7820430000    -0.9594330000
| 15>  C        3.2749860000     0.6920510000    -1.2363360000
| 16>  C        4.5308820000     1.4625460000    -0.9529100000
| 17>  N        4.2322780000     2.8496660000    -0.6173960000
| 18>  H        0.4814470000    -0.5567820000     0.4373030000
| 19>  H        0.5999460000     0.0234810000    -1.2248670000
| 20>  H        0.5432870000     1.1799430000     0.1094030000
| 21>  H        2.8377630000     0.3669380000     0.8755090000
| 22>  H        2.6763750000    -1.4130300000    -1.6516250000
| 23>  H        4.1027220000    -1.2469120000    -0.5309450000
| 24>  H        2.7298110000     1.0243390000    -2.1177450000
| 25>  H        5.2172500000     1.3546210000    -1.8087300000
| 26>  H        5.0337070000     1.0086890000    -0.0919860000
| 27>  H        3.7586320000     3.3001490000    -1.3917610000
| 28>  H        5.0878600000     3.3681920000    -0.4601060000
| 29> *
| 30>
| 31>                          ****END OF INPUT****
 Total Charge           Charge          ....    0
 Multiplicity           Mult            ....    1
 Number of Electrons    NEL             ....   48
 Basis Dimension        Dim             ....  139

MULLIKEN ATOMIC CHARGES
-----------------------
   0 C :    0.079564
   1 C :   -0.143476
   2 C :    0.012993
   3 C :   -0.149357
   4 C :    0.153069
   5 N :   -0.209783
   6 H :    0.019929
   7 H :   -0.001877
   8 H :    0.023786
   9 H :    0.018670
  10 H :    0.018933
  11 H :    0.019613
  12 H :    0.007913
  13 H :   -0.005326
  14 H :   -0.013268
  15 H :    0.083668
  16 H :    0.084949
Sum of atomic charges:    0.0000000

LOEWDIN ATOMIC CHARGES
----------------------
   0 C :   -0.054227
   1 C :   -0.040143
   2 C :   -0.044256
   3 C :   -0.050115
   4 C :    0.011151
   5 N :   -0.115874
   6 H :    0.027626
   7 H :    0.023746
   8 H :    0.029371
   9 H :    0.026846
  10 H :    0.023413
  11 H :    0.023664
  12 H :    0.020002
  13 H :    0.001041
  14 H :    0.018920
  15 H :    0.048268
  16 H :    0.050567

  Mayer bond orders larger than 0.1
B(  0-C ,  1-C ) :   1.1000 B(  0-C ,  6-H ) :   0.9578 B(  0-C ,  7-H ) :   0.9485
B(  0-C ,  8-H ) :   0.9617 B(  1-C ,  2-C ) :   1.0125 B(  1-C ,  3-C ) :   0.9468
B(  1-C ,  9-H ) :   0.9389 B(  2-C ,  3-C ) :   0.9969 B(  2-C , 10-H ) :   0.9371
B(  2-C , 11-H ) :   0.9368 B(  3-C ,  4-C ) :   1.0809 B(  3-C , 12-H ) :   0.9378
B(  4-C ,  5-N ) :   1.0861 B(  4-C , 13-H ) :   0.9187 B(  4-C , 14-H ) :   0.9132
B(  5-N , 15-H ) :   0.9679 B(  5-N , 16-H ) :   0.9640

FINAL SINGLE POINT ENERGY      -251.341905956643

DIPOLE MOMENT
-------------
                                X             Y             Z
Electronic contribution:      1.38979       0.65456      -0.01830
Nuclear contribution   :     -1.15172      -0.51813      -0.32027
                        -----------------------------------------
Total Dipole Moment    :      0.23807       0.13644      -0.33857
                        -----------------------------------------
Magnitude (a.u.)       :      0.43580
Magnitude (Debye)      :      1.10772

                             ****ORCA TERMINATED NORMALLY****
TOTAL RUN TIME: 0 days 0 hours 0 minutes 6 seconds 458 msec
