                         Program Version 3.0.3 - RELEASE   -
|  1> ! RI PBE def2-SVP def2-SVP/J NBO PAL2
|  2> % maxcore 2000
|  3> % output
|  4>     # printlevel mini
|  5>     print[ P_Basis ] 0
|  6>     print[ P_SCFInfo ] 1
|  7>     print[ P_SCFIterInfo ] 1
|  8>     print[ P_OrbEn ] 0
|  9>     print[ P_Cartesian ] 0
| 10> end
| 11> *xyz 0 1
| 12>  C        0.8120320000    -0.3086980000    -0.7399830000
| 13>  C        1.9553040000     0.5375190000    -0.2572470000
| 14>  C        3.3691260000     0.0271280000    -0.2760800000
| 15>  C        2.9707190000     1.1626700000    -1.1731020000
| 16>  C        2.9075950000     0.9357650000    -2.6625430000
| 17>  N        3.4336870000     2.4566430000    -0.7398510000
| 18>  H        0.4426920000    -0.9486700000     0.0661170000
| 19>  H        1.1039790000    -0.9637530000    -1.5634230000
| 20>  H       -0.0259180000     0.3045390000    -1.0843780000
| 21>  H        1.7230380000     1.1665860000     0.5962830000
| 22>  H        3.5434180000    -0.9381660000    -0.7389320000
| 23>  H        4.0092060000     0.2587580000     0.5656560000
| 24>  H        2.5794270000    -0.0727270000    -2.9200600000
| 25>  H        3.8960980000     1.0837270000    -3.1089750000
| 26>  H        2.2194510000     1.6434930000    -3.1367330000
| 27>  H        4.3685550000     2.6335810000    -1.0912530000
| 28>  H        2.8348920000     3.1881270000    -1.1072070000
| 29> *
| 30>
| 31>                          ****END OF INPUT****
 Total Charge           Charge          ....    0
 Multiplicity           Mult            ....    1
 Number of Electrons    NEL             ....   48
 Basis Dimension        Dim             ....  139

MULLIKEN ATOMIC CHARGES
-----------------------
   0 C :    0.091383
   1 C :   -0.140418
   2 C :    0.042674
   3 C :   -0.238988
   4 C :    0.124430
   5 N :   -0.138919
   6 H :    0.020894
   7 H :   -0.000170
   8 H :    0.017624
   9 H :    0.013349
  10 H :    0.011639
  11 H :    0.020727
  12 H :   -0.009449
  13 H :    0.006226
  14 H :    0.009837
  15 H :    0.084248
  16 H :    0.084913
Sum of atomic charges:   -0.0000000

LOEWDIN ATOMIC CHARGES
----------------------
   0 C :   -0.058350
   1 C :   -0.046040
   2 C :   -0.043335
   3 C :   -0.035073
   4 C :   -0.062822
   5 N :   -0.080246
   6 H :    0.030758
   7 H :    0.023257
   8 H :    0.027414
   9 H :    0.027246
  10 H :    0.020388
  11 H :    0.026727
  12 H :    0.023307
  13 H :    0.023683
  14 H :    0.023075
  15 H :    0.049585
  16 H :    0.050425

  Mayer bond orders larger than 0.1
B(  0-C ,  1-C ) :   1.1115 B(  0-C ,  6-H ) :   0.9530 B(  0-C ,  7-H ) :   0.9420
B(  0-C ,  8-H ) :   0.9577 B(  1-C ,  2-C ) :   1.0050 B(  1-C ,  3-C ) :   0.9163
B(  1-C ,  9-H ) :   0.9276 B(  2-C ,  3-C ) :   0.9740 B(  2-C , 10-H ) :   0.9436
B(  2-C , 11-H ) :   0.9260 B(  3-C ,  4-C ) :   1.0846 B(  3-C ,  5-N ) :   1.1295
B(  4-C , 12-H ) :   0.9251 B(  4-C , 13-H ) :   0.9492 B(  4-C , 14-H ) :   0.9528
B(  5-N , 15-H ) :   0.9667 B(  5-N , 16-H ) :   0.9694

FINAL SINGLE POINT ENERGY      -251.349120348532

DIPOLE MOMENT
-------------
                                X             Y             Z
Electronic contribution:      1.52626       1.70364       1.88484
Nuclear contribution   :     -1.53099      -1.58655      -2.34029
                        -----------------------------------------
Total Dipole Moment    :     -0.00473       0.11709      -0.45546
                        -----------------------------------------
Magnitude (a.u.)       :      0.47029
Magnitude (Debye)      :      1.19539

                             ****ORCA TERMINATED NORMALLY****
TOTAL RUN TIME: 0 days 0 hours 0 minutes 6 seconds 591 msec
