                         Program Version 3.0.3 - RELEASE   -
|  1> ! RI PBE def2-SVP def2-SVP/J NBO PAL2
|  2> % maxcore 2000
|  3> % output
|  4>     # printlevel mini
|  5>     print[ P_Basis ] 0
|  6>     print[ P_SCFInfo ] 1
|  7>     print[ P_SCFIterInfo ] 1
|  8>     print[ P_OrbEn ] 0
|  9>     print[ P_Cartesian ] 0
| 10> end
| 11> *xyz 0 1
| 12>  C        0.9796870000     0.0871810000     0.0420970000
| 13>  C        2.4788950000     0.0359420000     0.0726310000
| 14>  C        3.2386560000    -0.7534870000    -0.9341300000
| 15>  C        3.2608000000     0.7564420000    -1.0027350000
| 16>  C        4.4588430000     1.4563860000    -0.6563870000
| 17>  N        5.4230210000     2.0162240000    -0.3685560000
| 18>  H        0.5529880000    -0.7636550000     0.5790190000
| 19>  H        0.6072560000     0.0529940000    -0.9849450000
| 20>  H        0.6045900000     1.0019990000     0.5066070000
| 21>  H        2.9275350000     0.0868750000     1.0589870000
| 22>  H        2.6821790000    -1.2581000000    -1.7146360000
| 23>  H        4.1526050000    -1.2459460000    -0.6295240000
| 24>  H        2.6863550000     1.2238530000    -1.7946180000
| 25> *
| 26>
| 27>                          ****END OF INPUT****
 Total Charge           Charge          ....    0
 Multiplicity           Mult            ....    1
 Number of Electrons    NEL             ....   44
 Basis Dimension        Dim             ....  119

MULLIKEN ATOMIC CHARGES
-----------------------
   0 C :    0.070768
   1 C :   -0.150514
   2 C :    0.046763
   3 C :   -0.207686
   4 C :   -0.106058
   5 N :    0.056940
   6 H :    0.037294
   7 H :    0.011578
   8 H :    0.038351
   9 H :    0.046664
  10 H :    0.041682
  11 H :    0.051771
  12 H :    0.062446
Sum of atomic charges:   -0.0000000

LOEWDIN ATOMIC CHARGES
----------------------
   0 C :   -0.050780
   1 C :   -0.018383
   2 C :   -0.011978
   3 C :   -0.068356
   4 C :   -0.040904
   5 N :   -0.073843
   6 H :    0.036375
   7 H :    0.029088
   8 H :    0.035981
   9 H :    0.038357
  10 H :    0.034188
  11 H :    0.039197
  12 H :    0.051059

  Mayer bond orders larger than 0.1
B(  0-C ,  1-C ) :   1.0997 B(  0-C ,  6-H ) :   0.9585 B(  0-C ,  7-H ) :   0.9484
B(  0-C ,  8-H ) :   0.9608 B(  1-C ,  2-C ) :   0.9962 B(  1-C ,  3-C ) :   0.9266
B(  1-C ,  9-H ) :   0.9424 B(  2-C ,  3-C ) :   0.9822 B(  2-C , 10-H ) :   0.9399
B(  2-C , 11-H ) :   0.9409 B(  3-C ,  4-C ) :   1.1526 B(  3-C , 12-H ) :   0.9167
B(  4-C ,  5-N ) :   3.0232

FINAL SINGLE POINT ENERGY      -248.944263044071

DIPOLE MOMENT
-------------
                                X             Y             Z
Electronic contribution:      6.58625       3.69194      -0.47285
Nuclear contribution   :     -7.98179      -4.58982       0.27678
                        -----------------------------------------
Total Dipole Moment    :     -1.39554      -0.89788      -0.19606
                        -----------------------------------------
Magnitude (a.u.)       :      1.67098
Magnitude (Debye)      :      4.24728

                             ****ORCA TERMINATED NORMALLY****
TOTAL RUN TIME: 0 days 0 hours 0 minutes 5 seconds 578 msec
