                         Program Version 3.0.3 - RELEASE   -
|  1> ! RI PBE def2-SVP def2-SVP/J NBO PAL2
|  2> % maxcore 2000
|  3> % output
|  4>     # printlevel mini
|  5>     print[ P_Basis ] 0
|  6>     print[ P_SCFInfo ] 1
|  7>     print[ P_SCFIterInfo ] 1
|  8>     print[ P_OrbEn ] 0
|  9>     print[ P_Cartesian ] 0
| 10> end
| 11> *xyz 0 1
| 12>  C        0.9483270000     0.0711440000    -0.1089410000
| 13>  C        2.4539580000     0.1067990000    -0.0172770000
| 14>  C        3.1532370000     1.1433330000     0.8842690000
| 15>  C        4.2158460000     0.0781990000     1.2133470000
| 16>  C        3.2032130000    -0.9918820000     0.7831230000
| 17>  N        3.7145780000    -2.1964240000     0.1848030000
| 18>  H        0.5520870000     0.9562880000    -0.6146340000
| 19>  H        0.4992960000     0.0303810000     0.8880860000
| 20>  H        0.6046050000    -0.8061800000    -0.6658770000
| 21>  H        2.8964300000     0.1533740000    -1.0205520000
| 22>  H        2.5402810000     1.3791950000     1.7586500000
| 23>  H        3.4854160000     2.0773070000     0.4293600000
| 24>  H        4.6199210000     0.0276000000     2.2251120000
| 25>  H        5.0485080000     0.1201700000     0.5048910000
| 26>  H        2.5883290000    -1.2762090000     1.6452860000
| 27>  H        4.2208600000    -1.9868070000    -0.6674470000
| 28>  H        2.9696190000    -2.8393890000    -0.0530170000
| 29> *
| 30>
| 31>                          ****END OF INPUT****
 Total Charge           Charge          ....    0
 Multiplicity           Mult            ....    1
 Number of Electrons    NEL             ....   48
 Basis Dimension        Dim             ....  139

MULLIKEN ATOMIC CHARGES
-----------------------
   0 C :    0.071151
   1 C :   -0.138353
   2 C :    0.032447
   3 C :    0.065460
   4 C :   -0.095261
   5 N :   -0.131642
   6 H :    0.020565
   7 H :    0.004854
   8 H :    0.009995
   9 H :   -0.019336
  10 H :    0.004153
  11 H :    0.005212
  12 H :    0.007027
  13 H :   -0.001889
  14 H :   -0.005295
  15 H :    0.082120
  16 H :    0.088792
Sum of atomic charges:   -0.0000000

LOEWDIN ATOMIC CHARGES
----------------------
   0 C :   -0.067019
   1 C :   -0.059598
   2 C :   -0.031962
   3 C :   -0.033974
   4 C :   -0.000823
   5 N :   -0.092884
   6 H :    0.027753
   7 H :    0.022277
   8 H :    0.023740
   9 H :    0.016573
  10 H :    0.021505
  11 H :    0.015154
  12 H :    0.016257
  13 H :    0.021807
  14 H :    0.019983
  15 H :    0.048107
  16 H :    0.053104

  Mayer bond orders larger than 0.1
B(  0-C ,  1-C ) :   1.1003 B(  0-C ,  6-H ) :   0.9585 B(  0-C ,  7-H ) :   0.9492
B(  0-C ,  8-H ) :   0.9552 B(  1-C ,  2-C ) :   1.0815 B(  1-C ,  4-C ) :   0.9976
B(  1-C ,  9-H ) :   0.8828 B(  2-C ,  3-C ) :   1.1172 B(  2-C , 10-H ) :   0.9228
B(  2-C , 11-H ) :   0.9292 B(  3-C ,  4-C ) :   1.0783 B(  3-C , 12-H ) :   0.9260
B(  3-C , 13-H ) :   0.9150 B(  4-C ,  5-N ) :   1.1641 B(  4-C , 14-H ) :   0.8987
B(  5-N , 15-H ) :   0.9568 B(  5-N , 16-H ) :   0.9660

FINAL SINGLE POINT ENERGY      -251.351425686931

DIPOLE MOMENT
-------------
                                X             Y             Z
Electronic contribution:      1.86676      -1.32101       0.32371
Nuclear contribution   :     -2.14344       1.35899      -0.71025
                        -----------------------------------------
Total Dipole Moment    :     -0.27668       0.03798      -0.38654
                        -----------------------------------------
Magnitude (a.u.)       :      0.47687
Magnitude (Debye)      :      1.21211

                             ****ORCA TERMINATED NORMALLY****
TOTAL RUN TIME: 0 days 0 hours 0 minutes 7 seconds 60 msec
