                         Program Version 3.0.3 - RELEASE   -
|  1> ! RI PBE def2-SVP def2-SVP/J NBO PAL2
|  2> % maxcore 2000
|  3> % output
|  4>     # printlevel mini
|  5>     print[ P_Basis ] 0
|  6>     print[ P_SCFInfo ] 1
|  7>     print[ P_SCFIterInfo ] 1
|  8>     print[ P_OrbEn ] 0
|  9>     print[ P_Cartesian ] 0
| 10> end
| 11> *xyz 0 1
| 12>  C        0.8316140000     0.0928070000    -0.2214180000
| 13>  C        2.3056800000     0.0598460000     0.0836230000
| 14>  C        2.6379820000    -0.0373080000     1.5472210000
| 15>  C        3.2017300000    -0.6421950000    -0.9027920000
| 16>  C        3.2164260000     0.8507190000    -0.8320440000
| 17>  N        4.4068460000     1.5329270000    -0.4235380000
| 18>  H        0.3382060000    -0.8303300000     0.0998250000
| 19>  H        0.6514880000     0.2079840000    -1.2932190000
| 20>  H        0.3424360000     0.9270290000     0.2917210000
| 21>  H        2.2527140000    -0.9681460000     1.9740920000
| 22>  H        2.1900390000     0.7913070000     2.1058290000
| 23>  H        3.7146890000    -0.0129690000     1.7260430000
| 24>  H        2.7587020000    -1.1223180000    -1.7675080000
| 25>  H        4.0696690000    -1.1595370000    -0.5058930000
| 26>  H        2.7029980000     1.3609120000    -1.6436150000
| 27>  H        5.0660690000     0.9121220000     0.0232920000
| 28>  H        4.2070030000     2.2926600000     0.2148820000
| 29> *
| 30>
| 31>                          ****END OF INPUT****
 Total Charge           Charge          ....    0
 Multiplicity           Mult            ....    1
 Number of Electrons    NEL             ....   48
 Basis Dimension        Dim             ....  139

MULLIKEN ATOMIC CHARGES
-----------------------
   0 C :    0.097182
   1 C :   -0.294508
   2 C :    0.101325
   3 C :    0.013894
   4 C :   -0.069104
   5 N :   -0.113278
   6 H :    0.013603
   7 H :    0.003832
   8 H :    0.012250
   9 H :    0.015117
  10 H :    0.014002
  11 H :   -0.022032
  12 H :    0.023570
  13 H :    0.019153
  14 H :    0.010857
  15 H :    0.080811
  16 H :    0.093327
Sum of atomic charges:   -0.0000000

LOEWDIN ATOMIC CHARGES
----------------------
   0 C :   -0.046180
   1 C :   -0.084090
   2 C :   -0.050417
   3 C :   -0.046366
   4 C :   -0.006435
   5 N :   -0.077631
   6 H :    0.025141
   7 H :    0.024775
   8 H :    0.025232
   9 H :    0.028238
  10 H :    0.025103
  11 H :    0.014307
  12 H :    0.025023
  13 H :    0.023073
  14 H :    0.016935
  15 H :    0.048415
  16 H :    0.054877

  Mayer bond orders larger than 0.1
B(  0-C ,  1-C ) :   1.0880 B(  0-C ,  6-H ) :   0.9555 B(  0-C ,  7-H ) :   0.9435
B(  0-C ,  8-H ) :   0.9561 B(  1-C ,  2-C ) :   1.0985 B(  1-C ,  3-C ) :   0.9610
B(  1-C ,  4-C ) :   0.8622 B(  2-C ,  9-H ) :   0.9556 B(  2-C , 10-H ) :   0.9547
B(  2-C , 11-H ) :   0.9343 B(  3-C ,  4-C ) :   0.9937 B(  3-C , 12-H ) :   0.9384
B(  3-C , 13-H ) :   0.9409 B(  4-C ,  5-N ) :   1.1896 B(  4-C , 14-H ) :   0.9427
B(  5-N , 15-H ) :   0.9650 B(  5-N , 16-H ) :   0.9710

FINAL SINGLE POINT ENERGY      -251.345788421459

DIPOLE MOMENT
-------------
                                X             Y             Z
Electronic contribution:      2.04470       1.03198      -1.75733
Nuclear contribution   :     -2.13393      -1.10975       2.19090
                        -----------------------------------------
Total Dipole Moment    :     -0.08922      -0.07777       0.43358
                        -----------------------------------------
Magnitude (a.u.)       :      0.44944
Magnitude (Debye)      :      1.14239

                             ****ORCA TERMINATED NORMALLY****
TOTAL RUN TIME: 0 days 0 hours 0 minutes 7 seconds 77 msec
