                         Program Version 3.0.3 - RELEASE   -
|  1> ! RI PBE def2-SVP def2-SVP/J NBO PAL2
|  2> % maxcore 2000
|  3> % output
|  4>     # printlevel mini
|  5>     print[ P_Basis ] 0
|  6>     print[ P_SCFInfo ] 1
|  7>     print[ P_SCFIterInfo ] 1
|  8>     print[ P_OrbEn ] 0
|  9>     print[ P_Cartesian ] 0
| 10> end
| 11> *xyz 0 1
| 12>  C        0.9846310000     0.1183720000    -0.1339460000
| 13>  C        2.4843880000     0.0529810000    -0.0656330000
| 14>  C        3.3029160000    -0.8283630000    -0.9831000000
| 15>  C        2.6916900000    -1.7250610000    -2.0228770000
| 16>  C        3.3508530000     0.6538470000    -1.1428420000
| 17>  N        4.5706950000     1.3677550000    -0.8967250000
| 18>  H        0.5171960000    -0.7327610000     0.3702440000
| 19>  H        0.6258580000     0.1255520000    -1.1652780000
| 20>  H        0.6136650000     1.0297030000     0.3436070000
| 21>  H        2.8918490000     0.1429670000     0.9384060000
| 22>  H        4.1864480000    -1.2519110000    -0.5099480000
| 23>  H        2.3651860000    -2.6743320000    -1.5884670000
| 24>  H        1.8239120000    -1.2651340000    -2.4988150000
| 25>  H        3.4145160000    -1.9507960000    -2.8114900000
| 26>  H        2.8063990000     1.0393470000    -2.0025890000
| 27>  H        5.1867130000     0.8330310000    -0.2982370000
| 28>  H        4.3893860000     2.2497010000    -0.4322300000
| 29> *
| 30>
| 31>                          ****END OF INPUT****
 Total Charge           Charge          ....    0
 Multiplicity           Mult            ....    1
 Number of Electrons    NEL             ....   48
 Basis Dimension        Dim             ....  139

MULLIKEN ATOMIC CHARGES
-----------------------
   0 C :    0.078831
   1 C :   -0.112946
   2 C :   -0.133577
   3 C :    0.084386
   4 C :   -0.066210
   5 N :   -0.118595
   6 H :    0.020595
   7 H :    0.003419
   8 H :    0.017998
   9 H :   -0.004637
  10 H :    0.007209
  11 H :    0.019047
  12 H :   -0.000111
  13 H :    0.026197
  14 H :    0.011985
  15 H :    0.075418
  16 H :    0.090992
Sum of atomic charges:   -0.0000000

LOEWDIN ATOMIC CHARGES
----------------------
   0 C :   -0.058232
   1 C :   -0.068096
   2 C :   -0.049012
   3 C :   -0.056577
   4 C :   -0.007963
   5 N :   -0.087227
   6 H :    0.027376
   7 H :    0.024261
   8 H :    0.029285
   9 H :    0.018301
  10 H :    0.022696
  11 H :    0.027960
  12 H :    0.024629
  13 H :    0.031901
  14 H :    0.017768
  15 H :    0.049413
  16 H :    0.053516

  Mayer bond orders larger than 0.1
B(  0-C ,  1-C ) :   1.1030 B(  0-C ,  6-H ) :   0.9548 B(  0-C ,  7-H ) :   0.9488
B(  0-C ,  8-H ) :   0.9566 B(  1-C ,  2-C ) :   0.9419 B(  1-C ,  4-C ) :   0.9087
B(  1-C ,  9-H ) :   0.9280 B(  2-C ,  3-C ) :   1.1199 B(  2-C ,  4-C ) :   0.9521
B(  2-C , 10-H ) :   0.9307 B(  3-C , 11-H ) :   0.9554 B(  3-C , 12-H ) :   0.9451
B(  3-C , 13-H ) :   0.9566 B(  4-C ,  5-N ) :   1.1541 B(  4-C , 14-H ) :   0.9448
B(  5-N , 15-H ) :   0.9601 B(  5-N , 16-H ) :   0.9681

FINAL SINGLE POINT ENERGY      -251.344276389511

DIPOLE MOMENT
-------------
                                X             Y             Z
Electronic contribution:      2.76792       1.76460       0.44914
Nuclear contribution   :     -2.88577      -1.80135      -0.02628
                        -----------------------------------------
Total Dipole Moment    :     -0.11784      -0.03675       0.42286
                        -----------------------------------------
Magnitude (a.u.)       :      0.44051
Magnitude (Debye)      :      1.11969

                             ****ORCA TERMINATED NORMALLY****
TOTAL RUN TIME: 0 days 0 hours 0 minutes 7 seconds 0 msec
