                         Program Version 3.0.3 - RELEASE   -
|  1> ! RI PBE def2-SVP def2-SVP/J NBO PAL2
|  2> % maxcore 2000
|  3> % output
|  4>     # printlevel mini
|  5>     print[ P_Basis ] 0
|  6>     print[ P_SCFInfo ] 1
|  7>     print[ P_SCFIterInfo ] 1
|  8>     print[ P_OrbEn ] 0
|  9>     print[ P_Cartesian ] 0
| 10> end
| 11> *xyz 0 1
| 12>  C        0.9195770000    -0.0583760000    -0.0884670000
| 13>  C        2.4230030000    -0.0836520000     0.0578940000
| 14>  C        3.0264870000     1.1452710000     0.7526620000
| 15>  C        4.3513910000     0.6347230000     1.3397330000
| 16>  C        4.2579890000    -0.9046200000     1.1991990000
| 17>  N        2.8837060000    -1.2297590000     0.8352080000
| 18>  H        0.6002210000     0.7956260000    -0.6897590000
| 19>  H        0.4380790000     0.0281600000     0.8916590000
| 20>  H        0.5575920000    -0.9700860000    -0.5677480000
| 21>  H        2.8757700000    -0.1761360000    -0.9393200000
| 22>  H        2.3488740000     1.4699760000     1.5496910000
| 23>  H        3.1570660000     1.9924340000     0.0752300000
| 24>  H        4.4669710000     0.9378160000     2.3823420000
| 25>  H        5.2146260000     1.0270720000     0.7977410000
| 26>  H        4.5500310000    -1.4390020000     2.1048210000
| 27>  H        4.9199850000    -1.2470540000     0.3972710000
| 28>  H        2.3190320000    -1.2896940000     1.6772550000
| 29> *
| 30>
| 31>                          ****END OF INPUT****
 Total Charge           Charge          ....    0
 Multiplicity           Mult            ....    1
 Number of Electrons    NEL             ....   48
 Basis Dimension        Dim             ....  139

MULLIKEN ATOMIC CHARGES
-----------------------
   0 C :    0.039110
   1 C :   -0.078544
   2 C :    0.020817
   3 C :   -0.018093
   4 C :    0.099043
   5 N :   -0.230171
   6 H :    0.023130
   7 H :    0.005925
   8 H :    0.028733
   9 H :    0.005316
  10 H :   -0.006289
  11 H :    0.007541
  12 H :    0.001482
  13 H :    0.002590
  14 H :    0.007038
  15 H :    0.003507
  16 H :    0.088865
Sum of atomic charges:    0.0000000

LOEWDIN ATOMIC CHARGES
----------------------
   0 C :   -0.063393
   1 C :   -0.004172
   2 C :   -0.054479
   3 C :   -0.060798
   4 C :    0.007847
   5 N :   -0.097868
   6 H :    0.031170
   7 H :    0.021145
   8 H :    0.030673
   9 H :    0.019255
  10 H :    0.018519
  11 H :    0.023457
  12 H :    0.021830
  13 H :    0.022637
  14 H :    0.019310
  15 H :    0.017544
  16 H :    0.047322

  Mayer bond orders larger than 0.1
B(  0-C ,  1-C ) :   1.1046 B(  0-C ,  6-H ) :   0.9606 B(  0-C ,  7-H ) :   0.9463
B(  0-C ,  8-H ) :   0.9572 B(  1-C ,  2-C ) :   1.0569 B(  1-C ,  5-N ) :   1.0471
B(  1-C ,  9-H ) :   0.9019 B(  2-C ,  3-C ) :   1.1446 B(  2-C , 10-H ) :   0.9167
B(  2-C , 11-H ) :   0.9244 B(  3-C ,  4-C ) :   1.0733 B(  3-C , 12-H ) :   0.9279
B(  3-C , 13-H ) :   0.9246 B(  4-C ,  5-N ) :   1.0915 B(  4-C , 14-H ) :   0.9483
B(  4-C , 15-H ) :   0.9292 B(  5-N , 16-H ) :   0.9448

FINAL SINGLE POINT ENERGY      -251.369931326854

DIPOLE MOMENT
-------------
                                X             Y             Z
Electronic contribution:      0.98216      -1.61126       0.13446
Nuclear contribution   :     -1.03787       1.93518       0.10217
                        -----------------------------------------
Total Dipole Moment    :     -0.05571       0.32392       0.23663
                        -----------------------------------------
Magnitude (a.u.)       :      0.40500
Magnitude (Debye)      :      1.02942

                             ****ORCA TERMINATED NORMALLY****
TOTAL RUN TIME: 0 days 0 hours 0 minutes 6 seconds 842 msec
