                         Program Version 3.0.3 - RELEASE   -
|  1> ! RI PBE def2-SVP def2-SVP/J NBO PAL2
|  2> % maxcore 2000
|  3> % output
|  4>     # printlevel mini
|  5>     print[ P_Basis ] 0
|  6>     print[ P_SCFInfo ] 1
|  7>     print[ P_SCFIterInfo ] 1
|  8>     print[ P_OrbEn ] 0
|  9>     print[ P_Cartesian ] 0
| 10> end
| 11> *xyz 0 1
| 12>  C        1.1816940000    -0.2094510000     0.4800290000
| 13>  C        2.5919180000     0.0446040000    -0.0289220000
| 14>  C        2.6021730000     0.2650940000    -1.5261560000
| 15>  C        3.3548680000     1.0777990000     0.8341300000
| 16>  C        4.0020600000    -0.1238350000     1.5354520000
| 17>  N        3.5692580000    -0.9791660000     0.4201190000
| 18>  H        0.5207150000     0.6299390000     0.2462310000
| 19>  H        1.1709680000    -0.3546100000     1.5638020000
| 20>  H        0.7609370000    -1.1046220000     0.0111630000
| 21>  H        1.9998030000     1.1368480000    -1.7987500000
| 22>  H        3.6231790000     0.4182750000    -1.8794280000
| 23>  H        2.1912010000    -0.6047030000    -2.0473850000
| 24>  H        2.7505690000     1.7498420000     1.4437350000
| 25>  H        4.0681620000     1.6603470000     0.2498130000
| 26>  H        3.5271190000    -0.3526810000     2.4976530000
| 27>  H        5.0845180000    -0.0927830000     1.6842390000
| 28>  H        3.1645590000    -1.8697670000     0.6838970000
| 29> *
| 30>
| 31>                          ****END OF INPUT****
 Total Charge           Charge          ....    0
 Multiplicity           Mult            ....    1
 Number of Electrons    NEL             ....   48
 Basis Dimension        Dim             ....  139

MULLIKEN ATOMIC CHARGES
-----------------------
   0 C :    0.081751
   1 C :   -0.319687
   2 C :    0.121846
   3 C :    0.042501
   4 C :    0.113026
   5 N :   -0.210880
   6 H :    0.018844
   7 H :    0.005479
   8 H :    0.014995
   9 H :    0.008081
  10 H :    0.007285
  11 H :    0.008635
  12 H :    0.011514
  13 H :    0.004478
  14 H :   -0.000146
  15 H :    0.009107
  16 H :    0.083173
Sum of atomic charges:    0.0000000

LOEWDIN ATOMIC CHARGES
----------------------
   0 C :   -0.064960
   1 C :   -0.013558
   2 C :   -0.060538
   3 C :   -0.032231
   4 C :    0.024823
   5 N :   -0.102363
   6 H :    0.028342
   7 H :    0.023033
   8 H :    0.024771
   9 H :    0.024988
  10 H :    0.024223
  11 H :    0.025389
  12 H :    0.018773
  13 H :    0.025343
  14 H :    0.002153
  15 H :    0.011181
  16 H :    0.040630

  Mayer bond orders larger than 0.1
B(  0-C ,  1-C ) :   1.0476 B(  0-C ,  6-H ) :   0.9486 B(  0-C ,  7-H ) :   0.9473
B(  0-C ,  8-H ) :   0.9490 B(  1-C ,  2-C ) :   1.0676 B(  1-C ,  3-C ) :   1.0569
B(  1-C ,  5-N ) :   1.0557 B(  2-C ,  9-H ) :   0.9529 B(  2-C , 10-H ) :   0.9403
B(  2-C , 11-H ) :   0.9517 B(  3-C ,  4-C ) :   1.1207 B(  3-C , 12-H ) :   0.9398
B(  3-C , 13-H ) :   0.9021 B(  4-C ,  5-N ) :   1.0577 B(  4-C , 14-H ) :   0.9278
B(  4-C , 15-H ) :   0.9340 B(  5-N , 16-H ) :   0.9452

FINAL SINGLE POINT ENERGY      -251.345541586856

DIPOLE MOMENT
-------------
                                X             Y             Z
Electronic contribution:      2.13378      -1.07113       0.69770
Nuclear contribution   :     -2.49458       1.11456      -0.43041
                        -----------------------------------------
Total Dipole Moment    :     -0.36080       0.04343       0.26729
                        -----------------------------------------
Magnitude (a.u.)       :      0.45111
Magnitude (Debye)      :      1.14664

                             ****ORCA TERMINATED NORMALLY****
TOTAL RUN TIME: 0 days 0 hours 0 minutes 7 seconds 149 msec
