                         Program Version 3.0.3 - RELEASE   -
|  1> ! RI PBE def2-SVP def2-SVP/J NBO PAL2
|  2> % maxcore 2000
|  3> % output
|  4>     # printlevel mini
|  5>     print[ P_Basis ] 0
|  6>     print[ P_SCFInfo ] 1
|  7>     print[ P_SCFIterInfo ] 1
|  8>     print[ P_OrbEn ] 0
|  9>     print[ P_Cartesian ] 0
| 10> end
| 11> *xyz 0 1
| 12>  C        1.0731490000    -0.1034730000     0.4699390000
| 13>  C        2.3895200000     0.1006360000    -0.2512950000
| 14>  C        3.2545250000     1.2500330000     0.2997440000
| 15>  C        4.0837400000     0.1641400000     1.0100290000
| 16>  C        5.5886860000     0.2416850000     0.9478380000
| 17>  N        3.4661260000    -0.8385460000     0.1203960000
| 18>  H        0.3614250000     0.6866430000     0.2136680000
| 19>  H        1.2097790000    -0.0956520000     1.5555640000
| 20>  H        0.6209690000    -1.0598020000     0.1903920000
| 21>  H        2.2122520000     0.1260650000    -1.3320660000
| 22>  H        2.7511710000     1.9863650000     0.9269460000
| 23>  H        3.8256780000     1.7620140000    -0.4763270000
| 24>  H        3.7657290000     0.0577570000     2.0571420000
| 25>  H        5.9591930000     1.0880940000     1.5337060000
| 26>  H        6.0447810000    -0.6685350000     1.3469170000
| 27>  H        5.9185940000     0.3587770000    -0.0868890000
| 28>  H        3.1566950000    -1.6936010000     0.5674950000
| 29> *
| 30>
| 31>                          ****END OF INPUT****
 Total Charge           Charge          ....    0
 Multiplicity           Mult            ....    1
 Number of Electrons    NEL             ....   48
 Basis Dimension        Dim             ....  139

MULLIKEN ATOMIC CHARGES
-----------------------
   0 C :    0.039246
   1 C :   -0.080445
   2 C :    0.062598
   3 C :   -0.077846
   4 C :    0.086729
   5 N :   -0.211162
   6 H :    0.022073
   7 H :    0.011007
   8 H :    0.023916
   9 H :    0.003437
  10 H :    0.010370
  11 H :    0.000112
  12 H :   -0.004019
  13 H :    0.012939
  14 H :    0.013732
  15 H :    0.005894
  16 H :    0.081418
Sum of atomic charges:    0.0000000

LOEWDIN ATOMIC CHARGES
----------------------
   0 C :   -0.077692
   1 C :    0.012652
   2 C :   -0.034314
   3 C :    0.015519
   4 C :   -0.069933
   5 N :   -0.102712
   6 H :    0.030138
   7 H :    0.023668
   8 H :    0.026604
   9 H :    0.010403
  10 H :    0.018676
  11 H :    0.025585
  12 H :    0.003901
  13 H :    0.026705
  14 H :    0.026794
  15 H :    0.023709
  16 H :    0.040298

  Mayer bond orders larger than 0.1
B(  0-C ,  1-C ) :   1.0743 B(  0-C ,  6-H ) :   0.9484 B(  0-C ,  7-H ) :   0.9504
B(  0-C ,  8-H ) :   0.9540 B(  1-C ,  2-C ) :   1.0883 B(  1-C ,  5-N ) :   1.0745
B(  1-C ,  9-H ) :   0.9196 B(  2-C ,  3-C ) :   1.0760 B(  2-C , 10-H ) :   0.9388
B(  2-C , 11-H ) :   0.8948 B(  3-C ,  4-C ) :   1.0970 B(  3-C ,  5-N ) :   1.0387
B(  3-C , 12-H ) :   0.9130 B(  4-C , 13-H ) :   0.9525 B(  4-C , 14-H ) :   0.9543
B(  4-C , 15-H ) :   0.9432 B(  5-N , 16-H ) :   0.9459

FINAL SINGLE POINT ENERGY      -251.346984072743

DIPOLE MOMENT
-------------
                                X             Y             Z
Electronic contribution:      0.22452      -1.03153      -1.14232
Nuclear contribution   :     -0.50703       1.09121       1.49038
                        -----------------------------------------
Total Dipole Moment    :     -0.28251       0.05968       0.34806
                        -----------------------------------------
Magnitude (a.u.)       :      0.45224
Magnitude (Debye)      :      1.14949

                             ****ORCA TERMINATED NORMALLY****
TOTAL RUN TIME: 0 days 0 hours 0 minutes 6 seconds 554 msec
