                         Program Version 3.0.3 - RELEASE   -
|  1> ! RI PBE def2-SVP def2-SVP/J NBO PAL2
|  2> % maxcore 2000
|  3> % output
|  4>     # printlevel mini
|  5>     print[ P_Basis ] 0
|  6>     print[ P_SCFInfo ] 1
|  7>     print[ P_SCFIterInfo ] 1
|  8>     print[ P_OrbEn ] 0
|  9>     print[ P_Cartesian ] 0
| 10> end
| 11> *xyz 0 1
| 12>  C        1.0414500000     0.0123480000    -0.0647430000
| 13>  C        2.5241000000     0.0951190000    -0.0598340000
| 14>  C        3.3674280000     1.1793500000    -0.0572680000
| 15>  C        4.7004980000     0.6953620000    -0.0527310000
| 16>  C        4.6343890000    -0.6719740000    -0.0526560000
| 17>  N        3.3130450000    -1.0208710000    -0.0569690000
| 18>  H        0.6163090000     1.0159300000    -0.0663660000
| 19>  H        0.6555070000    -0.5087230000     0.8176040000
| 20>  H        0.6613790000    -0.5090930000    -0.9494180000
| 21>  H        3.0530780000     2.2120430000    -0.0585370000
| 22>  H        5.6047760000     1.2835130000    -0.0498520000
| 23>  H        5.4113400000    -1.4193330000    -0.0499120000
| 24>  H        2.9681910000    -1.9635710000    -0.0579080000
| 25> *
| 26>
| 27>                          ****END OF INPUT****
 Total Charge           Charge          ....    0
 Multiplicity           Mult            ....    1
 Number of Electrons    NEL             ....   44
 Basis Dimension        Dim             ....  119

MULLIKEN ATOMIC CHARGES
-----------------------
   0 C :    0.090660
   1 C :   -0.085305
   2 C :   -0.064882
   3 C :   -0.020003
   4 C :    0.035054
   5 N :   -0.055099
   6 H :    0.019093
   7 H :    0.027064
   8 H :    0.027007
   9 H :   -0.037012
  10 H :   -0.026067
  11 H :   -0.012201
  12 H :    0.101691
Sum of atomic charges:   -0.0000000

LOEWDIN ATOMIC CHARGES
----------------------
   0 C :   -0.065924
   1 C :   -0.044677
   2 C :   -0.095920
   3 C :   -0.087645
   4 C :   -0.044424
   5 N :    0.095071
   6 H :    0.042196
   7 H :    0.032992
   8 H :    0.032984
   9 H :    0.019708
  10 H :    0.021700
  11 H :    0.015582
  12 H :    0.078356

  Mayer bond orders larger than 0.1
B(  0-C ,  1-C ) :   1.1064 B(  0-C ,  6-H ) :   0.9417 B(  0-C ,  7-H ) :   0.9417
B(  0-C ,  8-H ) :   0.9417 B(  1-C ,  2-C ) :   1.4913 B(  1-C ,  4-C ) :   0.1049
B(  1-C ,  5-N ) :   1.2319 B(  2-C ,  3-C ) :   1.2887 B(  2-C ,  9-H ) :   1.0097
B(  3-C ,  4-C ) :   1.4838 B(  3-C , 10-H ) :   1.0022 B(  4-C ,  5-N ) :   1.2046
B(  4-C , 11-H ) :   0.9860 B(  5-N , 12-H ) :   0.9443

FINAL SINGLE POINT ENERGY      -248.989219606610

DIPOLE MOMENT
-------------
                                X             Y             Z
Electronic contribution:      2.90324      -0.69505       0.00986
Nuclear contribution   :     -3.32567      -0.02723      -0.01104
                        -----------------------------------------
Total Dipole Moment    :     -0.42243      -0.72228      -0.00119
                        -----------------------------------------
Magnitude (a.u.)       :      0.83674
Magnitude (Debye)      :      2.12684

                             ****ORCA TERMINATED NORMALLY****
TOTAL RUN TIME: 0 days 0 hours 0 minutes 5 seconds 831 msec
