                         Program Version 3.0.3 - RELEASE   -
|  1> ! RI PBE def2-SVP def2-SVP/J NBO PAL2
|  2> % maxcore 2000
|  3> % output
|  4>     # printlevel mini
|  5>     print[ P_Basis ] 0
|  6>     print[ P_SCFInfo ] 1
|  7>     print[ P_SCFIterInfo ] 1
|  8>     print[ P_OrbEn ] 0
|  9>     print[ P_Cartesian ] 0
| 10> end
| 11> *xyz 0 1
| 12>  C        1.0700980000    -0.1042760000    -0.0503910000
| 13>  C        2.5738180000    -0.0235790000     0.0107400000
| 14>  C        3.2536240000     1.0495610000     0.8778650000
| 15>  C        4.2383510000    -0.0609890000     1.2663410000
| 16>  N        3.2511960000    -1.0455760000     0.8217070000
| 17>  C        3.7176000000    -2.2396480000     0.1772840000
| 18>  H        0.6588240000     0.7521600000    -0.5920350000
| 19>  H        0.6493390000    -0.1168890000     0.9574840000
| 20>  H        0.7439970000    -1.0112060000    -0.5672120000
| 21>  H        2.9920500000     0.0055760000    -1.0120050000
| 22>  H        2.6218970000     1.3551840000     1.7133620000
| 23>  H        3.6526890000     1.9286560000     0.3746300000
| 24>  H        4.5463030000    -0.1481300000     2.3118810000
| 25>  H        5.1383590000    -0.0462440000     0.6296560000
| 26>  H        4.2635230000    -2.8610380000     0.8920420000
| 27>  H        4.3871200000    -2.0308560000    -0.6775630000
| 28>  H        2.8699120000    -2.8247840000    -0.1885780000
| 29> *
| 30>
| 31>                          ****END OF INPUT****
 Total Charge           Charge          ....    0
 Multiplicity           Mult            ....    1
 Number of Electrons    NEL             ....   48
 Basis Dimension        Dim             ....  139

MULLIKEN ATOMIC CHARGES
-----------------------
   0 C :    0.084801
   1 C :   -0.038686
   2 C :   -0.008099
   3 C :    0.143150
   4 N :   -0.344836
   5 C :    0.083413
   6 H :    0.016968
   7 H :    0.008875
   8 H :    0.014406
   9 H :   -0.022679
  10 H :    0.010022
  11 H :    0.018803
  12 H :    0.009323
  13 H :   -0.015635
  14 H :    0.026019
  15 H :   -0.008147
  16 H :    0.022302
Sum of atomic charges:   -0.0000000

LOEWDIN ATOMIC CHARGES
----------------------
   0 C :   -0.069585
   1 C :    0.020090
   2 C :   -0.036063
   3 C :    0.033109
   4 N :   -0.118619
   5 C :   -0.009784
   6 H :    0.029823
   7 H :    0.025126
   8 H :    0.027639
   9 H :    0.000113
  10 H :    0.025382
  11 H :    0.019243
  12 H :    0.010013
  13 H :   -0.000206
  14 H :    0.024565
  15 H :   -0.004041
  16 H :    0.023193

  Mayer bond orders larger than 0.1
B(  0-C ,  1-C ) :   1.1116 B(  0-C ,  6-H ) :   0.9523 B(  0-C ,  7-H ) :   0.9429
B(  0-C ,  8-H ) :   0.9519 B(  1-C ,  2-C ) :   1.0680 B(  1-C ,  4-N ) :   0.9924
B(  1-C ,  9-H ) :   0.8934 B(  2-C ,  3-C ) :   1.1087 B(  2-C , 10-H ) :   0.9109
B(  2-C , 11-H ) :   0.9451 B(  3-C ,  4-N ) :   1.0154 B(  3-C , 12-H ) :   0.9404
B(  3-C , 13-H ) :   0.9128 B(  4-N ,  5-C ) :   1.0429 B(  5-C , 14-H ) :   0.9686
B(  5-C , 15-H ) :   0.9373 B(  5-C , 16-H ) :   0.9669

FINAL SINGLE POINT ENERGY      -251.341133268934

DIPOLE MOMENT
-------------
                                X             Y             Z
Electronic contribution:      0.68628       0.38773       1.39266
Nuclear contribution   :     -0.60027      -0.29919      -1.58002
                        -----------------------------------------
Total Dipole Moment    :      0.08601       0.08854      -0.18735
                        -----------------------------------------
Magnitude (a.u.)       :      0.22436
Magnitude (Debye)      :      0.57028

                             ****ORCA TERMINATED NORMALLY****
TOTAL RUN TIME: 0 days 0 hours 0 minutes 6 seconds 818 msec
