                         Program Version 3.0.3 - RELEASE   -
|  1> ! RI PBE def2-SVP def2-SVP/J NBO PAL2
|  2> % maxcore 2000
|  3> % output
|  4>     # printlevel mini
|  5>     print[ P_Basis ] 0
|  6>     print[ P_SCFInfo ] 1
|  7>     print[ P_SCFIterInfo ] 1
|  8>     print[ P_OrbEn ] 0
|  9>     print[ P_Cartesian ] 0
| 10> end
| 11> *xyz 0 1
| 12>  C        0.9256620000     0.1504430000    -0.1367190000
| 13>  C        2.4212420000     0.0433890000    -0.1523040000
| 14>  C        3.1992780000    -0.7916570000    -1.1062020000
| 15>  C        2.5953720000    -1.6415950000    -2.1838640000
| 16>  N        3.1483360000     0.6498900000    -1.2499570000
| 17>  C        4.3471260000     1.3792730000    -0.9108370000
| 18>  H        0.4870200000    -0.6215060000     0.5015830000
| 19>  H        0.5090850000     0.0477720000    -1.1386810000
| 20>  H        0.6155880000     1.1237710000     0.2530670000
| 21>  H        2.8877680000     0.1501670000     0.8286520000
| 22>  H        4.1313160000    -1.1845280000    -0.6959820000
| 23>  H        2.3712750000    -2.6440640000    -1.8089310000
| 24>  H        1.6744560000    -1.2025470000    -2.5674730000
| 25>  H        3.2881980000    -1.7448210000    -3.0233790000
| 26>  H        5.0130300000     1.4134230000    -1.7767620000
| 27>  H        4.8997390000     0.9320070000    -0.0685330000
| 28>  H        4.0878980000     2.4065020000    -0.6424780000
| 29> *
| 30>
| 31>                          ****END OF INPUT****
 Total Charge           Charge          ....    0
 Multiplicity           Mult            ....    1
 Number of Electrons    NEL             ....   48
 Basis Dimension        Dim             ....  139

MULLIKEN ATOMIC CHARGES
-----------------------
   0 C :    0.101071
   1 C :   -0.075828
   2 C :   -0.071806
   3 C :    0.101688
   4 N :   -0.281223
   5 C :    0.085444
   6 H :    0.019843
   7 H :    0.008553
   8 H :    0.018288
   9 H :    0.002939
  10 H :    0.001860
  11 H :    0.018388
  12 H :    0.002884
  13 H :    0.023344
  14 H :    0.027510
  15 H :   -0.005556
  16 H :    0.022600
Sum of atomic charges:   -0.0000000

LOEWDIN ATOMIC CHARGES
----------------------
   0 C :   -0.062869
   1 C :   -0.004719
   2 C :   -0.003517
   3 C :   -0.063727
   4 N :   -0.111522
   5 C :   -0.001493
   6 H :    0.030286
   7 H :    0.029093
   8 H :    0.031299
   9 H :    0.009290
  10 H :    0.009328
  11 H :    0.030219
  12 H :    0.028659
  13 H :    0.031929
  14 H :    0.023812
  15 H :    0.000664
  16 H :    0.023268

  Mayer bond orders larger than 0.1
B(  0-C ,  1-C ) :   1.1047 B(  0-C ,  6-H ) :   0.9537 B(  0-C ,  7-H ) :   0.9423
B(  0-C ,  8-H ) :   0.9503 B(  1-C ,  2-C ) :   1.0098 B(  1-C ,  4-N ) :   0.9192
B(  1-C ,  9-H ) :   0.9236 B(  2-C ,  3-C ) :   1.1098 B(  2-C ,  4-N ) :   0.9199
B(  2-C , 10-H ) :   0.9242 B(  3-C , 11-H ) :   0.9525 B(  3-C , 12-H ) :   0.9379
B(  3-C , 13-H ) :   0.9511 B(  4-N ,  5-C ) :   1.0301 B(  5-C , 14-H ) :   0.9711
B(  5-C , 15-H ) :   0.9369 B(  5-C , 16-H ) :   0.9697

FINAL SINGLE POINT ENERGY      -251.338504295181

DIPOLE MOMENT
-------------
                                X             Y             Z
Electronic contribution:      0.68431       0.76554      -0.11008
Nuclear contribution   :     -0.52602      -0.92765       0.38286
                        -----------------------------------------
Total Dipole Moment    :      0.15829      -0.16211       0.27278
                        -----------------------------------------
Magnitude (a.u.)       :      0.35461
Magnitude (Debye)      :      0.90134

                             ****ORCA TERMINATED NORMALLY****
TOTAL RUN TIME: 0 days 0 hours 0 minutes 6 seconds 969 msec
