                         Program Version 3.0.3 - RELEASE   -
|  1> ! RI PBE def2-SVP def2-SVP/J NBO PAL2
|  2> % maxcore 2000
|  3> % output
|  4>     # printlevel mini
|  5>     print[ P_Basis ] 0
|  6>     print[ P_SCFInfo ] 1
|  7>     print[ P_SCFIterInfo ] 1
|  8>     print[ P_OrbEn ] 0
|  9>     print[ P_Cartesian ] 0
| 10> end
| 11> *xyz 0 1
| 12>  C        0.9521550000     0.0043570000     0.1952340000
| 13>  C        2.4654860000    -0.0068660000     0.0982000000
| 14>  C        3.1563420000     1.2187560000     0.7386940000
| 15>  C        4.2820050000     0.6371890000     1.6038700000
| 16>  N        4.4674710000    -0.7003430000     1.0615420000
| 17>  C        3.1258370000    -1.1890890000     0.8064260000
| 18>  H        0.5277470000     0.8623420000    -0.3323430000
| 19>  H        0.6279880000     0.0616020000     1.2388750000
| 20>  H        0.5163910000    -0.8993680000    -0.2400680000
| 21>  H        2.7523620000    -0.0535050000    -0.9564890000
| 22>  H        2.4554330000     1.7991050000     1.3434570000
| 23>  H        3.5509010000     1.8868230000    -0.0286650000
| 24>  H        3.9662940000     0.6224810000     2.6604740000
| 25>  H        5.2085060000     1.2134370000     1.5445680000
| 26>  H        4.9907190000    -1.3007070000     1.6852360000
| 27>  H        2.5660330000    -1.4173210000     1.7328180000
| 28>  H        3.1436290000    -2.0946850000     0.1943520000
| 29> *
| 30>
| 31>                          ****END OF INPUT****
 Total Charge           Charge          ....    0
 Multiplicity           Mult            ....    1
 Number of Electrons    NEL             ....   48
 Basis Dimension        Dim             ....  139

MULLIKEN ATOMIC CHARGES
-----------------------
   0 C :    0.027144
   1 C :   -0.184437
   2 C :    0.036088
   3 C :    0.109302
   4 N :   -0.270705
   5 C :    0.146952
   6 H :    0.021876
   7 H :    0.013658
   8 H :    0.017613
   9 H :    0.011165
  10 H :   -0.003311
  11 H :    0.011468
  12 H :   -0.017957
  13 H :    0.005456
  14 H :    0.095035
  15 H :   -0.025013
  16 H :    0.005667
Sum of atomic charges:   -0.0000000

LOEWDIN ATOMIC CHARGES
----------------------
   0 C :   -0.060248
   1 C :   -0.047189
   2 C :   -0.040543
   3 C :    0.012324
   4 N :   -0.106627
   5 C :    0.013966
   6 H :    0.026640
   7 H :    0.021336
   8 H :    0.025848
   9 H :    0.027229
  10 H :    0.021977
  11 H :    0.027473
  12 H :   -0.002442
  13 H :    0.016549
  14 H :    0.052402
  15 H :   -0.005769
  16 H :    0.017075

  Mayer bond orders larger than 0.1
B(  0-C ,  1-C ) :   1.0810 B(  0-C ,  6-H ) :   0.9616 B(  0-C ,  7-H ) :   0.9566
B(  0-C ,  8-H ) :   0.9606 B(  1-C ,  2-C ) :   1.1021 B(  1-C ,  5-C ) :   1.0968
B(  1-C ,  9-H ) :   0.8993 B(  2-C ,  3-C ) :   1.1374 B(  2-C , 10-H ) :   0.9262
B(  2-C , 11-H ) :   0.9181 B(  3-C ,  4-N ) :   1.0687 B(  3-C , 12-H ) :   0.9094
B(  3-C , 13-H ) :   0.9354 B(  4-N ,  5-C ) :   1.0563 B(  4-N , 14-H ) :   0.9418
B(  5-C , 15-H ) :   0.9076 B(  5-C , 16-H ) :   0.9325

FINAL SINGLE POINT ENERGY      -251.367051129409

DIPOLE MOMENT
-------------
                                X             Y             Z
Electronic contribution:      3.09555      -0.83394      -0.14434
Nuclear contribution   :     -3.19964       0.77309       0.40375
                        -----------------------------------------
Total Dipole Moment    :     -0.10409      -0.06085       0.25941
                        -----------------------------------------
Magnitude (a.u.)       :      0.28607
Magnitude (Debye)      :      0.72712

                             ****ORCA TERMINATED NORMALLY****
TOTAL RUN TIME: 0 days 0 hours 0 minutes 6 seconds 909 msec
