                         Program Version 3.0.3 - RELEASE   -
|  1> ! RI PBE def2-SVP def2-SVP/J NBO PAL2
|  2> % maxcore 2000
|  3> % output
|  4>     # printlevel mini
|  5>     print[ P_Basis ] 0
|  6>     print[ P_SCFInfo ] 1
|  7>     print[ P_SCFIterInfo ] 1
|  8>     print[ P_OrbEn ] 0
|  9>     print[ P_Cartesian ] 0
| 10> end
| 11> *xyz 0 1
| 12>  C        1.1561810000    -0.1041660000     0.3592010000
| 13>  C        2.4403760000    -0.0459090000     0.0364070000
| 14>  C        3.2938380000     1.1934430000    -0.0729250000
| 15>  C        4.5706540000     0.6727260000    -0.7447840000
| 16>  N        4.7045500000    -0.7214090000    -0.3329850000
| 17>  C        3.3334910000    -1.2247480000    -0.3014060000
| 18>  H        0.5799680000     0.7895280000     0.5729100000
| 19>  H        0.6303300000    -1.0513790000     0.4204010000
| 20>  H        3.5260240000     1.5751080000     0.9278700000
| 21>  H        2.8003360000     1.9979730000    -0.6224350000
| 22>  H        5.4662600000     1.2402590000    -0.4881220000
| 23>  H        4.4611010000     0.7040620000    -1.8344410000
| 24>  H        5.0815910000    -0.7462590000     0.6075430000
| 25>  H        3.2322140000    -2.0548430000     0.4002220000
| 26>  H        3.0719860000    -1.6083650000    -1.2956670000
| 27> *
| 28>
| 29>                          ****END OF INPUT****
 Total Charge           Charge          ....    0
 Multiplicity           Mult            ....    1
 Number of Electrons    NEL             ....   46
 Basis Dimension        Dim             ....  129

MULLIKEN ATOMIC CHARGES
-----------------------
   0 C :   -0.044890
   1 C :   -0.248607
   2 C :    0.069226
   3 C :    0.060197
   4 N :   -0.256764
   5 C :    0.188779
   6 H :    0.007731
   7 H :    0.006756
   8 H :    0.024707
   9 H :    0.020243
  10 H :    0.011326
  11 H :    0.022104
  12 H :    0.096832
  13 H :    0.019867
  14 H :    0.022494
Sum of atomic charges:   -0.0000000

LOEWDIN ATOMIC CHARGES
----------------------
   0 C :   -0.084703
   1 C :   -0.045513
   2 C :   -0.053803
   3 C :    0.009022
   4 N :   -0.100156
   5 C :    0.012339
   6 H :    0.021490
   7 H :    0.021308
   8 H :    0.034688
   9 H :    0.033039
  10 H :    0.020415
  11 H :    0.020674
  12 H :    0.052072
  13 H :    0.029013
  14 H :    0.030114

  Mayer bond orders larger than 0.1
B(  0-C ,  1-C ) :   2.0320 B(  0-C ,  6-H ) :   0.9342 B(  0-C ,  7-H ) :   0.9340
B(  1-C ,  2-C ) :   1.0629 B(  1-C ,  5-C ) :   0.9996 B(  2-C ,  3-C ) :   1.0676
B(  2-C ,  8-H ) :   0.9064 B(  2-C ,  9-H ) :   0.9175 B(  3-C ,  4-N ) :   1.0816
B(  3-C , 10-H ) :   0.9448 B(  3-C , 11-H ) :   0.9338 B(  4-N ,  5-C ) :   1.0676
B(  4-N , 12-H ) :   0.9528 B(  5-C , 13-H ) :   0.9371 B(  5-C , 14-H ) :   0.9091

FINAL SINGLE POINT ENERGY      -250.146629280638

DIPOLE MOMENT
-------------
                                X             Y             Z
Electronic contribution:      0.61868      -0.88848       0.05234
Nuclear contribution   :     -0.62040       1.13031       0.25914
                        -----------------------------------------
Total Dipole Moment    :     -0.00171       0.24183       0.31148
                        -----------------------------------------
Magnitude (a.u.)       :      0.39434
Magnitude (Debye)      :      1.00233

                             ****ORCA TERMINATED NORMALLY****
TOTAL RUN TIME: 0 days 0 hours 0 minutes 6 seconds 362 msec
