                         Program Version 3.0.3 - RELEASE   -
|  1> ! RI PBE def2-SVP def2-SVP/J NBO PAL2
|  2> % maxcore 2000
|  3> % output
|  4>     # printlevel mini
|  5>     print[ P_Basis ] 0
|  6>     print[ P_SCFInfo ] 1
|  7>     print[ P_SCFIterInfo ] 1
|  8>     print[ P_OrbEn ] 0
|  9>     print[ P_Cartesian ] 0
| 10> end
| 11> *xyz 0 1
| 12>  C        0.8553540000     0.0007560000     0.2127490000
| 13>  C        2.3634270000     0.0095510000     0.1020660000
| 14>  C        2.8195640000    -0.0070970000    -1.3455790000
| 15>  C        3.1218780000     1.0704940000     0.9341320000
| 16>  N        4.0932430000     0.0380220000     1.3211260000
| 17>  C        3.1361550000    -1.0178150000     0.9626410000
| 18>  H        0.4217060000     0.8734850000    -0.2851960000
| 19>  H        0.5301960000     0.0127780000     1.2560990000
| 20>  H        0.4337630000    -0.8910850000    -0.2611060000
| 21>  H        2.4406580000     0.8671340000    -1.8835560000
| 22>  H        2.4527290000    -0.9007810000    -1.8594180000
| 23>  H        3.9100230000    -0.0004930000    -1.4071450000
| 24>  H        2.5078020000     1.4479560000     1.7634500000
| 25>  H        3.5481600000     1.9211370000     0.3922980000
| 26>  H        4.3926590000     0.0532490000     2.2868140000
| 27>  H        2.5271390000    -1.3808510000     1.8020690000
| 28>  H        3.5741250000    -1.8770290000     0.4441570000
| 29> *
| 30>
| 31>                          ****END OF INPUT****
 Total Charge           Charge          ....    0
 Multiplicity           Mult            ....    1
 Number of Electrons    NEL             ....   48
 Basis Dimension        Dim             ....  139

MULLIKEN ATOMIC CHARGES
-----------------------
   0 C :    0.087661
   1 C :   -0.484288
   2 C :    0.085197
   3 C :    0.220017
   4 N :   -0.274524
   5 C :    0.219917
   6 H :    0.016124
   7 H :    0.005881
   8 H :    0.015645
   9 H :    0.013864
  10 H :    0.013668
  11 H :    0.023174
  12 H :   -0.017077
  13 H :    0.000308
  14 H :    0.091129
  15 H :   -0.017065
  16 H :    0.000370
Sum of atomic charges:    0.0000000

LOEWDIN ATOMIC CHARGES
----------------------
   0 C :   -0.055736
   1 C :   -0.067016
   2 C :   -0.048777
   3 C :    0.034259
   4 N :   -0.112046
   5 C :    0.034252
   6 H :    0.026983
   7 H :    0.020047
   8 H :    0.026891
   9 H :    0.023984
  10 H :    0.023942
  11 H :    0.030354
  12 H :    0.001678
  13 H :    0.006904
  14 H :    0.045669
  15 H :    0.001691
  16 H :    0.006921

  Mayer bond orders larger than 0.1
B(  0-C ,  1-C ) :   1.0678 B(  0-C ,  6-H ) :   0.9565 B(  0-C ,  7-H ) :   0.9481
B(  0-C ,  8-H ) :   0.9565 B(  1-C ,  2-C ) :   1.0404 B(  1-C ,  3-C ) :   1.0205
B(  1-C ,  5-C ) :   1.0206 B(  2-C ,  9-H ) :   0.9574 B(  2-C , 10-H ) :   0.9575
B(  2-C , 11-H ) :   0.9470 B(  3-C ,  4-N ) :   1.0503 B(  3-C , 12-H ) :   0.9193
B(  3-C , 13-H ) :   0.9325 B(  4-N ,  5-C ) :   1.0502 B(  4-N , 14-H ) :   0.9419
B(  5-C , 15-H ) :   0.9194 B(  5-C , 16-H ) :   0.9326

FINAL SINGLE POINT ENERGY      -251.341493873397

DIPOLE MOMENT
-------------
                                X             Y             Z
Electronic contribution:      2.68456       0.04477       1.93691
Nuclear contribution   :     -3.02177      -0.04337      -1.66338
                        -----------------------------------------
Total Dipole Moment    :     -0.33721       0.00140       0.27354
                        -----------------------------------------
Magnitude (a.u.)       :      0.43421
Magnitude (Debye)      :      1.10367

                             ****ORCA TERMINATED NORMALLY****
TOTAL RUN TIME: 0 days 0 hours 0 minutes 6 seconds 661 msec
