                         Program Version 3.0.3 - RELEASE   -
|  1> ! RI PBE def2-SVP def2-SVP/J NBO PAL2
|  2> % maxcore 2000
|  3> % output
|  4>     # printlevel mini
|  5>     print[ P_Basis ] 0
|  6>     print[ P_SCFInfo ] 1
|  7>     print[ P_SCFIterInfo ] 1
|  8>     print[ P_OrbEn ] 0
|  9>     print[ P_Cartesian ] 0
| 10> end
| 11> *xyz 0 1
| 12>  C        0.9976100000    -0.0467030000     0.0453100000
| 13>  C        2.5065860000    -0.0726810000    -0.0015050000
| 14>  C        3.2924940000     1.0115180000     0.7685400000
| 15>  C        4.3029200000    -0.0596030000     1.2227250000
| 16>  N        5.5349690000    -0.0075630000     0.4619590000
| 17>  C        3.2568620000    -1.1367260000     0.8281190000
| 18>  H        0.5970370000     0.8296500000    -0.4724340000
| 19>  H        0.6432190000    -0.0129040000     1.0801400000
| 20>  H        0.5678660000    -0.9358480000    -0.4249710000
| 21>  H        2.8379260000    -0.1062210000    -1.0445900000
| 22>  H        2.7117000000     1.4045400000     1.6069480000
| 23>  H        3.7050200000     1.8507530000     0.2045210000
| 24>  H        4.5674530000    -0.0379980000     2.2824900000
| 25>  H        5.3413180000     0.0045550000    -0.5332510000
| 26>  H        6.0979170000    -0.8311390000     0.6408110000
| 27>  H        2.6616780000    -1.4598400000     1.6877990000
| 28>  H        3.6323260000    -2.0224910000     0.3093890000
| 29> *
| 30>
| 31>                          ****END OF INPUT****
 Total Charge           Charge          ....    0
 Multiplicity           Mult            ....    1
 Number of Electrons    NEL             ....   48
 Basis Dimension        Dim             ....  139

MULLIKEN ATOMIC CHARGES
-----------------------
   0 C :    0.066548
   1 C :   -0.246832
   2 C :    0.137809
   3 C :   -0.162947
   4 N :   -0.133252
   5 C :    0.147228
   6 H :    0.019782
   7 H :    0.004884
   8 H :    0.018853
   9 H :    0.004213
  10 H :   -0.002610
  11 H :    0.004348
  12 H :    0.000137
  13 H :    0.075728
  14 H :    0.088298
  15 H :   -0.010851
  16 H :   -0.011337
Sum of atomic charges:   -0.0000000

LOEWDIN ATOMIC CHARGES
----------------------
   0 C :   -0.064058
   1 C :   -0.042980
   2 C :   -0.031767
   3 C :    0.004042
   4 N :   -0.092342
   5 C :   -0.051015
   6 H :    0.027317
   7 H :    0.021443
   8 H :    0.027197
   9 H :    0.019884
  10 H :    0.024928
  11 H :    0.016763
  12 H :    0.011661
  13 H :    0.047223
  14 H :    0.051026
  15 H :    0.021102
  16 H :    0.009576

  Mayer bond orders larger than 0.1
B(  0-C ,  1-C ) :   1.1019 B(  0-C ,  6-H ) :   0.9581 B(  0-C ,  7-H ) :   0.9507
B(  0-C ,  8-H ) :   0.9575 B(  1-C ,  2-C ) :   1.0841 B(  1-C ,  5-C ) :   1.0747
B(  1-C ,  9-H ) :   0.9086 B(  2-C ,  3-C ) :   1.0848 B(  2-C , 10-H ) :   0.9086
B(  2-C , 11-H ) :   0.9201 B(  3-C ,  4-N ) :   1.1228 B(  3-C ,  5-C ) :   1.0478
B(  3-C , 12-H ) :   0.9144 B(  4-N , 13-H ) :   0.9655 B(  4-N , 14-H ) :   0.9654
B(  5-C , 15-H ) :   0.8975 B(  5-C , 16-H ) :   0.9189

FINAL SINGLE POINT ENERGY      -251.347342473217

DIPOLE MOMENT
-------------
                                X             Y             Z
Electronic contribution:      2.88949       0.23355       0.40203
Nuclear contribution   :     -3.05788      -0.61870      -0.59769
                        -----------------------------------------
Total Dipole Moment    :     -0.16839      -0.38515      -0.19566
                        -----------------------------------------
Magnitude (a.u.)       :      0.46366
Magnitude (Debye)      :      1.17852

                             ****ORCA TERMINATED NORMALLY****
TOTAL RUN TIME: 0 days 0 hours 0 minutes 7 seconds 61 msec
