                         Program Version 3.0.3 - RELEASE   -
|  1> ! RI PBE def2-SVP def2-SVP/J NBO PAL2
|  2> % maxcore 2000
|  3> % output
|  4>     # printlevel mini
|  5>     print[ P_Basis ] 0
|  6>     print[ P_SCFInfo ] 1
|  7>     print[ P_SCFIterInfo ] 1
|  8>     print[ P_OrbEn ] 0
|  9>     print[ P_Cartesian ] 0
| 10> end
| 11> *xyz 0 1
| 12>  C        0.9120650000     0.1190190000    -0.0343350000
| 13>  C        2.4024260000     0.0884920000    -0.0294970000
| 14>  C        3.2426580000     1.1743230000    -0.0265100000
| 15>  N        4.5309500000     0.7203580000    -0.0224320000
| 16>  C        4.5381030000    -0.6411240000    -0.0227240000
| 17>  C        3.2342060000    -1.0640570000    -0.0270570000
| 18>  H        0.5399200000     1.1453170000    -0.0353180000
| 19>  H        0.4966960000    -0.3828570000     0.8443440000
| 20>  H        0.5024180000    -0.3824680000    -0.9159190000
| 21>  H        3.0195290000     2.2298640000    -0.0269890000
| 22>  H        5.3474930000     1.3024030000    -0.0196490000
| 23>  H        5.4613370000    -1.1980770000    -0.0198530000
| 24>  H        2.9062800000    -2.0927820000    -0.0283600000
| 25> *
| 26>
| 27>                          ****END OF INPUT****
 Total Charge           Charge          ....    0
 Multiplicity           Mult            ....    1
 Number of Electrons    NEL             ....   44
 Basis Dimension        Dim             ....  119

MULLIKEN ATOMIC CHARGES
-----------------------
   0 C :    0.081982
   1 C :   -0.100158
   2 C :   -0.011302
   3 N :   -0.049481
   4 C :    0.039966
   5 C :   -0.058831
   6 H :    0.003551
   7 H :    0.025081
   8 H :    0.025005
   9 H :   -0.019598
  10 H :    0.111668
  11 H :   -0.012920
  12 H :   -0.034963
Sum of atomic charges:   -0.0000000

LOEWDIN ATOMIC CHARGES
----------------------
   0 C :   -0.057206
   1 C :   -0.084039
   2 C :   -0.053031
   3 N :    0.099253
   4 C :   -0.040329
   5 C :   -0.091980
   6 H :    0.029339
   7 H :    0.033121
   8 H :    0.033108
   9 H :    0.014413
  10 H :    0.081159
  11 H :    0.015803
  12 H :    0.020390

  Mayer bond orders larger than 0.1
B(  0-C ,  1-C ) :   1.1091 B(  0-C ,  6-H ) :   0.9514 B(  0-C ,  7-H ) :   0.9479
B(  0-C ,  8-H ) :   0.9479 B(  1-C ,  2-C ) :   1.4795 B(  1-C ,  5-C ) :   1.3340
B(  2-C ,  3-N ) :   1.2117 B(  2-C ,  9-H ) :   0.9871 B(  3-N ,  4-C ) :   1.2340
B(  3-N , 10-H ) :   0.9440 B(  4-C ,  5-C ) :   1.4578 B(  4-C , 11-H ) :   0.9832
B(  5-C , 12-H ) :   1.0135

FINAL SINGLE POINT ENERGY      -248.987086661348

DIPOLE MOMENT
-------------
                                X             Y             Z
Electronic contribution:      3.96852       0.40007       0.01307
Nuclear contribution   :     -3.41163       0.03332      -0.01109
                        -----------------------------------------
Total Dipole Moment    :      0.55688       0.43339       0.00198
                        -----------------------------------------
Magnitude (a.u.)       :      0.70565
Magnitude (Debye)      :      1.79363

                             ****ORCA TERMINATED NORMALLY****
TOTAL RUN TIME: 0 days 0 hours 0 minutes 5 seconds 856 msec
