                         Program Version 3.0.3 - RELEASE   -
|  1> ! RI PBE def2-SVP def2-SVP/J NBO PAL2
|  2> % maxcore 2000
|  3> % output
|  4>     # printlevel mini
|  5>     print[ P_Basis ] 0
|  6>     print[ P_SCFInfo ] 1
|  7>     print[ P_SCFIterInfo ] 1
|  8>     print[ P_OrbEn ] 0
|  9>     print[ P_Cartesian ] 0
| 10> end
| 11> *xyz 0 1
| 12>  C        1.0697850000     0.0927010000    -0.0204720000
| 13>  C        2.5537300000    -0.0099540000    -0.0243810000
| 14>  N        3.3065530000     1.0807050000    -0.0286800000
| 15>  N        4.5641310000     0.6338330000    -0.0312710000
| 16>  C        4.6478960000    -0.7096000000    -0.0287890000
| 17>  C        3.3556430000    -1.1719280000    -0.0242620000
| 18>  H        0.7722200000     1.1412240000    -0.0216310000
| 19>  H        0.6407200000    -0.3875800000     0.8627290000
| 20>  H        0.6358480000    -0.3909030000    -0.8994700000
| 21>  H        5.3183230000     1.2965070000    -0.0347040000
| 22>  H        5.5961130000    -1.2238960000    -0.0303840000
| 23>  H        3.0333490000    -2.2006060000    -0.0212840000
| 24> *
| 25>
| 26>                          ****END OF INPUT****
 Total Charge           Charge          ....    0
 Multiplicity           Mult            ....    1
 Number of Electrons    NEL             ....   44
 Basis Dimension        Dim             ....  114

MULLIKEN ATOMIC CHARGES
-----------------------
   0 C :    0.095766
   1 C :   -0.125575
   2 N :   -0.127764
   3 N :   -0.010082
   4 C :    0.096407
   5 C :   -0.098318
   6 H :    0.020294
   7 H :    0.027189
   8 H :    0.027296
   9 H :    0.122939
  10 H :   -0.007701
  11 H :   -0.020450
Sum of atomic charges:   -0.0000000

LOEWDIN ATOMIC CHARGES
----------------------
   0 C :   -0.063743
   1 C :   -0.060500
   2 N :   -0.109966
   3 N :    0.131031
   4 C :   -0.027485
   5 C :   -0.106754
   6 H :    0.037212
   7 H :    0.036409
   8 H :    0.036430
   9 H :    0.079653
  10 H :    0.022305
  11 H :    0.025408

  Mayer bond orders larger than 0.1
B(  0-C ,  1-C ) :   1.1066 B(  0-C ,  6-H ) :   0.9416 B(  0-C ,  7-H ) :   0.9465
B(  0-C ,  8-H ) :   0.9465 B(  1-C ,  2-N ) :   1.5911 B(  1-C ,  5-C ) :   1.3096
B(  2-N ,  3-N ) :   1.1642 B(  2-N ,  4-C ) :   0.1228 B(  3-N ,  4-C ) :   1.2395
B(  3-N ,  9-H ) :   0.9492 B(  4-C ,  5-C ) :   1.4384 B(  4-C , 10-H ) :   0.9760
B(  5-C , 11-H ) :   0.9967

FINAL SINGLE POINT ENERGY      -265.004129652739

DIPOLE MOMENT
-------------
                                X             Y             Z
Electronic contribution:      3.89258       1.37659      -0.01361
Nuclear contribution   :     -3.22277      -1.69002       0.01236
                        -----------------------------------------
Total Dipole Moment    :      0.66981      -0.31343      -0.00126
                        -----------------------------------------
Magnitude (a.u.)       :      0.73951
Magnitude (Debye)      :      1.87970

                             ****ORCA TERMINATED NORMALLY****
TOTAL RUN TIME: 0 days 0 hours 0 minutes 5 seconds 157 msec
