                         Program Version 3.0.3 - RELEASE   -
|  1> ! RI PBE def2-SVP def2-SVP/J NBO PAL2
|  2> % maxcore 2000
|  3> % output
|  4>     # printlevel mini
|  5>     print[ P_Basis ] 0
|  6>     print[ P_SCFInfo ] 1
|  7>     print[ P_SCFIterInfo ] 1
|  8>     print[ P_OrbEn ] 0
|  9>     print[ P_Cartesian ] 0
| 10> end
| 11> *xyz 0 1
| 12>  C        0.9715700000     0.0637210000     0.3729470000
| 13>  C        2.3901830000     0.0812870000    -0.1487620000
| 14>  C        2.8312050000    -1.1621870000    -0.9243140000
| 15>  C        3.7722600000    -0.5322800000    -1.9093100000
| 16>  N        3.6260190000     0.7295740000    -2.0043880000
| 17>  N        2.6055450000     1.1210290000    -1.1642350000
| 18>  H        0.8413280000    -0.7289610000     1.1136340000
| 19>  H        0.2678900000    -0.1024420000    -0.4454960000
| 20>  H        0.7150960000     1.0111940000     0.8534900000
| 21>  H        3.0895040000     0.2326340000     0.6899770000
| 22>  H        1.9821290000    -1.6214780000    -1.4498630000
| 23>  H        3.2870080000    -1.9285780000    -0.2964630000
| 24>  H        4.4724430000    -1.0507160000    -2.5520440000
| 25>  H        2.7811400000     2.0509020000    -0.8112740000
| 26> *
| 27>
| 28>                          ****END OF INPUT****
 Total Charge           Charge          ....    0
 Multiplicity           Mult            ....    1
 Number of Electrons    NEL             ....   46
 Basis Dimension        Dim             ....  124

MULLIKEN ATOMIC CHARGES
-----------------------
   0 C :    0.039992
   1 C :   -0.044804
   2 C :    0.047267
   3 C :   -0.067751
   4 N :   -0.087695
   5 N :   -0.137412
   6 H :    0.026465
   7 H :    0.022692
   8 H :    0.019333
   9 H :    0.009662
  10 H :    0.021162
  11 H :    0.030060
  12 H :    0.008156
  13 H :    0.112873
Sum of atomic charges:    0.0000000

LOEWDIN ATOMIC CHARGES
----------------------
   0 C :   -0.066237
   1 C :    0.003416
   2 C :   -0.058077
   3 C :   -0.059711
   4 N :   -0.041608
   5 N :   -0.021575
   6 H :    0.030938
   7 H :    0.028303
   8 H :    0.028049
   9 H :    0.014085
  10 H :    0.034403
  11 H :    0.032977
  12 H :    0.017210
  13 H :    0.057827

  Mayer bond orders larger than 0.1
B(  0-C ,  1-C ) :   1.1007 B(  0-C ,  6-H ) :   0.9561 B(  0-C ,  7-H ) :   0.9472
B(  0-C ,  8-H ) :   0.9577 B(  1-C ,  2-C ) :   1.0650 B(  1-C ,  5-N ) :   0.9527
B(  1-C ,  9-H ) :   0.9136 B(  2-C ,  3-C ) :   1.0100 B(  2-C , 10-H ) :   0.8903
B(  2-C , 11-H ) :   0.9402 B(  3-C ,  4-N ) :   1.8807 B(  3-C ,  5-N ) :   0.1116
B(  3-C , 12-H ) :   0.9792 B(  4-N ,  5-N ) :   1.0902 B(  5-N , 13-H ) :   0.9384

FINAL SINGLE POINT ENERGY      -266.170037692815

DIPOLE MOMENT
-------------
                                X             Y             Z
Electronic contribution:      3.45670       2.12353      -3.51894
Nuclear contribution   :     -3.67135      -2.45583       4.29082
                        -----------------------------------------
Total Dipole Moment    :     -0.21465      -0.33230       0.77188
                        -----------------------------------------
Magnitude (a.u.)       :      0.86735
Magnitude (Debye)      :      2.20464

                             ****ORCA TERMINATED NORMALLY****
TOTAL RUN TIME: 0 days 0 hours 0 minutes 6 seconds 225 msec
