                         Program Version 3.0.3 - RELEASE   -
|  1> ! RI PBE def2-SVP def2-SVP/J NBO PAL2
|  2> % maxcore 2000
|  3> % output
|  4>     # printlevel mini
|  5>     print[ P_Basis ] 0
|  6>     print[ P_SCFInfo ] 1
|  7>     print[ P_SCFIterInfo ] 1
|  8>     print[ P_OrbEn ] 0
|  9>     print[ P_Cartesian ] 0
| 10> end
| 11> *xyz 0 1
| 12>  C        1.2402530000     0.4529880000     0.0764910000
| 13>  C        2.6629990000    -0.0189660000     0.1352750000
| 14>  C        3.2027990000    -0.9050550000    -0.9350860000
| 15>  N        3.6556960000     0.4555570000    -0.8041070000
| 16>  C        3.4528700000     1.4289690000    -1.7669760000
| 17>  N        3.0553980000     2.6193160000    -1.6016310000
| 18>  H        0.5937740000    -0.2706670000     0.5787590000
| 19>  H        0.8964410000     0.5663160000    -0.9528290000
| 20>  H        1.1133420000     1.4149260000     0.5792970000
| 21>  H        3.0576590000    -0.1630590000     1.1385820000
| 22>  H        2.5297770000    -1.1376110000    -1.7571180000
| 23>  H        3.9290880000    -1.6762800000    -0.6989320000
| 24>  H        3.7568310000     1.1103280000    -2.7672970000
| 25>  H        2.8255620000     2.7945470000    -0.6231380000
| 26> *
| 27>
| 28>                          ****END OF INPUT****
 Total Charge           Charge          ....    0
 Multiplicity           Mult            ....    1
 Number of Electrons    NEL             ....   46
 Basis Dimension        Dim             ....  124

MULLIKEN ATOMIC CHARGES
-----------------------
   0 C :    0.060079
   1 C :   -0.118603
   2 C :    0.086452
   3 N :   -0.199040
   4 C :    0.003973
   5 N :   -0.133304
   6 H :    0.039263
   7 H :    0.027613
   8 H :    0.033694
   9 H :    0.032925
  10 H :    0.034974
  11 H :    0.041308
  12 H :    0.011270
  13 H :    0.079396
Sum of atomic charges:    0.0000000

LOEWDIN ATOMIC CHARGES
----------------------
   0 C :   -0.065920
   1 C :    0.010004
   2 C :    0.024821
   3 N :   -0.071665
   4 C :    0.012922
   5 N :   -0.140951
   6 H :    0.040092
   7 H :    0.034622
   8 H :    0.033290
   9 H :    0.025724
  10 H :    0.019395
  11 H :    0.023452
  12 H :    0.012539
  13 H :    0.041675

  Mayer bond orders larger than 0.1
B(  0-C ,  1-C ) :   1.0996 B(  0-C ,  6-H ) :   0.9518 B(  0-C ,  7-H ) :   0.9421
B(  0-C ,  8-H ) :   0.9537 B(  1-C ,  2-C ) :   1.0252 B(  1-C ,  3-N ) :   0.9397
B(  1-C ,  9-H ) :   0.9360 B(  2-C ,  3-N ) :   0.9525 B(  2-C , 10-H ) :   0.9396
B(  2-C , 11-H ) :   0.9407 B(  3-N ,  4-C ) :   1.0931 B(  4-C ,  5-N ) :   2.0014
B(  4-C , 12-H ) :   0.9422 B(  5-N , 13-H ) :   0.9415

FINAL SINGLE POINT ENERGY      -266.151860784840

DIPOLE MOMENT
-------------
                                X             Y             Z
Electronic contribution:      3.40214       1.56278      -1.25920
Nuclear contribution   :     -3.83237      -2.62173       1.85147
                        -----------------------------------------
Total Dipole Moment    :     -0.43023      -1.05895       0.59226
                        -----------------------------------------
Magnitude (a.u.)       :      1.28734
Magnitude (Debye)      :      3.27217

                             ****ORCA TERMINATED NORMALLY****
TOTAL RUN TIME: 0 days 0 hours 0 minutes 6 seconds 160 msec
