                         Program Version 3.0.3 - RELEASE   -
|  1> ! RI PBE def2-SVP def2-SVP/J NBO PAL2
|  2> % maxcore 2000
|  3> % output
|  4>     # printlevel mini
|  5>     print[ P_Basis ] 0
|  6>     print[ P_SCFInfo ] 1
|  7>     print[ P_SCFIterInfo ] 1
|  8>     print[ P_OrbEn ] 0
|  9>     print[ P_Cartesian ] 0
| 10> end
| 11> *xyz 0 1
| 12>  C        1.0365830000     0.0129680000     0.1078800000
| 13>  C        2.5244610000    -0.0368460000     0.2820470000
| 14>  C        3.3968670000    -0.6923910000    -0.6999770000
| 15>  N        3.4399780000     0.7713330000    -0.5523850000
| 16>  N        2.7658300000     1.3932430000    -1.6314770000
| 17>  C        3.3406830000     2.4548250000    -1.9985010000
| 18>  H        0.5815520000    -0.8335650000     0.6284540000
| 19>  H        0.7528260000    -0.0276460000    -0.9420590000
| 20>  H        0.6245340000     0.9308020000     0.5355480000
| 21>  H        2.8604650000    -0.0288510000     1.3153000000
| 22>  H        2.9241150000    -1.0583910000    -1.6056220000
| 23>  H        4.3078160000    -1.1998810000    -0.4041810000
| 24>  H        2.9040500000     3.0073610000    -2.8259420000
| 25>  H        4.2479300000     2.8240400000    -1.5161050000
| 26> *
| 27>
| 28>                          ****END OF INPUT****
 Total Charge           Charge          ....    0
 Multiplicity           Mult            ....    1
 Number of Electrons    NEL             ....   46
 Basis Dimension        Dim             ....  124

MULLIKEN ATOMIC CHARGES
-----------------------
   0 C :    0.087663
   1 C :   -0.111994
   2 C :    0.084133
   3 N :   -0.229267
   4 N :   -0.102629
   5 C :    0.028028
   6 H :    0.027738
   7 H :    0.021477
   8 H :    0.025182
   9 H :    0.031455
  10 H :    0.033499
  11 H :    0.039670
  12 H :    0.043753
  13 H :    0.021293
Sum of atomic charges:   -0.0000000

LOEWDIN ATOMIC CHARGES
----------------------
   0 C :   -0.065140
   1 C :   -0.007877
   2 C :    0.005297
   3 N :   -0.080248
   4 N :   -0.035754
   5 C :   -0.001873
   6 H :    0.034756
   7 H :    0.030592
   8 H :    0.032842
   9 H :    0.025063
  10 H :    0.019418
  11 H :    0.023604
  12 H :    0.019552
  13 H :   -0.000233

  Mayer bond orders larger than 0.1
B(  0-C ,  1-C ) :   1.0914 B(  0-C ,  6-H ) :   0.9531 B(  0-C ,  7-H ) :   0.9411
B(  0-C ,  8-H ) :   0.9532 B(  1-C ,  2-C ) :   1.0573 B(  1-C ,  3-N ) :   0.9032
B(  1-C ,  9-H ) :   0.9410 B(  2-C ,  3-N ) :   0.9274 B(  2-C , 10-H ) :   0.9319
B(  2-C , 11-H ) :   0.9448 B(  3-N ,  4-N ) :   0.9609 B(  4-N ,  5-C ) :   1.9857
B(  5-C , 12-H ) :   0.9498 B(  5-C , 13-H ) :   0.9240

FINAL SINGLE POINT ENERGY      -266.113451160136

DIPOLE MOMENT
-------------
                                X             Y             Z
Electronic contribution:      2.44549       1.40614      -1.07669
Nuclear contribution   :     -2.49864      -1.49801       1.11540
                        -----------------------------------------
Total Dipole Moment    :     -0.05314      -0.09187       0.03871
                        -----------------------------------------
Magnitude (a.u.)       :      0.11297
Magnitude (Debye)      :      0.28715

                             ****ORCA TERMINATED NORMALLY****
TOTAL RUN TIME: 0 days 0 hours 0 minutes 5 seconds 882 msec
