                         Program Version 3.0.3 - RELEASE   -
|  1> ! RI PBE def2-SVP def2-SVP/J NBO PAL2
|  2> % maxcore 2000
|  3> % output
|  4>     # printlevel mini
|  5>     print[ P_Basis ] 0
|  6>     print[ P_SCFInfo ] 1
|  7>     print[ P_SCFIterInfo ] 1
|  8>     print[ P_OrbEn ] 0
|  9>     print[ P_Cartesian ] 0
| 10> end
| 11> *xyz 0 1
| 12>  C        1.0152690000     0.0045850000     0.0655030000
| 13>  C        2.5228900000     0.0041460000     0.0853940000
| 14>  C        3.2727590000     1.0351240000     0.9451920000
| 15>  N        4.2429270000    -0.0129170000     1.2970390000
| 16>  C        3.2728690000    -1.0568420000     0.9173550000
| 17>  C        3.8471570000    -2.2723710000     0.2354010000
| 18>  H        0.6247180000     0.8884960000    -0.4465910000
| 19>  H        0.6074300000     0.0000090000     1.0802800000
| 20>  H        0.6249270000    -0.8744640000    -0.4553890000
| 21>  H        2.9232070000     0.0101120000    -0.9330430000
| 22>  H        2.6520080000     1.3744300000     1.7870950000
| 23>  H        3.7002680000     1.9097350000     0.4472280000
| 24>  H        4.5485720000    -0.0249880000     2.2619560000
| 25>  H        2.6379260000    -1.3666680000     1.7637190000
| 26>  H        4.4757480000    -1.9719540000    -0.6058690000
| 27>  H        3.0499550000    -2.9238620000    -0.1346890000
| 28>  H        4.4623600000    -2.8575610000     0.9247200000
| 29> *
| 30>
| 31>                          ****END OF INPUT****
 Total Charge           Charge          ....    0
 Multiplicity           Mult            ....    1
 Number of Electrons    NEL             ....   48
 Basis Dimension        Dim             ....  139

MULLIKEN ATOMIC CHARGES
-----------------------
   0 C :    0.063384
   1 C :   -0.196199
   2 C :    0.176207
   3 N :   -0.254636
   4 C :   -0.020876
   5 C :    0.076897
   6 H :    0.022214
   7 H :    0.007482
   8 H :    0.020675
   9 H :    0.003302
  10 H :   -0.015389
  11 H :    0.004664
  12 H :    0.089900
  13 H :   -0.019841
  14 H :    0.011590
  15 H :    0.013375
  16 H :    0.017251
Sum of atomic charges:    0.0000000

LOEWDIN ATOMIC CHARGES
----------------------
   0 C :   -0.063871
   1 C :   -0.042146
   2 C :    0.029410
   3 N :   -0.108375
   4 C :    0.016350
   5 C :   -0.073597
   6 H :    0.029244
   7 H :    0.021255
   8 H :    0.028535
   9 H :    0.025539
  10 H :    0.001327
  11 H :    0.008557
  12 H :    0.044151
  13 H :    0.002288
  14 H :    0.025635
  15 H :    0.027690
  16 H :    0.028008

  Mayer bond orders larger than 0.1
B(  0-C ,  1-C ) :   1.0917 B(  0-C ,  6-H ) :   0.9576 B(  0-C ,  7-H ) :   0.9511
B(  0-C ,  8-H ) :   0.9584 B(  1-C ,  2-C ) :   1.0737 B(  1-C ,  4-C ) :   1.0295
B(  1-C ,  9-H ) :   0.8861 B(  2-C ,  3-N ) :   1.0547 B(  2-C , 10-H ) :   0.9219
B(  2-C , 11-H ) :   0.9345 B(  3-N ,  4-C ) :   1.0365 B(  3-N , 12-H ) :   0.9393
B(  4-C ,  5-C ) :   1.1089 B(  4-C , 13-H ) :   0.9055 B(  5-C , 14-H ) :   0.9404
B(  5-C , 15-H ) :   0.9496 B(  5-C , 16-H ) :   0.9524

FINAL SINGLE POINT ENERGY      -251.345887977173

DIPOLE MOMENT
-------------
                                X             Y             Z
Electronic contribution:      2.40590       1.38148       1.08174
Nuclear contribution   :     -2.74447      -1.41200      -0.82904
                        -----------------------------------------
Total Dipole Moment    :     -0.33857      -0.03052       0.25271
                        -----------------------------------------
Magnitude (a.u.)       :      0.42358
Magnitude (Debye)      :      1.07666

                             ****ORCA TERMINATED NORMALLY****
TOTAL RUN TIME: 0 days 0 hours 0 minutes 7 seconds 48 msec
