                         Program Version 3.0.3 - RELEASE   -
|  1> ! RI PBE def2-SVP def2-SVP/J NBO PAL2
|  2> % maxcore 2000
|  3> % output
|  4>     # printlevel mini
|  5>     print[ P_Basis ] 0
|  6>     print[ P_SCFInfo ] 1
|  7>     print[ P_SCFIterInfo ] 1
|  8>     print[ P_OrbEn ] 0
|  9>     print[ P_Cartesian ] 0
| 10> end
| 11> *xyz 0 1
| 12>  C        0.9832710000     0.1030750000    -0.0488500000
| 13>  C        2.4837990000     0.0962320000    -0.0385400000
| 14>  C        3.2770690000    -0.6913710000    -1.0679110000
| 15>  N        2.6940020000    -1.4677110000    -2.1195400000
| 16>  C        3.2705620000     0.7945620000    -1.1217770000
| 17>  N        4.4753920000     1.5380900000    -0.9007660000
| 18>  H        0.5719720000    -0.7543360000     0.4927320000
| 19>  H        0.5930630000     0.0612700000    -1.0684020000
| 20>  H        0.5860360000     1.0092680000     0.4166570000
| 21>  H        2.9408270000     0.1267350000     0.9474020000
| 22>  H        4.1988030000    -1.1256690000    -0.6859080000
| 23>  H        2.1658850000    -0.8981990000    -2.7643680000
| 24>  H        2.0839240000    -2.1919530000    -1.7628140000
| 25>  H        2.6560530000     1.2124600000    -1.9185380000
| 26>  H        5.1899490000     0.9601040000    -0.4799290000
| 27>  H        4.3136940000     2.3257440000    -0.2855480000
| 28> *
| 29>
| 30>                          ****END OF INPUT****
 Total Charge           Charge          ....    0
 Multiplicity           Mult            ....    1
 Number of Electrons    NEL             ....   48
 Basis Dimension        Dim             ....  134

MULLIKEN ATOMIC CHARGES
-----------------------
   0 C :    0.078827
   1 C :   -0.103444
   2 C :   -0.049416
   3 N :   -0.114762
   4 C :   -0.085823
   5 N :   -0.110838
   6 H :    0.019243
   7 H :   -0.016583
   8 H :    0.020163
   9 H :   -0.004764
  10 H :    0.008206
  11 H :    0.082331
  12 H :    0.094416
  13 H :    0.014615
  14 H :    0.077714
  15 H :    0.090116
Sum of atomic charges:   -0.0000000

LOEWDIN ATOMIC CHARGES
----------------------
   0 C :   -0.060394
   1 C :   -0.085511
   2 C :   -0.009702
   3 N :   -0.078807
   4 C :   -0.012865
   5 N :   -0.084229
   6 H :    0.026369
   7 H :    0.016653
   8 H :    0.029785
   9 H :    0.017685
  10 H :    0.015854
  11 H :    0.050073
  12 H :    0.054462
  13 H :    0.016696
  14 H :    0.050650
  15 H :    0.053281

  Mayer bond orders larger than 0.1
B(  0-C ,  1-C ) :   1.0962 B(  0-C ,  6-H ) :   0.9558 B(  0-C ,  7-H ) :   0.9425
B(  0-C ,  8-H ) :   0.9589 B(  1-C ,  2-C ) :   0.8834 B(  1-C ,  4-C ) :   0.8985
B(  1-C ,  9-H ) :   0.9252 B(  2-C ,  3-N ) :   1.1871 B(  2-C ,  4-C ) :   0.9626
B(  2-C , 10-H ) :   0.9350 B(  3-N , 11-H ) :   0.9648 B(  3-N , 12-H ) :   0.9698
B(  4-C ,  5-N ) :   1.1646 B(  4-C , 13-H ) :   0.9398 B(  5-N , 14-H ) :   0.9610
B(  5-N , 15-H ) :   0.9691

FINAL SINGLE POINT ENERGY      -267.358054325033

DIPOLE MOMENT
-------------
                                X             Y             Z
Electronic contribution:      2.63239      -0.06590      -1.13419
Nuclear contribution   :     -3.07213       0.09755       1.69096
                        -----------------------------------------
Total Dipole Moment    :     -0.43973       0.03164       0.55677
                        -----------------------------------------
Magnitude (a.u.)       :      0.71018
Magnitude (Debye)      :      1.80514

                             ****ORCA TERMINATED NORMALLY****
TOTAL RUN TIME: 0 days 0 hours 0 minutes 6 seconds 203 msec
