                         Program Version 3.0.3 - RELEASE   -
|  1> ! RI PBE def2-SVP def2-SVP/J NBO PAL2
|  2> % maxcore 2000
|  3> % output
|  4>     # printlevel mini
|  5>     print[ P_Basis ] 0
|  6>     print[ P_SCFInfo ] 1
|  7>     print[ P_SCFIterInfo ] 1
|  8>     print[ P_OrbEn ] 0
|  9>     print[ P_Cartesian ] 0
| 10> end
| 11> *xyz 0 1
| 12>  C        0.8284540000    -0.1098960000    -0.2288590000
| 13>  C        2.3204810000    -0.1045370000    -0.0297070000
| 14>  C        2.7222300000    -0.0719530000     1.4309950000
| 15>  N        4.1574770000    -0.1720340000     1.6378170000
| 16>  C        3.1587250000    -0.8659750000    -1.0119770000
| 17>  C        3.1601370000     0.6366380000    -1.0204280000
| 18>  H        0.3697410000    -0.9921230000     0.2293480000
| 19>  H        0.5732280000    -0.1146410000    -1.2907130000
| 20>  H        0.3674680000     0.7761650000     0.2200570000
| 21>  H        2.1531070000    -0.8541150000     1.9594580000
| 22>  H        2.3893260000     0.8845930000     1.8497250000
| 23>  H        4.4629350000    -1.1353280000     1.5927960000
| 24>  H        4.4110910000     0.1751580000     2.5523020000
| 25>  H        2.6467410000    -1.3872970000    -1.8124270000
| 26>  H        4.0627730000    -1.3509880000    -0.6650030000
| 27>  H        2.6566060000     1.1477770000    -1.8326750000
| 28>  H        4.0540810000     1.1184650000    -0.6442980000
| 29> *
| 30>
| 31>                          ****END OF INPUT****
 Total Charge           Charge          ....    0
 Multiplicity           Mult            ....    1
 Number of Electrons    NEL             ....   48
 Basis Dimension        Dim             ....  139

MULLIKEN ATOMIC CHARGES
-----------------------
   0 C :    0.097803
   1 C :   -0.321168
   2 C :    0.161006
   3 N :   -0.202681
   4 C :   -0.022561
   5 C :    0.006474
   6 H :    0.012394
   7 H :    0.002473
   8 H :    0.013301
   9 H :   -0.010240
  10 H :   -0.003384
  11 H :    0.090635
  12 H :    0.091232
  13 H :    0.021843
  14 H :    0.015154
  15 H :    0.020204
  16 H :    0.027514
Sum of atomic charges:    0.0000000

LOEWDIN ATOMIC CHARGES
----------------------
   0 C :   -0.044887
   1 C :   -0.075648
   2 C :    0.019443
   3 N :   -0.101359
   4 C :   -0.046887
   5 C :   -0.042029
   6 H :    0.024141
   7 H :    0.026009
   8 H :    0.025498
   9 H :    0.002069
  10 H :    0.021221
  11 H :    0.051344
  12 H :    0.055525
  13 H :    0.021599
  14 H :    0.019609
  15 H :    0.020123
  16 H :    0.024228

  Mayer bond orders larger than 0.1
B(  0-C ,  1-C ) :   1.0899 B(  0-C ,  6-H ) :   0.9535 B(  0-C ,  7-H ) :   0.9440
B(  0-C ,  8-H ) :   0.9567 B(  1-C ,  2-C ) :   1.0262 B(  1-C ,  4-C ) :   0.9947
B(  1-C ,  5-C ) :   0.9776 B(  2-C ,  3-N ) :   1.1168 B(  2-C ,  9-H ) :   0.9299
B(  2-C , 10-H ) :   0.9272 B(  3-N , 11-H ) :   0.9639 B(  3-N , 12-H ) :   0.9647
B(  4-C ,  5-C ) :   1.0194 B(  4-C , 13-H ) :   0.9474 B(  4-C , 14-H ) :   0.9355
B(  5-C , 15-H ) :   0.9492 B(  5-C , 16-H ) :   0.9312

FINAL SINGLE POINT ENERGY      -251.343202661271

DIPOLE MOMENT
-------------
                                X             Y             Z
Electronic contribution:      1.74561       0.12728       0.27829
Nuclear contribution   :     -1.82666      -0.37110       0.24097
                        -----------------------------------------
Total Dipole Moment    :     -0.08104      -0.24382       0.51926
                        -----------------------------------------
Magnitude (a.u.)       :      0.57935
Magnitude (Debye)      :      1.47259

                             ****ORCA TERMINATED NORMALLY****
TOTAL RUN TIME: 0 days 0 hours 0 minutes 6 seconds 816 msec
