                         Program Version 3.0.3 - RELEASE   -
|  1> ! RI PBE def2-SVP def2-SVP/J NBO PAL2
|  2> % maxcore 2000
|  3> % output
|  4>     # printlevel mini
|  5>     print[ P_Basis ] 0
|  6>     print[ P_SCFInfo ] 1
|  7>     print[ P_SCFIterInfo ] 1
|  8>     print[ P_OrbEn ] 0
|  9>     print[ P_Cartesian ] 0
| 10> end
| 11> *xyz 0 1
| 12>  C        0.9566690000     0.0889500000     0.5025700000
| 13>  C        2.2430400000     0.0789420000    -0.2938240000
| 14>  C        3.2879280000     1.1154320000     0.1621350000
| 15>  N        3.9331980000     0.0748220000     0.9636830000
| 16>  C        5.3628450000     0.0673270000     1.0662430000
| 17>  C        3.2767860000    -0.9650890000     0.1702970000
| 18>  H        0.3574320000     0.9743840000     0.2729830000
| 19>  H        1.1693530000     0.0920110000     1.5745910000
| 20>  H        0.3479890000    -0.7917970000     0.2798940000
| 21>  H        2.0356720000     0.0758490000    -1.3648240000
| 22>  H        2.9338710000     1.9850030000     0.7259060000
| 23>  H        3.9165670000     1.4626030000    -0.6740380000
| 24>  H        5.7028090000     0.9500400000     1.6142790000
| 25>  H        5.8643820000     0.0611900000     0.0804540000
| 26>  H        5.6929450000    -0.8154350000     1.6202100000
| 27>  H        2.9134910000    -1.8263820000     0.7408530000
| 28>  H        3.9016440000    -1.3254500000    -0.6631210000
| 29> *
| 30>
| 31>                          ****END OF INPUT****
 Total Charge           Charge          ....    0
 Multiplicity           Mult            ....    1
 Number of Electrons    NEL             ....   48
 Basis Dimension        Dim             ....  139

MULLIKEN ATOMIC CHARGES
-----------------------
   0 C :    0.045907
   1 C :   -0.270827
   2 C :    0.203884
   3 N :   -0.362679
   4 C :    0.087005
   5 C :    0.203405
   6 H :    0.023051
   7 H :    0.026011
   8 H :    0.023182
   9 H :    0.013928
  10 H :    0.004093
  11 H :   -0.017845
  12 H :    0.023680
  13 H :   -0.012862
  14 H :    0.023649
  15 H :    0.004256
  16 H :   -0.017839
Sum of atomic charges:   -0.0000000

LOEWDIN ATOMIC CHARGES
----------------------
   0 C :   -0.061394
   1 C :   -0.045645
   2 C :    0.036697
   3 N :   -0.120994
   4 C :   -0.008304
   5 C :    0.036625
   6 H :    0.027072
   7 H :    0.030289
   8 H :    0.027095
   9 H :    0.018920
  10 H :    0.008420
  11 H :    0.000329
  12 H :    0.023850
  13 H :   -0.005607
  14 H :    0.023860
  15 H :    0.008451
  16 H :    0.000337

  Mayer bond orders larger than 0.1
B(  0-C ,  1-C ) :   1.0715 B(  0-C ,  6-H ) :   0.9597 B(  0-C ,  7-H ) :   0.9545
B(  0-C ,  8-H ) :   0.9598 B(  1-C ,  2-C ) :   1.0493 B(  1-C ,  5-C ) :   1.0491
B(  1-C ,  9-H ) :   0.9330 B(  2-C ,  3-N ) :   1.0077 B(  2-C , 10-H ) :   0.9376
B(  2-C , 11-H ) :   0.9082 B(  3-N ,  4-C ) :   1.0457 B(  3-N ,  5-C ) :   1.0079
B(  4-C , 12-H ) :   0.9695 B(  4-C , 13-H ) :   0.9359 B(  4-C , 14-H ) :   0.9694
B(  5-C , 15-H ) :   0.9375 B(  5-C , 16-H ) :   0.9082

FINAL SINGLE POINT ENERGY      -251.337244394117

DIPOLE MOMENT
-------------
                                X             Y             Z
Electronic contribution:      0.29802       0.00008       0.30581
Nuclear contribution   :     -0.26707      -0.00120      -0.53986
                        -----------------------------------------
Total Dipole Moment    :      0.03095      -0.00112      -0.23405
                        -----------------------------------------
Magnitude (a.u.)       :      0.23609
Magnitude (Debye)      :      0.60010

                             ****ORCA TERMINATED NORMALLY****
TOTAL RUN TIME: 0 days 0 hours 0 minutes 7 seconds 85 msec
