                         Program Version 3.0.3 - RELEASE   -
|  1> ! RI PBE def2-SVP def2-SVP/J NBO PAL2
|  2> % maxcore 2000
|  3> % output
|  4>     # printlevel mini
|  5>     print[ P_Basis ] 0
|  6>     print[ P_SCFInfo ] 1
|  7>     print[ P_SCFIterInfo ] 1
|  8>     print[ P_OrbEn ] 0
|  9>     print[ P_Cartesian ] 0
| 10> end
| 11> *xyz 0 1
| 12>  C        1.1445480000    -0.0062190000     0.1684890000
| 13>  C        2.4586030000    -0.0531400000    -0.0413100000
| 14>  C        3.3920890000    -1.2481200000    -0.1019960000
| 15>  N        4.7311860000    -0.7177400000    -0.3598860000
| 16>  C        4.5917010000     0.5426890000    -0.4330900000
| 17>  N        3.3133360000     1.0190440000    -0.2616760000
| 18>  H        0.5863260000    -0.9181410000     0.3285070000
| 19>  H        0.5980810000     0.9285150000     0.1861280000
| 20>  H        3.1078050000    -1.9447810000    -0.8963090000
| 21>  H        3.3890650000    -1.8129640000     0.8350410000
| 22>  H        5.4049090000     1.2369940000    -0.6179970000
| 23>  H        3.0376510000     1.9832510000    -0.2902020000
| 24> *
| 25>
| 26>                          ****END OF INPUT****
 Total Charge           Charge          ....    0
 Multiplicity           Mult            ....    1
 Number of Electrons    NEL             ....   44
 Basis Dimension        Dim             ....  114

MULLIKEN ATOMIC CHARGES
-----------------------
   0 C :   -0.082345
   1 C :   -0.077887
   2 C :    0.153749
   3 N :   -0.222984
   4 C :    0.108179
   5 N :   -0.107074
   6 H :    0.007622
   7 H :   -0.000454
   8 H :    0.049915
   9 H :    0.047241
  10 H :    0.015494
  11 H :    0.108543
Sum of atomic charges:   -0.0000000

LOEWDIN ATOMIC CHARGES
----------------------
   0 C :   -0.151745
   1 C :   -0.003233
   2 C :    0.012165
   3 N :   -0.142975
   4 C :    0.026920
   5 N :    0.027678
   6 H :    0.027281
   7 H :    0.019697
   8 H :    0.043109
   9 H :    0.042683
  10 H :    0.018630
  11 H :    0.079790

  Mayer bond orders larger than 0.1
B(  0-C ,  1-C ) :   1.8996 B(  0-C ,  6-H ) :   0.9271 B(  0-C ,  7-H ) :   0.9293
B(  1-C ,  2-C ) :   0.9897 B(  1-C ,  5-N ) :   1.1281 B(  2-C ,  3-N ) :   1.0910
B(  2-C ,  8-H ) :   0.9152 B(  2-C ,  9-H ) :   0.9149 B(  3-N ,  4-C ) :   1.8641
B(  3-N ,  5-N ) :   0.1049 B(  4-C ,  5-N ) :   1.1120 B(  4-C , 10-H ) :   0.9610
B(  5-N , 11-H ) :   0.9365

FINAL SINGLE POINT ENERGY      -264.985392511590

DIPOLE MOMENT
-------------
                                X             Y             Z
Electronic contribution:      2.88102       0.97126      -0.54156
Nuclear contribution   :     -3.24539      -0.11528       0.53596
                        -----------------------------------------
Total Dipole Moment    :     -0.36437       0.85598      -0.00560
                        -----------------------------------------
Magnitude (a.u.)       :      0.93032
Magnitude (Debye)      :      2.36469

                             ****ORCA TERMINATED NORMALLY****
TOTAL RUN TIME: 0 days 0 hours 0 minutes 5 seconds 545 msec
