                         Program Version 3.0.3 - RELEASE   -
|  1> ! RI PBE def2-SVP def2-SVP/J NBO PAL2
|  2> % maxcore 2000
|  3> % output
|  4>     # printlevel mini
|  5>     print[ P_Basis ] 0
|  6>     print[ P_SCFInfo ] 1
|  7>     print[ P_SCFIterInfo ] 1
|  8>     print[ P_OrbEn ] 0
|  9>     print[ P_Cartesian ] 0
| 10> end
| 11> *xyz 0 1
| 12>  C        1.1479740000     0.4967160000    -0.2197590000
| 13>  C        2.3946170000    -0.3309530000    -0.0729050000
| 14>  C        2.8909670000    -0.5247180000     1.3381570000
| 15>  N        3.3022690000     0.7542710000     1.8939200000
| 16>  C        2.6974970000    -1.3620010000    -1.0825650000
| 17>  N        3.4876210000    -0.1298190000    -1.0291920000
| 18>  H        0.3010710000     0.0159810000     0.2779890000
| 19>  H        0.8862740000     0.6291570000    -1.2729130000
| 20>  H        1.2897210000     1.4784890000     0.2367540000
| 21>  H        3.6924210000    -1.2774570000     1.3184310000
| 22>  H        2.0788340000    -0.9276690000     1.9529070000
| 23>  H        4.1009130000     1.0951260000     1.3705420000
| 24>  H        3.5966990000     0.6504490000     2.8562470000
| 25>  H        1.9929020000    -1.4899890000    -1.8987980000
| 26>  H        3.2346710000    -2.2622120000    -0.8010150000
| 27>  H        3.1923580000     0.5022180000    -1.7660000000
| 28> *
| 29>
| 30>                          ****END OF INPUT****
 Total Charge           Charge          ....    0
 Multiplicity           Mult            ....    1
 Number of Electrons    NEL             ....   48
 Basis Dimension        Dim             ....  134

MULLIKEN ATOMIC CHARGES
-----------------------
   0 C :    0.136491
   1 C :   -0.354947
   2 C :    0.210738
   3 N :   -0.213687
   4 C :    0.074040
   5 N :   -0.189339
   6 H :    0.014348
   7 H :   -0.005862
   8 H :    0.026760
   9 H :   -0.021350
  10 H :    0.000808
  11 H :    0.090922
  12 H :    0.087599
  13 H :    0.021163
  14 H :    0.021078
  15 H :    0.101238
Sum of atomic charges:   -0.0000000

LOEWDIN ATOMIC CHARGES
----------------------
   0 C :   -0.056292
   1 C :   -0.041794
   2 C :    0.014925
   3 N :   -0.107987
   4 C :    0.003533
   5 N :   -0.107749
   6 H :    0.031765
   7 H :    0.021614
   8 H :    0.031250
   9 H :    0.004166
  10 H :    0.020757
  11 H :    0.052119
  12 H :    0.052208
  13 H :    0.013685
  14 H :    0.016776
  15 H :    0.051023

  Mayer bond orders larger than 0.1
B(  0-C ,  1-C ) :   1.0796 B(  0-C ,  6-H ) :   0.9461 B(  0-C ,  7-H ) :   0.9335
B(  0-C ,  8-H ) :   0.9417 B(  1-C ,  2-C ) :   1.0426 B(  1-C ,  4-C ) :   1.0453
B(  1-C ,  5-N ) :   0.9510 B(  2-C ,  3-N ) :   1.0953 B(  2-C ,  9-H ) :   0.8992
B(  2-C , 10-H ) :   0.9226 B(  3-N , 11-H ) :   0.9626 B(  3-N , 12-H ) :   0.9633
B(  4-C ,  5-N ) :   1.0082 B(  4-C , 13-H ) :   0.9405 B(  4-C , 14-H ) :   0.9243
B(  5-N , 15-H ) :   0.9437

FINAL SINGLE POINT ENERGY      -267.358160117358

DIPOLE MOMENT
-------------
                                X             Y             Z
Electronic contribution:      1.93496      -0.14004      -0.62512
Nuclear contribution   :     -2.11112      -0.00991       0.61614
                        -----------------------------------------
Total Dipole Moment    :     -0.17616      -0.14995      -0.00898
                        -----------------------------------------
Magnitude (a.u.)       :      0.23151
Magnitude (Debye)      :      0.58845

                             ****ORCA TERMINATED NORMALLY****
TOTAL RUN TIME: 0 days 0 hours 0 minutes 6 seconds 687 msec
