                         Program Version 3.0.3 - RELEASE   -
|  1> ! RI PBE def2-SVP def2-SVP/J NBO PAL2
|  2> % maxcore 2000
|  3> % output
|  4>     # printlevel mini
|  5>     print[ P_Basis ] 0
|  6>     print[ P_SCFInfo ] 1
|  7>     print[ P_SCFIterInfo ] 1
|  8>     print[ P_OrbEn ] 0
|  9>     print[ P_Cartesian ] 0
| 10> end
| 11> *xyz 0 1
| 12>  C        0.9731580000    -0.0111540000     0.0119990000
| 13>  C        2.4894530000    -0.0767190000    -0.0520430000
| 14>  C        3.0110810000    -1.2733760000    -0.8795450000
| 15>  N        3.3450420000    -0.7442420000    -2.2023390000
| 16>  C        3.3399490000     0.5198600000    -2.0742320000
| 17>  N        3.0615510000     1.0292050000    -0.8246290000
| 18>  H        0.5778880000    -0.8563970000     0.5811590000
| 19>  H        0.5449890000    -0.0474670000    -0.9934360000
| 20>  H        0.6328710000     0.9062660000     0.5007360000
| 21>  H        2.9039220000    -0.0791650000     0.9593000000
| 22>  H        2.2716240000    -2.0749350000    -0.9589030000
| 23>  H        3.9139370000    -1.7042660000    -0.4328690000
| 24>  H        3.5810410000     1.2011600000    -2.8856610000
| 25>  H        2.6215040000     1.9346190000    -0.7637270000
| 26> *
| 27>
| 28>                          ****END OF INPUT****
 Total Charge           Charge          ....    0
 Multiplicity           Mult            ....    1
 Number of Electrons    NEL             ....   46
 Basis Dimension        Dim             ....  124

MULLIKEN ATOMIC CHARGES
-----------------------
   0 C :    0.029923
   1 C :   -0.089116
   2 C :    0.140318
   3 N :   -0.234193
   4 C :    0.090021
   5 N :   -0.170012
   6 H :    0.027256
   7 H :    0.026877
   8 H :    0.019540
   9 H :    0.010658
  10 H :    0.011074
  11 H :    0.019470
  12 H :    0.010317
  13 H :    0.107867
Sum of atomic charges:   -0.0000000

LOEWDIN ATOMIC CHARGES
----------------------
   0 C :   -0.070662
   1 C :   -0.000494
   2 C :    0.009355
   3 N :   -0.155197
   4 C :    0.015382
   5 N :   -0.031961
   6 H :    0.032002
   7 H :    0.029661
   8 H :    0.024334
   9 H :    0.020142
  10 H :    0.022419
  11 H :    0.025229
  12 H :    0.015216
  13 H :    0.064574

  Mayer bond orders larger than 0.1
B(  0-C ,  1-C ) :   1.0738 B(  0-C ,  6-H ) :   0.9538 B(  0-C ,  7-H ) :   0.9560
B(  0-C ,  8-H ) :   0.9578 B(  1-C ,  2-C ) :   1.0404 B(  1-C ,  5-N ) :   1.0267
B(  1-C ,  9-H ) :   0.9202 B(  2-C ,  3-N ) :   1.0693 B(  2-C , 10-H ) :   0.9386
B(  2-C , 11-H ) :   0.9226 B(  3-N ,  4-C ) :   1.8508 B(  3-N ,  5-N ) :   0.1220
B(  4-C ,  5-N ) :   1.1424 B(  4-C , 12-H ) :   0.9604 B(  5-N , 13-H ) :   0.9363

FINAL SINGLE POINT ENERGY      -266.195273651986

DIPOLE MOMENT
-------------
                                X             Y             Z
Electronic contribution:      3.52207       0.79315      -2.88184
Nuclear contribution   :     -4.05648      -0.06289       3.59785
                        -----------------------------------------
Total Dipole Moment    :     -0.53441       0.73026       0.71601
                        -----------------------------------------
Magnitude (a.u.)       :      1.15392
Magnitude (Debye)      :      2.93303

                             ****ORCA TERMINATED NORMALLY****
TOTAL RUN TIME: 0 days 0 hours 0 minutes 5 seconds 831 msec
