                         Program Version 3.0.3 - RELEASE   -
|  1> ! RI PBE def2-SVP def2-SVP/J NBO PAL2
|  2> % maxcore 2000
|  3> % output
|  4>     # printlevel mini
|  5>     print[ P_Basis ] 0
|  6>     print[ P_SCFInfo ] 1
|  7>     print[ P_SCFIterInfo ] 1
|  8>     print[ P_OrbEn ] 0
|  9>     print[ P_Cartesian ] 0
| 10> end
| 11> *xyz 0 1
| 12>  C        0.9243820000    -0.0964310000     0.0423870000
| 13>  C        2.4056590000    -0.0353600000     0.0461380000
| 14>  C        3.2865870000     1.0107040000     0.0476480000
| 15>  N        4.5819110000     0.5667960000     0.0512910000
| 16>  C        4.4980740000    -0.7347500000     0.0519830000
| 17>  N        3.2052810000    -1.1509550000     0.0489790000
| 18>  H        0.5163000000     0.9143440000     0.0406420000
| 19>  H        0.5323590000    -0.6105240000     0.9255790000
| 20>  H        0.5368860000    -0.6117490000    -0.8420870000
| 21>  H        3.0501090000     2.0643330000     0.0462960000
| 22>  H        5.3284740000    -1.4254870000     0.0545960000
| 23>  H        2.8879590000    -2.1045110000     0.0488480000
| 24> *
| 25>
| 26>                          ****END OF INPUT****
 Total Charge           Charge          ....    0
 Multiplicity           Mult            ....    1
 Number of Electrons    NEL             ....   44
 Basis Dimension        Dim             ....  114

MULLIKEN ATOMIC CHARGES
-----------------------
   0 C :    0.089241
   1 C :   -0.092492
   2 C :   -0.048845
   3 N :   -0.139565
   4 C :    0.070407
   5 N :   -0.061592
   6 H :    0.026134
   7 H :    0.032470
   8 H :    0.032435
   9 H :   -0.020937
  10 H :    0.005606
  11 H :    0.107138
Sum of atomic charges:   -0.0000000

LOEWDIN ATOMIC CHARGES
----------------------
   0 C :   -0.064428
   1 C :   -0.056594
   2 C :   -0.066374
   3 N :   -0.110287
   4 C :   -0.016641
   5 N :    0.087421
   6 H :    0.045201
   7 H :    0.036014
   8 H :    0.036009
   9 H :    0.015075
  10 H :    0.013191
  11 H :    0.081412

  Mayer bond orders larger than 0.1
B(  0-C ,  1-C ) :   1.1061 B(  0-C ,  6-H ) :   0.9414 B(  0-C ,  7-H ) :   0.9413
B(  0-C ,  8-H ) :   0.9413 B(  1-C ,  2-C ) :   1.5033 B(  1-C ,  4-C ) :   0.1006
B(  1-C ,  5-N ) :   1.2102 B(  2-C ,  3-N ) :   1.4032 B(  2-C ,  9-H ) :   0.9974
B(  3-N ,  4-C ) :   1.6510 B(  4-C ,  5-N ) :   1.2079 B(  4-C , 10-H ) :   0.9702
B(  5-N , 11-H ) :   0.9372

FINAL SINGLE POINT ENERGY      -265.019223055835

DIPOLE MOMENT
-------------
                                X             Y             Z
Electronic contribution:      4.42813      -0.05266       0.01139
Nuclear contribution   :     -5.45252      -1.10123      -0.01319
                        -----------------------------------------
Total Dipole Moment    :     -1.02440      -1.15390      -0.00180
                        -----------------------------------------
Magnitude (a.u.)       :      1.54300
Magnitude (Debye)      :      3.92201

                             ****ORCA TERMINATED NORMALLY****
TOTAL RUN TIME: 0 days 0 hours 0 minutes 5 seconds 889 msec
