                         Program Version 3.0.3 - RELEASE   -
|  1> ! RI PBE def2-SVP def2-SVP/J NBO PAL2
|  2> % maxcore 2000
|  3> % output
|  4>     # printlevel mini
|  5>     print[ P_Basis ] 0
|  6>     print[ P_SCFInfo ] 1
|  7>     print[ P_SCFIterInfo ] 1
|  8>     print[ P_OrbEn ] 0
|  9>     print[ P_Cartesian ] 0
| 10> end
| 11> *xyz 0 1
| 12>  C        0.9672840000    -0.0286720000     0.0542280000
| 13>  C        2.3003320000    -0.0286700000     0.0524970000
| 14>  C        3.2314240000     1.0938260000     0.0505750000
| 15>  N        4.4463800000     0.6868340000     0.0491750000
| 16>  N        4.4463830000    -0.7441680000     0.0501230000
| 17>  C        3.2314290000    -1.1511640000     0.0520620000
| 18>  H        0.4015510000     0.8966230000     0.0543610000
| 19>  H        0.4015550000    -0.9539690000     0.0555870000
| 20>  H        2.9827710000     2.1479390000     0.0502090000
| 21>  H        2.9827810000    -2.2052780000     0.0530930000
| 22> *
| 23>
| 24>                          ****END OF INPUT****
 Total Charge           Charge          ....    0
 Multiplicity           Mult            ....    1
 Number of Electrons    NEL             ....   42
 Basis Dimension        Dim             ....  104

MULLIKEN ATOMIC CHARGES
-----------------------
   0 C :    0.027297
   1 C :   -0.100629
   2 C :    0.062304
   3 N :   -0.088556
   4 N :   -0.088557
   5 C :    0.062304
   6 H :    0.049841
   7 H :    0.049841
   8 H :    0.013077
   9 H :    0.013077
Sum of atomic charges:   -0.0000000

LOEWDIN ATOMIC CHARGES
----------------------
   0 C :    0.056257
   1 C :   -0.073552
   2 C :   -0.015213
   3 N :   -0.043532
   4 N :   -0.043532
   5 C :   -0.015213
   6 H :    0.040440
   7 H :    0.040440
   8 H :    0.026954
   9 H :    0.026954

  Mayer bond orders larger than 0.1
B(  0-C ,  1-C ) :   1.8309 B(  0-C ,  6-H ) :   0.9343 B(  0-C ,  7-H ) :   0.9343
B(  1-C ,  2-C ) :   1.0228 B(  1-C ,  5-C ) :   1.0228 B(  2-C ,  3-N ) :   1.8357
B(  2-C ,  8-H ) :   0.9832 B(  3-N ,  4-N ) :   1.0166 B(  4-N ,  5-C ) :   1.8357
B(  5-C ,  9-H ) :   0.9832

FINAL SINGLE POINT ENERGY      -263.735082875337

DIPOLE MOMENT
-------------
                                X             Y             Z
Electronic contribution:      3.29862       0.00001      -0.00433
Nuclear contribution   :     -5.26730      -0.00001       0.00698
                        -----------------------------------------
Total Dipole Moment    :     -1.96868      -0.00000       0.00264
                        -----------------------------------------
Magnitude (a.u.)       :      1.96868
Magnitude (Debye)      :      5.00400

                             ****ORCA TERMINATED NORMALLY****
TOTAL RUN TIME: 0 days 0 hours 0 minutes 4 seconds 925 msec
