                         Program Version 3.0.3 - RELEASE   -
|  1> ! RI PBE def2-SVP def2-SVP/J NBO PAL2
|  2> % maxcore 2000
|  3> % output
|  4>     # printlevel mini
|  5>     print[ P_Basis ] 0
|  6>     print[ P_SCFInfo ] 1
|  7>     print[ P_SCFIterInfo ] 1
|  8>     print[ P_OrbEn ] 0
|  9>     print[ P_Cartesian ] 0
| 10> end
| 11> *xyz 0 1
| 12>  C        1.0475390000     0.0051480000    -0.0957230000
| 13>  C        2.3632410000    -0.0103270000     0.1250980000
| 14>  C        3.2784900000    -1.2141420000     0.1963800000
| 15>  N        4.5530380000    -0.5792630000     0.4551130000
| 16>  N        4.4796040000     0.7490450000     0.5344400000
| 17>  C        3.2548080000     1.1140890000     0.3530650000
| 18>  H        0.4795410000    -0.9036230000    -0.2542200000
| 19>  H        0.5025580000     0.9409380000    -0.1230650000
| 20>  H        3.2874220000    -1.7786840000    -0.7427720000
| 21>  H        2.9930790000    -1.8991290000     1.0026850000
| 22>  H        5.4397490000    -1.0259320000     0.5739740000
| 23>  H        2.9833520000     2.1591810000     0.3794150000
| 24> *
| 25>
| 26>                          ****END OF INPUT****
 Total Charge           Charge          ....    0
 Multiplicity           Mult            ....    1
 Number of Electrons    NEL             ....   44
 Basis Dimension        Dim             ....  114

MULLIKEN ATOMIC CHARGES
-----------------------
   0 C :   -0.054377
   1 C :   -0.207992
   2 C :    0.252796
   3 N :   -0.171338
   4 N :   -0.052548
   5 C :    0.015328
   6 H :    0.007083
   7 H :    0.014495
   8 H :    0.041141
   9 H :    0.043704
  10 H :    0.119601
  11 H :   -0.007891
Sum of atomic charges:   -0.0000000

LOEWDIN ATOMIC CHARGES
----------------------
   0 C :   -0.087703
   1 C :   -0.060011
   2 C :    0.025691
   3 N :    0.018184
   4 N :   -0.022959
   5 C :   -0.078455
   6 H :    0.021237
   7 H :    0.025656
   8 H :    0.036402
   9 H :    0.036759
  10 H :    0.064875
  11 H :    0.020324

  Mayer bond orders larger than 0.1
B(  0-C ,  1-C ) :   1.8931 B(  0-C ,  6-H ) :   0.9342 B(  0-C ,  7-H ) :   0.9353
B(  1-C ,  2-C ) :   1.0057 B(  1-C ,  5-C ) :   1.0890 B(  2-C ,  3-N ) :   0.9475
B(  2-C ,  8-H ) :   0.9176 B(  2-C ,  9-H ) :   0.9178 B(  3-N ,  4-N ) :   1.1752
B(  3-N ,  5-C ) :   0.1246 B(  3-N , 10-H ) :   0.9529 B(  4-N ,  5-C ) :   1.7266
B(  5-C , 11-H ) :   0.9888

FINAL SINGLE POINT ENERGY      -264.953955467161

DIPOLE MOMENT
-------------
                                X             Y             Z
Electronic contribution:      3.24840       1.40873       0.64573
Nuclear contribution   :     -3.21594      -2.25424      -0.69780
                        -----------------------------------------
Total Dipole Moment    :      0.03246      -0.84551      -0.05207
                        -----------------------------------------
Magnitude (a.u.)       :      0.84773
Magnitude (Debye)      :      2.15476

                             ****ORCA TERMINATED NORMALLY****
TOTAL RUN TIME: 0 days 0 hours 0 minutes 5 seconds 905 msec
