                         Program Version 3.0.3 - RELEASE   -
|  1> ! RI PBE def2-SVP def2-SVP/J NBO PAL2
|  2> % maxcore 2000
|  3> % output
|  4>     # printlevel mini
|  5>     print[ P_Basis ] 0
|  6>     print[ P_SCFInfo ] 1
|  7>     print[ P_SCFIterInfo ] 1
|  8>     print[ P_OrbEn ] 0
|  9>     print[ P_Cartesian ] 0
| 10> end
| 11> *xyz 0 1
| 12>  C        0.9443130000    -0.0259040000     0.1633950000
| 13>  C        2.4710630000    -0.0254360000     0.1272520000
| 14>  C        3.1033960000     1.0887020000    -0.6328410000
| 15>  N        3.8851760000     0.6856030000    -1.5569100000
| 16>  N        3.8857010000    -0.7435380000    -1.5534710000
| 17>  C        3.1042040000    -1.1427560000    -0.6274790000
| 18>  H        0.5708240000     0.8579650000     0.6832920000
| 19>  H        0.5714650000    -0.9075390000     0.6875300000
| 20>  H        0.5342230000    -0.0284810000    -0.8478150000
| 21>  H        2.8574100000    -0.0228180000     1.1575400000
| 22>  H        2.9494680000     2.1472350000    -0.4527270000
| 23>  H        2.9510460000    -2.2005230000    -0.4422760000
| 24> *
| 25>
| 26>                          ****END OF INPUT****
 Total Charge           Charge          ....    0
 Multiplicity           Mult            ....    1
 Number of Electrons    NEL             ....   44
 Basis Dimension        Dim             ....  114

MULLIKEN ATOMIC CHARGES
-----------------------
   0 C :    0.021400
   1 C :   -0.155910
   2 C :    0.038056
   3 N :   -0.094137
   4 N :   -0.094180
   5 C :    0.038180
   6 H :    0.039992
   7 H :    0.040027
   8 H :    0.045592
   9 H :    0.072086
  10 H :    0.024473
  11 H :    0.024421
Sum of atomic charges:   -0.0000000

LOEWDIN ATOMIC CHARGES
----------------------
   0 C :   -0.036134
   1 C :   -0.086053
   2 C :   -0.001688
   3 N :   -0.050705
   4 N :   -0.050713
   5 C :   -0.001663
   6 H :    0.034905
   7 H :    0.034909
   8 H :    0.037029
   9 H :    0.069067
  10 H :    0.025525
  11 H :    0.025520

  Mayer bond orders larger than 0.1
B(  0-C ,  1-C ) :   1.0407 B(  0-C ,  6-H ) :   0.9636 B(  0-C ,  7-H ) :   0.9636
B(  0-C ,  8-H ) :   0.9664 B(  1-C ,  2-C ) :   0.9924 B(  1-C ,  5-C ) :   0.9924
B(  1-C ,  9-H ) :   0.8648 B(  2-C ,  3-N ) :   1.8942 B(  2-C , 10-H ) :   0.9738
B(  3-N ,  4-N ) :   1.0181 B(  4-N ,  5-C ) :   1.8941 B(  5-C , 11-H ) :   0.9738

FINAL SINGLE POINT ENERGY      -264.951111532661

DIPOLE MOMENT
-------------
                                X             Y             Z
Electronic contribution:      5.11992      -0.00576      -3.13314
Nuclear contribution   :     -6.30692       0.00843       4.45824
                        -----------------------------------------
Total Dipole Moment    :     -1.18700       0.00267       1.32510
                        -----------------------------------------
Magnitude (a.u.)       :      1.77901
Magnitude (Debye)      :      4.52188

                             ****ORCA TERMINATED NORMALLY****
TOTAL RUN TIME: 0 days 0 hours 0 minutes 5 seconds 247 msec
