                         Program Version 3.0.3 - RELEASE   -
|  1> ! RI PBE def2-SVP def2-SVP/J NBO PAL2
|  2> % maxcore 2000
|  3> % output
|  4>     # printlevel mini
|  5>     print[ P_Basis ] 0
|  6>     print[ P_SCFInfo ] 1
|  7>     print[ P_SCFIterInfo ] 1
|  8>     print[ P_OrbEn ] 0
|  9>     print[ P_Cartesian ] 0
| 10> end
| 11> *xyz 0 1
| 12>  C        0.9429480000    -0.0671530000    -0.3252450000
| 13>  C        2.4025450000    -0.0887390000     0.0884960000
| 14>  C        2.8679500000    -1.3738150000     0.7770290000
| 15>  N        3.9147630000    -0.8749090000     1.6695440000
| 16>  N        3.6132200000     0.4272650000     2.0129940000
| 17>  C        2.7975180000     0.8972240000     1.1558800000
| 18>  H        0.7335070000    -0.8341160000    -1.0749300000
| 19>  H        0.6705860000     0.8985610000    -0.7576910000
| 20>  H        0.2920300000    -0.2471190000     0.5340710000
| 21>  H        3.0282240000     0.1005860000    -0.7967160000
| 22>  H        3.2600200000    -2.1224680000     0.0878040000
| 23>  H        2.0306170000    -1.8136310000     1.3413540000
| 24>  H        4.0899790000    -1.4223760000     2.4992000000
| 25>  H        2.4966930000     1.9372810000     1.1989110000
| 26> *
| 27>
| 28>                          ****END OF INPUT****
 Total Charge           Charge          ....    0
 Multiplicity           Mult            ....    1
 Number of Electrons    NEL             ....   46
 Basis Dimension        Dim             ....  124

MULLIKEN ATOMIC CHARGES
-----------------------
   0 C :    0.021157
   1 C :   -0.172627
   2 C :    0.172101
   3 N :   -0.150281
   4 N :   -0.089729
   5 C :   -0.027725
   6 H :    0.028192
   7 H :    0.026198
   8 H :    0.022824
   9 H :    0.031771
  10 H :    0.017395
  11 H :    0.002168
  12 H :    0.115298
  13 H :    0.003259
Sum of atomic charges:   -0.0000000

LOEWDIN ATOMIC CHARGES
----------------------
   0 C :   -0.058073
   1 C :   -0.067375
   2 C :    0.016201
   3 N :   -0.021584
   4 N :   -0.040659
   5 C :   -0.059122
   6 H :    0.028814
   7 H :    0.030553
   8 H :    0.025607
   9 H :    0.036583
  10 H :    0.023524
  11 H :    0.010447
  12 H :    0.057831
  13 H :    0.017253

  Mayer bond orders larger than 0.1
B(  0-C ,  1-C ) :   1.0900 B(  0-C ,  6-H ) :   0.9628 B(  0-C ,  7-H ) :   0.9609
B(  0-C ,  8-H ) :   0.9583 B(  1-C ,  2-C ) :   1.0667 B(  1-C ,  5-C ) :   0.9874
B(  1-C ,  9-H ) :   0.8748 B(  2-C ,  3-N ) :   0.9907 B(  2-C , 10-H ) :   0.9317
B(  2-C , 11-H ) :   0.9314 B(  3-N ,  4-N ) :   1.0935 B(  3-N ,  5-C ) :   0.1052
B(  3-N , 12-H ) :   0.9407 B(  4-N ,  5-C ) :   1.8901 B(  5-C , 13-H ) :   0.9810

FINAL SINGLE POINT ENERGY      -266.167354277744

DIPOLE MOMENT
-------------
                                X             Y             Z
Electronic contribution:      4.42790       1.19405       3.45036
Nuclear contribution   :     -4.97070      -1.73461      -3.83743
                        -----------------------------------------
Total Dipole Moment    :     -0.54280      -0.54056      -0.38708
                        -----------------------------------------
Magnitude (a.u.)       :      0.85829
Magnitude (Debye)      :      2.18160

                             ****ORCA TERMINATED NORMALLY****
TOTAL RUN TIME: 0 days 0 hours 0 minutes 6 seconds 418 msec
