                         Program Version 3.0.3 - RELEASE   -
|  1> ! RI PBE def2-SVP def2-SVP/J NBO PAL2
|  2> % maxcore 2000
|  3> % output
|  4>     # printlevel mini
|  5>     print[ P_Basis ] 0
|  6>     print[ P_SCFInfo ] 1
|  7>     print[ P_SCFIterInfo ] 1
|  8>     print[ P_OrbEn ] 0
|  9>     print[ P_Cartesian ] 0
| 10> end
| 11> *xyz 0 1
| 12>  C        0.8923160000    -0.0471180000    -0.0588490000
| 13>  C        2.3818710000    -0.0422190000    -0.0551540000
| 14>  C        3.2267060000     1.0438730000    -0.0523170000
| 15>  N        4.4854610000     0.5571930000    -0.0495290000
| 16>  N        4.5318840000    -0.7717670000    -0.0503210000
| 17>  C        3.2622560000    -1.1442110000    -0.0537250000
| 18>  H        0.4958870000     0.9696000000    -0.0591610000
| 19>  H        0.4905680000    -0.5580680000     0.8201880000
| 20>  H        0.4949320000    -0.5569070000    -0.9405410000
| 21>  H        3.0236770000     2.1036970000    -0.0520960000
| 22>  H        5.3441440000     1.0776180000    -0.0470470000
| 23>  H        3.0157100000    -2.1964830000    -0.0550560000
| 24> *
| 25>
| 26>                          ****END OF INPUT****
 Total Charge           Charge          ....    0
 Multiplicity           Mult            ....    1
 Number of Electrons    NEL             ....   44
 Basis Dimension        Dim             ....  114

MULLIKEN ATOMIC CHARGES
-----------------------
   0 C :    0.084499
   1 C :   -0.175537
   2 C :    0.047625
   3 N :   -0.018535
   4 N :   -0.119006
   5 C :    0.003793
   6 H :    0.009549
   7 H :    0.032971
   8 H :    0.032903
   9 H :   -0.008249
  10 H :    0.124142
  11 H :   -0.014155
Sum of atomic charges:   -0.0000000

LOEWDIN ATOMIC CHARGES
----------------------
   0 C :   -0.056146
   1 C :   -0.102626
   2 C :   -0.040182
   3 N :    0.131616
   4 N :   -0.097546
   5 C :   -0.060010
   6 H :    0.032228
   7 H :    0.037282
   8 H :    0.037271
   9 H :    0.021265
  10 H :    0.079885
  11 H :    0.016961

  Mayer bond orders larger than 0.1
B(  0-C ,  1-C ) :   1.1013 B(  0-C ,  6-H ) :   0.9508 B(  0-C ,  7-H ) :   0.9491
B(  0-C ,  8-H ) :   0.9491 B(  1-C ,  2-C ) :   1.4513 B(  1-C ,  5-C ) :   1.3276
B(  2-C ,  3-N ) :   1.2216 B(  2-C ,  4-N ) :   0.1314 B(  2-C ,  9-H ) :   0.9831
B(  3-N ,  4-N ) :   1.1915 B(  3-N , 10-H ) :   0.9480 B(  4-N ,  5-C ) :   1.5832
B(  5-C , 11-H ) :   0.9980

FINAL SINGLE POINT ENERGY      -265.001331368058

DIPOLE MOMENT
-------------
                                X             Y             Z
Electronic contribution:      5.29595      -0.24642       0.01299
Nuclear contribution   :     -5.50310       1.09120      -0.01290
                        -----------------------------------------
Total Dipole Moment    :     -0.20716       0.84479       0.00009
                        -----------------------------------------
Magnitude (a.u.)       :      0.86982
Magnitude (Debye)      :      2.21090

                             ****ORCA TERMINATED NORMALLY****
TOTAL RUN TIME: 0 days 0 hours 0 minutes 5 seconds 171 msec
