                         Program Version 3.0.3 - RELEASE   -
|  1> ! RI PBE def2-SVP def2-SVP/J NBO PAL2
|  2> % maxcore 2000
|  3> % output
|  4>     # printlevel mini
|  5>     print[ P_Basis ] 0
|  6>     print[ P_SCFInfo ] 1
|  7>     print[ P_SCFIterInfo ] 1
|  8>     print[ P_OrbEn ] 0
|  9>     print[ P_Cartesian ] 0
| 10> end
| 11> *xyz 0 1
| 12>  C        0.9761340000     0.0741410000    -0.1647920000
| 13>  C        2.4740340000     0.1404580000    -0.1315330000
| 14>  N        3.2870010000    -0.5857480000    -1.1126340000
| 15>  C        3.3064220000     0.8835660000    -1.1066450000
| 16>  C        2.6873070000     1.6244400000    -2.2606740000
| 17>  C        4.6090920000     1.4714030000    -0.6327880000
| 18>  H        0.6288240000    -0.8738560000     0.2559850000
| 19>  H        0.5781900000     0.1497430000    -1.1783180000
| 20>  H        0.5358340000     0.8794130000     0.4299640000
| 21>  H        2.8846090000     0.0658120000     0.8743740000
| 22>  H        2.6836610000    -0.9133910000    -1.8624750000
| 23>  H        1.7432690000     1.1847960000    -2.5851020000
| 24>  H        3.3684030000     1.6199860000    -3.1172550000
| 25>  H        2.4984490000     2.6691880000    -1.9973800000
| 26>  H        5.0308690000     0.8684750000     0.1724360000
| 27>  H        4.4686870000     2.4933090000    -0.2683660000
| 28>  H        5.3378160000     1.5002640000    -1.4484170000
| 29> *
| 30>
| 31>                          ****END OF INPUT****
 Total Charge           Charge          ....    0
 Multiplicity           Mult            ....    1
 Number of Electrons    NEL             ....   48
 Basis Dimension        Dim             ....  139

MULLIKEN ATOMIC CHARGES
-----------------------
   0 C :    0.085568
   1 C :   -0.080501
   2 N :   -0.152514
   3 C :   -0.302938
   4 C :    0.108948
   5 C :    0.112764
   6 H :    0.027392
   7 H :   -0.004437
   8 H :    0.028650
   9 H :    0.009820
  10 H :    0.090082
  11 H :   -0.010608
  12 H :    0.025359
  13 H :    0.022451
  14 H :    0.011204
  15 H :    0.013375
  16 H :    0.015384
Sum of atomic charges:   -0.0000000

LOEWDIN ATOMIC CHARGES
----------------------
   0 C :   -0.068108
   1 C :   -0.007901
   2 N :   -0.101898
   3 C :   -0.034510
   4 C :   -0.059756
   5 C :   -0.053114
   6 H :    0.033132
   7 H :    0.022342
   8 H :    0.034766
   9 H :    0.018635
  10 H :    0.045377
  11 H :    0.020889
  12 H :    0.031671
  13 H :    0.032902
  14 H :    0.030734
  15 H :    0.026747
  16 H :    0.028090

  Mayer bond orders larger than 0.1
B(  0-C ,  1-C ) :   1.1075 B(  0-C ,  6-H ) :   0.9495 B(  0-C ,  7-H ) :   0.9378
B(  0-C ,  8-H ) :   0.9511 B(  1-C ,  2-N ) :   0.9752 B(  1-C ,  3-C ) :   0.9913
B(  1-C ,  9-H ) :   0.9195 B(  2-N ,  3-C ) :   0.9851 B(  2-N , 10-H ) :   0.9469
B(  3-C ,  4-C ) :   1.1024 B(  3-C ,  5-C ) :   1.0709 B(  4-C , 11-H ) :   0.9298
B(  4-C , 12-H ) :   0.9486 B(  4-C , 13-H ) :   0.9469 B(  5-C , 14-H ) :   0.9370
B(  5-C , 15-H ) :   0.9546 B(  5-C , 16-H ) :   0.9491

FINAL SINGLE POINT ENERGY      -251.346284730322

DIPOLE MOMENT
-------------
                                X             Y             Z
Electronic contribution:      1.22703      -2.37773       0.45758
Nuclear contribution   :     -1.75139       2.75196      -0.60929
                        -----------------------------------------
Total Dipole Moment    :     -0.52436       0.37423      -0.15171
                        -----------------------------------------
Magnitude (a.u.)       :      0.66183
Magnitude (Debye)      :      1.68224

                             ****ORCA TERMINATED NORMALLY****
TOTAL RUN TIME: 0 days 0 hours 0 minutes 6 seconds 807 msec
