                         Program Version 3.0.3 - RELEASE   -
|  1> ! RI PBE def2-SVP def2-SVP/J NBO PAL2
|  2> % maxcore 2000
|  3> % output
|  4>     # printlevel mini
|  5>     print[ P_Basis ] 0
|  6>     print[ P_SCFInfo ] 1
|  7>     print[ P_SCFIterInfo ] 1
|  8>     print[ P_OrbEn ] 0
|  9>     print[ P_Cartesian ] 0
| 10> end
| 11> *xyz 0 1
| 12>  C        1.0867590000    -0.1139000000    -0.0166610000
| 13>  C        2.5510750000     0.1153070000    -0.2369810000
| 14>  N        3.1968120000    -0.3518370000    -1.4561020000
| 15>  C        3.0335360000     1.0852890000    -1.2548560000
| 16>  C        4.2535110000     1.8957250000    -1.0632610000
| 17>  C        5.4904310000     1.4264950000    -1.1511310000
| 18>  H        0.8934250000    -1.1480150000     0.2828790000
| 19>  H        0.5171930000     0.0863210000    -0.9289640000
| 20>  H        0.7001850000     0.5378100000     0.7711720000
| 21>  H        3.1806840000    -0.0074170000     0.6411230000
| 22>  H        2.5014260000    -0.6936290000    -2.1114700000
| 23>  H        2.2415920000     1.5785520000    -1.8167690000
| 24>  H        4.0849660000     2.9434360000    -0.8232210000
| 25>  H        5.6675650000     0.3853870000    -1.3969460000
| 26>  H        6.3480400000     2.0661850000    -0.9808140000
| 27> *
| 28>
| 29>                          ****END OF INPUT****
 Total Charge           Charge          ....    0
 Multiplicity           Mult            ....    1
 Number of Electrons    NEL             ....   46
 Basis Dimension        Dim             ....  129

MULLIKEN ATOMIC CHARGES
-----------------------
   0 C :    0.064979
   1 C :   -0.079994
   2 N :   -0.155333
   3 C :   -0.036008
   4 C :   -0.019808
   5 C :   -0.026015
   6 H :    0.032412
   7 H :    0.003555
   8 H :    0.034270
   9 H :    0.021638
  10 H :    0.101880
  11 H :    0.010741
  12 H :   -0.003378
  13 H :    0.031616
  14 H :    0.019445
Sum of atomic charges:    0.0000000

LOEWDIN ATOMIC CHARGES
----------------------
   0 C :   -0.068716
   1 C :    0.003625
   2 N :   -0.090679
   3 C :   -0.009515
   4 C :   -0.043168
   5 C :   -0.054882
   6 H :    0.033266
   7 H :    0.025883
   8 H :    0.036504
   9 H :    0.022741
  10 H :    0.053111
  11 H :    0.017207
  12 H :    0.026569
  13 H :    0.025505
  14 H :    0.022549

  Mayer bond orders larger than 0.1
B(  0-C ,  1-C ) :   1.0928 B(  0-C ,  6-H ) :   0.9533 B(  0-C ,  7-H ) :   0.9404
B(  0-C ,  8-H ) :   0.9539 B(  1-C ,  2-N ) :   0.9934 B(  1-C ,  3-C ) :   0.9850
B(  1-C ,  9-H ) :   0.9252 B(  2-N ,  3-C ) :   1.0020 B(  2-N , 10-H ) :   0.9384
B(  3-C ,  4-C ) :   1.0412 B(  3-C , 11-H ) :   0.9251 B(  4-C ,  5-C ) :   1.9952
B(  4-C , 12-H ) :   0.9584 B(  5-C , 13-H ) :   0.9309 B(  5-C , 14-H ) :   0.9432

FINAL SINGLE POINT ENERGY      -250.120672964273

DIPOLE MOMENT
-------------
                                X             Y             Z
Electronic contribution:      1.98190       0.20537      -1.23255
Nuclear contribution   :     -2.72961      -0.07875       1.29162
                        -----------------------------------------
Total Dipole Moment    :     -0.74771       0.12661       0.05907
                        -----------------------------------------
Magnitude (a.u.)       :      0.76065
Magnitude (Debye)      :      1.93342

                             ****ORCA TERMINATED NORMALLY****
TOTAL RUN TIME: 0 days 0 hours 0 minutes 6 seconds 188 msec
