                         Program Version 3.0.3 - RELEASE   -
|  1> ! RI PBE def2-SVP def2-SVP/J NBO PAL2
|  2> % maxcore 2000
|  3> % output
|  4>     # printlevel mini
|  5>     print[ P_Basis ] 0
|  6>     print[ P_SCFInfo ] 1
|  7>     print[ P_SCFIterInfo ] 1
|  8>     print[ P_OrbEn ] 0
|  9>     print[ P_Cartesian ] 0
| 10> end
| 11> *xyz 0 1
| 12>  C        1.0339510000    -0.0064430000    -0.0058420000
| 13>  C        2.5275010000     0.0266670000     0.1078380000
| 14>  N        3.3591270000    -0.7853770000    -0.7631540000
| 15>  C        3.3461240000     0.6746760000    -0.9493430000
| 16>  C        4.5500490000     1.3964980000    -0.6539010000
| 17>  C        5.5416540000     2.0278160000    -0.4091310000
| 18>  H        0.6287790000    -0.9028050000     0.4716210000
| 19>  H        0.7203500000    -0.0088430000    -1.0537000000
| 20>  H        0.5843750000     0.8633430000     0.4793890000
| 21>  H        2.9189340000     0.0881310000     1.1195590000
| 22>  H        2.7915680000    -1.2162990000    -1.4871990000
| 23>  H        2.7894490000     1.0601510000    -1.8002320000
| 24>  H        6.4263200000     2.5772550000    -0.1905050000
| 25> *
| 26>
| 27>                          ****END OF INPUT****
 Total Charge           Charge          ....    0
 Multiplicity           Mult            ....    1
 Number of Electrons    NEL             ....   44
 Basis Dimension        Dim             ....  119

MULLIKEN ATOMIC CHARGES
-----------------------
   0 C :    0.069792
   1 C :   -0.076997
   2 N :   -0.134210
   3 C :   -0.142805
   4 C :    0.493556
   5 C :   -0.469123
   6 H :    0.036924
   7 H :    0.003191
   8 H :    0.038994
   9 H :    0.032364
  10 H :    0.104376
  11 H :    0.042175
  12 H :    0.001763
Sum of atomic charges:   -0.0000000

LOEWDIN ATOMIC CHARGES
----------------------
   0 C :   -0.065370
   1 C :    0.008151
   2 N :   -0.080957
   3 C :   -0.018407
   4 C :   -0.016839
   5 C :   -0.075727
   6 H :    0.035222
   7 H :    0.026195
   8 H :    0.038929
   9 H :    0.028161
  10 H :    0.054362
  11 H :    0.031617
  12 H :    0.034663

  Mayer bond orders larger than 0.1
B(  0-C ,  1-C ) :   1.0850 B(  0-C ,  6-H ) :   0.9543 B(  0-C ,  7-H ) :   0.9407
B(  0-C ,  8-H ) :   0.9533 B(  1-C ,  2-N ) :   0.9814 B(  1-C ,  3-C ) :   0.9769
B(  1-C ,  9-H ) :   0.9311 B(  2-N ,  3-C ) :   1.0253 B(  2-N , 10-H ) :   0.9374
B(  3-C ,  4-C ) :   0.9486 B(  3-C , 11-H ) :   0.9253 B(  4-C ,  5-C ) :   2.3047
B(  4-C , 12-H ) :  -0.1026 B(  5-C , 12-H ) :   1.0925

FINAL SINGLE POINT ENERGY      -248.873746031627

DIPOLE MOMENT
-------------
                                X             Y             Z
Electronic contribution:      5.08637       1.12255      -0.75336
Nuclear contribution   :     -5.89745      -1.01405       0.61324
                        -----------------------------------------
Total Dipole Moment    :     -0.81108       0.10850      -0.14013
                        -----------------------------------------
Magnitude (a.u.)       :      0.83021
Magnitude (Debye)      :      2.11024

                             ****ORCA TERMINATED NORMALLY****
TOTAL RUN TIME: 0 days 0 hours 0 minutes 5 seconds 531 msec
