                         Program Version 3.0.3 - RELEASE   -
|  1> ! RI PBE def2-SVP def2-SVP/J NBO PAL2
|  2> % maxcore 2000
|  3> % output
|  4>     # printlevel mini
|  5>     print[ P_Basis ] 0
|  6>     print[ P_SCFInfo ] 1
|  7>     print[ P_SCFIterInfo ] 1
|  8>     print[ P_OrbEn ] 0
|  9>     print[ P_Cartesian ] 0
| 10> end
| 11> *xyz 0 1
| 12>  C        1.0861840000     0.1183050000    -0.1388720000
| 13>  C        2.5742880000     0.2049360000     0.0155870000
| 14>  N        3.4463420000    -0.7229110000    -0.7068400000
| 15>  C        3.4283260000     0.6909980000    -1.0800540000
| 16>  C        4.6950960000     1.4553140000    -0.8298790000
| 17>  N        4.4212930000     2.8812430000    -0.7107470000
| 18>  H        0.6760050000    -0.7128870000     0.4418440000
| 19>  H        0.8100210000    -0.0324500000    -1.1868190000
| 20>  H        0.6049560000     1.0370650000     0.2061870000
| 21>  H        2.9202290000     0.4045080000     1.0272120000
| 22>  H        2.8991090000    -1.2691520000    -1.3644250000
| 23>  H        2.9095090000     0.9513810000    -2.0030040000
| 24>  H        5.4215110000     1.2027610000    -1.6190730000
| 25>  H        5.1214550000     1.1008070000     0.1122440000
| 26>  H        4.0927390000     3.2531290000    -1.5941750000
| 27>  H        5.2695290000     3.3847620000    -0.4840960000
| 28> *
| 29>
| 30>                          ****END OF INPUT****
 Total Charge           Charge          ....    0
 Multiplicity           Mult            ....    1
 Number of Electrons    NEL             ....   48
 Basis Dimension        Dim             ....  134

MULLIKEN ATOMIC CHARGES
-----------------------
   0 C :    0.076152
   1 C :   -0.092426
   2 N :   -0.164950
   3 C :   -0.119645
   4 C :    0.183950
   5 N :   -0.216086
   6 H :    0.027868
   7 H :   -0.004445
   8 H :    0.033698
   9 H :    0.017179
  10 H :    0.097055
  11 H :    0.003151
  12 H :   -0.006833
  13 H :   -0.006737
  14 H :    0.082815
  15 H :    0.089255
Sum of atomic charges:   -0.0000000

LOEWDIN ATOMIC CHARGES
----------------------
   0 C :   -0.066334
   1 C :   -0.004669
   2 N :   -0.103577
   3 C :   -0.012959
   4 C :    0.004991
   5 N :   -0.114034
   6 H :    0.030545
   7 H :    0.023405
   8 H :    0.036492
   9 H :    0.021533
  10 H :    0.049547
  11 H :    0.008646
  12 H :    0.001991
  13 H :    0.024603
  14 H :    0.047616
  15 H :    0.052204

  Mayer bond orders larger than 0.1
B(  0-C ,  1-C ) :   1.0922 B(  0-C ,  6-H ) :   0.9543 B(  0-C ,  7-H ) :   0.9407
B(  0-C ,  8-H ) :   0.9541 B(  1-C ,  2-N ) :   0.9925 B(  1-C ,  3-C ) :   1.0167
B(  1-C ,  9-H ) :   0.9239 B(  2-N ,  3-C ) :   1.0039 B(  2-N , 10-H ) :   0.9412
B(  3-C ,  4-C ) :   1.0341 B(  3-C , 11-H ) :   0.9320 B(  4-C ,  5-N ) :   1.0853
B(  4-C , 12-H ) :   0.9121 B(  4-C , 13-H ) :   0.9104 B(  5-N , 14-H ) :   0.9681
B(  5-N , 15-H ) :   0.9649

FINAL SINGLE POINT ENERGY      -267.354994841337

DIPOLE MOMENT
-------------
                                X             Y             Z
Electronic contribution:      1.75741      -0.89781      -0.00946
Nuclear contribution   :     -1.95871       1.20022      -0.53364
                        -----------------------------------------
Total Dipole Moment    :     -0.20130       0.30241      -0.54311
                        -----------------------------------------
Magnitude (a.u.)       :      0.65340
Magnitude (Debye)      :      1.66082

                             ****ORCA TERMINATED NORMALLY****
TOTAL RUN TIME: 0 days 0 hours 0 minutes 6 seconds 516 msec
