                         Program Version 3.0.3 - RELEASE   -
|  1> ! RI PBE def2-SVP def2-SVP/J NBO PAL2
|  2> % maxcore 2000
|  3> % output
|  4>     # printlevel mini
|  5>     print[ P_Basis ] 0
|  6>     print[ P_SCFInfo ] 1
|  7>     print[ P_SCFIterInfo ] 1
|  8>     print[ P_OrbEn ] 0
|  9>     print[ P_Cartesian ] 0
| 10> end
| 11> *xyz 0 1
| 12>  C        1.0262850000     0.0547070000    -0.1713150000
| 13>  C        2.5200460000     0.0872110000    -0.0662030000
| 14>  N        3.3509120000    -0.7212000000    -0.9377820000
| 15>  C        3.3248030000     0.7302040000    -1.1380930000
| 16>  C        4.5337630000     1.4506550000    -0.8409760000
| 17>  N        5.4806390000     2.0571350000    -0.5996270000
| 18>  H        0.6271730000    -0.8346090000     0.3229770000
| 19>  H        0.7043210000     0.0370010000    -1.2162700000
| 20>  H        0.5825170000     0.9312500000     0.3059900000
| 21>  H        2.9193830000     0.1590990000     0.9415410000
| 22>  H        2.7909810000    -1.1673340000    -1.6583060000
| 23>  H        2.7768690000     1.1277910000    -1.9873470000
| 24> *
| 25>
| 26>                          ****END OF INPUT****
 Total Charge           Charge          ....    0
 Multiplicity           Mult            ....    1
 Number of Electrons    NEL             ....   44
 Basis Dimension        Dim             ....  114

MULLIKEN ATOMIC CHARGES
-----------------------
   0 C :    0.067840
   1 C :   -0.071165
   2 N :   -0.119823
   3 C :   -0.209471
   4 C :   -0.043404
   5 N :    0.057319
   6 H :    0.045009
   7 H :    0.008725
   8 H :    0.046621
   9 H :    0.043779
  10 H :    0.113715
  11 H :    0.060854
Sum of atomic charges:   -0.0000000

LOEWDIN ATOMIC CHARGES
----------------------
   0 C :   -0.062971
   1 C :    0.016087
   2 N :   -0.067924
   3 C :   -0.033505
   4 C :   -0.038975
   5 N :   -0.056548
   6 H :    0.039408
   7 H :    0.028583
   8 H :    0.042628
   9 H :    0.033206
  10 H :    0.060137
  11 H :    0.039873

  Mayer bond orders larger than 0.1
B(  0-C ,  1-C ) :   1.0889 B(  0-C ,  6-H ) :   0.9543 B(  0-C ,  7-H ) :   0.9407
B(  0-C ,  8-H ) :   0.9526 B(  1-C ,  2-N ) :   0.9747 B(  1-C ,  3-C ) :   0.9946
B(  1-C ,  9-H ) :   0.9294 B(  2-N ,  3-C ) :   1.0963 B(  2-N , 10-H ) :   0.9363
B(  3-C ,  4-C ) :   1.0608 B(  3-C , 11-H ) :   0.9214 B(  4-C ,  5-N ) :   3.0509

FINAL SINGLE POINT ENERGY      -264.951734578822

DIPOLE MOMENT
-------------
                                X             Y             Z
Electronic contribution:      6.94883       2.39209      -0.76738
Nuclear contribution   :     -8.82068      -2.97448       0.43960
                        -----------------------------------------
Total Dipole Moment    :     -1.87185      -0.58239      -0.32778
                        -----------------------------------------
Magnitude (a.u.)       :      1.98757
Magnitude (Debye)      :      5.05200

                             ****ORCA TERMINATED NORMALLY****
TOTAL RUN TIME: 0 days 0 hours 0 minutes 5 seconds 66 msec
