                         Program Version 3.0.3 - RELEASE   -
|  1> ! RI PBE def2-SVP def2-SVP/J NBO PAL2
|  2> % maxcore 2000
|  3> % output
|  4>     # printlevel mini
|  5>     print[ P_Basis ] 0
|  6>     print[ P_SCFInfo ] 1
|  7>     print[ P_SCFIterInfo ] 1
|  8>     print[ P_OrbEn ] 0
|  9>     print[ P_Cartesian ] 0
| 10> end
| 11> *xyz 0 1
| 12>  C        0.9573690000     0.1162140000    -0.0157630000
| 13>  C        2.4606660000     0.0463250000    -0.0494080000
| 14>  N        3.1965020000     1.0927470000     0.7057780000
| 15>  C        4.1302460000     0.0586330000     1.2177560000
| 16>  C        3.1947300000    -1.0617310000     0.7492380000
| 17>  N        3.7911140000    -2.2174720000     0.1393690000
| 18>  H        0.5939700000     1.0399600000    -0.4742000000
| 19>  H        0.5873810000     0.0784010000     1.0139980000
| 20>  H        0.5170950000    -0.7221480000    -0.5628800000
| 21>  H        2.8103720000     0.0537460000    -1.0915000000
| 22>  H        2.6135510000     1.4350700000     1.4620160000
| 23>  H        4.3681600000     0.1114950000     2.2821650000
| 24>  H        5.0694150000     0.0759940000     0.6537560000
| 25>  H        2.5582830000    -1.3972960000     1.5757460000
| 26>  H        4.3177290000    -1.9613310000    -0.6874050000
| 27>  H        3.0965270000    -2.8999180000    -0.1353770000
| 28> *
| 29>
| 30>                          ****END OF INPUT****
 Total Charge           Charge          ....    0
 Multiplicity           Mult            ....    1
 Number of Electrons    NEL             ....   48
 Basis Dimension        Dim             ....  134

MULLIKEN ATOMIC CHARGES
-----------------------
   0 C :    0.052793
   1 C :    0.007539
   2 N :   -0.251394
   3 C :    0.181923
   4 C :   -0.140136
   5 N :   -0.133432
   6 H :    0.031731
   7 H :    0.000177
   8 H :    0.019362
   9 H :   -0.022609
  10 H :    0.085622
  11 H :    0.010754
  12 H :   -0.006575
  13 H :   -0.012424
  14 H :    0.085775
  15 H :    0.090894
Sum of atomic charges:    0.0000000

LOEWDIN ATOMIC CHARGES
----------------------
   0 C :   -0.072320
   1 C :   -0.008642
   2 N :   -0.119397
   3 C :    0.024968
   4 C :   -0.017614
   5 N :   -0.090013
   6 H :    0.032031
   7 H :    0.019000
   8 H :    0.031093
   9 H :    0.009251
  10 H :    0.044593
  11 H :    0.012553
  12 H :    0.013071
  13 H :    0.018284
  14 H :    0.049402
  15 H :    0.053740

  Mayer bond orders larger than 0.1
B(  0-C ,  1-C ) :   1.1056 B(  0-C ,  6-H ) :   0.9554 B(  0-C ,  7-H ) :   0.9411
B(  0-C ,  8-H ) :   0.9519 B(  1-C ,  2-N ) :   1.0657 B(  1-C ,  4-C ) :   0.9900
B(  1-C ,  9-H ) :   0.8831 B(  2-N ,  3-C ) :   1.0572 B(  2-N , 10-H ) :   0.9379
B(  3-C ,  4-C ) :   1.0713 B(  3-C , 11-H ) :   0.9345 B(  3-C , 12-H ) :   0.9153
B(  4-C ,  5-N ) :   1.1431 B(  4-C , 13-H ) :   0.8726 B(  5-N , 14-H ) :   0.9572
B(  5-N , 15-H ) :   0.9675

FINAL SINGLE POINT ENERGY      -267.358193517129

DIPOLE MOMENT
-------------
                                X             Y             Z
Electronic contribution:      2.18187       0.30045       0.35044
Nuclear contribution   :     -2.72872      -0.65455      -0.43393
                        -----------------------------------------
Total Dipole Moment    :     -0.54685      -0.35410      -0.08348
                        -----------------------------------------
Magnitude (a.u.)       :      0.65681
Magnitude (Debye)      :      1.66949

                             ****ORCA TERMINATED NORMALLY****
TOTAL RUN TIME: 0 days 0 hours 0 minutes 6 seconds 684 msec
