                         Program Version 3.0.3 - RELEASE   -
|  1> ! RI PBE def2-SVP def2-SVP/J NBO PAL2
|  2> % maxcore 2000
|  3> % output
|  4>     # printlevel mini
|  5>     print[ P_Basis ] 0
|  6>     print[ P_SCFInfo ] 1
|  7>     print[ P_SCFIterInfo ] 1
|  8>     print[ P_OrbEn ] 0
|  9>     print[ P_Cartesian ] 0
| 10> end
| 11> *xyz 0 1
| 12>  C        0.8059490000     0.0217790000    -0.1854380000
| 13>  C        2.2988500000    -0.0205500000     0.0024010000
| 14>  N        2.8054730000     0.0150570000     1.3468810000
| 15>  C        3.1243770000    -0.8464440000    -0.9498780000
| 16>  C        3.1899600000     0.6433910000    -1.0277820000
| 17>  N        4.4117040000     1.3095830000    -0.6912030000
| 18>  H        0.3246920000    -0.8545090000     0.2625540000
| 19>  H        0.5379360000     0.0422780000    -1.2449870000
| 20>  H        0.3778200000     0.9144300000     0.2831340000
| 21>  H        2.5655390000    -0.8326520000     1.8472630000
| 22>  H        2.4070120000     0.7925070000     1.8611180000
| 23>  H        2.6181530000    -1.3948250000    -1.7353300000
| 24>  H        3.9908630000    -1.3443280000    -0.5296880000
| 25>  H        2.6773170000     1.1005870000    -1.8685190000
| 26>  H        4.7629310000     0.9143830000     0.1755890000
| 27>  H        4.2275140000     2.2887020000    -0.5018250000
| 28> *
| 29>
| 30>                          ****END OF INPUT****
 Total Charge           Charge          ....    0
 Multiplicity           Mult            ....    1
 Number of Electrons    NEL             ....   48
 Basis Dimension        Dim             ....  134

MULLIKEN ATOMIC CHARGES
-----------------------
   0 C :    0.125503
   1 C :   -0.250292
   2 N :   -0.136107
   3 C :    0.023451
   4 C :   -0.054006
   5 N :   -0.112858
   6 H :    0.004990
   7 H :   -0.001628
   8 H :    0.005151
   9 H :    0.095107
  10 H :    0.084613
  11 H :    0.022117
  12 H :    0.022540
  13 H :    0.009054
  14 H :    0.076062
  15 H :    0.086304
Sum of atomic charges:   -0.0000000

LOEWDIN ATOMIC CHARGES
----------------------
   0 C :   -0.062671
   1 C :   -0.061614
   2 N :   -0.074308
   3 C :   -0.052025
   4 C :   -0.007882
   5 N :   -0.085096
   6 H :    0.020844
   7 H :    0.026297
   8 H :    0.021489
   9 H :    0.054208
  10 H :    0.050163
  11 H :    0.024257
  12 H :    0.028031
  13 H :    0.018565
  14 H :    0.045498
  15 H :    0.054245

  Mayer bond orders larger than 0.1
B(  0-C ,  1-C ) :   1.0686 B(  0-C ,  6-H ) :   0.9490 B(  0-C ,  7-H ) :   0.9329
B(  0-C ,  8-H ) :   0.9532 B(  1-C ,  2-N ) :   1.1522 B(  1-C ,  3-C ) :   0.9569
B(  1-C ,  4-C ) :   0.8491 B(  2-N ,  9-H ) :   0.9656 B(  2-N , 10-H ) :   0.9680
B(  3-C ,  4-C ) :   0.9967 B(  3-C , 11-H ) :   0.9401 B(  3-C , 12-H ) :   0.9317
B(  4-C ,  5-N ) :   1.1901 B(  4-C , 13-H ) :   0.9456 B(  5-N , 14-H ) :   0.9412
B(  5-N , 15-H ) :   0.9657

FINAL SINGLE POINT ENERGY      -267.365933544074

DIPOLE MOMENT
-------------
                                X             Y             Z
Electronic contribution:      2.35771       0.50465      -0.03019
Nuclear contribution   :     -3.03607      -0.40436       0.63050
                        -----------------------------------------
Total Dipole Moment    :     -0.67836       0.10029       0.60031
                        -----------------------------------------
Magnitude (a.u.)       :      0.91138
Magnitude (Debye)      :      2.31653

                             ****ORCA TERMINATED NORMALLY****
TOTAL RUN TIME: 0 days 0 hours 0 minutes 6 seconds 456 msec
