                         Program Version 3.0.3 - RELEASE   -
|  1> ! RI PBE def2-SVP def2-SVP/J NBO PAL2
|  2> % maxcore 2000
|  3> % output
|  4>     # printlevel mini
|  5>     print[ P_Basis ] 0
|  6>     print[ P_SCFInfo ] 1
|  7>     print[ P_SCFIterInfo ] 1
|  8>     print[ P_OrbEn ] 0
|  9>     print[ P_Cartesian ] 0
| 10> end
| 11> *xyz 0 1
| 12>  C        0.8329550000     0.0167900000     0.1844690000
| 13>  C        2.3476190000     0.0142270000     0.1229080000
| 14>  N        2.8830180000    -0.0131230000    -1.2321060000
| 15>  C        3.0942390000     1.1028520000     0.9303240000
| 16>  C        4.1154780000     0.0373430000     1.3672180000
| 17>  C        3.0923390000    -1.0428430000     0.9728860000
| 18>  H        0.4262600000     0.8915690000    -0.3334830000
| 19>  H        0.4706690000     0.0375720000     1.2158200000
| 20>  H        0.4246910000    -0.8771210000    -0.2983930000
| 21>  H        2.5517300000     0.7915080000    -1.7536560000
| 22>  H        2.5502620000    -0.8371980000    -1.7213610000
| 23>  H        2.4902710000     1.4573860000     1.7688790000
| 24>  H        3.4601350000     1.9622080000     0.3648390000
| 25>  H        4.4497640000     0.0576360000     2.4051650000
| 26>  H        4.9847960000     0.0235510000     0.7107330000
| 27>  H        2.4877740000    -1.3627720000     1.8248220000
| 28>  H        3.4566910000    -1.9245940000     0.4419370000
| 29> *
| 30>
| 31>                          ****END OF INPUT****
 Total Charge           Charge          ....    0
 Multiplicity           Mult            ....    1
 Number of Electrons    NEL             ....   48
 Basis Dimension        Dim             ....  139

MULLIKEN ATOMIC CHARGES
-----------------------
   0 C :    0.109859
   1 C :   -0.388438
   2 N :   -0.140014
   3 C :    0.114574
   4 C :    0.002772
   5 C :    0.114558
   6 H :    0.006346
   7 H :   -0.001153
   8 H :    0.005901
   9 H :    0.083604
  10 H :    0.083288
  11 H :   -0.005653
  12 H :   -0.001304
  13 H :    0.003620
  14 H :    0.019284
  15 H :   -0.005666
  16 H :   -0.001576
Sum of atomic charges:   -0.0000000

LOEWDIN ATOMIC CHARGES
----------------------
   0 C :   -0.073591
   1 C :   -0.025204
   2 N :   -0.086072
   3 C :   -0.028234
   4 C :   -0.031052
   5 C :   -0.028238
   6 H :    0.021714
   7 H :    0.021556
   8 H :    0.021631
   9 H :    0.047472
  10 H :    0.047398
  11 H :    0.020330
  12 H :    0.015260
  13 H :    0.014529
  14 H :    0.026951
  15 H :    0.020313
  16 H :    0.015237

  Mayer bond orders larger than 0.1
B(  0-C ,  1-C ) :   1.0624 B(  0-C ,  6-H ) :   0.9532 B(  0-C ,  7-H ) :   0.9341
B(  0-C ,  8-H ) :   0.9530 B(  1-C ,  2-N ) :   1.0287 B(  1-C ,  3-C ) :   1.0574
B(  1-C ,  5-C ) :   1.0573 B(  2-N ,  9-H ) :   0.9651 B(  2-N , 10-H ) :   0.9652
B(  3-C ,  4-C ) :   1.1333 B(  3-C , 11-H ) :   0.9149 B(  3-C , 12-H ) :   0.9197
B(  4-C ,  5-C ) :   1.1334 B(  4-C , 13-H ) :   0.9341 B(  4-C , 14-H ) :   0.9234
B(  5-C , 15-H ) :   0.9151 B(  5-C , 16-H ) :   0.9196

FINAL SINGLE POINT ENERGY      -251.350007865499

DIPOLE MOMENT
-------------
                                X             Y             Z
Electronic contribution:      1.43114      -0.01680      -0.79951
Nuclear contribution   :     -1.87316       0.01455       0.64897
                        -----------------------------------------
Total Dipole Moment    :     -0.44202      -0.00225      -0.15054
                        -----------------------------------------
Magnitude (a.u.)       :      0.46696
Magnitude (Debye)      :      1.18691

                             ****ORCA TERMINATED NORMALLY****
TOTAL RUN TIME: 0 days 0 hours 0 minutes 6 seconds 639 msec
