                         Program Version 3.0.3 - RELEASE   -
|  1> ! RI PBE def2-SVP def2-SVP/J NBO PAL2
|  2> % maxcore 2000
|  3> % output
|  4>     # printlevel mini
|  5>     print[ P_Basis ] 0
|  6>     print[ P_SCFInfo ] 1
|  7>     print[ P_SCFIterInfo ] 1
|  8>     print[ P_OrbEn ] 0
|  9>     print[ P_Cartesian ] 0
| 10> end
| 11> *xyz 0 1
| 12>  C        0.9872670000     0.1293310000    -0.2026860000
| 13>  C        2.4387300000     0.0485270000     0.2443620000
| 14>  N        2.6973090000    -1.1498880000     1.0470180000
| 15>  C        3.5842830000    -0.8235000000     2.1590090000
| 16>  C        3.4879790000     0.6665220000     2.2346050000
| 17>  C        2.8595580000     1.1488050000     1.1727460000
| 18>  H        0.7289670000    -0.7299790000    -0.8262980000
| 19>  H        0.8061980000     1.0363540000    -0.7865800000
| 20>  H        0.3271610000     0.1289110000     0.6670200000
| 21>  H        3.0742000000     0.0859000000    -0.6599890000
| 22>  H        3.0354840000    -1.9207770000     0.4916550000
| 23>  H        4.6309610000    -1.1319560000     1.9949220000
| 24>  H        3.2569650000    -1.3097280000     3.0869560000
| 25>  H        3.9006860000     1.2455680000     3.0511450000
| 26>  H        2.6672620000     2.1941110000     0.9644160000
| 27> *
| 28>
| 29>                          ****END OF INPUT****
 Total Charge           Charge          ....    0
 Multiplicity           Mult            ....    1
 Number of Electrons    NEL             ....   46
 Basis Dimension        Dim             ....  129

MULLIKEN ATOMIC CHARGES
-----------------------
   0 C :    0.040089
   1 C :    0.053369
   2 N :   -0.275141
   3 C :    0.198146
   4 C :   -0.106978
   5 C :   -0.050833
   6 H :    0.013345
   7 H :    0.009164
   8 H :    0.018175
   9 H :    0.000285
  10 H :    0.092843
  11 H :    0.005495
  12 H :    0.012453
  13 H :   -0.003270
  14 H :   -0.007143
Sum of atomic charges:    0.0000000

LOEWDIN ATOMIC CHARGES
----------------------
   0 C :   -0.069359
   1 C :    0.009821
   2 N :   -0.100691
   3 C :    0.020193
   4 C :   -0.038847
   5 C :   -0.035535
   6 H :    0.024722
   7 H :    0.022455
   8 H :    0.026385
   9 H :    0.011111
  10 H :    0.051985
  11 H :    0.011597
  12 H :    0.017999
  13 H :    0.024008
  14 H :    0.024155

  Mayer bond orders larger than 0.1
B(  0-C ,  1-C ) :   1.0735 B(  0-C ,  6-H ) :   0.9586 B(  0-C ,  7-H ) :   0.9537
B(  0-C ,  8-H ) :   0.9544 B(  1-C ,  2-N ) :   1.0286 B(  1-C ,  5-C ) :   0.9949
B(  1-C ,  9-H ) :   0.8884 B(  2-N ,  3-C ) :   1.0440 B(  2-N , 10-H ) :   0.9438
B(  3-C ,  4-C ) :   1.0217 B(  3-C , 11-H ) :   0.9112 B(  3-C , 12-H ) :   0.9246
B(  4-C ,  5-C ) :   1.8792 B(  4-C , 13-H ) :   0.9848 B(  5-C , 14-H ) :   0.9952

FINAL SINGLE POINT ENERGY      -250.149746333528

DIPOLE MOMENT
-------------
                                X             Y             Z
Electronic contribution:      1.75976       0.12768       1.49441
Nuclear contribution   :     -1.38721      -0.13286      -1.65864
                        -----------------------------------------
Total Dipole Moment    :      0.37256      -0.00518      -0.16423
                        -----------------------------------------
Magnitude (a.u.)       :      0.40718
Magnitude (Debye)      :      1.03497

                             ****ORCA TERMINATED NORMALLY****
TOTAL RUN TIME: 0 days 0 hours 0 minutes 6 seconds 124 msec
