                         Program Version 3.0.3 - RELEASE   -
|  1> ! RI PBE def2-SVP def2-SVP/J NBO PAL2
|  2> % maxcore 2000
|  3> % output
|  4>     # printlevel mini
|  5>     print[ P_Basis ] 0
|  6>     print[ P_SCFInfo ] 1
|  7>     print[ P_SCFIterInfo ] 1
|  8>     print[ P_OrbEn ] 0
|  9>     print[ P_Cartesian ] 0
| 10> end
| 11> *xyz 0 1
| 12>  C        1.0551370000     0.0493910000    -0.0168160000
| 13>  C        2.5371550000    -0.0131110000    -0.1218120000
| 14>  N        3.2124200000    -1.0964350000    -0.1111600000
| 15>  C        4.6194330000    -0.7223540000    -0.2345350000
| 16>  C        4.6706040000     0.8277910000    -0.3258610000
| 17>  N        3.2611030000     1.1412010000    -0.2386610000
| 18>  H        0.6589330000    -0.9599180000     0.0680480000
| 19>  H        0.6240860000     0.5316330000    -0.8981990000
| 20>  H        0.7527490000     0.6289030000     0.8594950000
| 21>  H        5.0523410000    -1.1945950000    -1.1209910000
| 22>  H        5.1792190000    -1.0956920000     0.6277510000
| 23>  H        5.1076170000     1.1766230000    -1.2670270000
| 24>  H        5.2388430000     1.2762200000     0.4953590000
| 25>  H        2.8726480000     2.0640440000    -0.2623910000
| 26> *
| 27>
| 28>                          ****END OF INPUT****
 Total Charge           Charge          ....    0
 Multiplicity           Mult            ....    1
 Number of Electrons    NEL             ....   46
 Basis Dimension        Dim             ....  124

MULLIKEN ATOMIC CHARGES
-----------------------
   0 C :    0.083779
   1 C :   -0.104665
   2 N :   -0.220222
   3 C :    0.072319
   4 C :    0.118825
   5 N :   -0.204365
   6 H :    0.035260
   7 H :    0.029916
   8 H :    0.029898
   9 H :    0.018323
  10 H :    0.019234
  11 H :    0.011102
  12 H :    0.014791
  13 H :    0.095805
Sum of atomic charges:   -0.0000000

LOEWDIN ATOMIC CHARGES
----------------------
   0 C :   -0.067984
   1 C :   -0.000409
   2 N :   -0.178457
   3 C :    0.006198
   4 C :    0.015740
   5 N :   -0.031157
   6 H :    0.045215
   7 H :    0.037438
   8 H :    0.037486
   9 H :    0.021926
  10 H :    0.021927
  11 H :    0.013568
  12 H :    0.014523
  13 H :    0.063985

  Mayer bond orders larger than 0.1
B(  0-C ,  1-C ) :   1.0835 B(  0-C ,  6-H ) :   0.9406 B(  0-C ,  7-H ) :   0.9440
B(  0-C ,  8-H ) :   0.9438 B(  1-C ,  2-N ) :   1.8553 B(  1-C ,  5-N ) :   1.1701
B(  2-N ,  3-C ) :   1.0757 B(  2-N ,  5-N ) :   0.1326 B(  3-C ,  4-C ) :   1.0676
B(  3-C ,  9-H ) :   0.9380 B(  3-C , 10-H ) :   0.9385 B(  4-C ,  5-N ) :   1.0124
B(  4-C , 11-H ) :   0.9417 B(  4-C , 12-H ) :   0.9420 B(  5-N , 13-H ) :   0.9408

FINAL SINGLE POINT ENERGY      -266.199373156158

DIPOLE MOMENT
-------------
                                X             Y             Z
Electronic contribution:      0.29496      -0.66347       0.01749
Nuclear contribution   :     -0.27628       1.85068      -0.08435
                        -----------------------------------------
Total Dipole Moment    :      0.01868       1.18720      -0.06686
                        -----------------------------------------
Magnitude (a.u.)       :      1.18923
Magnitude (Debye)      :      3.02278

                             ****ORCA TERMINATED NORMALLY****
TOTAL RUN TIME: 0 days 0 hours 0 minutes 5 seconds 953 msec
