                         Program Version 3.0.3 - RELEASE   -
|  1> ! RI PBE def2-SVP def2-SVP/J NBO PAL2
|  2> % maxcore 2000
|  3> % output
|  4>     # printlevel mini
|  5>     print[ P_Basis ] 0
|  6>     print[ P_SCFInfo ] 1
|  7>     print[ P_SCFIterInfo ] 1
|  8>     print[ P_OrbEn ] 0
|  9>     print[ P_Cartesian ] 0
| 10> end
| 11> *xyz 0 1
| 12>  C        1.0732200000     0.0532630000     0.0341660000
| 13>  C        2.5567030000     0.0721190000     0.0299790000
| 14>  N        3.3110760000     1.1431810000     0.0258290000
| 15>  C        4.6037720000     0.6939620000     0.0229800000
| 16>  C        4.6360620000    -0.6684770000     0.0254920000
| 17>  N        3.3197900000    -1.0529500000     0.0299550000
| 18>  H        0.7161190000     1.0815200000     0.0337190000
| 19>  H        0.6753000000    -0.4500460000     0.9200980000
| 20>  H        0.6703470000    -0.4525160000    -0.8481160000
| 21>  H        5.4393650000     1.3766170000     0.0193110000
| 22>  H        5.4452650000    -1.3796510000     0.0245600000
| 23>  H        2.9807900000    -1.9986310000     0.0327270000
| 24> *
| 25>
| 26>                          ****END OF INPUT****
 Total Charge           Charge          ....    0
 Multiplicity           Mult            ....    1
 Number of Electrons    NEL             ....   44
 Basis Dimension        Dim             ....  114

MULLIKEN ATOMIC CHARGES
-----------------------
   0 C :    0.090977
   1 C :   -0.125416
   2 N :   -0.136656
   3 C :    0.004506
   4 C :    0.025362
   5 N :   -0.048784
   6 H :    0.037159
   7 H :    0.030314
   8 H :    0.030434
   9 H :   -0.011210
  10 H :   -0.004987
  11 H :    0.108302
Sum of atomic charges:   -0.0000000

LOEWDIN ATOMIC CHARGES
----------------------
   0 C :   -0.070527
   1 C :   -0.026890
   2 N :   -0.121553
   3 C :   -0.054638
   4 C :   -0.055460
   5 N :    0.088933
   6 H :    0.049239
   7 H :    0.036548
   8 H :    0.036574
   9 H :    0.016609
  10 H :    0.019797
  11 H :    0.081368

  Mayer bond orders larger than 0.1
B(  0-C ,  1-C ) :   1.1007 B(  0-C ,  6-H ) :   0.9352 B(  0-C ,  7-H ) :   0.9428
B(  0-C ,  8-H ) :   0.9429 B(  1-C ,  2-N ) :   1.6624 B(  1-C ,  5-N ) :   1.2300
B(  2-N ,  3-C ) :   1.3833 B(  3-C ,  4-C ) :   1.5065 B(  3-C ,  9-H ) :   0.9917
B(  4-C ,  5-N ) :   1.1895 B(  4-C , 10-H ) :   0.9788 B(  5-N , 11-H ) :   0.9352

FINAL SINGLE POINT ENERGY      -265.021194729571

DIPOLE MOMENT
-------------
                                X             Y             Z
Electronic contribution:      2.86233       0.41063      -0.00884
Nuclear contribution   :     -3.12228      -1.79461       0.01212
                        -----------------------------------------
Total Dipole Moment    :     -0.25995      -1.38398       0.00328
                        -----------------------------------------
Magnitude (a.u.)       :      1.40819
Magnitude (Debye)      :      3.57933

                             ****ORCA TERMINATED NORMALLY****
TOTAL RUN TIME: 0 days 0 hours 0 minutes 5 seconds 543 msec
