                         Program Version 3.0.3 - RELEASE   -
|  1> ! RI PBE def2-SVP def2-SVP/J NBO PAL2
|  2> % maxcore 2000
|  3> % output
|  4>     # printlevel mini
|  5>     print[ P_Basis ] 0
|  6>     print[ P_SCFInfo ] 1
|  7>     print[ P_SCFIterInfo ] 1
|  8>     print[ P_OrbEn ] 0
|  9>     print[ P_Cartesian ] 0
| 10> end
| 11> *xyz 0 1
| 12>  C        0.8881510000     0.0632860000     0.0781050000
| 13>  C        2.3984120000     0.0600010000    -0.0618430000
| 14>  N        2.8638650000     0.0320990000    -1.4381050000
| 15>  C        3.1632810000     1.1276000000     0.7525840000
| 16>  N        4.0602090000     0.0864510000     1.2743270000
| 17>  C        3.1626440000    -0.9743490000     0.7949830000
| 18>  H        0.4571960000     0.9376170000    -0.4203360000
| 19>  H        0.5740790000     0.0844960000     1.1249350000
| 20>  H        0.4566510000    -0.8301660000    -0.3846820000
| 21>  H        2.5067750000     0.8360270000    -1.9434580000
| 22>  H        2.5062890000    -0.7913420000    -1.9106290000
| 23>  H        2.5289010000     1.6095220000     1.5068680000
| 24>  H        3.6688030000     1.8979160000     0.1626420000
| 25>  H        4.2079740000     0.1065620000     2.2736320000
| 26>  H        2.5279800000    -1.4250730000     1.5680810000
| 27>  H        3.6676910000    -1.7681380000     0.2365960000
| 28> *
| 29>
| 30>                          ****END OF INPUT****
 Total Charge           Charge          ....    0
 Multiplicity           Mult            ....    1
 Number of Electrons    NEL             ....   48
 Basis Dimension        Dim             ....  134

MULLIKEN ATOMIC CHARGES
-----------------------
   0 C :    0.091418
   1 C :   -0.461194
   2 N :   -0.128844
   3 C :    0.275151
   4 N :   -0.280049
   5 C :    0.275628
   6 H :    0.010181
   7 H :    0.002627
   8 H :    0.009822
   9 H :    0.084929
  10 H :    0.084602
  11 H :   -0.017343
  12 H :   -0.009875
  13 H :    0.090343
  14 H :   -0.017574
  15 H :   -0.009821
Sum of atomic charges:   -0.0000000

LOEWDIN ATOMIC CHARGES
----------------------
   0 C :   -0.072783
   1 C :   -0.033995
   2 N :   -0.081946
   3 C :    0.032052
   4 N :   -0.107372
   5 C :    0.032153
   6 H :    0.022608
   7 H :    0.021341
   8 H :    0.022525
   9 H :    0.048611
  10 H :    0.048542
  11 H :    0.001942
  12 H :    0.009806
  13 H :    0.044774
  14 H :    0.001973
  15 H :    0.009768

  Mayer bond orders larger than 0.1
B(  0-C ,  1-C ) :   1.0380 B(  0-C ,  6-H ) :   0.9535 B(  0-C ,  7-H ) :   0.9351
B(  0-C ,  8-H ) :   0.9534 B(  1-C ,  2-N ) :   1.0300 B(  1-C ,  3-C ) :   1.0335
B(  1-C ,  5-C ) :   1.0336 B(  2-N ,  9-H ) :   0.9656 B(  2-N , 10-H ) :   0.9656
B(  3-C ,  4-N ) :   1.0736 B(  3-C , 11-H ) :   0.9227 B(  3-C , 12-H ) :   0.9086
B(  4-N ,  5-C ) :   1.0736 B(  4-N , 13-H ) :   0.9446 B(  5-C , 14-H ) :   0.9225
B(  5-C , 15-H ) :   0.9089

FINAL SINGLE POINT ENERGY      -267.355481837361

DIPOLE MOMENT
-------------
                                X             Y             Z
Electronic contribution:      3.14610       0.00082       0.09275
Nuclear contribution   :     -3.99240       0.00191       0.03455
                        -----------------------------------------
Total Dipole Moment    :     -0.84631       0.00273       0.12730
                        -----------------------------------------
Magnitude (a.u.)       :      0.85583
Magnitude (Debye)      :      2.17535

                             ****ORCA TERMINATED NORMALLY****
TOTAL RUN TIME: 0 days 0 hours 0 minutes 6 seconds 298 msec
