                         Program Version 3.0.3 - RELEASE   -
|  1> ! RI PBE def2-SVP def2-SVP/J NBO PAL2
|  2> % maxcore 2000
|  3> % output
|  4>     # printlevel mini
|  5>     print[ P_Basis ] 0
|  6>     print[ P_SCFInfo ] 1
|  7>     print[ P_SCFIterInfo ] 1
|  8>     print[ P_OrbEn ] 0
|  9>     print[ P_Cartesian ] 0
| 10> end
| 11> *xyz 0 1
| 12>  C        1.0213910000    -0.0670630000    -0.0936400000
| 13>  C        2.5024560000    -0.0006150000    -0.0845910000
| 14>  N        3.2396920000    -1.0404320000    -0.0489190000
| 15>  N        4.5662170000    -0.6578730000     0.0750900000
| 16>  C        4.6864260000     0.7336000000    -0.3662820000
| 17>  C        3.3051800000     1.2746990000    -0.0188990000
| 18>  H        0.6908370000    -1.1047200000    -0.1291850000
| 19>  H        0.6074020000     0.4686720000    -0.9535160000
| 20>  H        0.6041680000     0.4033210000     0.8035650000
| 21>  H        5.1557640000    -1.3169280000    -0.4124850000
| 22>  H        4.8560050000     0.8007720000    -1.4509010000
| 23>  H        5.5035950000     1.2400860000     0.1484610000
| 24>  H        2.9513130000     2.0503500000    -0.6998760000
| 25>  H        3.2687540000     1.6843420000     0.9990860000
| 26> *
| 27>
| 28>                          ****END OF INPUT****
 Total Charge           Charge          ....    0
 Multiplicity           Mult            ....    1
 Number of Electrons    NEL             ....   46
 Basis Dimension        Dim             ....  124

MULLIKEN ATOMIC CHARGES
-----------------------
   0 C :    0.100638
   1 C :   -0.254533
   2 N :   -0.091351
   3 N :   -0.146044
   4 C :    0.121873
   5 C :    0.008040
   6 H :    0.025861
   7 H :    0.023096
   8 H :    0.024756
   9 H :    0.111229
  10 H :    0.010692
  11 H :    0.012645
  12 H :    0.024990
  13 H :    0.028109
Sum of atomic charges:   -0.0000000

LOEWDIN ATOMIC CHARGES
----------------------
   0 C :   -0.064084
   1 C :   -0.068367
   2 N :   -0.058861
   3 N :   -0.029677
   4 C :    0.010440
   5 C :   -0.057138
   6 H :    0.038882
   7 H :    0.034700
   8 H :    0.036130
   9 H :    0.056008
  10 H :    0.011913
  11 H :    0.022550
  12 H :    0.031849
  13 H :    0.035655

  Mayer bond orders larger than 0.1
B(  0-C ,  1-C ) :   1.1151 B(  0-C ,  6-H ) :   0.9434 B(  0-C ,  7-H ) :   0.9414
B(  0-C ,  8-H ) :   0.9387 B(  1-C ,  2-N ) :   1.8949 B(  1-C ,  3-N ) :   0.1005
B(  1-C ,  5-C ) :   1.0182 B(  2-N ,  3-N ) :   1.0618 B(  3-N ,  4-C ) :   0.9971
B(  3-N ,  9-H ) :   0.9394 B(  4-C ,  5-C ) :   1.1073 B(  4-C , 10-H ) :   0.9326
B(  4-C , 11-H ) :   0.9339 B(  5-C , 12-H ) :   0.9378 B(  5-C , 13-H ) :   0.8919

FINAL SINGLE POINT ENERGY      -266.175031758835

DIPOLE MOMENT
-------------
                                X             Y             Z
Electronic contribution:      2.20016      -2.92974       0.50701
Nuclear contribution   :     -2.03737       3.61750      -0.86538
                        -----------------------------------------
Total Dipole Moment    :      0.16278       0.68777      -0.35836
                        -----------------------------------------
Magnitude (a.u.)       :      0.79243
Magnitude (Debye)      :      2.01420

                             ****ORCA TERMINATED NORMALLY****
TOTAL RUN TIME: 0 days 0 hours 0 minutes 6 seconds 374 msec
