                         Program Version 3.0.3 - RELEASE   -
|  1> ! RI PBE def2-SVP def2-SVP/J NBO PAL2
|  2> % maxcore 2000
|  3> % output
|  4>     # printlevel mini
|  5>     print[ P_Basis ] 0
|  6>     print[ P_SCFInfo ] 1
|  7>     print[ P_SCFIterInfo ] 1
|  8>     print[ P_OrbEn ] 0
|  9>     print[ P_Cartesian ] 0
| 10> end
| 11> *xyz 0 1
| 12>  C        1.0246050000     0.1738460000     0.0137390000
| 13>  C        2.5039500000     0.0795750000     0.0163880000
| 14>  N        3.2633920000     1.1123340000     0.0221560000
| 15>  N        4.6208650000     0.6954970000     0.0232470000
| 16>  C        4.6584270000    -0.5805680000     0.0181310000
| 17>  C        3.3018660000    -1.1817500000     0.0128600000
| 18>  H        0.7218540000     1.2200010000     0.0173150000
| 19>  H        0.5985140000    -0.3232070000     0.8901520000
| 20>  H        0.6021050000    -0.3161650000    -0.8683590000
| 21>  H        5.6015900000    -1.1146350000     0.0178890000
| 22>  H        3.1080000000    -1.8113690000     0.8885090000
| 23>  H        3.1116310000    -1.8041510000    -0.8687270000
| 24> *
| 25>
| 26>                          ****END OF INPUT****
 Total Charge           Charge          ....    0
 Multiplicity           Mult            ....    1
 Number of Electrons    NEL             ....   44
 Basis Dimension        Dim             ....  114

MULLIKEN ATOMIC CHARGES
-----------------------
   0 C :    0.102975
   1 C :   -0.213662
   2 N :   -0.092966
   3 N :   -0.085166
   4 C :    0.001178
   5 C :    0.019468
   6 H :    0.038957
   7 H :    0.035792
   8 H :    0.035657
   9 H :    0.015533
  10 H :    0.071173
  11 H :    0.071060
Sum of atomic charges:   -0.0000000

LOEWDIN ATOMIC CHARGES
----------------------
   0 C :   -0.061429
   1 C :   -0.021257
   2 N :   -0.071029
   3 N :   -0.050437
   4 C :   -0.010016
   5 C :   -0.075100
   6 H :    0.044808
   7 H :    0.043289
   8 H :    0.043263
   9 H :    0.023549
  10 H :    0.067186
  11 H :    0.067174

  Mayer bond orders larger than 0.1
B(  0-C ,  1-C ) :   1.1002 B(  0-C ,  6-H ) :   0.9407 B(  0-C ,  7-H ) :   0.9393
B(  0-C ,  8-H ) :   0.9393 B(  1-C ,  2-N ) :   1.8785 B(  1-C ,  5-C ) :   1.0196
B(  2-N ,  3-N ) :   1.0211 B(  3-N ,  4-C ) :   1.8931 B(  4-C ,  5-C ) :   1.0235
B(  4-C ,  9-H ) :   0.9702 B(  5-C , 10-H ) :   0.8884 B(  5-C , 11-H ) :   0.8884

FINAL SINGLE POINT ENERGY      -264.962141690194

DIPOLE MOMENT
-------------
                                X             Y             Z
Electronic contribution:      4.32887       2.50206       0.01915
Nuclear contribution   :     -5.07933      -4.09022      -0.02715
                        -----------------------------------------
Total Dipole Moment    :     -0.75046      -1.58816      -0.00799
                        -----------------------------------------
Magnitude (a.u.)       :      1.75656
Magnitude (Debye)      :      4.46482

                             ****ORCA TERMINATED NORMALLY****
TOTAL RUN TIME: 0 days 0 hours 0 minutes 5 seconds 848 msec
