                         Program Version 3.0.3 - RELEASE   -
|  1> ! RI PBE def2-SVP def2-SVP/J NBO PAL2
|  2> % maxcore 2000
|  3> % output
|  4>     # printlevel mini
|  5>     print[ P_Basis ] 0
|  6>     print[ P_SCFInfo ] 1
|  7>     print[ P_SCFIterInfo ] 1
|  8>     print[ P_OrbEn ] 0
|  9>     print[ P_Cartesian ] 0
| 10> end
| 11> *xyz 0 1
| 12>  C        3.0183510000     1.2061000000     0.2764840000
| 13>  C        2.3173430000    -0.0932810000    -0.0893280000
| 14>  C        3.1334840000    -1.3128380000     0.2393110000
| 15>  C        2.8829920000    -2.6133020000    -0.4748460000
| 16>  C        4.1385880000    -1.8538130000    -0.7422100000
| 17>  N        5.3998460000    -2.4237400000    -0.3667260000
| 18>  H        2.4054200000     2.0757470000     0.0280220000
| 19>  H        3.9686500000     1.3027790000    -0.2553840000
| 20>  H        3.2339410000     1.2480930000     1.3477930000
| 21>  H        2.0893120000    -0.1006550000    -1.1616340000
| 22>  H        1.3495690000    -0.1480330000     0.4230460000
| 23>  H        3.4221560000    -1.4062410000     1.2840440000
| 24>  H        2.1177920000    -2.6379290000    -1.2420370000
| 25>  H        2.9688620000    -3.5324090000     0.0946540000
| 26>  H        4.1792510000    -1.3352410000    -1.6971690000
| 27>  H        5.2794810000    -3.1325880000     0.3447690000
| 28>  H        6.0215800000    -1.7178590000     0.0088310000
| 29> *
| 30>
| 31>                          ****END OF INPUT****
 Total Charge           Charge          ....    0
 Multiplicity           Mult            ....    1
 Number of Electrons    NEL             ....   48
 Basis Dimension        Dim             ....  139

MULLIKEN ATOMIC CHARGES
-----------------------
   0 C :   -0.016389
   1 C :    0.063652
   2 C :   -0.138196
   3 C :    0.004361
   4 C :   -0.073995
   5 N :   -0.120829
   6 H :    0.019743
   7 H :    0.015059
   8 H :    0.014946
   9 H :   -0.005401
  10 H :    0.009612
  11 H :    0.000013
  12 H :    0.027439
  13 H :    0.018803
  14 H :    0.013154
  15 H :    0.076308
  16 H :    0.091720
Sum of atomic charges:    0.0000000

LOEWDIN ATOMIC CHARGES
----------------------
   0 C :   -0.067101
   1 C :   -0.038188
   2 C :   -0.066374
   3 C :   -0.048873
   4 C :   -0.007632
   5 N :   -0.086121
   6 H :    0.025790
   7 H :    0.023939
   8 H :    0.024046
   9 H :    0.024016
  10 H :    0.025349
  11 H :    0.018172
  12 H :    0.026741
  13 H :    0.023974
  14 H :    0.017935
  15 H :    0.050228
  16 H :    0.054098

  Mayer bond orders larger than 0.1
B(  0-C ,  1-C ) :   1.1178 B(  0-C ,  6-H ) :   0.9600 B(  0-C ,  7-H ) :   0.9670
B(  0-C ,  8-H ) :   0.9642 B(  1-C ,  2-C ) :   1.0777 B(  1-C ,  9-H ) :   0.9191
B(  1-C , 10-H ) :   0.9240 B(  2-C ,  3-C ) :   0.9758 B(  2-C ,  4-C ) :   0.9068
B(  2-C , 11-H ) :   0.9372 B(  3-C ,  4-C ) :   1.0186 B(  3-C , 12-H ) :   0.9377
B(  3-C , 13-H ) :   0.9354 B(  4-C ,  5-N ) :   1.1610 B(  4-C , 14-H ) :   0.9360
B(  5-N , 15-H ) :   0.9614 B(  5-N , 16-H ) :   0.9710

FINAL SINGLE POINT ENERGY      -251.342810481951

DIPOLE MOMENT
-------------
                                X             Y             Z
Electronic contribution:      1.40882      -3.07606      -0.67280
Nuclear contribution   :     -1.48457       3.24388       1.09914
                        -----------------------------------------
Total Dipole Moment    :     -0.07575       0.16783       0.42634
                        -----------------------------------------
Magnitude (a.u.)       :      0.46440
Magnitude (Debye)      :      1.18041

                             ****ORCA TERMINATED NORMALLY****
TOTAL RUN TIME: 0 days 0 hours 0 minutes 6 seconds 907 msec
