                         Program Version 3.0.3 - RELEASE   -
|  1> ! RI PBE def2-SVP def2-SVP/J NBO PAL2
|  2> % maxcore 2000
|  3> % output
|  4>     # printlevel mini
|  5>     print[ P_Basis ] 0
|  6>     print[ P_SCFInfo ] 1
|  7>     print[ P_SCFIterInfo ] 1
|  8>     print[ P_OrbEn ] 0
|  9>     print[ P_Cartesian ] 0
| 10> end
| 11> *xyz 0 1
| 12>  C        3.0144890000    -0.5991800000    -1.1065300000
| 13>  C        2.2701740000    -0.0492430000     0.0991640000
| 14>  C        3.0397300000    -0.2047650000     1.3987180000
| 15>  C        2.2250370000     0.1308240000     2.6628440000
| 16>  C        2.0874710000    -1.3870260000     2.8602610000
| 17>  N        3.1849060000    -1.5866860000     1.9010420000
| 18>  H        2.4358170000    -0.4738300000    -2.0243110000
| 19>  H        3.2248230000    -1.6673290000    -0.9993200000
| 20>  H        3.9721190000    -0.0892350000    -1.2424160000
| 21>  H        1.2948130000    -0.5421300000     0.1963970000
| 22>  H        2.0632250000     1.0169460000    -0.0514510000
| 23>  H        4.0041520000     0.3104720000     1.3076110000
| 24>  H        1.3068630000     0.6989130000     2.5103480000
| 25>  H        2.8206340000     0.6079200000     3.4408870000
| 26>  H        1.1138920000    -1.7680040000     2.5279510000
| 27>  H        2.2886070000    -1.7800200000     3.8604740000
| 28>  H        3.0454670000    -2.3175360000     1.2139990000
| 29> *
| 30>
| 31>                          ****END OF INPUT****
 Total Charge           Charge          ....    0
 Multiplicity           Mult            ....    1
 Number of Electrons    NEL             ....   48
 Basis Dimension        Dim             ....  139

MULLIKEN ATOMIC CHARGES
-----------------------
   0 C :   -0.016055
   1 C :    0.037357
   2 C :   -0.063838
   3 C :   -0.011184
   4 C :    0.123580
   5 N :   -0.242795
   6 H :    0.024124
   7 H :    0.013878
   8 H :    0.020379
   9 H :   -0.010184
  10 H :    0.009739
  11 H :   -0.005728
  12 H :    0.009780
  13 H :    0.020511
  14 H :   -0.001184
  15 H :    0.006633
  16 H :    0.084990
Sum of atomic charges:    0.0000000

LOEWDIN ATOMIC CHARGES
----------------------
   0 C :   -0.068599
   1 C :   -0.056302
   2 C :    0.015881
   3 C :   -0.039616
   4 C :    0.028346
   5 N :   -0.109280
   6 H :    0.028288
   7 H :    0.021372
   8 H :    0.026826
   9 H :    0.020611
  10 H :    0.027178
  11 H :    0.007824
  12 H :    0.018862
  13 H :    0.028223
  14 H :    0.001971
  15 H :    0.009615
  16 H :    0.038799

  Mayer bond orders larger than 0.1
B(  0-C ,  1-C ) :   1.1155 B(  0-C ,  6-H ) :   0.9606 B(  0-C ,  7-H ) :   0.9614
B(  0-C ,  8-H ) :   0.9608 B(  1-C ,  2-C ) :   1.0440 B(  1-C ,  9-H ) :   0.9153
B(  1-C , 10-H ) :   0.9205 B(  2-C ,  3-C ) :   1.0810 B(  2-C ,  5-N ) :   1.0727
B(  2-C , 11-H ) :   0.9153 B(  3-C ,  4-C ) :   1.1087 B(  3-C , 12-H ) :   0.9391
B(  3-C , 13-H ) :   0.9162 B(  4-C ,  5-N ) :   1.0534 B(  4-C , 14-H ) :   0.9315
B(  4-C , 15-H ) :   0.9373 B(  5-N , 16-H ) :   0.9468

FINAL SINGLE POINT ENERGY      -251.340042702253

DIPOLE MOMENT
-------------
                                X             Y             Z
Electronic contribution:      0.91106      -0.77825       2.80643
Nuclear contribution   :     -1.30149       0.85975      -3.06936
                        -----------------------------------------
Total Dipole Moment    :     -0.39043       0.08151      -0.26293
                        -----------------------------------------
Magnitude (a.u.)       :      0.47772
Magnitude (Debye)      :      1.21426

                             ****ORCA TERMINATED NORMALLY****
TOTAL RUN TIME: 0 days 0 hours 0 minutes 6 seconds 559 msec
