                         Program Version 3.0.3 - RELEASE   -
|  1> ! RI PBE def2-SVP def2-SVP/J NBO PAL2
|  2> % maxcore 2000
|  3> % output
|  4>     # printlevel mini
|  5>     print[ P_Basis ] 0
|  6>     print[ P_SCFInfo ] 1
|  7>     print[ P_SCFIterInfo ] 1
|  8>     print[ P_OrbEn ] 0
|  9>     print[ P_Cartesian ] 0
| 10> end
| 11> *xyz 0 1
| 12>  C        1.9433100000    -0.1132650000    -0.9516150000
| 13>  C        2.3484280000    -0.1630960000     0.3093850000
| 14>  C        3.0611200000     0.9168860000     1.0403270000
| 15>  C        3.0605710000     2.3595070000     0.5104080000
| 16>  C        2.6491130000     2.7694160000     1.9324300000
| 17>  N        2.4258960000     1.3531440000     2.3206220000
| 18>  H        1.4417170000    -0.9535340000    -1.4171710000
| 19>  H        2.1072720000     0.7629100000    -1.5705160000
| 20>  H        2.1726260000    -1.0667590000     0.8922160000
| 21>  H        4.0795510000     0.5700480000     1.2620770000
| 22>  H        2.2700000000     2.5356720000    -0.2215400000
| 23>  H        4.0023230000     2.7499220000     0.1228580000
| 24>  H        1.7743590000     3.4167400000     2.0226350000
| 25>  H        3.4627160000     3.2086700000     2.5163990000
| 26>  H        1.4347990000     1.1397500000     2.2904880000
| 27> *
| 28>
| 29>                          ****END OF INPUT****
 Total Charge           Charge          ....    0
 Multiplicity           Mult            ....    1
 Number of Electrons    NEL             ....   46
 Basis Dimension        Dim             ....  129

MULLIKEN ATOMIC CHARGES
-----------------------
   0 C :   -0.040356
   1 C :   -0.051994
   2 C :    0.027686
   3 C :    0.008170
   4 C :    0.085924
   5 N :   -0.251661
   6 H :    0.027134
   7 H :    0.024466
   8 H :    0.010808
   9 H :    0.019612
  10 H :    0.005858
  11 H :    0.012327
  12 H :    0.015044
  13 H :    0.020305
  14 H :    0.086677
Sum of atomic charges:    0.0000000

LOEWDIN ATOMIC CHARGES
----------------------
   0 C :   -0.061780
   1 C :   -0.039021
   2 C :    0.014995
   3 C :   -0.046208
   4 C :    0.026809
   5 N :   -0.119339
   6 H :    0.026346
   7 H :    0.022203
   8 H :    0.030092
   9 H :    0.028787
  10 H :    0.023455
  11 H :    0.018987
  12 H :    0.012945
  13 H :    0.016624
  14 H :    0.045106

  Mayer bond orders larger than 0.1
B(  0-C ,  1-C ) :   2.0088 B(  0-C ,  6-H ) :   0.9409 B(  0-C ,  7-H ) :   0.9373
B(  1-C ,  2-C ) :   1.0336 B(  1-C ,  8-H ) :   0.9520 B(  2-C ,  3-C ) :   1.1098
B(  2-C ,  5-N ) :   1.0603 B(  2-C ,  9-H ) :   0.8739 B(  3-C ,  4-C ) :   1.1335
B(  3-C , 10-H ) :   0.8890 B(  3-C , 11-H ) :   0.9297 B(  4-C ,  5-N ) :   1.0694
B(  4-C , 12-H ) :   0.9408 B(  4-C , 13-H ) :   0.9336 B(  5-N , 14-H ) :   0.9386

FINAL SINGLE POINT ENERGY      -250.111880887304

DIPOLE MOMENT
-------------
                                X             Y             Z
Electronic contribution:      0.14384      -1.20832       1.44004
Nuclear contribution   :     -0.37656       1.37087      -1.83004
                        -----------------------------------------
Total Dipole Moment    :     -0.23272       0.16255      -0.39000
                        -----------------------------------------
Magnitude (a.u.)       :      0.48237
Magnitude (Debye)      :      1.22608

                             ****ORCA TERMINATED NORMALLY****
TOTAL RUN TIME: 0 days 0 hours 0 minutes 5 seconds 909 msec
