                         Program Version 3.0.3 - RELEASE   -
|  1> ! RI PBE def2-SVP def2-SVP/J NBO PAL2
|  2> % maxcore 2000
|  3> % output
|  4>     # printlevel mini
|  5>     print[ P_Basis ] 0
|  6>     print[ P_SCFInfo ] 1
|  7>     print[ P_SCFIterInfo ] 1
|  8>     print[ P_OrbEn ] 0
|  9>     print[ P_Cartesian ] 0
| 10> end
| 11> *xyz 0 1
| 12>  C        1.0806330000    -0.1216680000     0.6178550000
| 13>  C        2.2358850000     0.0205550000     0.3182800000
| 14>  C        3.6403930000     0.1598710000    -0.0358090000
| 15>  C        4.4080680000     1.2103090000     0.8055660000
| 16>  C        4.9344370000     0.0215510000     1.6221650000
| 17>  N        4.5334000000    -0.8769080000     0.5251980000
| 18>  H        0.0560650000    -0.2446980000     0.8786860000
| 19>  H        3.7271370000     0.2629290000    -1.1220350000
| 20>  H        3.8062740000     1.9540330000     1.3226560000
| 21>  H        5.1852810000     1.6991800000     0.2192770000
| 22>  H        4.3689600000    -0.1227250000     2.5501710000
| 23>  H        6.0026490000     0.0020960000     1.8498370000
| 24>  H        4.0650170000    -1.7300360000     0.8030530000
| 25> *
| 26>
| 27>                          ****END OF INPUT****
 Total Charge           Charge          ....    0
 Multiplicity           Mult            ....    1
 Number of Electrons    NEL             ....   44
 Basis Dimension        Dim             ....  119

MULLIKEN ATOMIC CHARGES
-----------------------
   0 C :   -0.505493
   1 C :    0.445974
   2 C :   -0.068759
   3 C :    0.003433
   4 C :    0.118594
   5 N :   -0.220417
   6 H :    0.000105
   7 H :    0.041658
   8 H :    0.029932
   9 H :    0.025946
  10 H :    0.012987
  11 H :    0.017437
  12 H :    0.098603
Sum of atomic charges:    0.0000000

LOEWDIN ATOMIC CHARGES
----------------------
   0 C :   -0.085463
   1 C :   -0.034704
   2 C :    0.006628
   3 C :   -0.021157
   4 C :    0.028819
   5 N :   -0.092586
   6 H :    0.034917
   7 H :    0.033686
   8 H :    0.026595
   9 H :    0.031566
  10 H :    0.009907
  11 H :    0.012873
  12 H :    0.048919

  Mayer bond orders larger than 0.1
B(  0-C ,  1-C ) :   2.2805 B(  0-C ,  6-H ) :   1.1044 B(  1-C ,  2-C ) :   0.9323
B(  1-C ,  6-H ) :  -0.1149 B(  2-C ,  3-C ) :   1.0817 B(  2-C ,  5-N ) :   1.0880
B(  2-C ,  7-H ) :   0.8905 B(  3-C ,  4-C ) :   1.1028 B(  3-C ,  8-H ) :   0.9456
B(  3-C ,  9-H ) :   0.9145 B(  4-C ,  5-N ) :   1.0454 B(  4-C , 10-H ) :   0.9330
B(  4-C , 11-H ) :   0.9408 B(  5-N , 12-H ) :   0.9458

FINAL SINGLE POINT ENERGY      -248.871868500071

DIPOLE MOMENT
-------------
                                X             Y             Z
Electronic contribution:     -2.42779      -1.18405      -1.43603
Nuclear contribution   :      2.32357       1.29386       1.73658
                        -----------------------------------------
Total Dipole Moment    :     -0.10422       0.10982       0.30055
                        -----------------------------------------
Magnitude (a.u.)       :      0.33653
Magnitude (Debye)      :      0.85539

                             ****ORCA TERMINATED NORMALLY****
TOTAL RUN TIME: 0 days 0 hours 0 minutes 5 seconds 819 msec
