                         Program Version 3.0.3 - RELEASE   -
|  1> ! RI PBE def2-SVP def2-SVP/J NBO PAL2
|  2> % maxcore 2000
|  3> % output
|  4>     # printlevel mini
|  5>     print[ P_Basis ] 0
|  6>     print[ P_SCFInfo ] 1
|  7>     print[ P_SCFIterInfo ] 1
|  8>     print[ P_OrbEn ] 0
|  9>     print[ P_Cartesian ] 0
| 10> end
| 11> *xyz 0 1
| 12>  C        3.7266800000     0.0357760000    -1.1742440000
| 13>  C        2.6206250000     0.0247240000    -0.1335810000
| 14>  C        3.0362100000    -0.0589470000     1.3214660000
| 15>  C        1.8725470000    -0.1502350000     2.2718230000
| 16>  C        4.3187380000    -0.6773300000     1.7123690000
| 17>  N        4.1333420000     0.7727270000     1.8144850000
| 18>  H        3.3039430000     0.1725520000    -2.1716040000
| 19>  H        4.2876170000    -0.9010200000    -1.1848840000
| 20>  H        4.4378190000     0.8527200000    -1.0197400000
| 21>  H        1.9477030000    -0.8160220000    -0.3365640000
| 22>  H        2.0077880000     0.9277350000    -0.2475830000
| 23>  H        1.2980170000    -1.0652000000     2.1007670000
| 24>  H        1.1993890000     0.7020350000     2.1391770000
| 25>  H        2.2223390000    -0.1447280000     3.3047700000
| 26>  H        4.9756770000    -1.0590730000     0.9381170000
| 27>  H        4.3942430000    -1.1963720000     2.6628400000
| 28>  H        4.6072120000     1.2294680000     1.0421870000
| 29> *
| 30>
| 31>                          ****END OF INPUT****
 Total Charge           Charge          ....    0
 Multiplicity           Mult            ....    1
 Number of Electrons    NEL             ....   48
 Basis Dimension        Dim             ....  139

MULLIKEN ATOMIC CHARGES
-----------------------
   0 C :   -0.045433
   1 C :    0.071302
   2 C :   -0.303249
   3 C :    0.118404
   4 C :    0.064375
   5 N :   -0.181232
   6 H :    0.022093
   7 H :    0.031560
   8 H :    0.017760
   9 H :    0.015297
  10 H :    0.012594
  11 H :    0.013221
  12 H :    0.016270
  13 H :    0.012170
  14 H :    0.020767
  15 H :    0.022057
  16 H :    0.092044
Sum of atomic charges:    0.0000000

LOEWDIN ATOMIC CHARGES
----------------------
   0 C :   -0.070452
   1 C :   -0.043672
   2 C :   -0.033805
   3 C :   -0.052006
   4 C :    0.000568
   5 N :   -0.101525
   6 H :    0.033296
   7 H :    0.026971
   8 H :    0.020593
   9 H :    0.031790
  10 H :    0.028748
  11 H :    0.026555
  12 H :    0.028394
  13 H :    0.031451
  14 H :    0.011389
  15 H :    0.017310
  16 H :    0.044394

  Mayer bond orders larger than 0.1
B(  0-C ,  1-C ) :   1.1172 B(  0-C ,  6-H ) :   0.9518 B(  0-C ,  7-H ) :   0.9576
B(  0-C ,  8-H ) :   0.9580 B(  1-C ,  2-C ) :   1.0329 B(  1-C ,  9-H ) :   0.9237
B(  1-C , 10-H ) :   0.9256 B(  2-C ,  3-C ) :   1.0741 B(  2-C ,  4-C ) :   1.0446
B(  2-C ,  5-N ) :   0.9685 B(  3-C , 11-H ) :   0.9542 B(  3-C , 12-H ) :   0.9526
B(  3-C , 13-H ) :   0.9393 B(  4-C ,  5-N ) :   0.9973 B(  4-C , 14-H ) :   0.9367
B(  4-C , 15-H ) :   0.9318 B(  5-N , 16-H ) :   0.9517

FINAL SINGLE POINT ENERGY      -251.340853847773

DIPOLE MOMENT
-------------
                                X             Y             Z
Electronic contribution:      1.32031       0.89936       2.36649
Nuclear contribution   :     -1.38373      -1.16418      -2.99746
                        -----------------------------------------
Total Dipole Moment    :     -0.06341      -0.26483      -0.63097
                        -----------------------------------------
Magnitude (a.u.)       :      0.68723
Magnitude (Debye)      :      1.74679

                             ****ORCA TERMINATED NORMALLY****
TOTAL RUN TIME: 0 days 0 hours 0 minutes 7 seconds 55 msec
