                         Program Version 3.0.3 - RELEASE   -
|  1> ! RI PBE def2-SVP def2-SVP/J NBO PAL2
|  2> % maxcore 2000
|  3> % output
|  4>     # printlevel mini
|  5>     print[ P_Basis ] 0
|  6>     print[ P_SCFInfo ] 1
|  7>     print[ P_SCFIterInfo ] 1
|  8>     print[ P_OrbEn ] 0
|  9>     print[ P_Cartesian ] 0
| 10> end
| 11> *xyz 0 1
| 12>  C        2.8990160000     1.1997810000     0.3772090000
| 13>  C        2.5888230000    -0.2309020000    -0.0334920000
| 14>  C        3.0325590000    -0.5333160000    -1.4356330000
| 15>  C        2.3378530000    -1.5097260000    -2.3047920000
| 16>  N        2.1820160000    -0.0842420000    -2.5189120000
| 17>  C        2.8473940000     0.4542060000    -3.6825550000
| 18>  H        2.5609690000     1.4052180000     1.3953960000
| 19>  H        2.4016260000     1.9059890000    -0.2918920000
| 20>  H        3.9737450000     1.3996410000     0.3380770000
| 21>  H        1.5121670000    -0.4129460000     0.0345780000
| 22>  H        3.0736100000    -0.9348870000     0.6524660000
| 23>  H        4.1061210000    -0.4383200000    -1.6102840000
| 24>  H        1.4596210000    -2.0334680000    -1.9397380000
| 25>  H        2.9398980000    -2.0656830000    -3.0205040000
| 26>  H        2.2007470000     0.3433010000    -4.5564990000
| 27>  H        3.8074790000    -0.0417580000    -3.8993470000
| 28>  H        3.0379340000     1.5197130000    -3.5333670000
| 29> *
| 30>
| 31>                          ****END OF INPUT****
 Total Charge           Charge          ....    0
 Multiplicity           Mult            ....    1
 Number of Electrons    NEL             ....   48
 Basis Dimension        Dim             ....  139

MULLIKEN ATOMIC CHARGES
-----------------------
   0 C :   -0.034539
   1 C :    0.095134
   2 C :   -0.111188
   3 C :    0.079809
   4 N :   -0.287247
   5 C :    0.085235
   6 H :    0.018628
   7 H :    0.028413
   8 H :    0.015023
   9 H :   -0.000662
  10 H :    0.012827
  11 H :    0.008193
  12 H :    0.023759
  13 H :    0.018214
  14 H :    0.026283
  15 H :   -0.005903
  16 H :    0.028021
Sum of atomic charges:   -0.0000000

LOEWDIN ATOMIC CHARGES
----------------------
   0 C :   -0.066281
   1 C :   -0.044501
   2 C :   -0.003847
   3 C :    0.003957
   4 N :   -0.111804
   5 C :   -0.001727
   6 H :    0.026196
   7 H :    0.028152
   8 H :    0.023137
   9 H :    0.029418
  10 H :    0.027792
  11 H :    0.009610
  12 H :    0.018803
  13 H :    0.011890
  14 H :    0.024017
  15 H :    0.000855
  16 H :    0.024333

  Mayer bond orders larger than 0.1
B(  0-C ,  1-C ) :   1.1145 B(  0-C ,  6-H ) :   0.9601 B(  0-C ,  7-H ) :   0.9676
B(  0-C ,  8-H ) :   0.9668 B(  1-C ,  2-C ) :   1.0639 B(  1-C ,  9-H ) :   0.9140
B(  1-C , 10-H ) :   0.9248 B(  2-C ,  3-C ) :   1.0466 B(  2-C ,  4-N ) :   0.9223
B(  2-C , 11-H ) :   0.9271 B(  3-C ,  4-N ) :   0.9739 B(  3-C , 12-H ) :   0.9370
B(  3-C , 13-H ) :   0.9317 B(  4-N ,  5-C ) :   1.0288 B(  5-C , 14-H ) :   0.9696
B(  5-C , 15-H ) :   0.9349 B(  5-C , 16-H ) :   0.9705

FINAL SINGLE POINT ENERGY      -251.333814485354

DIPOLE MOMENT
-------------
                                X             Y             Z
Electronic contribution:     -1.34891      -1.72069      -1.22725
Nuclear contribution   :      1.69847       1.57333       1.16844
                        -----------------------------------------
Total Dipole Moment    :      0.34956      -0.14736      -0.05881
                        -----------------------------------------
Magnitude (a.u.)       :      0.38389
Magnitude (Debye)      :      0.97576

                             ****ORCA TERMINATED NORMALLY****
TOTAL RUN TIME: 0 days 0 hours 0 minutes 6 seconds 461 msec
