                         Program Version 3.0.3 - RELEASE   -
|  1> ! RI PBE def2-SVP def2-SVP/J NBO PAL2
|  2> % maxcore 2000
|  3> % output
|  4>     # printlevel mini
|  5>     print[ P_Basis ] 0
|  6>     print[ P_SCFInfo ] 1
|  7>     print[ P_SCFIterInfo ] 1
|  8>     print[ P_OrbEn ] 0
|  9>     print[ P_Cartesian ] 0
| 10> end
| 11> *xyz 0 1
| 12>  C        3.3284730000     0.6232160000    -1.0745940000
| 13>  C        2.5228440000    -0.0247470000     0.0405180000
| 14>  C        3.1289290000    -1.3201460000     0.5247550000
| 15>  C        2.3495220000    -2.1961900000     1.5215440000
| 16>  N        2.8048970000    -3.3857330000     0.7856150000
| 17>  C        3.1008890000    -2.5576020000    -0.3935400000
| 18>  H        2.8695560000     1.5555090000    -1.4111410000
| 19>  H        3.4065140000    -0.0389170000    -1.9415020000
| 20>  H        4.3450670000     0.8528310000    -0.7434570000
| 21>  H        1.4996980000    -0.2145830000    -0.3050450000
| 22>  H        2.4362990000     0.6699670000     0.8842160000
| 23>  H        4.1463600000    -1.1506560000     0.8897970000
| 24>  H        1.2680680000    -2.0094120000     1.4501500000
| 25>  H        2.6440670000    -2.1657100000     2.5743080000
| 26>  H        2.1134100000    -4.1118280000     0.6509460000
| 27>  H        2.2743610000    -2.4924790000    -1.1169990000
| 28>  H        4.0158540000    -2.8295110000    -0.9268700000
| 29> *
| 30>
| 31>                          ****END OF INPUT****
 Total Charge           Charge          ....    0
 Multiplicity           Mult            ....    1
 Number of Electrons    NEL             ....   48
 Basis Dimension        Dim             ....  139

MULLIKEN ATOMIC CHARGES
-----------------------
   0 C :   -0.007908
   1 C :    0.020813
   2 C :   -0.252086
   3 C :    0.175244
   4 N :   -0.275826
   5 C :    0.161170
   6 H :    0.018173
   7 H :    0.020766
   8 H :    0.015363
   9 H :   -0.000478
  10 H :    0.019238
  11 H :    0.011702
  12 H :   -0.010107
  13 H :    0.010287
  14 H :    0.091543
  15 H :   -0.006213
  16 H :    0.008318
Sum of atomic charges:   -0.0000000

LOEWDIN ATOMIC CHARGES
----------------------
   0 C :   -0.064685
   1 C :   -0.049079
   2 C :   -0.042654
   3 C :    0.027329
   4 N :   -0.113946
   5 C :    0.025892
   6 H :    0.026719
   7 H :    0.025015
   8 H :    0.025272
   9 H :    0.019641
  10 H :    0.027365
  11 H :    0.026633
  12 H :    0.002367
  13 H :    0.009012
  14 H :    0.044576
  15 H :    0.002152
  16 H :    0.008390

  Mayer bond orders larger than 0.1
B(  0-C ,  1-C ) :   1.1215 B(  0-C ,  6-H ) :   0.9588 B(  0-C ,  7-H ) :   0.9678
B(  0-C ,  8-H ) :   0.9619 B(  1-C ,  2-C ) :   1.0702 B(  1-C ,  9-H ) :   0.9177
B(  1-C , 10-H ) :   0.9311 B(  2-C ,  3-C ) :   1.0596 B(  2-C ,  5-C ) :   1.0627
B(  2-C , 11-H ) :   0.9001 B(  3-C ,  4-N ) :   1.0509 B(  3-C , 12-H ) :   0.9204
B(  3-C , 13-H ) :   0.9355 B(  4-N ,  5-C ) :   1.0494 B(  4-N , 14-H ) :   0.9424
B(  5-C , 15-H ) :   0.9235 B(  5-C , 16-H ) :   0.9361

FINAL SINGLE POINT ENERGY      -251.338699525990

DIPOLE MOMENT
-------------
                                X             Y             Z
Electronic contribution:      0.10240      -3.76689       2.04577
Nuclear contribution   :     -0.45663       3.96884      -2.22756
                        -----------------------------------------
Total Dipole Moment    :     -0.35424       0.20195      -0.18178
                        -----------------------------------------
Magnitude (a.u.)       :      0.44645
Magnitude (Debye)      :      1.13478

                             ****ORCA TERMINATED NORMALLY****
TOTAL RUN TIME: 0 days 0 hours 0 minutes 6 seconds 530 msec
