                         Program Version 3.0.3 - RELEASE   -
|  1> ! RI PBE def2-SVP def2-SVP/J NBO PAL2
|  2> % maxcore 2000
|  3> % output
|  4>     # printlevel mini
|  5>     print[ P_Basis ] 0
|  6>     print[ P_SCFInfo ] 1
|  7>     print[ P_SCFIterInfo ] 1
|  8>     print[ P_OrbEn ] 0
|  9>     print[ P_Cartesian ] 0
| 10> end
| 11> *xyz 0 1
| 12>  C        2.6159990000    -0.6655080000    -0.9452060000
| 13>  C        2.1650420000     0.2832040000    -0.1347850000
| 14>  C        3.0152440000     1.2103250000     0.6461810000
| 15>  C        2.7362370000     2.7281620000     0.5722370000
| 16>  N        3.0002480000     2.8200510000     2.0150880000
| 17>  C        2.7499970000     1.3789850000     2.1589160000
| 18>  H        1.9418980000    -1.3150080000    -1.4914590000
| 19>  H        3.6800450000    -0.8256110000    -1.0903390000
| 20>  H        1.0890130000     0.4102010000    -0.0174880000
| 21>  H        4.0731310000     1.0083970000     0.4652470000
| 22>  H        1.6920500000     2.9243510000     0.2903190000
| 23>  H        3.3931690000     3.3306150000    -0.0604940000
| 24>  H        2.3844660000     3.4287500000     2.5380310000
| 25>  H        1.7103420000     1.1234090000     2.4081500000
| 26>  H        3.4182200000     0.8569770000     2.8487220000
| 27> *
| 28>
| 29>                          ****END OF INPUT****
 Total Charge           Charge          ....    0
 Multiplicity           Mult            ....    1
 Number of Electrons    NEL             ....   46
 Basis Dimension        Dim             ....  129

MULLIKEN ATOMIC CHARGES
-----------------------
   0 C :   -0.033555
   1 C :    0.016901
   2 C :   -0.226432
   3 C :    0.186406
   4 N :   -0.280121
   5 C :    0.189161
   6 H :    0.023430
   7 H :    0.017822
   8 H :   -0.007436
   9 H :    0.011326
  10 H :   -0.012466
  11 H :    0.016780
  12 H :    0.094193
  13 H :   -0.012872
  14 H :    0.016862
Sum of atomic charges:   -0.0000000

LOEWDIN ATOMIC CHARGES
----------------------
   0 C :   -0.060407
   1 C :   -0.031776
   2 C :   -0.043640
   3 C :    0.036679
   4 N :   -0.114809
   5 C :    0.037034
   6 H :    0.024897
   7 H :    0.022469
   8 H :    0.022219
   9 H :    0.032594
  10 H :    0.002522
  11 H :    0.012010
  12 H :    0.045767
  13 H :    0.002385
  14 H :    0.012054

  Mayer bond orders larger than 0.1
B(  0-C ,  1-C ) :   1.9950 B(  0-C ,  6-H ) :   0.9380 B(  0-C ,  7-H ) :   0.9515
B(  1-C ,  2-C ) :   1.0405 B(  1-C ,  8-H ) :   0.9453 B(  2-C ,  3-C ) :   1.0382
B(  2-C ,  5-C ) :   1.0387 B(  2-C ,  9-H ) :   0.9077 B(  3-C ,  4-N ) :   1.0513
B(  3-C , 10-H ) :   0.9245 B(  3-C , 11-H ) :   0.9355 B(  4-N ,  5-C ) :   1.0504
B(  4-N , 12-H ) :   0.9440 B(  5-C , 13-H ) :   0.9243 B(  5-C , 14-H ) :   0.9354

FINAL SINGLE POINT ENERGY      -250.115045968405

DIPOLE MOMENT
-------------
                                X             Y             Z
Electronic contribution:      0.52227       0.87957       0.74439
Nuclear contribution   :     -0.92721      -0.87874      -0.73885
                        -----------------------------------------
Total Dipole Moment    :     -0.40494       0.00083       0.00553
                        -----------------------------------------
Magnitude (a.u.)       :      0.40498
Magnitude (Debye)      :      1.02937

                             ****ORCA TERMINATED NORMALLY****
TOTAL RUN TIME: 0 days 0 hours 0 minutes 6 seconds 262 msec
