                         Program Version 3.0.3 - RELEASE   -
|  1> ! RI PBE def2-SVP def2-SVP/J NBO PAL2
|  2> % maxcore 2000
|  3> % output
|  4>     # printlevel mini
|  5>     print[ P_Basis ] 0
|  6>     print[ P_SCFInfo ] 1
|  7>     print[ P_SCFIterInfo ] 1
|  8>     print[ P_OrbEn ] 0
|  9>     print[ P_Cartesian ] 0
| 10> end
| 11> *xyz 0 1
| 12>  C        0.9419440000     0.0947600000     0.0042040000
| 13>  C        2.1432920000     0.0960320000     0.0166760000
| 14>  C        3.5847620000     0.0974750000     0.0484220000
| 15>  C        4.3235390000     1.1398720000     0.9195290000
| 16>  N        5.2930450000     0.0943640000     1.2765740000
| 17>  C        4.3257990000    -0.9503200000     0.9110900000
| 18>  H       -0.1220920000     0.0934780000    -0.0111580000
| 19>  H        3.9883710000     0.1020130000    -0.9667160000
| 20>  H        3.6882430000     1.4737020000     1.7490320000
| 21>  H        4.7433960000     2.0094010000     0.4089680000
| 22>  H        5.5964230000     0.0907980000     2.2414800000
| 23>  H        3.6912350000    -1.2922090000     1.7378630000
| 24>  H        4.7475320000    -1.8147880000     0.3935270000
| 25> *
| 26>
| 27>                          ****END OF INPUT****
 Total Charge           Charge          ....    0
 Multiplicity           Mult            ....    1
 Number of Electrons    NEL             ....   44
 Basis Dimension        Dim             ....  119

MULLIKEN ATOMIC CHARGES
-----------------------
   0 C :   -0.501617
   1 C :    0.463487
   2 C :   -0.256309
   3 C :    0.193656
   4 N :   -0.282639
   5 C :    0.193440
   6 H :   -0.002358
   7 H :    0.048927
   8 H :    0.003374
   9 H :    0.019613
  10 H :    0.097324
  11 H :    0.003402
  12 H :    0.019701
Sum of atomic charges:   -0.0000000

LOEWDIN ATOMIC CHARGES
----------------------
   0 C :   -0.086047
   1 C :   -0.022499
   2 C :   -0.052241
   3 C :    0.046621
   4 N :   -0.113439
   5 C :    0.046591
   6 H :    0.033669
   7 H :    0.051192
   8 H :    0.009608
   9 H :    0.013941
  10 H :    0.049030
  11 H :    0.009622
  12 H :    0.013952

  Mayer bond orders larger than 0.1
B(  0-C ,  1-C ) :   2.2755 B(  0-C ,  6-H ) :   1.1055 B(  1-C ,  2-C ) :   0.9758
B(  1-C ,  6-H ) :  -0.1147 B(  2-C ,  3-C ) :   1.0522 B(  2-C ,  5-C ) :   1.0524
B(  2-C ,  7-H ) :   0.8630 B(  3-C ,  4-N ) :   1.0487 B(  3-C ,  8-H ) :   0.9280
B(  3-C ,  9-H ) :   0.9349 B(  4-N ,  5-C ) :   1.0487 B(  4-N , 10-H ) :   0.9432
B(  5-C , 11-H ) :   0.9279 B(  5-C , 12-H ) :   0.9349

FINAL SINGLE POINT ENERGY      -248.871941887537

DIPOLE MOMENT
-------------
                                X             Y             Z
Electronic contribution:     -1.70323       0.00267      -1.10850
Nuclear contribution   :      1.66718      -0.00426       1.46531
                        -----------------------------------------
Total Dipole Moment    :     -0.03605      -0.00158       0.35681
                        -----------------------------------------
Magnitude (a.u.)       :      0.35863
Magnitude (Debye)      :      0.91156

                             ****ORCA TERMINATED NORMALLY****
TOTAL RUN TIME: 0 days 0 hours 0 minutes 5 seconds 669 msec
