                         Program Version 3.0.3 - RELEASE   -
|  1> ! RI PBE def2-SVP def2-SVP/J NBO PAL2
|  2> % maxcore 2000
|  3> % output
|  4>     # printlevel mini
|  5>     print[ P_Basis ] 0
|  6>     print[ P_SCFInfo ] 1
|  7>     print[ P_SCFIterInfo ] 1
|  8>     print[ P_OrbEn ] 0
|  9>     print[ P_Cartesian ] 0
| 10> end
| 11> *xyz 0 1
| 12>  C        1.0793140000    -0.2574410000    -0.1156080000
| 13>  C        2.5801090000    -0.0145400000    -0.0666190000
| 14>  C        3.0284470000     0.5947930000     1.2313820000
| 15>  N        4.3438110000     1.2211590000     1.3416920000
| 16>  C        3.1424800000     2.0575010000     1.3905960000
| 17>  C        2.8654640000     2.7575910000     2.6860490000
| 18>  H        0.7814750000    -0.7144560000    -1.0617990000
| 19>  H        0.5250940000     0.6778830000    -0.0042300000
| 20>  H        0.7636150000    -0.9270280000     0.6888230000
| 21>  H        2.8788650000     0.6462750000    -0.8895390000
| 22>  H        3.1114110000    -0.9610800000    -0.2218020000
| 23>  H        2.7593120000     0.0210440000     2.1174370000
| 24>  H        4.7754850000     1.2746590000     0.4241680000
| 25>  H        2.9199670000     2.6364610000     0.4951260000
| 26>  H        3.1185450000     2.1092840000     3.5270120000
| 27>  H        1.8106520000     3.0346230000     2.7654340000
| 28>  H        3.4635430000     3.6685810000     2.7740660000
| 29> *
| 30>
| 31>                          ****END OF INPUT****
 Total Charge           Charge          ....    0
 Multiplicity           Mult            ....    1
 Number of Electrons    NEL             ....   48
 Basis Dimension        Dim             ....  139

MULLIKEN ATOMIC CHARGES
-----------------------
   0 C :   -0.014804
   1 C :    0.056833
   2 C :   -0.084744
   3 N :   -0.162651
   4 C :   -0.136312
   5 C :    0.104258
   6 H :    0.020158
   7 H :    0.019763
   8 H :    0.023256
   9 H :   -0.011608
  10 H :    0.017908
  11 H :    0.008672
  12 H :    0.098981
  13 H :    0.011807
  14 H :    0.011261
  15 H :    0.017897
  16 H :    0.019325
Sum of atomic charges:   -0.0000000

LOEWDIN ATOMIC CHARGES
----------------------
   0 C :   -0.063516
   1 C :   -0.050034
   2 C :   -0.008519
   3 N :   -0.103768
   4 C :   -0.010773
   5 C :   -0.062451
   6 H :    0.027272
   7 H :    0.025553
   8 H :    0.026795
   9 H :    0.021314
  10 H :    0.028030
  11 H :    0.017809
  12 H :    0.049985
  13 H :    0.011853
  14 H :    0.031861
  15 H :    0.028421
  16 H :    0.030169

  Mayer bond orders larger than 0.1
B(  0-C ,  1-C ) :   1.1076 B(  0-C ,  6-H ) :   0.9575 B(  0-C ,  7-H ) :   0.9670
B(  0-C ,  8-H ) :   0.9674 B(  1-C ,  2-C ) :   1.0656 B(  1-C ,  9-H ) :   0.9115
B(  1-C , 10-H ) :   0.9245 B(  2-C ,  3-N ) :   0.9818 B(  2-C ,  4-C ) :   1.0062
B(  2-C , 11-H ) :   0.9266 B(  3-N ,  4-C ) :   1.0064 B(  3-N , 12-H ) :   0.9401
B(  4-C ,  5-C ) :   1.0794 B(  4-C , 13-H ) :   0.9342 B(  5-C , 14-H ) :   0.9428
B(  5-C , 15-H ) :   0.9591 B(  5-C , 16-H ) :   0.9497

FINAL SINGLE POINT ENERGY      -251.343856284433

DIPOLE MOMENT
-------------
                                X             Y             Z
Electronic contribution:      3.50372       0.23992       0.58185
Nuclear contribution   :     -3.88985      -0.19485      -1.07610
                        -----------------------------------------
Total Dipole Moment    :     -0.38614       0.04508      -0.49425
                        -----------------------------------------
Magnitude (a.u.)       :      0.62882
Magnitude (Debye)      :      1.59834

                             ****ORCA TERMINATED NORMALLY****
TOTAL RUN TIME: 0 days 0 hours 0 minutes 6 seconds 655 msec
