                         Program Version 3.0.3 - RELEASE   -
|  1> ! RI PBE def2-SVP def2-SVP/J NBO PAL2
|  2> % maxcore 2000
|  3> % output
|  4>     # printlevel mini
|  5>     print[ P_Basis ] 0
|  6>     print[ P_SCFInfo ] 1
|  7>     print[ P_SCFIterInfo ] 1
|  8>     print[ P_OrbEn ] 0
|  9>     print[ P_Cartesian ] 0
| 10> end
| 11> *xyz 0 1
| 12>  C        0.9776380000     0.7440390000     0.5638190000
| 13>  C        2.2983860000     0.1196060000     0.1470530000
| 14>  C        2.9598630000     0.6550470000    -1.1089620000
| 15>  N        4.2098220000     0.0328330000    -1.4643520000
| 16>  C        2.1419360000     1.0918280000    -2.2848480000
| 17>  C        2.8821340000     2.1083670000    -1.4614520000
| 18>  H        0.6072810000     0.2742060000     1.4776520000
| 19>  H        0.2078890000     0.6171580000    -0.2007450000
| 20>  H        1.0783180000     1.8126360000     0.7666660000
| 21>  H        2.1562100000    -0.9602540000     0.0101650000
| 22>  H        3.0185130000     0.2236370000     0.9690330000
| 23>  H        4.0804980000    -0.9628230000    -1.6077780000
| 24>  H        4.8837870000     0.1404440000    -0.7141380000
| 25>  H        1.0621840000     1.0694510000    -2.2087710000
| 26>  H        2.5396610000     0.8569110000    -3.2635860000
| 27>  H        2.2999430000     2.7692980000    -0.8318540000
| 28>  H        3.7715450000     2.5486280000    -1.8932040000
| 29> *
| 30>
| 31>                          ****END OF INPUT****
 Total Charge           Charge          ....    0
 Multiplicity           Mult            ....    1
 Number of Electrons    NEL             ....   48
 Basis Dimension        Dim             ....  139

MULLIKEN ATOMIC CHARGES
-----------------------
   0 C :   -0.050197
   1 C :    0.073454
   2 C :   -0.221454
   3 N :   -0.140075
   4 C :   -0.014460
   5 C :   -0.006492
   6 H :    0.015460
   7 H :    0.029027
   8 H :    0.026536
   9 H :    0.003138
  10 H :    0.002562
  11 H :    0.087407
  12 H :    0.086916
  13 H :    0.031302
  14 H :    0.024898
  15 H :    0.026521
  16 H :    0.025458
Sum of atomic charges:   -0.0000000

LOEWDIN ATOMIC CHARGES
----------------------
   0 C :   -0.070286
   1 C :   -0.050423
   2 C :   -0.032572
   3 N :   -0.077900
   4 C :   -0.047951
   5 C :   -0.046095
   6 H :    0.029739
   7 H :    0.025871
   8 H :    0.025752
   9 H :    0.022458
  10 H :    0.021886
  11 H :    0.050916
  12 H :    0.050509
  13 H :    0.021834
  14 H :    0.027509
  15 H :    0.021155
  16 H :    0.027598

  Mayer bond orders larger than 0.1
B(  0-C ,  1-C ) :   1.1089 B(  0-C ,  6-H ) :   0.9488 B(  0-C ,  7-H ) :   0.9613
B(  0-C ,  8-H ) :   0.9592 B(  1-C ,  2-C ) :   1.0266 B(  1-C ,  9-H ) :   0.9222
B(  1-C , 10-H ) :   0.9250 B(  2-C ,  3-N ) :   1.1362 B(  2-C ,  4-C ) :   0.9746
B(  2-C ,  5-C ) :   0.9814 B(  3-N , 11-H ) :   0.9697 B(  3-N , 12-H ) :   0.9697
B(  4-C ,  5-C ) :   1.0365 B(  4-C , 13-H ) :   0.9454 B(  4-C , 14-H ) :   0.9329
B(  5-C , 15-H ) :   0.9444 B(  5-C , 16-H ) :   0.9334

FINAL SINGLE POINT ENERGY      -251.345466581345

DIPOLE MOMENT
-------------
                                X             Y             Z
Electronic contribution:      2.49435      -0.21476      -1.97562
Nuclear contribution   :     -2.55259      -0.08334       2.39859
                        -----------------------------------------
Total Dipole Moment    :     -0.05824      -0.29810       0.42297
                        -----------------------------------------
Magnitude (a.u.)       :      0.52073
Magnitude (Debye)      :      1.32360

                             ****ORCA TERMINATED NORMALLY****
TOTAL RUN TIME: 0 days 0 hours 0 minutes 6 seconds 836 msec
