                         Program Version 3.0.3 - RELEASE   -
|  1> ! RI PBE def2-SVP def2-SVP/J NBO PAL2
|  2> % maxcore 2000
|  3> % output
|  4>     # printlevel mini
|  5>     print[ P_Basis ] 0
|  6>     print[ P_SCFInfo ] 1
|  7>     print[ P_SCFIterInfo ] 1
|  8>     print[ P_OrbEn ] 0
|  9>     print[ P_Cartesian ] 0
| 10> end
| 11> *xyz 0 1
| 12>  C        1.0723480000     0.3590370000     0.3428010000
| 13>  C        2.5485790000     0.5436070000     0.0349610000
| 14>  C        3.2663190000    -0.7719890000    -0.2338010000
| 15>  C        4.7213970000    -0.5961810000    -0.5623610000
| 16>  C        5.7416360000    -0.6435120000     0.5014630000
| 17>  N        5.6425510000    -1.7237220000    -0.4797250000
| 18>  H        0.5794180000     1.3157830000     0.5290110000
| 19>  H        0.9286430000    -0.2659600000     1.2288170000
| 20>  H        0.5534230000    -0.1255880000    -0.4889530000
| 21>  H        3.0410840000     1.0571820000     0.8676610000
| 22>  H        2.6632010000     1.1986440000    -0.8359750000
| 23>  H        2.7685710000    -1.2936640000    -1.0611660000
| 24>  H        3.1755730000    -1.4259250000     0.6436300000
| 25>  H        4.9189960000     0.0476450000    -1.4171800000
| 26>  H        5.3967230000    -0.8296870000     1.5148690000
| 27>  H        6.6410040000    -0.0413000000     0.4311590000
| 28>  H        5.1693060000    -2.5217590000    -0.0674900000
| 29> *
| 30>
| 31>                          ****END OF INPUT****
 Total Charge           Charge          ....    0
 Multiplicity           Mult            ....    1
 Number of Electrons    NEL             ....   48
 Basis Dimension        Dim             ....  139

MULLIKEN ATOMIC CHARGES
-----------------------
   0 C :   -0.003564
   1 C :   -0.058731
   2 C :    0.071688
   3 C :   -0.119419
   4 C :    0.025357
   5 N :   -0.185315
   6 H :    0.020489
   7 H :    0.016857
   8 H :    0.019952
   9 H :    0.011286
  10 H :    0.018306
  11 H :    0.015142
  12 H :   -0.018007
  13 H :    0.021932
  14 H :    0.025265
  15 H :    0.036677
  16 H :    0.102086
Sum of atomic charges:    0.0000000

LOEWDIN ATOMIC CHARGES
----------------------
   0 C :   -0.066982
   1 C :   -0.044976
   2 C :   -0.047542
   3 C :   -0.010383
   4 C :   -0.004915
   5 N :   -0.102948
   6 H :    0.027613
   7 H :    0.024433
   8 H :    0.025363
   9 H :    0.023503
  10 H :    0.025296
  11 H :    0.027217
  12 H :    0.020178
  13 H :    0.020865
  14 H :    0.012773
  15 H :    0.020633
  16 H :    0.049873

  Mayer bond orders larger than 0.1
B(  0-C ,  1-C ) :   1.1149 B(  0-C ,  6-H ) :   0.9594 B(  0-C ,  7-H ) :   0.9645
B(  0-C ,  8-H ) :   0.9647 B(  1-C ,  2-C ) :   1.0839 B(  1-C ,  9-H ) :   0.9409
B(  1-C , 10-H ) :   0.9399 B(  2-C ,  3-C ) :   1.0673 B(  2-C , 11-H ) :   0.9248
B(  2-C , 12-H ) :   0.9071 B(  3-C ,  4-C ) :   1.0522 B(  3-C ,  5-N ) :   0.9917
B(  3-C , 13-H ) :   0.9297 B(  4-C ,  5-N ) :   1.0127 B(  4-C , 14-H ) :   0.9418
B(  4-C , 15-H ) :   0.9421 B(  5-N , 16-H ) :   0.9482

FINAL SINGLE POINT ENERGY      -251.337043214547

DIPOLE MOMENT
-------------
                                X             Y             Z
Electronic contribution:      5.04756      -2.04613      -1.39363
Nuclear contribution   :     -5.58301       2.17987       1.78814
                        -----------------------------------------
Total Dipole Moment    :     -0.53546       0.13374       0.39451
                        -----------------------------------------
Magnitude (a.u.)       :      0.67841
Magnitude (Debye)      :      1.72438

                             ****ORCA TERMINATED NORMALLY****
TOTAL RUN TIME: 0 days 0 hours 0 minutes 6 seconds 869 msec
