                         Program Version 3.0.3 - RELEASE   -
|  1> ! RI PBE def2-SVP def2-SVP/J NBO PAL2
|  2> % maxcore 2000
|  3> % output
|  4>     # printlevel mini
|  5>     print[ P_Basis ] 0
|  6>     print[ P_SCFInfo ] 1
|  7>     print[ P_SCFIterInfo ] 1
|  8>     print[ P_OrbEn ] 0
|  9>     print[ P_Cartesian ] 0
| 10> end
| 11> *xyz 0 1
| 12>  C        1.3390570000    -0.5987110000     0.8351340000
| 13>  C        2.2518830000     0.2649860000     0.4145060000
| 14>  C        3.1553660000     0.0576680000    -0.7572490000
| 15>  C        4.6149830000     0.1376130000    -0.3859500000
| 16>  C        5.3532020000    -1.0809990000    -0.0140810000
| 17>  N        5.6290900000    -0.4022450000    -1.2814080000
| 18>  H        0.7138890000    -0.3898750000     1.6954440000
| 19>  H        1.1805360000    -1.5471510000     0.3306010000
| 20>  H        2.3760660000     1.2042680000     0.9510840000
| 21>  H        2.9464640000     0.8226550000    -1.5171140000
| 22>  H        2.9498410000    -0.9155590000    -1.2170880000
| 23>  H        4.9129210000     1.0735500000     0.0815210000
| 24>  H        4.8044240000    -2.0181370000    -0.0339350000
| 25>  H        6.1563220000    -1.0386620000     0.7133670000
| 26>  H        5.1856360000    -0.9007030000    -2.0466300000
| 27> *
| 28>
| 29>                          ****END OF INPUT****
 Total Charge           Charge          ....    0
 Multiplicity           Mult            ....    1
 Number of Electrons    NEL             ....   46
 Basis Dimension        Dim             ....  129

MULLIKEN ATOMIC CHARGES
-----------------------
   0 C :   -0.035363
   1 C :   -0.076120
   2 C :    0.142181
   3 C :   -0.129107
   4 C :    0.037898
   5 N :   -0.189277
   6 H :    0.027195
   7 H :    0.014123
   8 H :    0.006412
   9 H :    0.032591
  10 H :   -0.019356
  11 H :    0.022870
  12 H :    0.024968
  13 H :    0.038440
  14 H :    0.102543
Sum of atomic charges:    0.0000000

LOEWDIN ATOMIC CHARGES
----------------------
   0 C :   -0.065464
   1 C :   -0.025607
   2 C :   -0.045590
   3 C :   -0.006120
   4 C :    0.000108
   5 N :   -0.101862
   6 H :    0.025629
   7 H :    0.020676
   8 H :    0.026621
   9 H :    0.039375
  10 H :    0.025693
  11 H :    0.020830
  12 H :    0.013973
  13 H :    0.021687
  14 H :    0.050050

  Mayer bond orders larger than 0.1
B(  0-C ,  1-C ) :   2.0242 B(  0-C ,  6-H ) :   0.9449 B(  0-C ,  7-H ) :   0.9465
B(  1-C ,  2-C ) :   1.0495 B(  1-C ,  8-H ) :   0.9524 B(  2-C ,  3-C ) :   1.0550
B(  2-C ,  9-H ) :   0.9054 B(  2-C , 10-H ) :   0.9047 B(  3-C ,  4-C ) :   1.0565
B(  3-C ,  5-N ) :   0.9906 B(  3-C , 11-H ) :   0.9301 B(  4-C ,  5-N ) :   1.0115
B(  4-C , 12-H ) :   0.9393 B(  4-C , 13-H ) :   0.9438 B(  5-N , 14-H ) :   0.9484

FINAL SINGLE POINT ENERGY      -250.111759647667

DIPOLE MOMENT
-------------
                                X             Y             Z
Electronic contribution:      1.79867       0.83288      -0.79860
Nuclear contribution   :     -2.28920      -1.04125       0.83291
                        -----------------------------------------
Total Dipole Moment    :     -0.49054      -0.20837       0.03431
                        -----------------------------------------
Magnitude (a.u.)       :      0.53406
Magnitude (Debye)      :      1.35747

                             ****ORCA TERMINATED NORMALLY****
TOTAL RUN TIME: 0 days 0 hours 0 minutes 6 seconds 195 msec
