                         Program Version 3.0.3 - RELEASE   -
|  1> ! RI PBE def2-SVP def2-SVP/J NBO PAL2
|  2> % maxcore 2000
|  3> % output
|  4>     # printlevel mini
|  5>     print[ P_Basis ] 0
|  6>     print[ P_SCFInfo ] 1
|  7>     print[ P_SCFIterInfo ] 1
|  8>     print[ P_OrbEn ] 0
|  9>     print[ P_Cartesian ] 0
| 10> end
| 11> *xyz 0 1
| 12>  C        3.8296070000     2.2485820000    -1.5616920000
| 13>  C        3.7962760000     1.2662700000    -0.8731160000
| 14>  C        3.7655190000     0.0663700000    -0.0499840000
| 15>  C        4.4686650000    -1.1094630000    -0.6854380000
| 16>  C        3.9873470000    -2.4750930000    -0.4113660000
| 17>  N        3.8151490000    -1.8759900000    -1.7331910000
| 18>  H        3.8594480000     3.1192750000    -2.1729280000
| 19>  H        2.7230730000    -0.2032890000     0.1582820000
| 20>  H        4.2268370000     0.2848050000     0.9200430000
| 21>  H        5.5300900000    -0.9560420000    -0.8590510000
| 22>  H        3.1182180000    -2.5798640000     0.2320010000
| 23>  H        4.6860160000    -3.3033590000    -0.3689790000
| 24>  H        2.8600440000    -1.5565130000    -1.8606730000
| 25> *
| 26>
| 27>                          ****END OF INPUT****
 Total Charge           Charge          ....    0
 Multiplicity           Mult            ....    1
 Number of Electrons    NEL             ....   44
 Basis Dimension        Dim             ....  119

MULLIKEN ATOMIC CHARGES
-----------------------
   0 C :   -0.473636
   1 C :    0.327080
   2 C :    0.140146
   3 C :   -0.119722
   4 C :    0.028679
   5 N :   -0.179226
   6 H :   -0.000185
   7 H :    0.014969
   8 H :    0.045821
   9 H :    0.039785
  10 H :    0.028480
  11 H :    0.040822
  12 H :    0.106986
Sum of atomic charges:   -0.0000000

LOEWDIN ATOMIC CHARGES
----------------------
   0 C :   -0.081653
   1 C :   -0.025994
   2 C :   -0.051331
   3 C :    0.000448
   4 C :   -0.000821
   5 N :   -0.096273
   6 H :    0.035065
   7 H :    0.046133
   8 H :    0.056675
   9 H :    0.027165
  10 H :    0.014127
  11 H :    0.023102
  12 H :    0.053357

  Mayer bond orders larger than 0.1
B(  0-C ,  1-C ) :   2.3614 B(  0-C ,  6-H ) :   1.1012 B(  1-C ,  2-C ) :   1.0521
B(  1-C ,  6-H ) :  -0.1099 B(  2-C ,  3-C ) :   1.0581 B(  2-C ,  7-H ) :   0.8859
B(  2-C ,  8-H ) :   0.8828 B(  3-C ,  4-C ) :   1.0489 B(  3-C ,  5-N ) :   0.9939
B(  3-C ,  9-H ) :   0.9329 B(  4-C ,  5-N ) :   1.0125 B(  4-C , 10-H ) :   0.9405
B(  4-C , 11-H ) :   0.9384 B(  5-N , 12-H ) :   0.9468

FINAL SINGLE POINT ENERGY      -248.868311053619

DIPOLE MOMENT
-------------
                                X             Y             Z
Electronic contribution:      0.19331       2.35594      -1.46279
Nuclear contribution   :     -0.49603      -2.32746       2.05889
                        -----------------------------------------
Total Dipole Moment    :     -0.30272       0.02849       0.59610
                        -----------------------------------------
Magnitude (a.u.)       :      0.66917
Magnitude (Debye)      :      1.70090

                             ****ORCA TERMINATED NORMALLY****
TOTAL RUN TIME: 0 days 0 hours 0 minutes 5 seconds 537 msec
