                         Program Version 3.0.3 - RELEASE   -
|  1> ! RI PBE def2-SVP def2-SVP/J NBO PAL2
|  2> % maxcore 2000
|  3> % output
|  4>     # printlevel mini
|  5>     print[ P_Basis ] 0
|  6>     print[ P_SCFInfo ] 1
|  7>     print[ P_SCFIterInfo ] 1
|  8>     print[ P_OrbEn ] 0
|  9>     print[ P_Cartesian ] 0
| 10> end
| 11> *xyz 0 1
| 12>  C        0.8695760000    -0.0329180000     0.1255720000
| 13>  C        2.3560270000    -0.0794100000     0.2113870000
| 14>  C        3.1111860000    -1.0925620000    -0.2001670000
| 15>  C        4.5848430000    -1.1673610000    -0.1063320000
| 16>  C        5.3385080000    -0.4570230000     0.9405840000
| 17>  N        5.2103760000    -1.9126830000     0.9966830000
| 18>  H        0.4212370000     0.0895860000     1.1167670000
| 19>  H        0.4648960000    -0.9424760000    -0.3220390000
| 20>  H        0.5382400000     0.8212370000    -0.4734670000
| 21>  H        2.8431460000     0.7944180000     0.6401680000
| 22>  H        2.6268830000    -1.9570450000    -0.6544940000
| 23>  H        5.0908680000    -1.3472520000    -1.0524890000
| 24>  H        4.7803950000     0.1365010000     1.6569260000
| 25>  H        6.3387750000    -0.0938230000     0.7313070000
| 26>  H        4.4912250000    -2.1548990000     1.6722030000
| 27> *
| 28>
| 29>                          ****END OF INPUT****
 Total Charge           Charge          ....    0
 Multiplicity           Mult            ....    1
 Number of Electrons    NEL             ....   46
 Basis Dimension        Dim             ....  129

MULLIKEN ATOMIC CHARGES
-----------------------
   0 C :    0.039989
   1 C :   -0.100335
   2 C :   -0.019575
   3 C :   -0.045793
   4 C :    0.037429
   5 N :   -0.197350
   6 H :    0.033108
   7 H :    0.021783
   8 H :    0.035565
   9 H :   -0.001696
  10 H :   -0.000241
  11 H :    0.029717
  12 H :    0.033929
  13 H :    0.031836
  14 H :    0.101635
Sum of atomic charges:   -0.0000000

LOEWDIN ATOMIC CHARGES
----------------------
   0 C :   -0.064192
   1 C :   -0.034115
   2 C :   -0.061451
   3 C :   -0.009069
   4 C :    0.001285
   5 N :   -0.101619
   6 H :    0.037434
   7 H :    0.031479
   8 H :    0.038660
   9 H :    0.022123
  10 H :    0.025931
  11 H :    0.026629
  12 H :    0.014920
  13 H :    0.021723
  14 H :    0.050262

  Mayer bond orders larger than 0.1
B(  0-C ,  1-C ) :   1.0819 B(  0-C ,  6-H ) :   0.9467 B(  0-C ,  7-H ) :   0.9621
B(  0-C ,  8-H ) :   0.9455 B(  1-C ,  2-C ) :   1.9125 B(  1-C ,  9-H ) :   0.9467
B(  2-C ,  3-C ) :   1.0482 B(  2-C , 10-H ) :   0.9473 B(  3-C ,  4-C ) :   1.0715
B(  3-C ,  5-N ) :   0.9756 B(  3-C , 11-H ) :   0.9161 B(  4-C ,  5-N ) :   0.9944
B(  4-C , 12-H ) :   0.9401 B(  4-C , 13-H ) :   0.9346 B(  5-N , 14-H ) :   0.9512

FINAL SINGLE POINT ENERGY      -250.117631741530

DIPOLE MOMENT
-------------
                                X             Y             Z
Electronic contribution:      3.53324      -1.83753      -0.08466
Nuclear contribution   :     -4.17488       2.27671       0.17164
                        -----------------------------------------
Total Dipole Moment    :     -0.64164       0.43918       0.08698
                        -----------------------------------------
Magnitude (a.u.)       :      0.78240
Magnitude (Debye)      :      1.98870

                             ****ORCA TERMINATED NORMALLY****
TOTAL RUN TIME: 0 days 0 hours 0 minutes 5 seconds 988 msec
