                         Program Version 3.0.3 - RELEASE   -
|  1> ! RI PBE def2-SVP def2-SVP/J NBO PAL2
|  2> % maxcore 2000
|  3> % output
|  4>     # printlevel mini
|  5>     print[ P_Basis ] 0
|  6>     print[ P_SCFInfo ] 1
|  7>     print[ P_SCFIterInfo ] 1
|  8>     print[ P_OrbEn ] 0
|  9>     print[ P_Cartesian ] 0
| 10> end
| 11> *xyz 0 1
| 12>  C        0.9922250000    -0.0178990000    -0.1527570000
| 13>  C        2.4890750000    -0.0371800000    -0.1515930000
| 14>  C        3.1962030000    -0.6153500000    -1.1177270000
| 15>  C        3.1123330000     0.6477550000     1.0083890000
| 16>  C        3.5382800000    -0.1369680000     2.1922720000
| 17>  N        4.5193450000     0.5241060000     1.3392030000
| 18>  H        0.5956880000    -0.4870120000     0.7530910000
| 19>  H        0.5849570000    -0.5371470000    -1.0207680000
| 20>  H        0.6188550000     1.0112260000    -0.1631140000
| 21>  H        2.7085870000    -1.1251060000    -1.9407530000
| 22>  H        4.2802980000    -0.5927620000    -1.1377990000
| 23>  H        2.7113950000     1.6415540000     1.2007450000
| 24>  H        3.4422530000    -1.2163610000     2.1256090000
| 25>  H        3.4318360000     0.2794190000     3.1883360000
| 26>  H        4.9621590000    -0.1593640000     0.7345550000
| 27> *
| 28>
| 29>                          ****END OF INPUT****
 Total Charge           Charge          ....    0
 Multiplicity           Mult            ....    1
 Number of Electrons    NEL             ....   46
 Basis Dimension        Dim             ....  129

MULLIKEN ATOMIC CHARGES
-----------------------
   0 C :    0.070620
   1 C :   -0.104022
   2 C :   -0.066637
   3 C :   -0.069381
   4 C :    0.041037
   5 N :   -0.180072
   6 H :    0.029373
   7 H :    0.016161
   8 H :    0.032126
   9 H :    0.012819
  10 H :    0.013626
  11 H :    0.028186
  12 H :    0.035916
  13 H :    0.036258
  14 H :    0.103989
Sum of atomic charges:    0.0000000

LOEWDIN ATOMIC CHARGES
----------------------
   0 C :   -0.051321
   1 C :   -0.037750
   2 C :   -0.085993
   3 C :   -0.006049
   4 C :    0.009987
   5 N :   -0.091086
   6 H :    0.036492
   7 H :    0.031894
   8 H :    0.037749
   9 H :    0.022997
  10 H :    0.017128
  11 H :    0.028064
  12 H :    0.017364
  13 H :    0.020072
  14 H :    0.050454

  Mayer bond orders larger than 0.1
B(  0-C ,  1-C ) :   1.0735 B(  0-C ,  6-H ) :   0.9455 B(  0-C ,  7-H ) :   0.9474
B(  0-C ,  8-H ) :   0.9471 B(  1-C ,  2-C ) :   1.9558 B(  1-C ,  3-C ) :   1.0225
B(  2-C ,  9-H ) :   0.9302 B(  2-C , 10-H ) :   0.9348 B(  3-C ,  4-C ) :   1.0345
B(  3-C ,  5-N ) :   1.0239 B(  3-C , 11-H ) :   0.9172 B(  4-C ,  5-N ) :   1.0058
B(  4-C , 12-H ) :   0.9414 B(  4-C , 13-H ) :   0.9432 B(  5-N , 14-H ) :   0.9455

FINAL SINGLE POINT ENERGY      -250.118287901921

DIPOLE MOMENT
-------------
                                X             Y             Z
Electronic contribution:      2.69550       1.14548       0.86883
Nuclear contribution   :     -3.17574      -1.53914      -0.94464
                        -----------------------------------------
Total Dipole Moment    :     -0.48024      -0.39366      -0.07581
                        -----------------------------------------
Magnitude (a.u.)       :      0.62557
Magnitude (Debye)      :      1.59008

                             ****ORCA TERMINATED NORMALLY****
TOTAL RUN TIME: 0 days 0 hours 0 minutes 6 seconds 278 msec
