                         Program Version 3.0.3 - RELEASE   -
|  1> ! RI PBE def2-SVP def2-SVP/J NBO PAL2
|  2> % maxcore 2000
|  3> % output
|  4>     # printlevel mini
|  5>     print[ P_Basis ] 0
|  6>     print[ P_SCFInfo ] 1
|  7>     print[ P_SCFIterInfo ] 1
|  8>     print[ P_OrbEn ] 0
|  9>     print[ P_Cartesian ] 0
| 10> end
| 11> *xyz 0 1
| 12>  C        1.0207220000    -0.2227940000     0.1767190000
| 13>  C        2.5081520000     0.0763420000     0.0140090000
| 14>  C        3.0214780000     0.9070330000     1.1815840000
| 15>  C        3.2621700000    -1.2155050000    -0.2249290000
| 16>  C        4.6691950000    -1.4335810000     0.1541750000
| 17>  N        3.5949190000    -2.1351980000     0.8591500000
| 18>  H        0.4400630000     0.6988680000     0.2635520000
| 19>  H        0.8406230000    -0.8190810000     1.0760780000
| 20>  H        0.6335170000    -0.7865050000    -0.6755320000
| 21>  H        2.6332810000     0.6750550000    -0.8977260000
| 22>  H        2.9414830000     0.3707440000     2.1328700000
| 23>  H        2.4241050000     1.8156680000     1.2835450000
| 24>  H        4.0610660000     1.2117190000     1.0477520000
| 25>  H        2.9122990000    -1.7424560000    -1.1108080000
| 26>  H        5.1937800000    -0.6401740000     0.6755000000
| 27>  H        5.3023790000    -2.0651550000    -0.4599410000
| 28>  H        3.4309870000    -1.6873780000     1.7552020000
| 29> *
| 30>
| 31>                          ****END OF INPUT****
 Total Charge           Charge          ....    0
 Multiplicity           Mult            ....    1
 Number of Electrons    NEL             ....   48
 Basis Dimension        Dim             ....  139

MULLIKEN ATOMIC CHARGES
-----------------------
   0 C :    0.021776
   1 C :   -0.069878
   2 C :   -0.004906
   3 C :   -0.070514
   4 C :    0.036439
   5 N :   -0.202394
   6 H :    0.016499
   7 H :    0.015642
   8 H :    0.018734
   9 H :    0.013161
  10 H :    0.007904
  11 H :    0.019926
  12 H :    0.024914
  13 H :    0.014494
  14 H :    0.024525
  15 H :    0.031116
  16 H :    0.102562
Sum of atomic charges:   -0.0000000

LOEWDIN ATOMIC CHARGES
----------------------
   0 C :   -0.055920
   1 C :   -0.053585
   2 C :   -0.061387
   3 C :   -0.003638
   4 C :   -0.002997
   5 N :   -0.106220
   6 H :    0.024359
   7 H :    0.025205
   8 H :    0.027091
   9 H :    0.032152
  10 H :    0.018808
  11 H :    0.031701
  12 H :    0.025778
  13 H :    0.020186
  14 H :    0.012505
  15 H :    0.020071
  16 H :    0.045893

  Mayer bond orders larger than 0.1
B(  0-C ,  1-C ) :   1.0827 B(  0-C ,  6-H ) :   0.9598 B(  0-C ,  7-H ) :   0.9631
B(  0-C ,  8-H ) :   0.9592 B(  1-C ,  2-C ) :   1.0846 B(  1-C ,  3-C ) :   1.0174
B(  1-C ,  9-H ) :   0.9006 B(  2-C , 10-H ) :   0.9553 B(  2-C , 11-H ) :   0.9522
B(  2-C , 12-H ) :   0.9521 B(  3-C ,  4-C ) :   1.0623 B(  3-C ,  5-N ) :   0.9846
B(  3-C , 13-H ) :   0.9329 B(  4-C ,  5-N ) :   1.0156 B(  4-C , 14-H ) :   0.9346
B(  4-C , 15-H ) :   0.9371 B(  5-N , 16-H ) :   0.9529

FINAL SINGLE POINT ENERGY      -251.335751663482

DIPOLE MOMENT
-------------
                                X             Y             Z
Electronic contribution:      2.02583      -3.23202      -0.78111
Nuclear contribution   :     -2.03633       3.94318       0.80332
                        -----------------------------------------
Total Dipole Moment    :     -0.01050       0.71116       0.02221
                        -----------------------------------------
Magnitude (a.u.)       :      0.71159
Magnitude (Debye)      :      1.80871

                             ****ORCA TERMINATED NORMALLY****
TOTAL RUN TIME: 0 days 0 hours 0 minutes 7 seconds 58 msec
