                         Program Version 3.0.3 - RELEASE   -
|  1> ! RI PBE def2-SVP def2-SVP/J NBO PAL2
|  2> % maxcore 2000
|  3> % output
|  4>     # printlevel mini
|  5>     print[ P_Basis ] 0
|  6>     print[ P_SCFInfo ] 1
|  7>     print[ P_SCFIterInfo ] 1
|  8>     print[ P_OrbEn ] 0
|  9>     print[ P_Cartesian ] 0
| 10> end
| 11> *xyz 0 1
| 12>  C        1.0287460000     0.0798890000    -0.0538780000
| 13>  C        2.4785690000     0.0463680000    -0.0610090000
| 14>  C        3.6819940000     0.0142380000    -0.0653020000
| 15>  C        5.1165780000     0.0033490000    -0.0600990000
| 16>  C        5.8542490000    -0.6879590000    -1.1462860000
| 17>  N        5.8590430000     0.7640650000    -1.0745180000
| 18>  H        0.6299400000    -0.0387850000    -1.0644760000
| 19>  H        0.6570560000     1.0271030000     0.3451890000
| 20>  H        0.6226320000    -0.7269540000     0.5615790000
| 21>  H        5.5752530000     0.0387070000     0.9234500000
| 22>  H        5.2599940000    -1.1751240000    -1.9116330000
| 23>  H        6.8023400000    -1.1633660000    -0.9191660000
| 24>  H        5.1996860000     1.1467590000    -1.7442610000
| 25> *
| 26>
| 27>                          ****END OF INPUT****
 Total Charge           Charge          ....    0
 Multiplicity           Mult            ....    1
 Number of Electrons    NEL             ....   44
 Basis Dimension        Dim             ....  119

MULLIKEN ATOMIC CHARGES
-----------------------
   0 C :    0.057768
   1 C :   -0.210364
   2 C :    0.024765
   3 C :   -0.142974
   4 C :    0.058473
   5 N :   -0.172794
   6 H :    0.045747
   7 H :    0.048626
   8 H :    0.051311
   9 H :    0.049081
  10 H :    0.039253
  11 H :    0.039913
  12 H :    0.111193
Sum of atomic charges:    0.0000000

LOEWDIN ATOMIC CHARGES
----------------------
   0 C :   -0.067167
   1 C :   -0.059107
   2 C :   -0.079410
   3 C :   -0.014679
   4 C :    0.016575
   5 N :   -0.088018
   6 H :    0.051246
   7 H :    0.050467
   8 H :    0.052251
   9 H :    0.037245
  10 H :    0.020188
  11 H :    0.023530
  12 H :    0.056879

  Mayer bond orders larger than 0.1
B(  0-C ,  1-C ) :   1.1291 B(  0-C ,  6-H ) :   0.9310 B(  0-C ,  7-H ) :   0.9328
B(  0-C ,  8-H ) :   0.9338 B(  1-C ,  2-C ) :   2.5057 B(  2-C ,  3-C ) :   0.9864
B(  3-C ,  4-C ) :   1.0235 B(  3-C ,  5-N ) :   0.9953 B(  3-C ,  9-H ) :   0.9197
B(  4-C ,  5-N ) :   0.9997 B(  4-C , 10-H ) :   0.9440 B(  4-C , 11-H ) :   0.9375
B(  5-N , 12-H ) :   0.9491

FINAL SINGLE POINT ENERGY      -248.881869949242

DIPOLE MOMENT
-------------
                                X             Y             Z
Electronic contribution:      2.41720       0.79261       0.51060
Nuclear contribution   :     -3.09537      -1.09713      -0.69965
                        -----------------------------------------
Total Dipole Moment    :     -0.67817      -0.30452      -0.18905
                        -----------------------------------------
Magnitude (a.u.)       :      0.76706
Magnitude (Debye)      :      1.94972

                             ****ORCA TERMINATED NORMALLY****
TOTAL RUN TIME: 0 days 0 hours 0 minutes 5 seconds 424 msec
