                         Program Version 3.0.3 - RELEASE   -
|  1> ! RI PBE def2-SVP def2-SVP/J NBO PAL2
|  2> % maxcore 2000
|  3> % output
|  4>     # printlevel mini
|  5>     print[ P_Basis ] 0
|  6>     print[ P_SCFInfo ] 1
|  7>     print[ P_SCFIterInfo ] 1
|  8>     print[ P_OrbEn ] 0
|  9>     print[ P_Cartesian ] 0
| 10> end
| 11> *xyz 0 1
| 12>  C        1.0675430000     0.0594510000     0.0158700000
| 13>  C        2.5860450000     0.0206600000    -0.0121370000
| 14>  C        3.1389990000    -1.1254590000    -0.8448970000
| 15>  C        4.6575290000    -1.1737920000    -0.8737630000
| 16>  C        5.2052200000    -2.3137190000    -1.7112770000
| 17>  N        6.6598150000    -2.3359210000    -1.6667040000
| 18>  H        0.6973070000     0.8902940000     0.6209900000
| 19>  H        0.6572210000    -0.8641220000     0.4341280000
| 20>  H        0.6570840000     0.1739010000    -0.9915030000
| 21>  H        2.9712330000    -0.0599480000     1.0108610000
| 22>  H        2.9709500000     0.9689730000    -0.4049480000
| 23>  H        2.7536370000    -1.0448020000    -1.8693080000
| 24>  H        2.7527150000    -2.0745880000    -0.4520860000
| 25>  H        5.0525640000    -1.2677190000     0.1434050000
| 26>  H        5.0432970000    -0.2232860000    -1.2658990000
| 27>  H        4.7947060000    -2.2362450000    -2.7318530000
| 28>  H        4.8426950000    -3.2634170000    -1.3030290000
| 29>  H        7.0352070000    -1.4886930000    -2.0766700000
| 30>  H        7.0238240000    -3.1090600000    -2.2092000000
| 31> *
| 32>
| 33>                          ****END OF INPUT****
 Total Charge           Charge          ....    0
 Multiplicity           Mult            ....    1
 Number of Electrons    NEL             ....   50
 Basis Dimension        Dim             ....  149

MULLIKEN ATOMIC CHARGES
-----------------------
   0 C :    0.000290
   1 C :   -0.035163
   2 C :   -0.033008
   3 C :   -0.023553
   4 C :    0.072612
   5 N :   -0.202198
   6 H :    0.017159
   7 H :    0.014698
   8 H :    0.013168
   9 H :    0.008491
  10 H :    0.004155
  11 H :    0.001500
  12 H :    0.001659
  13 H :    0.010684
  14 H :   -0.004853
  15 H :   -0.014330
  16 H :   -0.000778
  17 H :    0.084272
  18 H :    0.085197
Sum of atomic charges:   -0.0000000

LOEWDIN ATOMIC CHARGES
----------------------
   0 C :   -0.065891
   1 C :   -0.046030
   2 C :   -0.042286
   3 C :   -0.048430
   4 C :    0.005256
   5 N :   -0.113219
   6 H :    0.025652
   7 H :    0.023546
   8 H :    0.023011
   9 H :    0.022499
  10 H :    0.021146
  11 H :    0.019240
  12 H :    0.020652
  13 H :    0.024342
  14 H :    0.017693
  15 H :   -0.003872
  16 H :    0.017762
  17 H :    0.047869
  18 H :    0.051059

  Mayer bond orders larger than 0.1
B(  0-C ,  1-C ) :   1.1158 B(  0-C ,  6-H ) :   0.9613 B(  0-C ,  7-H ) :   0.9658
B(  0-C ,  8-H ) :   0.9650 B(  1-C ,  2-C ) :   1.0947 B(  1-C ,  9-H ) :   0.9376
B(  1-C , 10-H ) :   0.9368 B(  2-C ,  3-C ) :   1.0870 B(  2-C , 11-H ) :   0.9326
B(  2-C , 12-H ) :   0.9356 B(  3-C ,  4-C ) :   1.0917 B(  3-C , 13-H ) :   0.9286
B(  3-C , 14-H ) :   0.9331 B(  4-C ,  5-N ) :   1.0974 B(  4-C , 15-H ) :   0.9281
B(  4-C , 16-H ) :   0.9309 B(  5-N , 17-H ) :   0.9693 B(  5-N , 18-H ) :   0.9646

FINAL SINGLE POINT ENERGY      -252.566350269845

DIPOLE MOMENT
-------------
                                X             Y             Z
Electronic contribution:      3.33079      -1.31908      -0.63667
Nuclear contribution   :     -3.36121       1.34941       0.17581
                        -----------------------------------------
Total Dipole Moment    :     -0.03042       0.03033      -0.46086
                        -----------------------------------------
Magnitude (a.u.)       :      0.46286
Magnitude (Debye)      :      1.17649

                             ****ORCA TERMINATED NORMALLY****
TOTAL RUN TIME: 0 days 0 hours 0 minutes 7 seconds 168 msec
