                         Program Version 3.0.3 - RELEASE   -
|  1> ! RI PBE def2-SVP def2-SVP/J NBO PAL2
|  2> % maxcore 2000
|  3> % output
|  4>     # printlevel mini
|  5>     print[ P_Basis ] 0
|  6>     print[ P_SCFInfo ] 1
|  7>     print[ P_SCFIterInfo ] 1
|  8>     print[ P_OrbEn ] 0
|  9>     print[ P_Cartesian ] 0
| 10> end
| 11> *xyz 0 1
| 12>  C        0.9914670000    -0.0574450000     0.0388410000
| 13>  C        2.3297450000    -0.0909820000     0.0155700000
| 14>  C        3.0781450000    -1.0853100000    -0.6762860000
| 15>  C        3.7254080000    -1.9152970000    -1.2538660000
| 16>  C        3.0846890000     0.9109300000     0.7128240000
| 17>  N        3.6883010000     1.7151220000     1.2724810000
| 18>  H        0.4157390000    -0.8094160000    -0.4844600000
| 19>  H        0.4665330000     0.7191420000     0.5792250000
| 20>  H        4.2972830000    -2.6523330000    -1.7673380000
| 21> *
| 22>
| 23>                          ****END OF INPUT****
 Total Charge           Charge          ....    0
 Multiplicity           Mult            ....    1
 Number of Electrons    NEL             ....   40
 Basis Dimension        Dim             ....   99

MULLIKEN ATOMIC CHARGES
-----------------------
   0 C :    0.085460
   1 C :   -0.218389
   2 C :    0.481961
   3 C :   -0.438824
   4 C :   -0.105483
   5 N :    0.079561
   6 H :    0.046050
   7 H :    0.049213
   8 H :    0.020452
Sum of atomic charges:   -0.0000000

LOEWDIN ATOMIC CHARGES
----------------------
   0 C :    0.035850
   1 C :   -0.079945
   2 C :   -0.006588
   3 C :   -0.020037
   4 C :   -0.021100
   5 N :   -0.037569
   6 H :    0.042113
   7 H :    0.043215
   8 H :    0.044062

  Mayer bond orders larger than 0.1
B(  0-C ,  1-C ) :   1.8925 B(  0-C ,  3-C ) :   0.1191 B(  0-C ,  5-N ) :   0.1067
B(  0-C ,  6-H ) :   0.9296 B(  0-C ,  7-H ) :   0.9294 B(  1-C ,  2-C ) :   0.9776
B(  1-C ,  4-C ) :   1.0888 B(  2-C ,  3-C ) :   2.2412 B(  2-C ,  8-H ) :  -0.1043
B(  3-C ,  8-H ) :   1.0941 B(  4-C ,  5-N ) :   3.0128

FINAL SINGLE POINT ENERGY      -246.476473214924

DIPOLE MOMENT
-------------
                                X             Y             Z
Electronic contribution:      2.20141       1.40313       0.97799
Nuclear contribution   :     -3.00551      -2.35791      -1.64154
                        -----------------------------------------
Total Dipole Moment    :     -0.80410      -0.95478      -0.66356
                        -----------------------------------------
Magnitude (a.u.)       :      1.41368
Magnitude (Debye)      :      3.59329

                             ****ORCA TERMINATED NORMALLY****
TOTAL RUN TIME: 0 days 0 hours 0 minutes 4 seconds 252 msec
