                         Program Version 3.0.3 - RELEASE   -
|  1> ! RI PBE def2-SVP def2-SVP/J NBO PAL2
|  2> % maxcore 2000
|  3> % output
|  4>     # printlevel mini
|  5>     print[ P_Basis ] 0
|  6>     print[ P_SCFInfo ] 1
|  7>     print[ P_SCFIterInfo ] 1
|  8>     print[ P_OrbEn ] 0
|  9>     print[ P_Cartesian ] 0
| 10> end
| 11> *xyz 0 1
| 12>  C        1.1467040000     0.0026610000    -1.0281520000
| 13>  C        2.3943650000    -0.0166540000    -0.5580070000
| 14>  C        3.1350040000     1.1786800000    -0.2388860000
| 15>  C        4.3902320000     1.1694550000     0.2344490000
| 16>  C        5.1011170000     2.3561570000     0.5420530000
| 17>  N        5.6962080000     3.3102140000     0.7982480000
| 18>  H        0.6137060000    -0.9110740000    -1.2595800000
| 19>  H        0.6221240000     0.9376890000    -1.1950770000
| 20>  H        2.8986550000    -0.9666680000    -0.3992340000
| 21>  H        2.6364160000     2.1314640000    -0.3954150000
| 22>  H        4.9174480000     0.2354590000     0.4024020000
| 23> *
| 24>
| 25>                          ****END OF INPUT****
 Total Charge           Charge          ....    0
 Multiplicity           Mult            ....    1
 Number of Electrons    NEL             ....   42
 Basis Dimension        Dim             ....  109

MULLIKEN ATOMIC CHARGES
-----------------------
   0 C :   -0.003455
   1 C :   -0.012523
   2 C :    0.034035
   3 C :   -0.112753
   4 C :   -0.096719
   5 N :    0.044056
   6 H :    0.041007
   7 H :    0.034701
   8 H :    0.007226
   9 H :    0.020821
  10 H :    0.043605
Sum of atomic charges:    0.0000000

LOEWDIN ATOMIC CHARGES
----------------------
   0 C :   -0.014940
   1 C :   -0.032255
   2 C :    0.019658
   3 C :   -0.065971
   4 C :   -0.044025
   5 N :   -0.053536
   6 H :    0.033087
   7 H :    0.030260
   8 H :    0.034778
   9 H :    0.042209
  10 H :    0.050736

  Mayer bond orders larger than 0.1
B(  0-C ,  1-C ) :   1.8658 B(  0-C ,  3-C ) :   0.1279 B(  0-C ,  6-H ) :   0.9406
B(  0-C ,  7-H ) :   0.9481 B(  1-C ,  2-C ) :   1.1472 B(  1-C ,  8-H ) :   0.9655
B(  2-C ,  3-C ) :   1.7236 B(  2-C ,  9-H ) :   0.9668 B(  3-C ,  4-C ) :   1.1133
B(  3-C , 10-H ) :   0.9510 B(  4-C ,  5-N ) :   2.9543

FINAL SINGLE POINT ENERGY      -247.734217390056

DIPOLE MOMENT
-------------
                                X             Y             Z
Electronic contribution:      4.89556       3.58421       1.96527
Nuclear contribution   :     -5.96858      -4.82602      -2.41223
                        -----------------------------------------
Total Dipole Moment    :     -1.07302      -1.24181      -0.44696
                        -----------------------------------------
Magnitude (a.u.)       :      1.70095
Magnitude (Debye)      :      4.32348

                             ****ORCA TERMINATED NORMALLY****
TOTAL RUN TIME: 0 days 0 hours 0 minutes 4 seconds 562 msec
