                         Program Version 3.0.3 - RELEASE   -
|  1> ! RI PBE def2-SVP def2-SVP/J NBO PAL2
|  2> % maxcore 2000
|  3> % output
|  4>     # printlevel mini
|  5>     print[ P_Basis ] 0
|  6>     print[ P_SCFInfo ] 1
|  7>     print[ P_SCFIterInfo ] 1
|  8>     print[ P_OrbEn ] 0
|  9>     print[ P_Cartesian ] 0
| 10> end
| 11> *xyz 0 1
| 12>  C        1.5992890000     0.7977050000     0.4591640000
| 13>  C        2.6635320000     0.0743500000     0.1323520000
| 14>  C        3.2390630000    -0.9809770000     0.9804920000
| 15>  C        2.5325830000    -1.7911060000     1.7751760000
| 16>  C        4.6619920000    -1.1397850000     0.9062930000
| 17>  N        5.8054780000    -1.2490880000     0.8239190000
| 18>  H        1.2065740000     1.5472050000    -0.2166750000
| 19>  H        1.0973060000     0.6778180000     1.4131120000
| 20>  H        3.1796150000     0.2624910000    -0.8046320000
| 21>  H        1.4521150000    -1.7247800000     1.8063590000
| 22>  H        3.0167630000    -2.5365250000     2.3923400000
| 23> *
| 24>
| 25>                          ****END OF INPUT****
 Total Charge           Charge          ....    0
 Multiplicity           Mult            ....    1
 Number of Electrons    NEL             ....   42
 Basis Dimension        Dim             ....  109

MULLIKEN ATOMIC CHARGES
-----------------------
   0 C :   -0.027624
   1 C :    0.025073
   2 C :   -0.142125
   3 C :    0.027192
   4 C :   -0.122582
   5 N :    0.049466
   6 H :    0.044176
   7 H :    0.035027
   8 H :    0.025250
   9 H :    0.041142
  10 H :    0.045005
Sum of atomic charges:   -0.0000000

LOEWDIN ATOMIC CHARGES
----------------------
   0 C :   -0.023561
   1 C :   -0.016360
   2 C :   -0.068530
   3 C :    0.011881
   4 C :   -0.031496
   5 N :   -0.049459
   6 H :    0.034277
   7 H :    0.028494
   8 H :    0.041022
   9 H :    0.034137
  10 H :    0.039595

  Mayer bond orders larger than 0.1
B(  0-C ,  1-C ) :   1.9519 B(  0-C ,  6-H ) :   0.9433 B(  0-C ,  7-H ) :   0.9504
B(  1-C ,  2-C ) :   1.0610 B(  1-C ,  8-H ) :   0.9480 B(  2-C ,  3-C ) :   1.8944
B(  2-C ,  4-C ) :   1.0735 B(  3-C ,  5-N ) :   0.1074 B(  3-C ,  9-H ) :   0.9322
B(  3-C , 10-H ) :   0.9363 B(  4-C ,  5-N ) :   2.9959

FINAL SINGLE POINT ENERGY      -247.722872821864

DIPOLE MOMENT
-------------
                                X             Y             Z
Electronic contribution:      5.07815      -1.46390      -0.22420
Nuclear contribution   :     -6.53465       1.64162       0.31814
                        -----------------------------------------
Total Dipole Moment    :     -1.45650       0.17772       0.09394
                        -----------------------------------------
Magnitude (a.u.)       :      1.47031
Magnitude (Debye)      :      3.73723

                             ****ORCA TERMINATED NORMALLY****
TOTAL RUN TIME: 0 days 0 hours 0 minutes 5 seconds 256 msec
