                         Program Version 3.0.3 - RELEASE   -
|  1> ! RI PBE def2-SVP def2-SVP/J NBO PAL2
|  2> % maxcore 2000
|  3> % output
|  4>     # printlevel mini
|  5>     print[ P_Basis ] 0
|  6>     print[ P_SCFInfo ] 1
|  7>     print[ P_SCFIterInfo ] 1
|  8>     print[ P_OrbEn ] 0
|  9>     print[ P_Cartesian ] 0
| 10> end
| 11> *xyz 0 1
| 12>  C        0.9252550000    -0.0346150000    -0.0585170000
| 13>  C        2.2560720000    -0.1192340000    -0.0567340000
| 14>  C        2.9603430000    -1.3420990000    -0.0317330000
| 15>  C        3.5920320000    -2.3727450000    -0.0106620000
| 16>  C        4.2948470000    -3.5418530000     0.0132380000
| 17>  N        4.8901690000    -4.5326450000     0.0334950000
| 18>  H        0.4341540000     0.9300700000    -0.0782290000
| 19>  H        0.3010710000    -0.9197230000    -0.0404700000
| 20>  H        2.8643460000     0.7812530000    -0.0750880000
| 21> *
| 22>
| 23>                          ****END OF INPUT****
 Total Charge           Charge          ....    0
 Multiplicity           Mult            ....    1
 Number of Electrons    NEL             ....   40
 Basis Dimension        Dim             ....   99

MULLIKEN ATOMIC CHARGES
-----------------------
   0 C :    0.009766
   1 C :   -0.098262
   2 C :   -0.092291
   3 C :    0.074157
   4 C :   -0.144890
   5 N :    0.094168
   6 H :    0.050290
   7 H :    0.054251
   8 H :    0.052812
Sum of atomic charges:    0.0000000

LOEWDIN ATOMIC CHARGES
----------------------
   0 C :    0.012686
   1 C :   -0.046431
   2 C :    0.041297
   3 C :   -0.067779
   4 C :   -0.047435
   5 N :   -0.022480
   6 H :    0.036816
   7 H :    0.038563
   8 H :    0.054764

  Mayer bond orders larger than 0.1
B(  0-C ,  1-C ) :   1.8904 B(  0-C ,  3-C ) :   0.1184 B(  0-C ,  6-H ) :   0.9434
B(  0-C ,  7-H ) :   0.9539 B(  1-C ,  2-C ) :   1.0858 B(  1-C ,  8-H ) :   0.9438
B(  2-C ,  3-C ) :   2.2157 B(  2-C ,  5-N ) :   0.1814 B(  3-C ,  4-C ) :   1.0200
B(  3-C ,  5-N ) :   0.1018 B(  4-C ,  5-N ) :   2.8546

FINAL SINGLE POINT ENERGY      -246.491967572914

DIPOLE MOMENT
-------------
                                X             Y             Z
Electronic contribution:      4.34399      -4.72518       0.09614
Nuclear contribution   :     -5.39870       6.26730      -0.12819
                        -----------------------------------------
Total Dipole Moment    :     -1.05471       1.54212      -0.03205
                        -----------------------------------------
Magnitude (a.u.)       :      1.86857
Magnitude (Debye)      :      4.74953

                             ****ORCA TERMINATED NORMALLY****
TOTAL RUN TIME: 0 days 0 hours 0 minutes 4 seconds 193 msec
