                         Program Version 3.0.3 - RELEASE   -
|  1> ! RI PBE def2-SVP def2-SVP/J NBO PAL2
|  2> % maxcore 2000
|  3> % output
|  4>     # printlevel mini
|  5>     print[ P_Basis ] 0
|  6>     print[ P_SCFInfo ] 1
|  7>     print[ P_SCFIterInfo ] 1
|  8>     print[ P_OrbEn ] 0
|  9>     print[ P_Cartesian ] 0
| 10> end
| 11> *xyz 0 1
| 12>  C        1.5171060000     0.1593900000     1.0588340000
| 13>  C        2.3255080000    -0.1391560000     0.0524980000
| 14>  C        3.0506850000     0.8636910000    -0.7819600000
| 15>  C        4.5717760000     0.6800100000    -0.6874300000
| 16>  C        5.2961240000     1.6152880000    -1.5326730000
| 17>  N        5.8497440000     2.3639390000    -2.2070160000
| 18>  H        1.0126360000    -0.6118280000     1.6288570000
| 19>  H        1.3247660000     1.1889890000     1.3448200000
| 20>  H        2.4902140000    -1.1850400000    -0.2029910000
| 21>  H        2.7853380000     1.8770170000    -0.4716920000
| 22>  H        2.7544070000     0.7614170000    -1.8313220000
| 23>  H        4.8525320000    -0.3361180000    -0.9811460000
| 24>  H        4.9048540000     0.8152020000     0.3454230000
| 25> *
| 26>
| 27>                          ****END OF INPUT****
 Total Charge           Charge          ....    0
 Multiplicity           Mult            ....    1
 Number of Electrons    NEL             ....   44
 Basis Dimension        Dim             ....  119

MULLIKEN ATOMIC CHARGES
-----------------------
   0 C :   -0.023482
   1 C :   -0.081165
   2 C :    0.023842
   3 C :    0.040971
   4 C :   -0.270851
   5 N :    0.060415
   6 H :    0.032925
   7 H :    0.023065
   8 H :    0.010777
   9 H :    0.028879
  10 H :    0.045929
  11 H :    0.050978
  12 H :    0.057717
Sum of atomic charges:   -0.0000000

LOEWDIN ATOMIC CHARGES
----------------------
   0 C :   -0.052410
   1 C :   -0.034297
   2 C :   -0.025011
   3 C :   -0.053152
   4 C :   -0.045081
   5 N :   -0.067331
   6 H :    0.028734
   7 H :    0.024939
   8 H :    0.027311
   9 H :    0.036989
  10 H :    0.043296
  11 H :    0.057066
  12 H :    0.058947

  Mayer bond orders larger than 0.1
B(  0-C ,  1-C ) :   2.0211 B(  0-C ,  6-H ) :   0.9434 B(  0-C ,  7-H ) :   0.9501
B(  1-C ,  2-C ) :   1.0655 B(  1-C ,  8-H ) :   0.9503 B(  2-C ,  3-C ) :   1.0828
B(  2-C ,  9-H ) :   0.9351 B(  2-C , 10-H ) :   0.9171 B(  3-C ,  4-C ) :   1.1304
B(  3-C , 11-H ) :   0.8923 B(  3-C , 12-H ) :   0.8956 B(  4-C ,  5-N ) :   3.0580

FINAL SINGLE POINT ENERGY      -248.941504336100

DIPOLE MOMENT
-------------
                                X             Y             Z
Electronic contribution:      4.89490       2.69796      -3.39087
Nuclear contribution   :     -5.68229      -3.61448       4.18884
                        -----------------------------------------
Total Dipole Moment    :     -0.78738      -0.91652       0.79796
                        -----------------------------------------
Magnitude (a.u.)       :      1.44801
Magnitude (Debye)      :      3.68054

                             ****ORCA TERMINATED NORMALLY****
TOTAL RUN TIME: 0 days 0 hours 0 minutes 5 seconds 112 msec
