                         Program Version 3.0.3 - RELEASE   -
|  1> ! RI PBE def2-SVP def2-SVP/J NBO PAL2
|  2> % maxcore 2000
|  3> % output
|  4>     # printlevel mini
|  5>     print[ P_Basis ] 0
|  6>     print[ P_SCFInfo ] 1
|  7>     print[ P_SCFIterInfo ] 1
|  8>     print[ P_OrbEn ] 0
|  9>     print[ P_Cartesian ] 0
| 10> end
| 11> *xyz 0 1
| 12>  C        0.8997840000    -0.0315230000     0.0511590000
| 13>  C        2.1017520000    -0.0765520000     0.0704240000
| 14>  C        3.5121670000    -0.0885980000     0.0755870000
| 15>  C        4.2422990000    -1.1228580000     0.5182460000
| 16>  C        5.6597600000    -1.1033710000     0.5099120000
| 17>  N        6.8124970000    -1.1105860000     0.5130050000
| 18>  H       -0.1645760000     0.0008480000     0.0373100000
| 19>  H        4.0140470000     0.7971800000    -0.3035180000
| 20>  H        3.7681000000    -2.0192500000     0.9018940000
| 21> *
| 22>
| 23>                          ****END OF INPUT****
 Total Charge           Charge          ....    0
 Multiplicity           Mult            ....    1
 Number of Electrons    NEL             ....   40
 Basis Dimension        Dim             ....   99

MULLIKEN ATOMIC CHARGES
-----------------------
   0 C :   -0.377469
   1 C :    0.398828
   2 C :   -0.034145
   3 C :   -0.087224
   4 C :   -0.094682
   5 N :    0.053814
   6 H :    0.022153
   7 H :    0.058762
   8 H :    0.059962
Sum of atomic charges:   -0.0000000

LOEWDIN ATOMIC CHARGES
----------------------
   0 C :   -0.020878
   1 C :   -0.020068
   2 C :    0.005597
   3 C :   -0.039779
   4 C :   -0.041854
   5 N :   -0.042912
   6 H :    0.043250
   7 H :    0.058212
   8 H :    0.058432

  Mayer bond orders larger than 0.1
B(  0-C ,  1-C ) :   2.2503 B(  0-C ,  3-C ) :   0.1271 B(  0-C ,  6-H ) :   1.0843
B(  1-C ,  2-C ) :   1.0660 B(  2-C ,  3-C ) :   1.7585 B(  2-C ,  7-H ) :   0.9369
B(  3-C ,  4-C ) :   1.1345 B(  3-C ,  8-H ) :   0.9445 B(  4-C ,  5-N ) :   2.9512

FINAL SINGLE POINT ENERGY      -246.484742999275

DIPOLE MOMENT
-------------
                                X             Y             Z
Electronic contribution:      2.29629      -0.38949       0.16662
Nuclear contribution   :     -3.80067       0.52690      -0.22551
                        -----------------------------------------
Total Dipole Moment    :     -1.50437       0.13741      -0.05889
                        -----------------------------------------
Magnitude (a.u.)       :      1.51178
Magnitude (Debye)      :      3.84265

                             ****ORCA TERMINATED NORMALLY****
TOTAL RUN TIME: 0 days 0 hours 0 minutes 4 seconds 208 msec
