                         Program Version 3.0.3 - RELEASE   -
|  1> ! RI PBE def2-SVP def2-SVP/J NBO PAL2
|  2> % maxcore 2000
|  3> % output
|  4>     # printlevel mini
|  5>     print[ P_Basis ] 0
|  6>     print[ P_SCFInfo ] 1
|  7>     print[ P_SCFIterInfo ] 1
|  8>     print[ P_OrbEn ] 0
|  9>     print[ P_Cartesian ] 0
| 10> end
| 11> *xyz 0 1
| 12>  C        1.0450090000    -0.0313000000     0.0827000000
| 13>  C        2.2506880000    -0.0313000000     0.0827000000
| 14>  C        3.6060380000    -0.0313000000     0.0827000000
| 15>  C        4.8173320000    -0.0313000000     0.0827000000
| 16>  C        6.1787980000    -0.0313000000     0.0827000000
| 17>  N        7.3352640000    -0.0313000000     0.0827000000
| 18>  H       -0.0203380000    -0.0313000000     0.0827000000
| 19> *
| 20>
| 21>                          ****END OF INPUT****
 Total Charge           Charge          ....    0
 Multiplicity           Mult            ....    1
 Number of Electrons    NEL             ....   38
 Basis Dimension        Dim             ....   89

MULLIKEN ATOMIC CHARGES
-----------------------
   0 C :   -0.405221
   1 C :    0.371236
   2 C :   -0.038474
   3 C :    0.083326
   4 C :   -0.169076
   5 N :    0.126748
   6 H :    0.031461
Sum of atomic charges:   -0.0000000

LOEWDIN ATOMIC CHARGES
----------------------
   0 C :    0.032327
   1 C :   -0.026427
   2 C :    0.025251
   3 C :   -0.029637
   4 C :   -0.044749
   5 N :   -0.006652
   6 H :    0.049887

  Mayer bond orders larger than 0.1
B(  0-C ,  1-C ) :   2.0678 B(  0-C ,  2-C ) :  -0.1032 B(  0-C ,  3-C ) :   0.2300
B(  0-C ,  6-H ) :   1.1036 B(  1-C ,  2-C ) :   1.0038 B(  1-C ,  6-H ) :  -0.1150
B(  2-C ,  3-C ) :   2.1139 B(  2-C ,  4-C ) :  -0.1184 B(  2-C ,  5-N ) :   0.1684
B(  3-C ,  4-C ) :   1.0398 B(  3-C ,  5-N ) :   0.1200 B(  4-C ,  5-N ) :   2.8414

FINAL SINGLE POINT ENERGY      -245.251042794338

DIPOLE MOMENT
-------------
                                X             Y             Z
Electronic contribution:      2.26763      -0.00000       0.00000
Nuclear contribution   :     -3.97235       0.00000       0.00000
                        -----------------------------------------
Total Dipole Moment    :     -1.70472      -0.00000       0.00000
                        -----------------------------------------
Magnitude (a.u.)       :      1.70472
Magnitude (Debye)      :      4.33306

                             ****ORCA TERMINATED NORMALLY****
TOTAL RUN TIME: 0 days 0 hours 0 minutes 3 seconds 876 msec
