                         Program Version 3.0.3 - RELEASE   -
|  1> ! RI PBE def2-SVP def2-SVP/J NBO PAL2
|  2> % maxcore 2000
|  3> % output
|  4>     # printlevel mini
|  5>     print[ P_Basis ] 0
|  6>     print[ P_SCFInfo ] 1
|  7>     print[ P_SCFIterInfo ] 1
|  8>     print[ P_OrbEn ] 0
|  9>     print[ P_Cartesian ] 0
| 10> end
| 11> *xyz 0 1
| 12>  C        1.0152150000     0.0818390000    -0.0488910000
| 13>  C        2.2146920000     0.0706990000    -0.0694480000
| 14>  C        3.6662640000     0.0716550000    -0.0685910000
| 15>  C        4.2283590000     0.7356740000     1.1983180000
| 16>  C        5.6820450000     0.7400660000     1.2059080000
| 17>  N        6.8313620000     0.7332290000     1.1922810000
| 18>  H       -0.0492740000     0.0862530000    -0.0390790000
| 19>  H        4.0372310000     0.5992750000    -0.9518360000
| 20>  H        4.0377270000    -0.9546840000    -0.1375810000
| 21>  H        3.8727310000     0.2090490000     2.0872620000
| 22>  H        3.8722490000     1.7661550000     1.2713570000
| 23> *
| 24>
| 25>                          ****END OF INPUT****
 Total Charge           Charge          ....    0
 Multiplicity           Mult            ....    1
 Number of Electrons    NEL             ....   42
 Basis Dimension        Dim             ....  109

MULLIKEN ATOMIC CHARGES
-----------------------
   0 C :   -0.486831
   1 C :    0.351800
   2 C :    0.040571
   3 C :    0.034926
   4 C :   -0.267156
   5 N :    0.068684
   6 H :    0.005860
   7 H :    0.060413
   8 H :    0.061187
   9 H :    0.064791
  10 H :    0.065756
Sum of atomic charges:   -0.0000000

LOEWDIN ATOMIC CHARGES
----------------------
   0 C :   -0.070026
   1 C :   -0.028222
   2 C :   -0.030047
   3 C :   -0.045295
   4 C :   -0.045660
   5 N :   -0.060567
   6 H :    0.037605
   7 H :    0.057772
   8 H :    0.057967
   9 H :    0.063109
  10 H :    0.063365

  Mayer bond orders larger than 0.1
B(  0-C ,  1-C ) :   2.3367 B(  0-C ,  6-H ) :   1.1016 B(  1-C ,  2-C ) :   1.0765
B(  1-C ,  6-H ) :  -0.1106 B(  2-C ,  3-C ) :   1.1066 B(  2-C ,  7-H ) :   0.8962
B(  2-C ,  8-H ) :   0.8952 B(  3-C ,  4-C ) :   1.1386 B(  3-C ,  9-H ) :   0.8902
B(  3-C , 10-H ) :   0.8889 B(  4-C ,  5-N ) :   3.0580

FINAL SINGLE POINT ENERGY      -247.697607007981

DIPOLE MOMENT
-------------
                                X             Y             Z
Electronic contribution:      2.52215       0.29001       0.55203
Nuclear contribution   :     -3.77650      -0.31949      -0.60734
                        -----------------------------------------
Total Dipole Moment    :     -1.25435      -0.02948      -0.05531
                        -----------------------------------------
Magnitude (a.u.)       :      1.25592
Magnitude (Debye)      :      3.19229

                             ****ORCA TERMINATED NORMALLY****
TOTAL RUN TIME: 0 days 0 hours 0 minutes 4 seconds 742 msec
