                         Program Version 3.0.3 - RELEASE   -
|  1> ! RI PBE def2-SVP def2-SVP/J NBO PAL2
|  2> % maxcore 2000
|  3> % output
|  4>     # printlevel mini
|  5>     print[ P_Basis ] 0
|  6>     print[ P_SCFInfo ] 1
|  7>     print[ P_SCFIterInfo ] 1
|  8>     print[ P_OrbEn ] 0
|  9>     print[ P_Cartesian ] 0
| 10> end
| 11> *xyz 0 1
| 12>  C        0.7005490000     0.1468640000    -1.4392690000
| 13>  C        2.1866040000     0.2589830000    -1.4193310000
| 14>  C        3.0322600000    -0.7646010000    -1.4168070000
| 15>  C        4.5201270000    -0.6561330000    -1.3984430000
| 16>  C        5.1724240000    -1.2790860000    -2.6257150000
| 17>  N        6.6219440000    -1.2422780000    -2.5066250000
| 18>  H        0.2768690000     0.6514070000    -2.3136830000
| 19>  H        0.2557400000     0.6221160000    -0.5589050000
| 20>  H        0.3795710000    -0.8965880000    -1.4603520000
| 21>  H        2.5954590000     1.2691600000    -1.4000090000
| 22>  H        2.6248210000    -1.7762360000    -1.4358200000
| 23>  H        4.9281410000    -1.1598310000    -0.5142660000
| 24>  H        4.8114630000     0.3980950000    -1.3246430000
| 25>  H        4.7830870000    -0.7769700000    -3.5252150000
| 26>  H        4.8670760000    -2.3284870000    -2.6970020000
| 27>  H        6.9480400000    -0.2829840000    -2.4909380000
| 28>  H        7.0578150000    -1.6854200000    -3.3054770000
| 29> *
| 30>
| 31>                          ****END OF INPUT****
 Total Charge           Charge          ....    0
 Multiplicity           Mult            ....    1
 Number of Electrons    NEL             ....   48
 Basis Dimension        Dim             ....  139

MULLIKEN ATOMIC CHARGES
-----------------------
   0 C :    0.041701
   1 C :   -0.106891
   2 C :   -0.069617
   3 C :    0.060216
   4 C :    0.043087
   5 N :   -0.206371
   6 H :    0.030442
   7 H :    0.031134
   8 H :    0.015488
   9 H :   -0.011080
  10 H :   -0.012562
  11 H :    0.018016
  12 H :   -0.004655
  13 H :   -0.005896
  14 H :    0.004917
  15 H :    0.085071
  16 H :    0.087001
Sum of atomic charges:    0.0000000

LOEWDIN ATOMIC CHARGES
----------------------
   0 C :   -0.065180
   1 C :   -0.049447
   2 C :   -0.045195
   3 C :   -0.047278
   4 C :    0.007928
   5 N :   -0.114135
   6 H :    0.035102
   7 H :    0.035540
   8 H :    0.029441
   9 H :    0.019558
  10 H :    0.019649
  11 H :    0.033043
  12 H :    0.022792
  13 H :   -0.001237
  14 H :    0.018536
  15 H :    0.048738
  16 H :    0.052144

  Mayer bond orders larger than 0.1
B(  0-C ,  1-C ) :   1.0802 B(  0-C ,  6-H ) :   0.9490 B(  0-C ,  7-H ) :   0.9480
B(  0-C ,  8-H ) :   0.9615 B(  1-C ,  2-C ) :   1.9253 B(  1-C ,  9-H ) :   0.9550
B(  2-C ,  3-C ) :   1.0551 B(  2-C , 10-H ) :   0.9509 B(  3-C ,  4-C ) :   1.0786
B(  3-C , 11-H ) :   0.9061 B(  3-C , 12-H ) :   0.9297 B(  4-C ,  5-N ) :   1.0895
B(  4-C , 13-H ) :   0.9330 B(  4-C , 14-H ) :   0.9362 B(  5-N , 15-H ) :   0.9698
B(  5-N , 16-H ) :   0.9645

FINAL SINGLE POINT ENERGY      -251.347849127892

DIPOLE MOMENT
-------------
                                X             Y             Z
Electronic contribution:      1.65260      -0.34039       0.39495
Nuclear contribution   :     -1.69674       0.57659      -0.82445
                        -----------------------------------------
Total Dipole Moment    :     -0.04414       0.23620      -0.42950
                        -----------------------------------------
Magnitude (a.u.)       :      0.49214
Magnitude (Debye)      :      1.25093

                             ****ORCA TERMINATED NORMALLY****
TOTAL RUN TIME: 0 days 0 hours 0 minutes 6 seconds 668 msec
