                         Program Version 3.0.3 - RELEASE   -
|  1> ! RI PBE def2-SVP def2-SVP/J NBO PAL2
|  2> % maxcore 2000
|  3> % output
|  4>     # printlevel mini
|  5>     print[ P_Basis ] 0
|  6>     print[ P_SCFInfo ] 1
|  7>     print[ P_SCFIterInfo ] 1
|  8>     print[ P_OrbEn ] 0
|  9>     print[ P_Cartesian ] 0
| 10> end
| 11> *xyz 0 1
| 12>  C        0.6337280000     0.2465630000    -1.2430260000
| 13>  C        2.1224720000     0.1784990000    -1.2028920000
| 14>  C        2.9782310000     1.0996580000    -0.7568850000
| 15>  C        2.6005060000     2.4354680000    -0.1999240000
| 16>  C        4.4563410000     0.8209800000    -0.7942330000
| 17>  N        5.1435360000     1.7661250000    -1.6680700000
| 18>  H        0.2404120000     1.1917940000    -0.8695360000
| 19>  H        0.1931590000    -0.5571770000    -0.6436010000
| 20>  H        0.2648730000     0.1084670000    -2.2646710000
| 21>  H        2.5512680000    -0.7495260000    -1.5796570000
| 22>  H        2.8099570000     2.4725320000     0.8753780000
| 23>  H        1.5486910000     2.6783260000    -0.3446840000
| 24>  H        3.2086790000     3.2138730000    -0.6664700000
| 25>  H        4.6137530000    -0.2326560000    -1.0670680000
| 26>  H        4.8695110000     0.9544860000     0.2133630000
| 27>  H        4.8852890000     1.5958470000    -2.6325290000
| 28>  H        6.1468950000     1.6541300000    -1.5994050000
| 29> *
| 30>
| 31>                          ****END OF INPUT****
 Total Charge           Charge          ....    0
 Multiplicity           Mult            ....    1
 Number of Electrons    NEL             ....   48
 Basis Dimension        Dim             ....  139

MULLIKEN ATOMIC CHARGES
-----------------------
   0 C :    0.061038
   1 C :   -0.124710
   2 C :   -0.183297
   3 C :    0.083190
   4 C :    0.131063
   5 N :   -0.213406
   6 H :    0.011640
   7 H :    0.027522
   8 H :    0.024298
   9 H :   -0.025713
  10 H :    0.019132
  11 H :    0.003333
  12 H :    0.024449
  13 H :   -0.017532
  14 H :    0.002952
  15 H :    0.086767
  16 H :    0.089275
Sum of atomic charges:   -0.0000000

LOEWDIN ATOMIC CHARGES
----------------------
   0 C :   -0.066483
   1 C :   -0.061460
   2 C :   -0.053052
   3 C :   -0.060434
   4 C :    0.013924
   5 N :   -0.107728
   6 H :    0.026937
   7 H :    0.036255
   8 H :    0.034763
   9 H :    0.017198
  10 H :    0.035860
  11 H :    0.023554
  12 H :    0.034270
  13 H :    0.001007
  14 H :    0.023088
  15 H :    0.050688
  16 H :    0.051614

  Mayer bond orders larger than 0.1
B(  0-C ,  1-C ) :   1.0937 B(  0-C ,  6-H ) :   0.9539 B(  0-C ,  7-H ) :   0.9432
B(  0-C ,  8-H ) :   0.9452 B(  1-C ,  2-C ) :   1.8991 B(  1-C ,  9-H ) :   0.9288
B(  2-C ,  3-C ) :   1.1031 B(  2-C ,  4-C ) :   1.0606 B(  3-C , 10-H ) :   0.9345
B(  3-C , 11-H ) :   0.9452 B(  3-C , 12-H ) :   0.9280 B(  4-C ,  5-N ) :   1.0789
B(  4-C , 13-H ) :   0.9179 B(  4-C , 14-H ) :   0.9177 B(  5-N , 15-H ) :   0.9684
B(  5-N , 16-H ) :   0.9661

FINAL SINGLE POINT ENERGY      -251.351774184649

DIPOLE MOMENT
-------------
                                X             Y             Z
Electronic contribution:      1.96516      -0.42234      -0.47518
Nuclear contribution   :     -1.77267       0.10695       0.30505
                        -----------------------------------------
Total Dipole Moment    :      0.19249      -0.31539      -0.17013
                        -----------------------------------------
Magnitude (a.u.)       :      0.40678
Magnitude (Debye)      :      1.03395

                             ****ORCA TERMINATED NORMALLY****
TOTAL RUN TIME: 0 days 0 hours 0 minutes 6 seconds 822 msec
