                         Program Version 3.0.3 - RELEASE   -
|  1> ! RI PBE def2-SVP def2-SVP/J NBO PAL2
|  2> % maxcore 2000
|  3> % output
|  4>     # printlevel mini
|  5>     print[ P_Basis ] 0
|  6>     print[ P_SCFInfo ] 1
|  7>     print[ P_SCFIterInfo ] 1
|  8>     print[ P_OrbEn ] 0
|  9>     print[ P_Cartesian ] 0
| 10> end
| 11> *xyz 0 1
| 12>  C        1.0046080000     0.1385270000    -0.1260800000
| 13>  C        2.4879220000     0.0833360000     0.0339990000
| 14>  C        3.1334360000    -0.2988420000     1.1424380000
| 15>  C        2.4868570000    -0.7393160000     2.4199420000
| 16>  C        4.5631780000    -0.2961290000     1.1345770000
| 17>  N        5.7155340000    -0.3059990000     1.1632090000
| 18>  H        0.7336150000     0.4824720000    -1.1236350000
| 19>  H        0.5461410000     0.8202080000     0.5962730000
| 20>  H        0.5461440000    -0.8434950000     0.0226480000
| 21>  H        3.0925570000     0.3771550000    -0.8181630000
| 22>  H        1.4008890000    -0.7126220000     2.3425200000
| 23>  H        2.7922850000    -0.0955720000     3.2489160000
| 24>  H        2.7922850000    -1.7571750000     2.6760070000
| 25> *
| 26>
| 27>                          ****END OF INPUT****
 Total Charge           Charge          ....    0
 Multiplicity           Mult            ....    1
 Number of Electrons    NEL             ....   44
 Basis Dimension        Dim             ....  119

MULLIKEN ATOMIC CHARGES
-----------------------
   0 C :    0.026184
   1 C :   -0.066826
   2 C :   -0.228888
   3 C :    0.084829
   4 C :   -0.131448
   5 N :    0.043296
   6 H :    0.031166
   7 H :    0.052731
   8 H :    0.050433
   9 H :    0.018773
  10 H :    0.022283
  11 H :    0.050149
  12 H :    0.047316
Sum of atomic charges:   -0.0000000

LOEWDIN ATOMIC CHARGES
----------------------
   0 C :   -0.068938
   1 C :    0.002272
   2 C :   -0.082572
   3 C :   -0.045268
   4 C :   -0.037073
   5 N :   -0.065857
   6 H :    0.038715
   7 H :    0.045709
   8 H :    0.045442
   9 H :    0.037830
  10 H :    0.034423
  11 H :    0.047826
  12 H :    0.047492

  Mayer bond orders larger than 0.1
B(  0-C ,  1-C ) :   1.0823 B(  0-C ,  6-H ) :   0.9518 B(  0-C ,  7-H ) :   0.9471
B(  0-C ,  8-H ) :   0.9468 B(  1-C ,  2-C ) :   1.8521 B(  1-C ,  5-N ) :   0.1037
B(  1-C ,  9-H ) :   0.9402 B(  2-C ,  3-C ) :   1.0930 B(  2-C ,  4-C ) :   1.1147
B(  3-C , 10-H ) :   0.9369 B(  3-C , 11-H ) :   0.9414 B(  3-C , 12-H ) :   0.9409
B(  4-C ,  5-N ) :   2.9856

FINAL SINGLE POINT ENERGY      -248.952265603150

DIPOLE MOMENT
-------------
                                X             Y             Z
Electronic contribution:      7.85904       0.06988      -0.19968
Nuclear contribution   :     -9.56930      -0.05268       0.15273
                        -----------------------------------------
Total Dipole Moment    :     -1.71026       0.01720      -0.04695
                        -----------------------------------------
Magnitude (a.u.)       :      1.71099
Magnitude (Debye)      :      4.34898

                             ****ORCA TERMINATED NORMALLY****
TOTAL RUN TIME: 0 days 0 hours 0 minutes 5 seconds 312 msec
