                         Program Version 3.0.3 - RELEASE   -
|  1> ! RI PBE def2-SVP def2-SVP/J NBO PAL2
|  2> % maxcore 2000
|  3> % output
|  4>     # printlevel mini
|  5>     print[ P_Basis ] 0
|  6>     print[ P_SCFInfo ] 1
|  7>     print[ P_SCFIterInfo ] 1
|  8>     print[ P_OrbEn ] 0
|  9>     print[ P_Cartesian ] 0
| 10> end
| 11> *xyz 0 1
| 12>  C        0.8348390000    -0.2404890000     0.4396210000
| 13>  C        2.3136900000    -0.2999390000     0.6125100000
| 14>  C        3.1281070000     0.7462230000     0.6025100000
| 15>  C        4.6158790000     0.6871620000     0.7580440000
| 16>  C        5.3100600000     1.1559180000    -0.5210940000
| 17>  N        5.0062260000     1.4447090000     1.9472560000
| 18>  H        0.5131170000    -0.8281330000    -0.4262770000
| 19>  H        0.4895320000     0.7860110000     0.3016260000
| 20>  H        0.3204680000    -0.6596090000     1.3102890000
| 21>  H        2.7444180000    -1.2893540000     0.7626760000
| 22>  H        2.7084840000     1.7435870000     0.4554330000
| 23>  H        4.8937840000    -0.3574640000     0.9394880000
| 24>  H        5.0292620000     2.1878160000    -0.7545670000
| 25>  H        5.0387780000     0.5301670000    -1.3752060000
| 26>  H        6.3973050000     1.1215050000    -0.4040520000
| 27>  H        4.6662960000     2.3979140000     1.8743420000
| 28>  H        6.0170440000     1.5044670000     2.0028910000
| 29> *
| 30>
| 31>                          ****END OF INPUT****
 Total Charge           Charge          ....    0
 Multiplicity           Mult            ....    1
 Number of Electrons    NEL             ....   48
 Basis Dimension        Dim             ....  139

MULLIKEN ATOMIC CHARGES
-----------------------
   0 C :    0.039797
   1 C :   -0.110573
   2 C :   -0.005750
   3 C :   -0.015739
   4 C :    0.022534
   5 N :   -0.172546
   6 H :    0.030972
   7 H :    0.016235
   8 H :    0.034487
   9 H :   -0.005821
  10 H :   -0.020441
  11 H :   -0.003487
  12 H :    0.001515
  13 H :    0.017061
  14 H :    0.014023
  15 H :    0.077937
  16 H :    0.079796
Sum of atomic charges:   -0.0000000

LOEWDIN ATOMIC CHARGES
----------------------
   0 C :   -0.065098
   1 C :   -0.040564
   2 C :   -0.040825
   3 C :   -0.004844
   4 C :   -0.077408
   5 N :   -0.095980
   6 H :    0.035701
   7 H :    0.029606
   8 H :    0.037247
   9 H :    0.022347
  10 H :    0.016922
  11 H :    0.022990
  12 H :    0.019507
  13 H :    0.026825
  14 H :    0.020803
  15 H :    0.045471
  16 H :    0.047301

  Mayer bond orders larger than 0.1
B(  0-C ,  1-C ) :   1.0813 B(  0-C ,  6-H ) :   0.9480 B(  0-C ,  7-H ) :   0.9614
B(  0-C ,  8-H ) :   0.9468 B(  1-C ,  2-C ) :   1.9499 B(  1-C ,  9-H ) :   0.9529
B(  2-C ,  3-C ) :   1.0145 B(  2-C , 10-H ) :   0.9387 B(  3-C ,  4-C ) :   1.0555
B(  3-C ,  5-N ) :   1.0586 B(  3-C , 11-H ) :   0.9134 B(  4-C , 12-H ) :   0.9514
B(  4-C , 13-H ) :   0.9481 B(  4-C , 14-H ) :   0.9557 B(  5-N , 15-H ) :   0.9676
B(  5-N , 16-H ) :   0.9667

FINAL SINGLE POINT ENERGY      -251.348421395133

DIPOLE MOMENT
-------------
                                X             Y             Z
Electronic contribution:      0.51548      -0.21440       1.89337
Nuclear contribution   :     -0.40052       0.39328      -2.22774
                        -----------------------------------------
Total Dipole Moment    :      0.11496       0.17888      -0.33437
                        -----------------------------------------
Magnitude (a.u.)       :      0.39625
Magnitude (Debye)      :      1.00719

                             ****ORCA TERMINATED NORMALLY****
TOTAL RUN TIME: 0 days 0 hours 0 minutes 6 seconds 783 msec
