                         Program Version 3.0.3 - RELEASE   -
|  1> ! RI PBE def2-SVP def2-SVP/J NBO PAL2
|  2> % maxcore 2000
|  3> % output
|  4>     # printlevel mini
|  5>     print[ P_Basis ] 0
|  6>     print[ P_SCFInfo ] 1
|  7>     print[ P_SCFIterInfo ] 1
|  8>     print[ P_OrbEn ] 0
|  9>     print[ P_Cartesian ] 0
| 10> end
| 11> *xyz 0 1
| 12>  C        0.8939830000    -0.0165830000    -0.1474810000
| 13>  C        2.3782260000    -0.1143730000    -0.2019260000
| 14>  C        3.1499440000    -0.5238130000     0.7951340000
| 15>  C        4.6449700000    -0.6290650000     0.7019470000
| 16>  C        5.3252880000     0.1596570000     1.7226760000
| 17>  N        5.8515420000     0.7786930000     2.5358580000
| 18>  H        0.5647790000     1.0095200000    -0.3378470000
| 19>  H        0.5063020000    -0.3257290000     0.8245620000
| 20>  H        0.4316110000    -0.6421990000    -0.9171680000
| 21>  H        2.8494700000     0.1781810000    -1.1396600000
| 22>  H        2.7074210000    -0.8116600000     1.7455710000
| 23>  H        4.9927820000    -0.2986450000    -0.2805420000
| 24>  H        4.9683810000    -1.6695750000     0.8234850000
| 25> *
| 26>
| 27>                          ****END OF INPUT****
 Total Charge           Charge          ....    0
 Multiplicity           Mult            ....    1
 Number of Electrons    NEL             ....   44
 Basis Dimension        Dim             ....  119

MULLIKEN ATOMIC CHARGES
-----------------------
   0 C :    0.040723
   1 C :   -0.096567
   2 C :   -0.064712
   3 C :    0.127726
   4 C :   -0.277159
   5 N :    0.038854
   6 H :    0.039854
   7 H :    0.024626
   8 H :    0.038505
   9 H :    0.003072
  10 H :    0.013179
  11 H :    0.047334
  12 H :    0.064566
Sum of atomic charges:    0.0000000

LOEWDIN ATOMIC CHARGES
----------------------
   0 C :   -0.060511
   1 C :   -0.029353
   2 C :   -0.041277
   3 C :   -0.053393
   4 C :   -0.043536
   5 N :   -0.067366
   6 H :    0.041138
   7 H :    0.033622
   8 H :    0.040388
   9 H :    0.025296
  10 H :    0.030032
  11 H :    0.060016
  12 H :    0.064945

  Mayer bond orders larger than 0.1
B(  0-C ,  1-C ) :   1.0926 B(  0-C ,  6-H ) :   0.9467 B(  0-C ,  7-H ) :   0.9626
B(  0-C ,  8-H ) :   0.9458 B(  1-C ,  2-C ) :   1.9389 B(  1-C ,  9-H ) :   0.9498
B(  2-C ,  3-C ) :   1.0477 B(  2-C , 10-H ) :   0.9511 B(  3-C ,  4-C ) :   1.0795
B(  3-C , 11-H ) :   0.8946 B(  3-C , 12-H ) :   0.8925 B(  4-C ,  5-N ) :   3.0614

FINAL SINGLE POINT ENERGY      -248.945965752292

DIPOLE MOMENT
-------------
                                X             Y             Z
Electronic contribution:      7.05932       1.25665       3.94536
Nuclear contribution   :     -7.98399      -1.97815      -5.04225
                        -----------------------------------------
Total Dipole Moment    :     -0.92466      -0.72150      -1.09689
                        -----------------------------------------
Magnitude (a.u.)       :      1.60584
Magnitude (Debye)      :      4.08173

                             ****ORCA TERMINATED NORMALLY****
TOTAL RUN TIME: 0 days 0 hours 0 minutes 4 seconds 887 msec
