                         Program Version 3.0.3 - RELEASE   -
|  1> ! RI PBE def2-SVP def2-SVP/J NBO PAL2
|  2> % maxcore 2000
|  3> % output
|  4>     # printlevel mini
|  5>     print[ P_Basis ] 0
|  6>     print[ P_SCFInfo ] 1
|  7>     print[ P_SCFIterInfo ] 1
|  8>     print[ P_OrbEn ] 0
|  9>     print[ P_Cartesian ] 0
| 10> end
| 11> *xyz 0 1
| 12>  C        3.4710010000     1.1109080000    -1.6095890000
| 13>  C        3.1389830000     0.6793770000    -0.2143830000
| 14>  C        2.5526710000     1.5023360000     0.6501410000
| 15>  C        3.4911200000    -0.7315120000     0.1581110000
| 16>  C        4.9893690000    -1.0113270000     0.1809180000
| 17>  N        5.2307990000    -2.4023880000     0.5301390000
| 18>  H        3.1247980000     2.1262610000    -1.8062830000
| 19>  H        3.0106070000     0.4403040000    -2.3429200000
| 20>  H        4.5495000000     1.0806730000    -1.7928400000
| 21>  H        2.2939290000     2.5202990000     0.3788430000
| 22>  H        2.3074720000     1.1832850000     1.6576190000
| 23>  H        3.0313420000    -1.4317890000    -0.5494870000
| 24>  H        3.0747230000    -0.9578610000     1.1454040000
| 25>  H        5.4721310000    -0.2886500000     0.8577260000
| 26>  H        5.4106810000    -0.8420090000    -0.8143010000
| 27>  H        4.9058650000    -2.5900770000     1.4713810000
| 28>  H        6.2215070000    -2.6088310000     0.5154530000
| 29> *
| 30>
| 31>                          ****END OF INPUT****
 Total Charge           Charge          ....    0
 Multiplicity           Mult            ....    1
 Number of Electrons    NEL             ....   48
 Basis Dimension        Dim             ....  139

MULLIKEN ATOMIC CHARGES
-----------------------
   0 C :    0.073143
   1 C :   -0.210132
   2 C :   -0.025773
   3 C :    0.065653
   4 C :    0.061523
   5 N :   -0.211856
   6 H :    0.008845
   7 H :    0.024610
   8 H :    0.031525
   9 H :    0.003446
  10 H :    0.003739
  11 H :    0.016229
  12 H :   -0.011224
  13 H :   -0.005375
  14 H :    0.002892
  15 H :    0.085820
  16 H :    0.086935
Sum of atomic charges:   -0.0000000

LOEWDIN ATOMIC CHARGES
----------------------
   0 C :   -0.056004
   1 C :   -0.031166
   2 C :   -0.080092
   3 C :   -0.039184
   4 C :    0.010451
   5 N :   -0.113203
   6 H :    0.030280
   7 H :    0.035919
   8 H :    0.033509
   9 H :    0.017935
  10 H :    0.017811
  11 H :    0.031848
  12 H :    0.023072
  13 H :    0.000379
  14 H :    0.016847
  15 H :    0.049118
  16 H :    0.052480

  Mayer bond orders larger than 0.1
B(  0-C ,  1-C ) :   1.0828 B(  0-C ,  6-H ) :   0.9459 B(  0-C ,  7-H ) :   0.9405
B(  0-C ,  8-H ) :   0.9443 B(  1-C ,  2-C ) :   1.9968 B(  1-C ,  3-C ) :   1.0506
B(  2-C ,  9-H ) :   0.9293 B(  2-C , 10-H ) :   0.9326 B(  3-C ,  4-C ) :   1.0794
B(  3-C , 11-H ) :   0.9071 B(  3-C , 12-H ) :   0.9199 B(  4-C ,  5-N ) :   1.0894
B(  4-C , 13-H ) :   0.9303 B(  4-C , 14-H ) :   0.9311 B(  5-N , 15-H ) :   0.9684
B(  5-N , 16-H ) :   0.9651

FINAL SINGLE POINT ENERGY      -251.346729258098

DIPOLE MOMENT
-------------
                                X             Y             Z
Electronic contribution:     -0.46244      -0.65375       0.91914
Nuclear contribution   :      0.86147       0.69351      -0.72558
                        -----------------------------------------
Total Dipole Moment    :      0.39903       0.03976       0.19356
                        -----------------------------------------
Magnitude (a.u.)       :      0.44528
Magnitude (Debye)      :      1.13181

                             ****ORCA TERMINATED NORMALLY****
TOTAL RUN TIME: 0 days 0 hours 0 minutes 6 seconds 852 msec
