                         Program Version 3.0.3 - RELEASE   -
|  1> ! RI PBE def2-SVP def2-SVP/J NBO PAL2
|  2> % maxcore 2000
|  3> % output
|  4>     # printlevel mini
|  5>     print[ P_Basis ] 0
|  6>     print[ P_SCFInfo ] 1
|  7>     print[ P_SCFIterInfo ] 1
|  8>     print[ P_OrbEn ] 0
|  9>     print[ P_Cartesian ] 0
| 10> end
| 11> *xyz 0 1
| 12>  C        0.9988010000    -0.1143860000     0.1936120000
| 13>  C        2.4577150000    -0.1394020000    -0.1228210000
| 14>  C        2.9764510000    -0.8087990000    -1.1442330000
| 15>  C        3.3497030000     0.6768430000     0.7842740000
| 16>  C        3.2584740000     0.2704630000     2.1812070000
| 17>  N        3.1757360000    -0.0557160000     3.2804040000
| 18>  H        0.4308690000    -0.7201130000    -0.5122490000
| 19>  H        0.6102480000     0.9091300000     0.1623450000
| 20>  H        0.8125710000    -0.4915540000     1.2038380000
| 21>  H        2.3470030000    -1.3794710000    -1.8174440000
| 22>  H        4.0422860000    -0.8114330000    -1.3433010000
| 23>  H        3.0689700000     1.7357940000     0.7321140000
| 24>  H        4.3926640000     0.6018620000     0.4687340000
| 25> *
| 26>
| 27>                          ****END OF INPUT****
 Total Charge           Charge          ....    0
 Multiplicity           Mult            ....    1
 Number of Electrons    NEL             ....   44
 Basis Dimension        Dim             ....  119

MULLIKEN ATOMIC CHARGES
-----------------------
   0 C :    0.074857
   1 C :   -0.205345
   2 C :   -0.029640
   3 C :    0.143476
   4 C :   -0.280558
   5 N :    0.040205
   6 H :    0.023769
   7 H :    0.030530
   8 H :    0.051072
   9 H :    0.022248
  10 H :    0.018039
  11 H :    0.063377
  12 H :    0.047970
Sum of atomic charges:   -0.0000000

LOEWDIN ATOMIC CHARGES
----------------------
   0 C :   -0.053833
   1 C :   -0.025583
   2 C :   -0.060887
   3 C :   -0.047977
   4 C :   -0.043264
   5 N :   -0.066067
   6 H :    0.036137
   7 H :    0.039258
   8 H :    0.045126
   9 H :    0.026934
  10 H :    0.024022
  11 H :    0.065129
  12 H :    0.061005

  Mayer bond orders larger than 0.1
B(  0-C ,  1-C ) :   1.0851 B(  0-C ,  6-H ) :   0.9494 B(  0-C ,  7-H ) :   0.9412
B(  0-C ,  8-H ) :   0.9359 B(  1-C ,  2-C ) :   1.9927 B(  1-C ,  3-C ) :   1.0424
B(  2-C ,  9-H ) :   0.9369 B(  2-C , 10-H ) :   0.9379 B(  3-C ,  4-C ) :   1.0828
B(  3-C , 11-H ) :   0.8871 B(  3-C , 12-H ) :   0.8861 B(  4-C ,  5-N ) :   3.0483

FINAL SINGLE POINT ENERGY      -248.945919200975

DIPOLE MOMENT
-------------
                                X             Y             Z
Electronic contribution:      2.72157       0.35450       5.18605
Nuclear contribution   :     -2.82760       0.04169      -6.49363
                        -----------------------------------------
Total Dipole Moment    :     -0.10604       0.39619      -1.30758
                        -----------------------------------------
Magnitude (a.u.)       :      1.37039
Magnitude (Debye)      :      3.48326

                             ****ORCA TERMINATED NORMALLY****
TOTAL RUN TIME: 0 days 0 hours 0 minutes 4 seconds 865 msec
