                         Program Version 3.0.3 - RELEASE   -
|  1> ! RI PBE def2-SVP def2-SVP/J NBO PAL2
|  2> % maxcore 2000
|  3> % output
|  4>     # printlevel mini
|  5>     print[ P_Basis ] 0
|  6>     print[ P_SCFInfo ] 1
|  7>     print[ P_SCFIterInfo ] 1
|  8>     print[ P_OrbEn ] 0
|  9>     print[ P_Cartesian ] 0
| 10> end
| 11> *xyz 0 1
| 12>  C        0.9307920000     0.2486300000     0.1826830000
| 13>  C        2.4283630000     0.0153950000    -0.0545220000
| 14>  C        2.7280410000    -1.4358460000    -0.3209840000
| 15>  C        3.3151440000    -1.9289290000    -1.3991420000
| 16>  C        2.9186690000     0.8822110000    -1.1208390000
| 17>  N        3.2915370000     1.5663570000    -1.9661090000
| 18>  H        0.5888970000    -0.3799080000     1.0069410000
| 19>  H        0.3590690000    -0.0095260000    -0.7094450000
| 20>  H        0.7336300000     1.2910150000     0.4356890000
| 21>  H        2.9663440000     0.3106430000     0.8561730000
| 22>  H        2.4023020000    -2.1014500000     0.4748250000
| 23>  H        3.6518240000    -1.2903260000    -2.2093520000
| 24>  H        3.4803870000    -2.9944670000    -1.5028190000
| 25> *
| 26>
| 27>                          ****END OF INPUT****
 Total Charge           Charge          ....    0
 Multiplicity           Mult            ....    1
 Number of Electrons    NEL             ....   44
 Basis Dimension        Dim             ....  119

MULLIKEN ATOMIC CHARGES
-----------------------
   0 C :    0.000245
   1 C :    0.029930
   2 C :   -0.101866
   3 C :    0.009124
   4 C :   -0.254797
   5 N :    0.051201
   6 H :    0.034372
   7 H :    0.049689
   8 H :    0.044436
   9 H :    0.054187
  10 H :    0.015475
  11 H :    0.037298
  12 H :    0.030706
Sum of atomic charges:   -0.0000000

LOEWDIN ATOMIC CHARGES
----------------------
   0 C :   -0.036248
   1 C :   -0.064426
   2 C :   -0.025681
   3 C :   -0.044183
   4 C :   -0.030952
   5 N :   -0.065302
   6 H :    0.032722
   7 H :    0.037540
   8 H :    0.036584
   9 H :    0.064224
  10 H :    0.031113
  11 H :    0.032986
  12 H :    0.031623

  Mayer bond orders larger than 0.1
B(  0-C ,  1-C ) :   1.0758 B(  0-C ,  6-H ) :   0.9603 B(  0-C ,  7-H ) :   0.9633
B(  0-C ,  8-H ) :   0.9596 B(  1-C ,  2-C ) :   0.9933 B(  1-C ,  4-C ) :   1.0666
B(  1-C ,  9-H ) :   0.8505 B(  2-C ,  3-C ) :   2.0370 B(  2-C , 10-H ) :   0.9589
B(  3-C , 11-H ) :   0.9163 B(  3-C , 12-H ) :   0.9429 B(  4-C ,  5-N ) :   3.0392

FINAL SINGLE POINT ENERGY      -248.940275260945

DIPOLE MOMENT
-------------
                                X             Y             Z
Electronic contribution:      3.02504       3.21713      -2.42061
Nuclear contribution   :     -3.56128      -4.04154       3.44923
                        -----------------------------------------
Total Dipole Moment    :     -0.53624      -0.82441       1.02863
                        -----------------------------------------
Magnitude (a.u.)       :      1.42312
Magnitude (Debye)      :      3.61730

                             ****ORCA TERMINATED NORMALLY****
TOTAL RUN TIME: 0 days 0 hours 0 minutes 5 seconds 195 msec
