                         Program Version 3.0.3 - RELEASE   -
|  1> ! RI PBE def2-SVP def2-SVP/J NBO PAL2
|  2> % maxcore 2000
|  3> % output
|  4>     # printlevel mini
|  5>     print[ P_Basis ] 0
|  6>     print[ P_SCFInfo ] 1
|  7>     print[ P_SCFIterInfo ] 1
|  8>     print[ P_OrbEn ] 0
|  9>     print[ P_Cartesian ] 0
| 10> end
| 11> *xyz 0 1
| 12>  C        0.9369490000    -0.1131170000     0.3093510000
| 13>  C        2.4321410000    -0.3037570000     0.0870370000
| 14>  C        2.7782890000    -1.7857000000     0.0400390000
| 15>  C        2.9244110000     0.3969110000    -1.1764770000
| 16>  C        2.7836370000     1.9078070000    -1.1688640000
| 17>  N        3.3414670000     2.4738920000    -2.3885390000
| 18>  H        0.6030990000    -0.6482150000     1.2021900000
| 19>  H        0.3681410000    -0.5020280000    -0.5418140000
| 20>  H        0.6682350000     0.9376340000     0.4367470000
| 21>  H        2.9605190000     0.1382700000     0.9431000000
| 22>  H        2.2725390000    -2.2747430000    -0.7987520000
| 23>  H        2.4688320000    -2.2959690000     0.9558630000
| 24>  H        3.8531510000    -1.9410450000    -0.0852160000
| 25>  H        2.3973730000    -0.0015980000    -2.0515210000
| 26>  H        3.9843110000     0.1499110000    -1.3215670000
| 27>  H        3.2416290000     2.3040950000    -0.2467500000
| 28>  H        1.7252800000     2.1822310000    -1.1337860000
| 29>  H        4.3366310000     2.2894580000    -2.4376650000
| 30>  H        3.2284550000     3.4796520000    -2.4024760000
| 31> *
| 32>
| 33>                          ****END OF INPUT****
 Total Charge           Charge          ....    0
 Multiplicity           Mult            ....    1
 Number of Electrons    NEL             ....   50
 Basis Dimension        Dim             ....  149

MULLIKEN ATOMIC CHARGES
-----------------------
   0 C :    0.012971
   1 C :   -0.148023
   2 C :    0.030749
   3 C :   -0.011936
   4 C :    0.091334
   5 N :   -0.214851
   6 H :    0.011456
   7 H :    0.013777
   8 H :    0.019076
   9 H :    0.002446
  10 H :    0.009900
  11 H :    0.012090
  12 H :    0.013496
  13 H :    0.006568
  14 H :   -0.006334
  15 H :   -0.017758
  16 H :    0.002824
  17 H :    0.085863
  18 H :    0.086351
Sum of atomic charges:   -0.0000000

LOEWDIN ATOMIC CHARGES
----------------------
   0 C :   -0.059823
   1 C :   -0.048885
   2 C :   -0.057506
   3 C :   -0.044429
   4 C :    0.005680
   5 N :   -0.113404
   6 H :    0.024677
   7 H :    0.024624
   8 H :    0.022448
   9 H :    0.021254
  10 H :    0.023454
  11 H :    0.023106
  12 H :    0.023240
  13 H :    0.023810
  14 H :    0.018510
  15 H :   -0.003690
  16 H :    0.017455
  17 H :    0.048065
  18 H :    0.051415

  Mayer bond orders larger than 0.1
B(  0-C ,  1-C ) :   1.0790 B(  0-C ,  6-H ) :   0.9582 B(  0-C ,  7-H ) :   0.9614
B(  0-C ,  8-H ) :   0.9607 B(  1-C ,  2-C ) :   1.0868 B(  1-C ,  3-C ) :   1.0523
B(  1-C ,  9-H ) :   0.9081 B(  2-C , 10-H ) :   0.9600 B(  2-C , 11-H ) :   0.9601
B(  2-C , 12-H ) :   0.9595 B(  3-C ,  4-C ) :   1.0889 B(  3-C , 13-H ) :   0.9254
B(  3-C , 14-H ) :   0.9348 B(  4-C ,  5-N ) :   1.0906 B(  4-C , 15-H ) :   0.9249
B(  4-C , 16-H ) :   0.9254 B(  5-N , 17-H ) :   0.9703 B(  5-N , 18-H ) :   0.9649

FINAL SINGLE POINT ENERGY      -252.565962316673

DIPOLE MOMENT
-------------
                                X             Y             Z
Electronic contribution:      1.14514       2.24158      -1.60831
Nuclear contribution   :     -0.87382      -1.96585       1.91629
                        -----------------------------------------
Total Dipole Moment    :      0.27132       0.27573       0.30798
                        -----------------------------------------
Magnitude (a.u.)       :      0.49446
Magnitude (Debye)      :      1.25681

                             ****ORCA TERMINATED NORMALLY****
TOTAL RUN TIME: 0 days 0 hours 0 minutes 7 seconds 122 msec
