                         Program Version 3.0.3 - RELEASE   -
|  1> ! RI PBE def2-SVP def2-SVP/J NBO PAL2
|  2> % maxcore 2000
|  3> % output
|  4>     # printlevel mini
|  5>     print[ P_Basis ] 0
|  6>     print[ P_SCFInfo ] 1
|  7>     print[ P_SCFIterInfo ] 1
|  8>     print[ P_OrbEn ] 0
|  9>     print[ P_Cartesian ] 0
| 10> end
| 11> *xyz 0 1
| 12>  C        1.0317940000    -0.1540220000    -0.1051690000
| 13>  C        2.5170040000     0.0315690000    -0.1721360000
| 14>  C        2.9585050000     1.1534210000    -1.0601210000
| 15>  C        3.3332080000    -0.7713140000     0.5128990000
| 16>  C        4.8241930000    -0.7468060000     0.5690810000
| 17>  N        5.2674160000    -0.7080450000     1.9594440000
| 18>  H        0.6175440000    -0.3547260000    -1.0995480000
| 19>  H        0.5404770000     0.7555460000     0.2576180000
| 20>  H        0.7563750000    -0.9793560000     0.5526430000
| 21>  H        2.4472870000     2.0814210000    -0.7828680000
| 22>  H        2.6833250000     0.9488580000    -2.1006630000
| 23>  H        4.0321440000     1.3330610000    -1.0289250000
| 24>  H        2.8850010000    -1.5461830000     1.1320870000
| 25>  H        5.2257460000     0.0680420000    -0.0477530000
| 26>  H        5.2069080000    -1.6791370000     0.1352010000
| 27>  H        4.9709590000     0.1578510000     2.3932200000
| 28>  H        6.2777830000    -0.7416810000     2.0135990000
| 29> *
| 30>
| 31>                          ****END OF INPUT****
 Total Charge           Charge          ....    0
 Multiplicity           Mult            ....    1
 Number of Electrons    NEL             ....   48
 Basis Dimension        Dim             ....  139

MULLIKEN ATOMIC CHARGES
-----------------------
   0 C :    0.048703
   1 C :   -0.183861
   2 C :    0.055732
   3 C :   -0.118356
   4 C :    0.165327
   5 N :   -0.230478
   6 H :    0.022851
   7 H :    0.022781
   8 H :    0.017535
   9 H :    0.017690
  10 H :    0.029072
  11 H :    0.009440
  12 H :   -0.017880
  13 H :   -0.015007
  14 H :    0.006953
  15 H :    0.083905
  16 H :    0.085593
Sum of atomic charges:   -0.0000000

LOEWDIN ATOMIC CHARGES
----------------------
   0 C :   -0.055240
   1 C :   -0.045966
   2 C :   -0.060971
   3 C :   -0.067191
   4 C :    0.004712
   5 N :   -0.112489
   6 H :    0.032088
   7 H :    0.031634
   8 H :    0.029683
   9 H :    0.032840
  10 H :    0.036630
  11 H :    0.024197
  12 H :    0.022311
  13 H :    0.000997
  14 H :    0.028422
  15 H :    0.048538
  16 H :    0.049806

  Mayer bond orders larger than 0.1
B(  0-C ,  1-C ) :   1.0824 B(  0-C ,  6-H ) :   0.9475 B(  0-C ,  7-H ) :   0.9468
B(  0-C ,  8-H ) :   0.9539 B(  1-C ,  2-C ) :   1.1008 B(  1-C ,  3-C ) :   1.8684
B(  2-C ,  9-H ) :   0.9399 B(  2-C , 10-H ) :   0.9423 B(  2-C , 11-H ) :   0.9447
B(  3-C ,  4-C ) :   1.0782 B(  3-C , 12-H ) :   0.9407 B(  4-C ,  5-N ) :   1.0481
B(  4-C , 13-H ) :   0.9223 B(  4-C , 14-H ) :   0.9051 B(  5-N , 15-H ) :   0.9715
B(  5-N , 16-H ) :   0.9669

FINAL SINGLE POINT ENERGY      -251.350222760907

DIPOLE MOMENT
-------------
                                X             Y             Z
Electronic contribution:      1.38436      -1.48085       1.53401
Nuclear contribution   :     -1.19341       1.94390      -1.78290
                        -----------------------------------------
Total Dipole Moment    :      0.19095       0.46306      -0.24889
                        -----------------------------------------
Magnitude (a.u.)       :      0.55931
Magnitude (Debye)      :      1.42166

                             ****ORCA TERMINATED NORMALLY****
TOTAL RUN TIME: 0 days 0 hours 0 minutes 6 seconds 801 msec
