                         Program Version 3.0.3 - RELEASE   -
|  1> ! RI PBE def2-SVP def2-SVP/J NBO PAL2
|  2> % maxcore 2000
|  3> % output
|  4>     # printlevel mini
|  5>     print[ P_Basis ] 0
|  6>     print[ P_SCFInfo ] 1
|  7>     print[ P_SCFIterInfo ] 1
|  8>     print[ P_OrbEn ] 0
|  9>     print[ P_Cartesian ] 0
| 10> end
| 11> *xyz 0 1
| 12>  C        0.9367060000    -0.1356540000    -0.0940670000
| 13>  C        2.4359040000    -0.0937910000    -0.0332860000
| 14>  C        3.0977380000     0.6686960000     1.0735030000
| 15>  C        3.1581710000    -0.7349580000    -0.9640480000
| 16>  C        4.5756110000    -0.7328400000    -0.9611290000
| 17>  N        5.7293560000    -0.7315040000    -0.9588480000
| 18>  H        0.4843020000     0.4265220000     0.7219860000
| 19>  H        0.5713160000    -1.1643080000    -0.0374030000
| 20>  H        0.5713160000     0.2838230000    -1.0350130000
| 21>  H        2.3676290000     1.1272370000     1.7391150000
| 22>  H        3.7422140000     1.4562010000     0.6735480000
| 23>  H        3.7422310000     0.0144140000     1.6668170000
| 24>  H        2.6789950000    -1.2871080000    -1.7655450000
| 25> *
| 26>
| 27>                          ****END OF INPUT****
 Total Charge           Charge          ....    0
 Multiplicity           Mult            ....    1
 Number of Electrons    NEL             ....   44
 Basis Dimension        Dim             ....  119

MULLIKEN ATOMIC CHARGES
-----------------------
   0 C :    0.050192
   1 C :   -0.232964
   2 C :    0.086044
   3 C :   -0.115326
   4 C :   -0.111285
   5 N :    0.036948
   6 H :    0.026330
   7 H :    0.049304
   8 H :    0.049633
   9 H :    0.019072
  10 H :    0.058008
  11 H :    0.058447
  12 H :    0.025598
Sum of atomic charges:   -0.0000000

LOEWDIN ATOMIC CHARGES
----------------------
   0 C :   -0.056340
   1 C :    0.015310
   2 C :   -0.057530
   3 C :   -0.100578
   4 C :   -0.045677
   5 N :   -0.068921
   6 H :    0.033309
   7 H :    0.048074
   8 H :    0.048244
   9 H :    0.032174
  10 H :    0.052483
  11 H :    0.052961
  12 H :    0.046491

  Mayer bond orders larger than 0.1
B(  0-C ,  1-C ) :   1.0748 B(  0-C ,  6-H ) :   0.9517 B(  0-C ,  7-H ) :   0.9516
B(  0-C ,  8-H ) :   0.9508 B(  1-C ,  2-C ) :   1.1315 B(  1-C ,  3-C ) :   1.7854
B(  1-C ,  5-N ) :   0.1030 B(  2-C ,  9-H ) :   0.9426 B(  2-C , 10-H ) :   0.9331
B(  2-C , 11-H ) :   0.9304 B(  3-C ,  4-C ) :   1.1267 B(  3-C , 12-H ) :   0.9599
B(  4-C ,  5-N ) :   2.9399

FINAL SINGLE POINT ENERGY      -248.952475385598

DIPOLE MOMENT
-------------
                                X             Y             Z
Electronic contribution:      6.48073      -2.31096      -3.35537
Nuclear contribution   :     -8.16826       2.56102       3.71751
                        -----------------------------------------
Total Dipole Moment    :     -1.68753       0.25006       0.36214
                        -----------------------------------------
Magnitude (a.u.)       :      1.74397
Magnitude (Debye)      :      4.43282

                             ****ORCA TERMINATED NORMALLY****
TOTAL RUN TIME: 0 days 0 hours 0 minutes 5 seconds 890 msec
