                         Program Version 3.0.3 - RELEASE   -
|  1> ! RI PBE def2-SVP def2-SVP/J NBO PAL2
|  2> % maxcore 2000
|  3> % output
|  4>     # printlevel mini
|  5>     print[ P_Basis ] 0
|  6>     print[ P_SCFInfo ] 1
|  7>     print[ P_SCFIterInfo ] 1
|  8>     print[ P_OrbEn ] 0
|  9>     print[ P_Cartesian ] 0
| 10> end
| 11> *xyz 0 1
| 12>  C        1.0759510000    -0.0851050000     0.0129360000
| 13>  C        2.5997750000    -0.0404850000     0.0683590000
| 14>  C        3.0703720000     1.4066620000    -0.0584030000
| 15>  C        3.0858820000    -0.6263130000     1.3903390000
| 16>  C        3.1421540000    -0.8707540000    -1.1028140000
| 17>  N        4.5953490000    -0.8708610000    -1.1728080000
| 18>  H        0.6398390000     0.4796830000     0.8413610000
| 19>  H        0.7095910000    -1.1138430000     0.0821470000
| 20>  H        0.6980680000     0.3443420000    -0.9197800000
| 21>  H        2.6384580000     2.0235800000     0.7343190000
| 22>  H        2.7682050000     1.8391180000    -1.0178670000
| 23>  H        4.1575200000     1.4805960000     0.0271020000
| 24>  H        2.7496770000    -0.0159980000     2.2333660000
| 25>  H        4.1757290000    -0.6784150000     1.4086060000
| 26>  H        2.6967900000    -1.6388260000     1.5343790000
| 27>  H        2.6626700000    -0.5102660000    -2.0280110000
| 28>  H        2.8143780000    -1.9065880000    -0.9655510000
| 29>  H        4.9377640000    -0.0046050000    -1.5679500000
| 30>  H        4.9232200000    -1.6158140000    -1.7726310000
| 31> *
| 32>
| 33>                          ****END OF INPUT****
 Total Charge           Charge          ....    0
 Multiplicity           Mult            ....    1
 Number of Electrons    NEL             ....   50
 Basis Dimension        Dim             ....  149

MULLIKEN ATOMIC CHARGES
-----------------------
   0 C :    0.074414
   1 C :   -0.334494
   2 C :    0.036586
   3 C :    0.071519
   4 C :    0.102417
   5 N :   -0.185737
   6 H :    0.009203
   7 H :    0.006500
   8 H :    0.004385
   9 H :    0.011917
  10 H :    0.005584
  11 H :    0.019685
  12 H :    0.003476
  13 H :    0.021430
  14 H :   -0.003068
  15 H :   -0.015559
  16 H :   -0.006739
  17 H :    0.087399
  18 H :    0.091082
Sum of atomic charges:   -0.0000000

LOEWDIN ATOMIC CHARGES
----------------------
   0 C :   -0.047561
   1 C :   -0.075672
   2 C :   -0.054814
   3 C :   -0.050267
   4 C :    0.014635
   5 N :   -0.102271
   6 H :    0.023552
   7 H :    0.021701
   8 H :    0.019903
   9 H :    0.025088
  10 H :    0.020665
  11 H :    0.023054
  12 H :    0.019783
  13 H :    0.023754
  14 H :    0.020382
  15 H :   -0.002794
  16 H :    0.017431
  17 H :    0.049181
  18 H :    0.054251

  Mayer bond orders larger than 0.1
B(  0-C ,  1-C ) :   1.0519 B(  0-C ,  6-H ) :   0.9582 B(  0-C ,  7-H ) :   0.9578
B(  0-C ,  8-H ) :   0.9544 B(  1-C ,  2-C ) :   1.0467 B(  1-C ,  3-C ) :   1.0472
B(  1-C ,  4-C ) :   1.0093 B(  2-C ,  9-H ) :   0.9574 B(  2-C , 10-H ) :   0.9582
B(  2-C , 11-H ) :   0.9557 B(  3-C , 12-H ) :   0.9590 B(  3-C , 13-H ) :   0.9498
B(  3-C , 14-H ) :   0.9542 B(  4-C ,  5-N ) :   1.1249 B(  4-C , 15-H ) :   0.9315
B(  4-C , 16-H ) :   0.9318 B(  5-N , 17-H ) :   0.9636 B(  5-N , 18-H ) :   0.9646

FINAL SINGLE POINT ENERGY      -252.568188863741

DIPOLE MOMENT
-------------
                                X             Y             Z
Electronic contribution:      1.66475      -1.00285      -1.15482
Nuclear contribution   :     -1.64849       1.01613       0.64693
                        -----------------------------------------
Total Dipole Moment    :      0.01627       0.01329      -0.50789
                        -----------------------------------------
Magnitude (a.u.)       :      0.50832
Magnitude (Debye)      :      1.29205

                             ****ORCA TERMINATED NORMALLY****
TOTAL RUN TIME: 0 days 0 hours 0 minutes 7 seconds 867 msec
