                         Program Version 3.0.3 - RELEASE   -
|  1> ! RI PBE def2-SVP def2-SVP/J NBO PAL2
|  2> % maxcore 2000
|  3> % output
|  4>     # printlevel mini
|  5>     print[ P_Basis ] 0
|  6>     print[ P_SCFInfo ] 1
|  7>     print[ P_SCFIterInfo ] 1
|  8>     print[ P_OrbEn ] 0
|  9>     print[ P_Cartesian ] 0
| 10> end
| 11> *xyz 0 1
| 12>  C        0.9402240000    -0.0322980000    -0.0861950000
| 13>  C        2.4719320000    -0.0560400000    -0.0828430000
| 14>  C        2.9937270000    -0.5616030000     1.2657590000
| 15>  C        2.9940050000    -0.9386230000    -1.2210250000
| 16>  C        2.9612410000     1.3115720000    -0.2900570000
| 17>  N        3.3450310000     2.3837250000    -0.4526330000
| 18>  H        0.5641750000    -1.0466430000     0.0669040000
| 19>  H        0.5544080000     0.3397540000    -1.0368190000
| 20>  H        0.5553800000     0.6034700000     0.7130030000
| 21>  H        2.6364260000    -1.5807420000     1.4315670000
| 22>  H        2.6392390000     0.0665060000     2.0847460000
| 23>  H        4.0847850000    -0.5702040000     1.2865490000
| 24>  H        2.6356160000    -1.9608440000    -1.0782830000
| 25>  H        4.0851080000    -0.9543360000    -1.2377830000
| 26>  H        2.6406930000    -0.5807950000    -2.1895990000
| 27> *
| 28>
| 29>                          ****END OF INPUT****
 Total Charge           Charge          ....    0
 Multiplicity           Mult            ....    1
 Number of Electrons    NEL             ....   46
 Basis Dimension        Dim             ....  129

MULLIKEN ATOMIC CHARGES
-----------------------
   0 C :    0.072695
   1 C :   -0.402121
   2 C :    0.064290
   3 C :    0.063398
   4 C :   -0.145929
   5 N :    0.058338
   6 H :    0.023453
   7 H :    0.034204
   8 H :    0.036312
   9 H :    0.023675
  10 H :    0.033994
  11 H :    0.038389
  12 H :    0.024320
  13 H :    0.039586
  14 H :    0.035394
Sum of atomic charges:    0.0000000

LOEWDIN ATOMIC CHARGES
----------------------
   0 C :   -0.031440
   1 C :   -0.088620
   2 C :   -0.033607
   3 C :   -0.033407
   4 C :   -0.030095
   5 N :   -0.074792
   6 H :    0.029720
   7 H :    0.033274
   8 H :    0.033583
   9 H :    0.030146
  10 H :    0.033390
  11 H :    0.034018
  12 H :    0.030119
  13 H :    0.034038
  14 H :    0.033672

  Mayer bond orders larger than 0.1
B(  0-C ,  1-C ) :   1.0591 B(  0-C ,  6-H ) :   0.9591 B(  0-C ,  7-H ) :   0.9579
B(  0-C ,  8-H ) :   0.9584 B(  1-C ,  2-C ) :   1.0636 B(  1-C ,  3-C ) :   1.0597
B(  1-C ,  4-C ) :   1.0074 B(  2-C ,  9-H ) :   0.9564 B(  2-C , 10-H ) :   0.9556
B(  2-C , 11-H ) :   0.9574 B(  3-C , 12-H ) :   0.9581 B(  3-C , 13-H ) :   0.9584
B(  3-C , 14-H ) :   0.9572 B(  4-C ,  5-N ) :   3.0986

FINAL SINGLE POINT ENERGY      -250.166874357560

DIPOLE MOMENT
-------------
                                X             Y             Z
Electronic contribution:      2.28698       6.40785      -0.97328
Nuclear contribution   :     -2.78730      -7.79229       1.18134
                        -----------------------------------------
Total Dipole Moment    :     -0.50033      -1.38444       0.20806
                        -----------------------------------------
Magnitude (a.u.)       :      1.48670
Magnitude (Debye)      :      3.77890

                             ****ORCA TERMINATED NORMALLY****
TOTAL RUN TIME: 0 days 0 hours 0 minutes 6 seconds 534 msec
