                         Program Version 3.0.3 - RELEASE   -
|  1> ! RI PBE def2-SVP def2-SVP/J NBO PAL2
|  2> % maxcore 2000
|  3> % output
|  4>     # printlevel mini
|  5>     print[ P_Basis ] 0
|  6>     print[ P_SCFInfo ] 1
|  7>     print[ P_SCFIterInfo ] 1
|  8>     print[ P_OrbEn ] 0
|  9>     print[ P_Cartesian ] 0
| 10> end
| 11> *xyz 0 1
| 12>  C        0.9592920000    -0.1434210000    -0.1205640000
| 13>  C        2.4690150000     0.0443020000    -0.0842560000
| 14>  C        2.8932790000     1.1403160000    -1.0545130000
| 15>  C        2.9552570000     0.2964330000     1.3525080000
| 16>  C        4.4636780000     0.1236100000     1.4970760000
| 17>  N        2.4642720000     1.5839800000     1.8350460000
| 18>  H        0.6087340000    -0.3222040000    -1.1404700000
| 19>  H        0.4589070000     0.7473130000     0.2656850000
| 20>  H        0.6506730000    -0.9940480000     0.4935130000
| 21>  H        2.9393330000    -0.8927710000    -0.4086980000
| 22>  H        2.4048900000     2.0879890000    -0.8102690000
| 23>  H        2.5991490000     0.8808410000    -2.0743510000
| 24>  H        3.9743440000     1.3012010000    -1.0591460000
| 25>  H        2.4731330000    -0.4653890000     1.9774660000
| 26>  H        5.0080650000     0.8739100000     0.9161560000
| 27>  H        4.7903750000    -0.8641470000     1.1586700000
| 28>  H        4.7642740000     0.2360880000     2.5422500000
| 29>  H        2.9984520000     2.3396090000     1.4208950000
| 30>  H        2.5963780000     1.6558860000     2.8362110000
| 31> *
| 32>
| 33>                          ****END OF INPUT****
 Total Charge           Charge          ....    0
 Multiplicity           Mult            ....    1
 Number of Electrons    NEL             ....   50
 Basis Dimension        Dim             ....  149

MULLIKEN ATOMIC CHARGES
-----------------------
   0 C :    0.048735
   1 C :   -0.105041
   2 C :    0.002838
   3 C :   -0.058129
   4 C :    0.048054
   5 N :   -0.175763
   6 H :    0.006087
   7 H :    0.017501
   8 H :    0.001394
   9 H :   -0.006903
  10 H :    0.015120
  11 H :    0.015147
  12 H :    0.010796
  13 H :   -0.004335
  14 H :    0.009189
  15 H :    0.004726
  16 H :    0.003229
  17 H :    0.080352
  18 H :    0.087003
Sum of atomic charges:    0.0000000

LOEWDIN ATOMIC CHARGES
----------------------
   0 C :   -0.057563
   1 C :   -0.047568
   2 C :   -0.063202
   3 C :   -0.002522
   4 C :   -0.077432
   5 N :   -0.090496
   6 H :    0.020610
   7 H :    0.024147
   8 H :    0.021091
   9 H :    0.021081
  10 H :    0.023062
  11 H :    0.027162
  12 H :    0.020319
  13 H :    0.020981
  14 H :    0.019747
  15 H :    0.024066
  16 H :    0.019815
  17 H :    0.045554
  18 H :    0.051148

  Mayer bond orders larger than 0.1
B(  0-C ,  1-C ) :   1.0856 B(  0-C ,  6-H ) :   0.9608 B(  0-C ,  7-H ) :   0.9534
B(  0-C ,  8-H ) :   0.9559 B(  1-C ,  2-C ) :   1.0739 B(  1-C ,  3-C ) :   1.0219
B(  1-C ,  9-H ) :   0.9115 B(  2-C , 10-H ) :   0.9559 B(  2-C , 11-H ) :   0.9581
B(  2-C , 12-H ) :   0.9596 B(  3-C ,  4-C ) :   1.0746 B(  3-C ,  5-N ) :   1.0863
B(  3-C , 13-H ) :   0.9108 B(  4-C , 14-H ) :   0.9505 B(  4-C , 15-H ) :   0.9446
B(  4-C , 16-H ) :   0.9568 B(  5-N , 17-H ) :   0.9652 B(  5-N , 18-H ) :   0.9681

FINAL SINGLE POINT ENERGY      -252.569243667491

DIPOLE MOMENT
-------------
                                X             Y             Z
Electronic contribution:     -0.54871       0.34796       1.59153
Nuclear contribution   :      0.98646      -0.30576      -1.38529
                        -----------------------------------------
Total Dipole Moment    :      0.43775       0.04221       0.20624
                        -----------------------------------------
Magnitude (a.u.)       :      0.48574
Magnitude (Debye)      :      1.23465

                             ****ORCA TERMINATED NORMALLY****
TOTAL RUN TIME: 0 days 0 hours 0 minutes 7 seconds 577 msec
