                         Program Version 3.0.3 - RELEASE   -
|  1> ! RI PBE def2-SVP def2-SVP/J NBO PAL2
|  2> % maxcore 2000
|  3> % output
|  4>     # printlevel mini
|  5>     print[ P_Basis ] 0
|  6>     print[ P_SCFInfo ] 1
|  7>     print[ P_SCFIterInfo ] 1
|  8>     print[ P_OrbEn ] 0
|  9>     print[ P_Cartesian ] 0
| 10> end
| 11> *xyz 0 1
| 12>  C        0.9236170000    -0.1122570000    -0.1178110000
| 13>  C        2.4388610000    -0.0455640000    -0.0063930000
| 14>  C        2.8755560000     0.7981960000     1.1806510000
| 15>  C        3.0083800000    -1.4690130000     0.0795160000
| 16>  C        4.4620380000    -1.5052900000     0.0797220000
| 17>  N        5.6118810000    -1.5145420000     0.0740740000
| 18>  H        0.4989670000     0.8894500000    -0.2112670000
| 19>  H        0.4869380000    -0.5749330000     0.7728030000
| 20>  H        0.6074100000    -0.6930030000    -0.9880950000
| 21>  H        2.8361910000     0.4095160000    -0.9206270000
| 22>  H        2.4911890000     0.3796890000     2.1163690000
| 23>  H        2.4925720000     1.8170580000     1.0909750000
| 24>  H        3.9636380000     0.8528200000     1.2573420000
| 25>  H        2.6547860000    -2.0716540000    -0.7625880000
| 26>  H        2.6529670000    -1.9585730000     0.9930310000
| 27> *
| 28>
| 29>                          ****END OF INPUT****
 Total Charge           Charge          ....    0
 Multiplicity           Mult            ....    1
 Number of Electrons    NEL             ....   46
 Basis Dimension        Dim             ....  129

MULLIKEN ATOMIC CHARGES
-----------------------
   0 C :    0.055259
   1 C :   -0.196556
   2 C :    0.009892
   3 C :    0.071371
   4 C :   -0.268766
   5 N :    0.059155
   6 H :    0.025920
   7 H :    0.014031
   8 H :    0.017349
   9 H :    0.028579
  10 H :    0.014283
  11 H :    0.026192
  12 H :    0.048004
  13 H :    0.049327
  14 H :    0.045961
Sum of atomic charges:    0.0000000

LOEWDIN ATOMIC CHARGES
----------------------
   0 C :   -0.054972
   1 C :   -0.036452
   2 C :   -0.058480
   3 C :   -0.054658
   4 C :   -0.043975
   5 N :   -0.071168
   6 H :    0.031044
   7 H :    0.026280
   8 H :    0.026731
   9 H :    0.032359
  10 H :    0.026087
  11 H :    0.030852
  12 H :    0.034530
  13 H :    0.056856
  14 H :    0.054966

  Mayer bond orders larger than 0.1
B(  0-C ,  1-C ) :   1.0946 B(  0-C ,  6-H ) :   0.9609 B(  0-C ,  7-H ) :   0.9560
B(  0-C ,  8-H ) :   0.9560 B(  1-C ,  2-C ) :   1.0759 B(  1-C ,  3-C ) :   1.0570
B(  1-C ,  9-H ) :   0.9146 B(  2-C , 10-H ) :   0.9607 B(  2-C , 11-H ) :   0.9602
B(  2-C , 12-H ) :   0.9576 B(  3-C ,  4-C ) :   1.1381 B(  3-C , 13-H ) :   0.8877
B(  3-C , 14-H ) :   0.8894 B(  4-C ,  5-N ) :   3.0426

FINAL SINGLE POINT ENERGY      -250.168320891258

DIPOLE MOMENT
-------------
                                X             Y             Z
Electronic contribution:      7.58186      -4.00671      -1.20718
Nuclear contribution   :     -9.07659       4.20311       1.20895
                        -----------------------------------------
Total Dipole Moment    :     -1.49472       0.19640       0.00177
                        -----------------------------------------
Magnitude (a.u.)       :      1.50757
Magnitude (Debye)      :      3.83194

                             ****ORCA TERMINATED NORMALLY****
TOTAL RUN TIME: 0 days 0 hours 0 minutes 5 seconds 815 msec
