                         Program Version 3.0.3 - RELEASE   -
|  1> ! RI PBE def2-SVP def2-SVP/J NBO PAL2
|  2> % maxcore 2000
|  3> % output
|  4>     # printlevel mini
|  5>     print[ P_Basis ] 0
|  6>     print[ P_SCFInfo ] 1
|  7>     print[ P_SCFIterInfo ] 1
|  8>     print[ P_OrbEn ] 0
|  9>     print[ P_Cartesian ] 0
| 10> end
| 11> *xyz 0 1
| 12>  C        1.0324310000     0.0700050000     0.0215030000
| 13>  C        2.5659780000     0.0740730000    -0.0579890000
| 14>  C        3.0720790000    -0.9414020000    -0.9770200000
| 15>  C        3.4634570000    -1.7917780000    -1.7247520000
| 16>  C        3.0610200000     1.4034770000    -0.4272480000
| 17>  N        3.4219680000     2.4606900000    -0.6951990000
| 18>  H        0.6908010000    -0.9140090000     0.3422400000
| 19>  H        0.6015300000     0.2907890000    -0.9546430000
| 20>  H        0.6924720000     0.8195070000     0.7366290000
| 21>  H        2.9698230000    -0.1391450000     0.9397340000
| 22>  H        3.8181400000    -2.5420080000    -2.3918530000
| 23> *
| 24>
| 25>                          ****END OF INPUT****
 Total Charge           Charge          ....    0
 Multiplicity           Mult            ....    1
 Number of Electrons    NEL             ....   42
 Basis Dimension        Dim             ....  109

MULLIKEN ATOMIC CHARGES
-----------------------
   0 C :    0.022062
   1 C :   -0.013678
   2 C :    0.386085
   3 C :   -0.469905
   4 C :   -0.212808
   5 N :    0.058119
   6 H :    0.046651
   7 H :    0.053308
   8 H :    0.048407
   9 H :    0.071495
  10 H :    0.010264
Sum of atomic charges:   -0.0000000

LOEWDIN ATOMIC CHARGES
----------------------
   0 C :   -0.026007
   1 C :   -0.062893
   2 C :   -0.015290
   3 C :   -0.049826
   4 C :   -0.028324
   5 N :   -0.053065
   6 H :    0.038846
   7 H :    0.040451
   8 H :    0.038476
   9 H :    0.076582
  10 H :    0.041050

  Mayer bond orders larger than 0.1
B(  0-C ,  1-C ) :   1.0890 B(  0-C ,  6-H ) :   0.9611 B(  0-C ,  7-H ) :   0.9594
B(  0-C ,  8-H ) :   0.9589 B(  1-C ,  2-C ) :   0.9946 B(  1-C ,  4-C ) :   1.0236
B(  1-C ,  9-H ) :   0.8521 B(  2-C ,  3-C ) :   2.3572 B(  2-C , 10-H ) :  -0.1154
B(  3-C , 10-H ) :   1.1057 B(  4-C ,  5-N ) :   3.0810

FINAL SINGLE POINT ENERGY      -247.690838985028

DIPOLE MOMENT
-------------
                                X             Y             Z
Electronic contribution:      3.93204       2.16937      -1.26241
Nuclear contribution   :     -4.53097      -3.36985       1.66533
                        -----------------------------------------
Total Dipole Moment    :     -0.59893      -1.20048       0.40292
                        -----------------------------------------
Magnitude (a.u.)       :      1.40079
Magnitude (Debye)      :      3.56053

                             ****ORCA TERMINATED NORMALLY****
TOTAL RUN TIME: 0 days 0 hours 0 minutes 4 seconds 947 msec
