                         Program Version 3.0.3 - RELEASE   -
|  1> ! RI PBE def2-SVP def2-SVP/J NBO PAL2
|  2> % maxcore 2000
|  3> % output
|  4>     # printlevel mini
|  5>     print[ P_Basis ] 0
|  6>     print[ P_SCFInfo ] 1
|  7>     print[ P_SCFIterInfo ] 1
|  8>     print[ P_OrbEn ] 0
|  9>     print[ P_Cartesian ] 0
| 10> end
| 11> *xyz 0 1
| 12>  C        1.3820390000     0.3687750000     0.1249680000
| 13>  C        2.7642340000     0.0689870000    -0.1988820000
| 14>  C        3.9115690000    -0.1640000000    -0.4725740000
| 15>  C        5.3017290000    -0.4861910000    -0.7877970000
| 16>  C        5.5236850000    -2.0003930000    -0.7483460000
| 17>  N        6.1919910000     0.2784110000     0.0830360000
| 18>  H        0.8602080000    -0.5178880000     0.4937180000
| 19>  H        0.8444250000     0.7340190000    -0.7537340000
| 20>  H        1.3215740000     1.1397470000     0.8972530000
| 21>  H        5.4955090000    -0.1427270000    -1.8120890000
| 22>  H        5.3309200000    -2.3855810000     0.2558270000
| 23>  H        4.8600640000    -2.5165290000    -1.4457930000
| 24>  H        6.5570150000    -2.2346550000    -1.0186040000
| 25>  H        7.1518030000    -0.0027590000    -0.0821680000
| 26>  H        5.9810350000     0.0705850000     1.0524750000
| 27> *
| 28>
| 29>                          ****END OF INPUT****
 Total Charge           Charge          ....    0
 Multiplicity           Mult            ....    1
 Number of Electrons    NEL             ....   46
 Basis Dimension        Dim             ....  129

MULLIKEN ATOMIC CHARGES
-----------------------
   0 C :    0.042325
   1 C :   -0.248899
   2 C :   -0.035731
   3 C :    0.017641
   4 C :    0.024052
   5 N :   -0.179170
   6 H :    0.046317
   7 H :    0.048672
   8 H :    0.049765
   9 H :    0.014467
  10 H :    0.014359
  11 H :    0.022722
  12 H :    0.009747
  13 H :    0.083316
  14 H :    0.090418
Sum of atomic charges:   -0.0000000

LOEWDIN ATOMIC CHARGES
----------------------
   0 C :   -0.070919
   1 C :   -0.065555
   2 C :   -0.061778
   3 C :   -0.009249
   4 C :   -0.067106
   5 N :   -0.090938
   6 H :    0.049126
   7 H :    0.050964
   8 H :    0.051575
   9 H :    0.039081
  10 H :    0.023788
  11 H :    0.029979
  12 H :    0.020793
  13 H :    0.049286
  14 H :    0.050953

  Mayer bond orders larger than 0.1
B(  0-C ,  1-C ) :   1.1490 B(  0-C ,  6-H ) :   0.9306 B(  0-C ,  7-H ) :   0.9312
B(  0-C ,  8-H ) :   0.9297 B(  1-C ,  2-C ) :   2.6063 B(  2-C ,  3-C ) :   1.0135
B(  3-C ,  4-C ) :   1.0657 B(  3-C ,  5-N ) :   1.0793 B(  3-C ,  9-H ) :   0.8672
B(  4-C , 10-H ) :   0.9563 B(  4-C , 11-H ) :   0.9494 B(  4-C , 12-H ) :   0.9545
B(  5-N , 13-H ) :   0.9653 B(  5-N , 14-H ) :   0.9646

FINAL SINGLE POINT ENERGY      -250.110667663242

DIPOLE MOMENT
-------------
                                X             Y             Z
Electronic contribution:     -0.29194       2.15377      -0.25998
Nuclear contribution   :      0.26274      -2.58746       0.40781
                        -----------------------------------------
Total Dipole Moment    :     -0.02920      -0.43370       0.14783
                        -----------------------------------------
Magnitude (a.u.)       :      0.45913
Magnitude (Debye)      :      1.16701

                             ****ORCA TERMINATED NORMALLY****
TOTAL RUN TIME: 0 days 0 hours 0 minutes 5 seconds 997 msec
