                         Program Version 3.0.3 - RELEASE   -
|  1> ! RI PBE def2-SVP def2-SVP/J NBO PAL2
|  2> % maxcore 2000
|  3> % output
|  4>     # printlevel mini
|  5>     print[ P_Basis ] 0
|  6>     print[ P_SCFInfo ] 1
|  7>     print[ P_SCFIterInfo ] 1
|  8>     print[ P_OrbEn ] 0
|  9>     print[ P_Cartesian ] 0
| 10> end
| 11> *xyz 0 1
| 12>  C        2.3491330000    -1.2561960000     0.8067550000
| 13>  C        3.1073880000    -0.2935000000    -0.1007870000
| 14>  C        3.2058220000     1.0813620000     0.4724570000
| 15>  C        4.3354950000     1.7286280000     0.7326900000
| 16>  C        4.4122070000     3.1037620000     1.3071850000
| 17>  N        5.2252640000     3.1030010000     2.5169520000
| 18>  H        2.2602470000    -2.2439720000     0.3486090000
| 19>  H        1.3386150000    -0.8915680000     1.0106170000
| 20>  H        2.8591640000    -1.3715610000     1.7660070000
| 21>  H        2.5945200000    -0.2432640000    -1.0694930000
| 22>  H        4.1122000000    -0.6774200000    -0.3010640000
| 23>  H        2.2592820000     1.5766830000     0.6945280000
| 24>  H        5.2925340000     1.2469460000     0.5376150000
| 25>  H        3.3913570000     3.4921720000     1.4463000000
| 26>  H        4.9060450000     3.7663010000     0.5859350000
| 27>  H        4.7740730000     2.5542750000     3.2387140000
| 28>  H        5.3359750000     4.0428330000     2.8759910000
| 29> *
| 30>
| 31>                          ****END OF INPUT****
 Total Charge           Charge          ....    0
 Multiplicity           Mult            ....    1
 Number of Electrons    NEL             ....   48
 Basis Dimension        Dim             ....  139

MULLIKEN ATOMIC CHARGES
-----------------------
   0 C :   -0.038338
   1 C :    0.039264
   2 C :   -0.073587
   3 C :   -0.092996
   4 C :    0.146357
   5 N :   -0.225516
   6 H :    0.021592
   7 H :    0.020248
   8 H :    0.024589
   9 H :    0.022207
  10 H :    0.006181
  11 H :   -0.012830
  12 H :   -0.007349
  13 H :   -0.015964
  14 H :    0.014026
  15 H :    0.086388
  16 H :    0.085729
Sum of atomic charges:   -0.0000000

LOEWDIN ATOMIC CHARGES
----------------------
   0 C :   -0.063667
   1 C :   -0.045838
   2 C :   -0.042147
   3 C :   -0.050517
   4 C :    0.004902
   5 N :   -0.112401
   6 H :    0.026216
   7 H :    0.024527
   8 H :    0.025855
   9 H :    0.033374
  10 H :    0.027873
  11 H :    0.018437
  12 H :    0.022863
  13 H :    0.001321
  14 H :    0.029030
  15 H :    0.049605
  16 H :    0.050566

  Mayer bond orders larger than 0.1
B(  0-C ,  1-C ) :   1.1030 B(  0-C ,  6-H ) :   0.9606 B(  0-C ,  7-H ) :   0.9680
B(  0-C ,  8-H ) :   0.9687 B(  1-C ,  2-C ) :   1.0617 B(  1-C ,  9-H ) :   0.9174
B(  1-C , 10-H ) :   0.9333 B(  2-C ,  3-C ) :   1.8970 B(  2-C , 11-H ) :   0.9481
B(  3-C ,  4-C ) :   1.0677 B(  3-C , 12-H ) :   0.9566 B(  4-C ,  5-N ) :   1.0610
B(  4-C , 13-H ) :   0.9233 B(  4-C , 14-H ) :   0.9126 B(  5-N , 15-H ) :   0.9712
B(  5-N , 16-H ) :   0.9646

FINAL SINGLE POINT ENERGY      -251.347020617556

DIPOLE MOMENT
-------------
                                X             Y             Z
Electronic contribution:      1.89424       2.60325       0.03438
Nuclear contribution   :     -2.28071      -2.42901       0.13593
                        -----------------------------------------
Total Dipole Moment    :     -0.38647       0.17424       0.17031
                        -----------------------------------------
Magnitude (a.u.)       :      0.45687
Magnitude (Debye)      :      1.16126

                             ****ORCA TERMINATED NORMALLY****
TOTAL RUN TIME: 0 days 0 hours 0 minutes 6 seconds 669 msec
