                         Program Version 3.0.3 - RELEASE   -
|  1> ! RI PBE def2-SVP def2-SVP/J NBO PAL2
|  2> % maxcore 2000
|  3> % output
|  4>     # printlevel mini
|  5>     print[ P_Basis ] 0
|  6>     print[ P_SCFInfo ] 1
|  7>     print[ P_SCFIterInfo ] 1
|  8>     print[ P_OrbEn ] 0
|  9>     print[ P_Cartesian ] 0
| 10> end
| 11> *xyz 0 1
| 12>  C        0.7869360000    -0.1025460000    -0.2800140000
| 13>  C        2.2781450000    -0.1019460000     0.0446920000
| 14>  C        2.6796570000     1.0787170000     0.8540340000
| 15>  C        3.2622730000     1.0139760000     2.0521280000
| 16>  C        3.6236120000     2.1709460000     2.7944690000
| 17>  N        3.9241490000     3.0960690000     3.4128600000
| 18>  H        0.5293050000    -0.9591450000    -0.9056040000
| 19>  H        0.4999060000     0.8037610000    -0.8187660000
| 20>  H        0.1873840000    -0.1537610000     0.6311050000
| 21>  H        2.8457590000    -0.0870190000    -0.8939310000
| 22>  H        2.5559280000    -1.0218490000     0.5667200000
| 23>  H        2.4674430000     2.0587150000     0.4316690000
| 24>  H        3.4894020000     0.0583830000     2.5154270000
| 25> *
| 26>
| 27>                          ****END OF INPUT****
 Total Charge           Charge          ....    0
 Multiplicity           Mult            ....    1
 Number of Electrons    NEL             ....   44
 Basis Dimension        Dim             ....  119

MULLIKEN ATOMIC CHARGES
-----------------------
   0 C :   -0.048840
   1 C :    0.034080
   2 C :   -0.043194
   3 C :   -0.099879
   4 C :   -0.107032
   5 N :    0.035546
   6 H :    0.034470
   7 H :    0.032932
   8 H :    0.038019
   9 H :    0.041267
  10 H :    0.016204
  11 H :    0.026670
  12 H :    0.039757
Sum of atomic charges:    0.0000000

LOEWDIN ATOMIC CHARGES
----------------------
   0 C :   -0.058652
   1 C :   -0.042254
   2 C :    0.028789
   3 C :   -0.080264
   4 C :   -0.044160
   5 N :   -0.059527
   6 H :    0.032619
   7 H :    0.029460
   8 H :    0.031296
   9 H :    0.044720
  10 H :    0.031794
  11 H :    0.037514
  12 H :    0.048664

  Mayer bond orders larger than 0.1
B(  0-C ,  1-C ) :   1.0939 B(  0-C ,  6-H ) :   0.9605 B(  0-C ,  7-H ) :   0.9708
B(  0-C ,  8-H ) :   0.9685 B(  1-C ,  2-C ) :   1.0665 B(  1-C ,  9-H ) :   0.9113
B(  1-C , 10-H ) :   0.9337 B(  2-C ,  3-C ) :   1.8445 B(  2-C ,  5-N ) :   0.1087
B(  2-C , 11-H ) :   0.9573 B(  3-C ,  4-C ) :   1.1123 B(  3-C , 12-H ) :   0.9441
B(  4-C ,  5-N ) :   2.9663

FINAL SINGLE POINT ENERGY      -248.950004634718

DIPOLE MOMENT
-------------
                                X             Y             Z
Electronic contribution:      5.36378       5.60422       6.73523
Nuclear contribution   :     -5.95377      -6.84847      -7.86598
                        -----------------------------------------
Total Dipole Moment    :     -0.58999      -1.24425      -1.13075
                        -----------------------------------------
Magnitude (a.u.)       :      1.78181
Magnitude (Debye)      :      4.52899

                             ****ORCA TERMINATED NORMALLY****
TOTAL RUN TIME: 0 days 0 hours 0 minutes 4 seconds 899 msec
