                         Program Version 3.0.3 - RELEASE   -
|  1> ! RI PBE def2-SVP def2-SVP/J NBO PAL2
|  2> % maxcore 2000
|  3> % output
|  4>     # printlevel mini
|  5>     print[ P_Basis ] 0
|  6>     print[ P_SCFInfo ] 1
|  7>     print[ P_SCFIterInfo ] 1
|  8>     print[ P_OrbEn ] 0
|  9>     print[ P_Cartesian ] 0
| 10> end
| 11> *xyz 0 1
| 12>  C        3.5167150000    -0.6331410000    -1.0881740000
| 13>  C        2.8409510000     0.0915340000     0.0709370000
| 14>  C        2.9336130000     1.5875800000    -0.0158600000
| 15>  C        1.8537070000     2.3615320000    -0.0733500000
| 16>  C        4.3102070000     2.1932130000    -0.0411910000
| 17>  N        5.1163920000     1.7186890000     1.0761400000
| 18>  H        3.3714560000    -1.7124020000    -1.0027880000
| 19>  H        4.5930090000    -0.4486410000    -1.0986150000
| 20>  H        3.1055520000    -0.3132620000    -2.0492610000
| 21>  H        3.3121930000    -0.2333400000     1.0040520000
| 22>  H        1.7863810000    -0.1925810000     0.1236490000
| 23>  H        0.8539200000     1.9401830000    -0.0782950000
| 24>  H        1.9335160000     3.4427190000    -0.1231340000
| 25>  H        4.2114990000     3.2869760000    -0.0926270000
| 26>  H        4.8165550000     1.8815430000    -0.9622220000
| 27>  H        4.7496590000     2.0770740000     1.9496890000
| 28>  H        6.0696650000     2.0471240000     0.9934510000
| 29> *
| 30>
| 31>                          ****END OF INPUT****
 Total Charge           Charge          ....    0
 Multiplicity           Mult            ....    1
 Number of Electrons    NEL             ....   48
 Basis Dimension        Dim             ....  139

MULLIKEN ATOMIC CHARGES
-----------------------
   0 C :   -0.060292
   1 C :    0.091641
   2 C :   -0.202384
   3 C :   -0.043683
   4 C :    0.153281
   5 N :   -0.218760
   6 H :    0.024951
   7 H :    0.036753
   8 H :    0.018679
   9 H :    0.016340
  10 H :   -0.006503
  11 H :    0.005879
  12 H :    0.005355
  13 H :   -0.014360
  14 H :    0.010867
  15 H :    0.089800
  16 H :    0.092437
Sum of atomic charges:    0.0000000

LOEWDIN ATOMIC CHARGES
----------------------
   0 C :   -0.065096
   1 C :   -0.035293
   2 C :   -0.033110
   3 C :   -0.079183
   4 C :    0.011518
   5 N :   -0.107490
   6 H :    0.028426
   7 H :    0.026667
   8 H :    0.023948
   9 H :    0.032337
  10 H :    0.024467
  11 H :    0.018546
  12 H :    0.016657
  13 H :    0.003930
  14 H :    0.026869
  15 H :    0.052881
  16 H :    0.053926

  Mayer bond orders larger than 0.1
B(  0-C ,  1-C ) :   1.1032 B(  0-C ,  6-H ) :   0.9603 B(  0-C ,  7-H ) :   0.9645
B(  0-C ,  8-H ) :   0.9655 B(  1-C ,  2-C ) :   1.0611 B(  1-C ,  9-H ) :   0.9039
B(  1-C , 10-H ) :   0.9207 B(  2-C ,  3-C ) :   1.9757 B(  2-C ,  4-C ) :   1.0592
B(  3-C , 11-H ) :   0.9339 B(  3-C , 12-H ) :   0.9320 B(  4-C ,  5-N ) :   1.0785
B(  4-C , 13-H ) :   0.9139 B(  4-C , 14-H ) :   0.9079 B(  5-N , 15-H ) :   0.9676
B(  5-N , 16-H ) :   0.9643

FINAL SINGLE POINT ENERGY      -251.346912365033

DIPOLE MOMENT
-------------
                                X             Y             Z
Electronic contribution:     -0.17678       1.79019       1.36382
Nuclear contribution   :      0.48921      -1.45900      -1.24059
                        -----------------------------------------
Total Dipole Moment    :      0.31243       0.33119       0.12322
                        -----------------------------------------
Magnitude (a.u.)       :      0.47168
Magnitude (Debye)      :      1.19891

                             ****ORCA TERMINATED NORMALLY****
TOTAL RUN TIME: 0 days 0 hours 0 minutes 6 seconds 809 msec
