                         Program Version 3.0.3 - RELEASE   -
|  1> ! RI PBE def2-SVP def2-SVP/J NBO PAL2
|  2> % maxcore 2000
|  3> % output
|  4>     # printlevel mini
|  5>     print[ P_Basis ] 0
|  6>     print[ P_SCFInfo ] 1
|  7>     print[ P_SCFIterInfo ] 1
|  8>     print[ P_OrbEn ] 0
|  9>     print[ P_Cartesian ] 0
| 10> end
| 11> *xyz 0 1
| 12>  C        1.1311190000    -0.4043570000     0.1165820000
| 13>  C        2.5657550000     0.1079170000     0.1486030000
| 14>  C        3.0331560000     0.6336700000    -1.1797560000
| 15>  C        3.4065160000     1.8925030000    -1.4065350000
| 16>  C        3.0594860000    -0.3098510000    -2.2577200000
| 17>  N        3.0691650000    -1.0969100000    -3.0990670000
| 18>  H        0.8430780000    -0.7937300000     1.0948090000
| 19>  H        1.0156380000    -1.2093580000    -0.6125180000
| 20>  H        0.4360720000     0.3945530000    -0.1506350000
| 21>  H        3.2343700000    -0.7024720000     0.4583920000
| 22>  H        2.6703140000     0.9079350000     0.8855230000
| 23>  H        3.3941610000     2.6215810000    -0.6046100000
| 24>  H        3.7316600000     2.2217270000    -2.3852790000
| 25> *
| 26>
| 27>                          ****END OF INPUT****
 Total Charge           Charge          ....    0
 Multiplicity           Mult            ....    1
 Number of Electrons    NEL             ....   44
 Basis Dimension        Dim             ....  119

MULLIKEN ATOMIC CHARGES
-----------------------
   0 C :   -0.041061
   1 C :    0.062905
   2 C :   -0.236496
   3 C :    0.035708
   4 C :   -0.117370
   5 N :    0.055294
   6 H :    0.031536
   7 H :    0.051855
   8 H :    0.032607
   9 H :    0.044358
  10 H :    0.011261
  11 H :    0.032517
  12 H :    0.036885
Sum of atomic charges:   -0.0000000

LOEWDIN ATOMIC CHARGES
----------------------
   0 C :   -0.060594
   1 C :   -0.027480
   2 C :   -0.063152
   3 C :   -0.004861
   4 C :   -0.033916
   5 N :   -0.054937
   6 H :    0.032799
   7 H :    0.035056
   8 H :    0.031237
   9 H :    0.043420
  10 H :    0.033732
  11 H :    0.031614
  12 H :    0.037083

  Mayer bond orders larger than 0.1
B(  0-C ,  1-C ) :   1.1153 B(  0-C ,  6-H ) :   0.9588 B(  0-C ,  7-H ) :   0.9648
B(  0-C ,  8-H ) :   0.9627 B(  1-C ,  2-C ) :   1.0583 B(  1-C ,  9-H ) :   0.9182
B(  1-C , 10-H ) :   0.9097 B(  2-C ,  3-C ) :   1.9461 B(  2-C ,  4-C ) :   1.0884
B(  3-C ,  5-N ) :   0.1107 B(  3-C , 11-H ) :   0.9306 B(  3-C , 12-H ) :   0.9346
B(  4-C ,  5-N ) :   2.9883

FINAL SINGLE POINT ENERGY      -248.947676740537

DIPOLE MOMENT
-------------
                                X             Y             Z
Electronic contribution:      3.07526      -1.44452      -5.70270
Nuclear contribution   :     -3.18286       2.31700       6.83067
                        -----------------------------------------
Total Dipole Moment    :     -0.10761       0.87248       1.12797
                        -----------------------------------------
Magnitude (a.u.)       :      1.43007
Magnitude (Debye)      :      3.63496

                             ****ORCA TERMINATED NORMALLY****
TOTAL RUN TIME: 0 days 0 hours 0 minutes 5 seconds 544 msec
