                         Program Version 3.0.3 - RELEASE   -
|  1> ! RI PBE def2-SVP def2-SVP/J NBO PAL2
|  2> % maxcore 2000
|  3> % output
|  4>     # printlevel mini
|  5>     print[ P_Basis ] 0
|  6>     print[ P_SCFInfo ] 1
|  7>     print[ P_SCFIterInfo ] 1
|  8>     print[ P_OrbEn ] 0
|  9>     print[ P_Cartesian ] 0
| 10> end
| 11> *xyz 0 1
| 12>  C        1.4320030000    -0.1132810000     0.3854400000
| 13>  C        2.8620540000     0.3999320000     0.3385380000
| 14>  C        3.1977410000     1.2366660000    -0.8935730000
| 15>  C        2.3490500000     2.4953610000    -0.9968500000
| 16>  C        4.6849900000     1.5781800000    -0.9035150000
| 17>  N        5.0824840000     2.2172370000    -2.1490510000
| 18>  H        1.2753840000    -0.7597380000     1.2521490000
| 19>  H        1.1938280000    -0.6961260000    -0.5093480000
| 20>  H        0.7088060000     0.7022350000     0.4510960000
| 21>  H        3.5490860000    -0.4531330000     0.3815410000
| 22>  H        3.0657010000     0.9977690000     1.2362360000
| 23>  H        3.0012510000     0.6153020000    -1.7809370000
| 24>  H        2.4301160000     3.0866910000    -0.0780590000
| 25>  H        1.2934980000     2.2641910000    -1.1526620000
| 26>  H        2.6915730000     3.1151270000    -1.8266020000
| 27>  H        5.2570790000     0.6632130000    -0.6804220000
| 28>  H        4.8883960000     2.2801680000    -0.0861970000
| 29>  H        5.0455010000     1.5525970000    -2.9127270000
| 30>  H        6.0362480000     2.5500000000    -2.0944660000
| 31> *
| 32>
| 33>                          ****END OF INPUT****
 Total Charge           Charge          ....    0
 Multiplicity           Mult            ....    1
 Number of Electrons    NEL             ....   50
 Basis Dimension        Dim             ....  149

MULLIKEN ATOMIC CHARGES
-----------------------
   0 C :   -0.018440
   1 C :   -0.010027
   2 C :   -0.160104
   3 C :    0.025787
   4 C :    0.097751
   5 N :   -0.196721
   6 H :    0.017967
   7 H :    0.017234
   8 H :    0.026020
   9 H :    0.003803
  10 H :    0.003775
  11 H :   -0.006108
  12 H :    0.004113
  13 H :    0.015714
  14 H :    0.022544
  15 H :   -0.016433
  16 H :   -0.003818
  17 H :    0.087678
  18 H :    0.089264
Sum of atomic charges:    0.0000000

LOEWDIN ATOMIC CHARGES
----------------------
   0 C :   -0.069466
   1 C :   -0.041544
   2 C :   -0.053853
   3 C :   -0.062482
   4 C :    0.009423
   5 N :   -0.105503
   6 H :    0.026914
   7 H :    0.024496
   8 H :    0.024995
   9 H :    0.020518
  10 H :    0.020863
  11 H :    0.018406
  12 H :    0.022004
  13 H :    0.021203
  14 H :    0.025781
  15 H :   -0.003027
  16 H :    0.018053
  17 H :    0.050140
  18 H :    0.053079

  Mayer bond orders larger than 0.1
B(  0-C ,  1-C ) :   1.1185 B(  0-C ,  6-H ) :   0.9581 B(  0-C ,  7-H ) :   0.9642
B(  0-C ,  8-H ) :   0.9603 B(  1-C ,  2-C ) :   1.0621 B(  1-C ,  9-H ) :   0.9279
B(  1-C , 10-H ) :   0.9337 B(  2-C ,  3-C ) :   1.0744 B(  2-C ,  4-C ) :   1.0537
B(  2-C , 11-H ) :   0.9126 B(  3-C , 12-H ) :   0.9600 B(  3-C , 13-H ) :   0.9584
B(  3-C , 14-H ) :   0.9444 B(  4-C ,  5-N ) :   1.1029 B(  4-C , 15-H ) :   0.9288
B(  4-C , 16-H ) :   0.9255 B(  5-N , 17-H ) :   0.9702 B(  5-N , 18-H ) :   0.9637

FINAL SINGLE POINT ENERGY      -252.566837512661

DIPOLE MOMENT
-------------
                                X             Y             Z
Electronic contribution:      2.54586       0.73662      -1.51650
Nuclear contribution   :     -2.12956      -1.05742       1.46474
                        -----------------------------------------
Total Dipole Moment    :      0.41630      -0.32080      -0.05177
                        -----------------------------------------
Magnitude (a.u.)       :      0.52811
Magnitude (Debye)      :      1.34234

                             ****ORCA TERMINATED NORMALLY****
TOTAL RUN TIME: 0 days 0 hours 0 minutes 7 seconds 198 msec
