                         Program Version 3.0.3 - RELEASE   -
|  1> ! RI PBE def2-SVP def2-SVP/J NBO PAL2
|  2> % maxcore 2000
|  3> % output
|  4>     # printlevel mini
|  5>     print[ P_Basis ] 0
|  6>     print[ P_SCFInfo ] 1
|  7>     print[ P_SCFIterInfo ] 1
|  8>     print[ P_OrbEn ] 0
|  9>     print[ P_Cartesian ] 0
| 10> end
| 11> *xyz 0 1
| 12>  C        3.6523280000    -0.6094330000    -0.9692780000
| 13>  C        2.8831040000     0.0872650000     0.1413720000
| 14>  C        3.1869100000    -0.3897610000     1.5679480000
| 15>  C        2.4122460000     0.4830520000     2.5472990000
| 16>  C        2.7708630000    -1.8510270000     1.7578200000
| 17>  N        4.6118070000    -0.1768880000     1.8321640000
| 18>  H        3.3647270000    -0.2064760000    -1.9430410000
| 19>  H        3.4600430000    -1.6848330000    -0.9952900000
| 20>  H        4.7299370000    -0.4567620000    -0.8684590000
| 21>  H        1.8076510000    -0.0275470000    -0.0334850000
| 22>  H        3.0973330000     1.1598260000     0.1038570000
| 23>  H        1.3362210000     0.4017490000     2.3766560000
| 24>  H        2.7061200000     1.5291000000     2.4392250000
| 25>  H        2.6095940000     0.1784910000     3.5799330000
| 26>  H        1.7093790000    -2.0013680000     1.5388760000
| 27>  H        2.9469380000    -2.1638230000     2.7911430000
| 28>  H        3.3455790000    -2.5170590000     1.1092650000
| 29>  H        4.8148830000    -0.3863050000     2.8033850000
| 30>  H        5.1720170000    -0.8159810000     1.2799290000
| 31> *
| 32>
| 33>                          ****END OF INPUT****
 Total Charge           Charge          ....    0
 Multiplicity           Mult            ....    1
 Number of Electrons    NEL             ....   50
 Basis Dimension        Dim             ....  149

MULLIKEN ATOMIC CHARGES
-----------------------
   0 C :   -0.026275
   1 C :    0.038188
   2 C :   -0.280506
   3 C :    0.062174
   4 C :    0.068025
   5 N :   -0.143264
   6 H :    0.015839
   7 H :    0.019038
   8 H :    0.025355
   9 H :    0.002728
  10 H :    0.009105
  11 H :    0.014130
  12 H :    0.021533
  13 H :    0.005587
  14 H :    0.006843
  15 H :    0.000995
  16 H :    0.007147
  17 H :    0.077803
  18 H :    0.075556
Sum of atomic charges:    0.0000000

LOEWDIN ATOMIC CHARGES
----------------------
   0 C :   -0.073388
   1 C :   -0.038243
   2 C :   -0.028292
   3 C :   -0.054787
   4 C :   -0.068723
   5 N :   -0.088188
   6 H :    0.029593
   7 H :    0.022662
   8 H :    0.024706
   9 H :    0.022025
  10 H :    0.026048
  11 H :    0.025948
  12 H :    0.026856
  13 H :    0.020401
  14 H :    0.023889
  15 H :    0.019894
  16 H :    0.018594
  17 H :    0.047196
  18 H :    0.043808

  Mayer bond orders larger than 0.1
B(  0-C ,  1-C ) :   1.1148 B(  0-C ,  6-H ) :   0.9542 B(  0-C ,  7-H ) :   0.9599
B(  0-C ,  8-H ) :   0.9570 B(  1-C ,  2-C ) :   1.0274 B(  1-C ,  9-H ) :   0.9342
B(  1-C , 10-H ) :   0.9243 B(  2-C ,  3-C ) :   1.0603 B(  2-C ,  4-C ) :   1.0386
B(  2-C ,  5-N ) :   1.0471 B(  3-C , 11-H ) :   0.9571 B(  3-C , 12-H ) :   0.9528
B(  3-C , 13-H ) :   0.9516 B(  4-C , 14-H ) :   0.9478 B(  4-C , 15-H ) :   0.9524
B(  4-C , 16-H ) :   0.9494 B(  5-N , 17-H ) :   0.9612 B(  5-N , 18-H ) :   0.9568

FINAL SINGLE POINT ENERGY      -252.570760478171

DIPOLE MOMENT
-------------
                                X             Y             Z
Electronic contribution:      1.28453       0.98855       0.86097
Nuclear contribution   :     -1.31831      -1.39317      -0.76088
                        -----------------------------------------
Total Dipole Moment    :     -0.03378      -0.40463       0.10009
                        -----------------------------------------
Magnitude (a.u.)       :      0.41819
Magnitude (Debye)      :      1.06295

                             ****ORCA TERMINATED NORMALLY****
TOTAL RUN TIME: 0 days 0 hours 0 minutes 7 seconds 403 msec
