                         Program Version 3.0.3 - RELEASE   -
|  1> ! RI PBE def2-SVP def2-SVP/J NBO PAL2
|  2> % maxcore 2000
|  3> % output
|  4>     # printlevel mini
|  5>     print[ P_Basis ] 0
|  6>     print[ P_SCFInfo ] 1
|  7>     print[ P_SCFIterInfo ] 1
|  8>     print[ P_OrbEn ] 0
|  9>     print[ P_Cartesian ] 0
| 10> end
| 11> *xyz 0 1
| 12>  C        2.7945440000     0.7637840000     1.1290340000
| 13>  C        2.3987210000     0.0099190000    -0.1270420000
| 14>  C        2.9434080000    -1.4219590000    -0.1895600000
| 15>  C        2.4443480000    -2.1800130000    -1.4188580000
| 16>  C        4.4042810000    -1.4190360000    -0.1556080000
| 17>  N        5.5543890000    -1.4074660000    -0.1439370000
| 18>  H        2.3751280000     1.7716400000     1.1252760000
| 19>  H        3.8801650000     0.8534350000     1.2117000000
| 20>  H        2.4314420000     0.2559240000     2.0267810000
| 21>  H        2.7382620000     0.5504380000    -1.0162150000
| 22>  H        1.3086440000    -0.0574470000    -0.1994160000
| 23>  H        2.6166350000    -1.9544200000     0.7122700000
| 24>  H        2.7587580000    -1.6772150000    -2.3354620000
| 25>  H        1.3535440000    -2.2215600000    -1.4058360000
| 26>  H        2.8297800000    -3.2000630000    -1.4404550000
| 27> *
| 28>
| 29>                          ****END OF INPUT****
 Total Charge           Charge          ....    0
 Multiplicity           Mult            ....    1
 Number of Electrons    NEL             ....   46
 Basis Dimension        Dim             ....  129

MULLIKEN ATOMIC CHARGES
-----------------------
   0 C :   -0.008972
   1 C :   -0.035028
   2 C :   -0.121993
   3 C :    0.026981
   4 C :   -0.219231
   5 N :    0.049611
   6 H :    0.027336
   7 H :    0.047836
   8 H :    0.019331
   9 H :    0.028651
  10 H :    0.027015
  11 H :    0.045250
  12 H :    0.035624
  13 H :    0.035421
  14 H :    0.042167
Sum of atomic charges:    0.0000000

LOEWDIN ATOMIC CHARGES
----------------------
   0 C :   -0.065929
   1 C :   -0.029672
   2 C :   -0.064876
   3 C :   -0.041386
   4 C :   -0.037541
   5 N :   -0.072656
   6 H :    0.032605
   7 H :    0.034700
   8 H :    0.027409
   9 H :    0.031087
  10 H :    0.030013
  11 H :    0.052875
  12 H :    0.034229
  13 H :    0.032699
  14 H :    0.036443

  Mayer bond orders larger than 0.1
B(  0-C ,  1-C ) :   1.1197 B(  0-C ,  6-H ) :   0.9569 B(  0-C ,  7-H ) :   0.9606
B(  0-C ,  8-H ) :   0.9620 B(  1-C ,  2-C ) :   1.0598 B(  1-C ,  9-H ) :   0.9323
B(  1-C , 10-H ) :   0.9367 B(  2-C ,  3-C ) :   1.0865 B(  2-C ,  4-C ) :   1.0664
B(  2-C , 11-H ) :   0.8797 B(  3-C , 12-H ) :   0.9585 B(  3-C , 13-H ) :   0.9592
B(  3-C , 14-H ) :   0.9587 B(  4-C ,  5-N ) :   3.0593

FINAL SINGLE POINT ENERGY      -250.167248758680

DIPOLE MOMENT
-------------
                                X             Y             Z
Electronic contribution:      6.06577      -2.36107      -0.07329
Nuclear contribution   :     -7.53865       2.43423       0.03003
                        -----------------------------------------
Total Dipole Moment    :     -1.47287       0.07316      -0.04326
                        -----------------------------------------
Magnitude (a.u.)       :      1.47532
Magnitude (Debye)      :      3.74997

                             ****ORCA TERMINATED NORMALLY****
TOTAL RUN TIME: 0 days 0 hours 0 minutes 6 seconds 386 msec
