                         Program Version 3.0.3 - RELEASE   -
|  1> ! RI PBE def2-SVP def2-SVP/J NBO PAL2
|  2> % maxcore 2000
|  3> % output
|  4>     # printlevel mini
|  5>     print[ P_Basis ] 0
|  6>     print[ P_SCFInfo ] 1
|  7>     print[ P_SCFIterInfo ] 1
|  8>     print[ P_OrbEn ] 0
|  9>     print[ P_Cartesian ] 0
| 10> end
| 11> *xyz 0 1
| 12>  C        1.0571300000     0.0167750000    -0.0221440000
| 13>  C        2.5817530000     0.0013420000     0.0564760000
| 14>  C        3.0810290000    -0.0847750000     1.4204480000
| 15>  C        3.4818250000    -0.1665530000     2.5515710000
| 16>  C        3.9540760000    -0.2423430000     3.9270270000
| 17>  N        3.1458800000    -1.1636750000     4.7199500000
| 18>  H        0.7289290000     0.0810210000    -1.0617630000
| 19>  H        0.6489300000     0.8712480000     0.5205080000
| 20>  H        0.6375670000    -0.8908750000     0.4150050000
| 21>  H        2.9851290000     0.9050880000    -0.4130330000
| 22>  H        2.9732900000    -0.8423910000    -0.5219290000
| 23>  H        3.9898760000     0.7812600000     4.3328260000
| 24>  H        4.9861050000    -0.6100190000     3.9264120000
| 25>  H        2.1745340000    -0.8790120000     4.6902480000
| 26>  H        3.4399660000    -1.1300920000     5.6885800000
| 27> *
| 28>
| 29>                          ****END OF INPUT****
 Total Charge           Charge          ....    0
 Multiplicity           Mult            ....    1
 Number of Electrons    NEL             ....   46
 Basis Dimension        Dim             ....  129

MULLIKEN ATOMIC CHARGES
-----------------------
   0 C :   -0.029169
   1 C :    0.029407
   2 C :   -0.152146
   3 C :   -0.164777
   4 C :    0.161582
   5 N :   -0.215903
   6 H :    0.019803
   7 H :    0.030925
   8 H :    0.033771
   9 H :    0.033291
  10 H :    0.037134
  11 H :    0.015335
  12 H :    0.021553
  13 H :    0.093162
  14 H :    0.086033
Sum of atomic charges:    0.0000000

LOEWDIN ATOMIC CHARGES
----------------------
   0 C :   -0.053490
   1 C :   -0.051172
   2 C :   -0.056526
   3 C :   -0.073113
   4 C :    0.000601
   5 N :   -0.108399
   6 H :    0.026602
   7 H :    0.029001
   8 H :    0.030268
   9 H :    0.045705
  10 H :    0.046171
  11 H :    0.019684
  12 H :    0.040636
  13 H :    0.052314
  14 H :    0.051718

  Mayer bond orders larger than 0.1
B(  0-C ,  1-C ) :   1.1029 B(  0-C ,  6-H ) :   0.9607 B(  0-C ,  7-H ) :   0.9704
B(  0-C ,  8-H ) :   0.9704 B(  1-C ,  2-C ) :   1.0773 B(  1-C ,  9-H ) :   0.9073
B(  1-C , 10-H ) :   0.9060 B(  2-C ,  3-C ) :   2.6334 B(  3-C ,  4-C ) :   1.0770
B(  4-C ,  5-N ) :   1.0759 B(  4-C , 11-H ) :   0.9063 B(  4-C , 12-H ) :   0.8867
B(  5-N , 13-H ) :   0.9669 B(  5-N , 14-H ) :   0.9628

FINAL SINGLE POINT ENERGY      -250.106227624659

DIPOLE MOMENT
-------------
                                X             Y             Z
Electronic contribution:      2.73207      -0.37130       1.84238
Nuclear contribution   :     -2.88339       0.79841      -1.68794
                        -----------------------------------------
Total Dipole Moment    :     -0.15133       0.42712       0.15444
                        -----------------------------------------
Magnitude (a.u.)       :      0.47873
Magnitude (Debye)      :      1.21683

                             ****ORCA TERMINATED NORMALLY****
TOTAL RUN TIME: 0 days 0 hours 0 minutes 5 seconds 887 msec
