                         Program Version 3.0.3 - RELEASE   -
|  1> ! RI PBE def2-SVP def2-SVP/J NBO PAL2
|  2> % maxcore 2000
|  3> % output
|  4>     # printlevel mini
|  5>     print[ P_Basis ] 0
|  6>     print[ P_SCFInfo ] 1
|  7>     print[ P_SCFIterInfo ] 1
|  8>     print[ P_OrbEn ] 0
|  9>     print[ P_Cartesian ] 0
| 10> end
| 11> *xyz 0 1
| 12>  C        1.0129700000    -0.0016700000    -0.0970260000
| 13>  C        2.5396920000    -0.0697130000    -0.0840990000
| 14>  C        3.0429860000    -1.4029810000     0.1698130000
| 15>  C        3.4427480000    -2.5206850000     0.3826680000
| 16>  C        3.9008660000    -3.7856340000     0.6234100000
| 17>  N        4.2866860000    -4.8556240000     0.8270680000
| 18>  H        0.6886630000     1.0216840000    -0.2918600000
| 19>  H        0.6012790000    -0.3173270000     0.8623740000
| 20>  H        0.6012440000    -0.6477900000    -0.8732920000
| 21>  H        2.9431940000     0.6034350000     0.6800040000
| 22>  H        2.9431610000     0.2754240000    -1.0421700000
| 23> *
| 24>
| 25>                          ****END OF INPUT****
 Total Charge           Charge          ....    0
 Multiplicity           Mult            ....    1
 Number of Electrons    NEL             ....   42
 Basis Dimension        Dim             ....  109

MULLIKEN ATOMIC CHARGES
-----------------------
   0 C :   -0.033741
   1 C :    0.019079
   2 C :   -0.193045
   3 C :    0.053029
   4 C :   -0.181405
   5 N :    0.098654
   6 H :    0.034667
   7 H :    0.044757
   8 H :    0.047645
   9 H :    0.057550
  10 H :    0.052810
Sum of atomic charges:   -0.0000000

LOEWDIN ATOMIC CHARGES
----------------------
   0 C :   -0.046544
   1 C :   -0.048696
   2 C :    0.045151
   3 C :   -0.092567
   4 C :   -0.049570
   5 N :   -0.031587
   6 H :    0.034245
   7 H :    0.035274
   8 H :    0.035847
   9 H :    0.059608
  10 H :    0.058838

  Mayer bond orders larger than 0.1
B(  0-C ,  1-C ) :   1.0984 B(  0-C ,  6-H ) :   0.9594 B(  0-C ,  7-H ) :   0.9698
B(  0-C ,  8-H ) :   0.9702 B(  1-C ,  2-C ) :   1.1082 B(  1-C ,  9-H ) :   0.8962
B(  1-C , 10-H ) :   0.8945 B(  2-C ,  3-C ) :   2.3000 B(  2-C ,  5-N ) :   0.1840
B(  3-C ,  4-C ) :   1.0052 B(  3-C ,  5-N ) :   0.1213 B(  4-C ,  5-N ) :   2.8736

FINAL SINGLE POINT ENERGY      -247.713051625044

DIPOLE MOMENT
-------------
                                X             Y             Z
Electronic contribution:      5.89391      -8.53503       1.62310
Nuclear contribution   :     -6.65022      10.38135      -1.97666
                        -----------------------------------------
Total Dipole Moment    :     -0.75631       1.84633      -0.35356
                        -----------------------------------------
Magnitude (a.u.)       :      2.02631
Magnitude (Debye)      :      5.15047

                             ****ORCA TERMINATED NORMALLY****
TOTAL RUN TIME: 0 days 0 hours 0 minutes 4 seconds 639 msec
