                         Program Version 3.0.3 - RELEASE   -
|  1> ! RI PBE def2-SVP def2-SVP/J NBO PAL2
|  2> % maxcore 2000
|  3> % output
|  4>     # printlevel mini
|  5>     print[ P_Basis ] 0
|  6>     print[ P_SCFInfo ] 1
|  7>     print[ P_SCFIterInfo ] 1
|  8>     print[ P_OrbEn ] 0
|  9>     print[ P_Cartesian ] 0
| 10> end
| 11> *xyz 0 1
| 12>  C        1.1200040000     0.1915100000    -0.0570330000
| 13>  C        2.6364880000     0.1434160000     0.0212500000
| 14>  C        3.1659970000    -1.2394150000     0.3635290000
| 15>  C        4.6862980000    -1.3375210000     0.4023690000
| 16>  C        5.1369680000    -2.6784560000     0.9708850000
| 17>  N        5.2251760000    -1.0520510000    -0.9239010000
| 18>  H        0.7625740000     1.1964590000    -0.2937720000
| 19>  H        0.6617120000    -0.1083180000     0.8902470000
| 20>  H        0.7430280000    -0.4836590000    -0.8308970000
| 21>  H        2.9876380000     0.8553780000     0.7776350000
| 22>  H        3.0765550000     0.4660640000    -0.9258360000
| 23>  H        2.7891740000    -1.9692620000    -0.3674680000
| 24>  H        2.7672040000    -1.5552470000     1.3346460000
| 25>  H        5.0554530000    -0.5424380000     1.0633000000
| 26>  H        4.7662170000    -3.5017550000     0.3511920000
| 27>  H        4.7650010000    -2.8315850000     1.9881770000
| 28>  H        6.2280560000    -2.7454370000     0.9982150000
| 29>  H        4.9494360000    -1.7853350000    -1.5694190000
| 30>  H        6.2380000000    -1.0536370000    -0.9015110000
| 31> *
| 32>
| 33>                          ****END OF INPUT****
 Total Charge           Charge          ....    0
 Multiplicity           Mult            ....    1
 Number of Electrons    NEL             ....   50
 Basis Dimension        Dim             ....  149

MULLIKEN ATOMIC CHARGES
-----------------------
   0 C :    0.003049
   1 C :   -0.022060
   2 C :    0.001098
   3 C :   -0.052013
   4 C :    0.028237
   5 N :   -0.181524
   6 H :    0.014433
   7 H :    0.009971
   8 H :    0.012213
   9 H :    0.002606
  10 H :    0.010777
  11 H :   -0.009594
  12 H :   -0.005228
  13 H :   -0.001370
  14 H :    0.003752
  15 H :    0.008755
  16 H :    0.010998
  17 H :    0.081053
  18 H :    0.084846
Sum of atomic charges:    0.0000000

LOEWDIN ATOMIC CHARGES
----------------------
   0 C :   -0.066276
   1 C :   -0.047004
   2 C :   -0.042308
   3 C :   -0.005489
   4 C :   -0.079979
   5 N :   -0.093152
   6 H :    0.024909
   7 H :    0.020994
   8 H :    0.022402
   9 H :    0.022028
  10 H :    0.022668
  11 H :    0.017867
  12 H :    0.021156
  13 H :    0.020476
  14 H :    0.020276
  15 H :    0.024545
  16 H :    0.020236
  17 H :    0.046906
  18 H :    0.049747

  Mayer bond orders larger than 0.1
B(  0-C ,  1-C ) :   1.1157 B(  0-C ,  6-H ) :   0.9616 B(  0-C ,  7-H ) :   0.9637
B(  0-C ,  8-H ) :   0.9653 B(  1-C ,  2-C ) :   1.0951 B(  1-C ,  9-H ) :   0.9349
B(  1-C , 10-H ) :   0.9274 B(  2-C ,  3-C ) :   1.0625 B(  2-C , 11-H ) :   0.9223
B(  2-C , 12-H ) :   0.9338 B(  3-C ,  4-C ) :   1.0792 B(  3-C ,  5-N ) :   1.0777
B(  3-C , 13-H ) :   0.9060 B(  4-C , 14-H ) :   0.9513 B(  4-C , 15-H ) :   0.9432
B(  4-C , 16-H ) :   0.9583 B(  5-N , 17-H ) :   0.9682 B(  5-N , 18-H ) :   0.9699

FINAL SINGLE POINT ENERGY      -252.570720189675

DIPOLE MOMENT
-------------
                                X             Y             Z
Electronic contribution:      2.14724       0.49780      -0.89010
Nuclear contribution   :     -1.87380      -0.87587       0.95074
                        -----------------------------------------
Total Dipole Moment    :      0.27344      -0.37807       0.06064
                        -----------------------------------------
Magnitude (a.u.)       :      0.47051
Magnitude (Debye)      :      1.19594

                             ****ORCA TERMINATED NORMALLY****
TOTAL RUN TIME: 0 days 0 hours 0 minutes 7 seconds 101 msec
