                         Program Version 3.0.3 - RELEASE   -
|  1> ! RI PBE def2-SVP def2-SVP/J NBO PAL2
|  2> % maxcore 2000
|  3> % output
|  4>     # printlevel mini
|  5>     print[ P_Basis ] 0
|  6>     print[ P_SCFInfo ] 1
|  7>     print[ P_SCFIterInfo ] 1
|  8>     print[ P_OrbEn ] 0
|  9>     print[ P_Cartesian ] 0
| 10> end
| 11> *xyz 0 1
| 12>  C        1.0868010000     0.0855840000    -0.1143940000
| 13>  C        2.6037480000     0.0641460000    -0.0392650000
| 14>  C        3.1170240000    -0.6421430000     1.2046130000
| 15>  C        4.6445920000    -0.6565330000     1.2671170000
| 16>  C        5.1529080000    -1.3290440000     2.4518460000
| 17>  N        5.5359080000    -1.8642260000     3.3946410000
| 18>  H        0.7402840000     0.5976360000    -1.0143670000
| 19>  H        0.6563790000     0.6011110000     0.7482920000
| 20>  H        0.6782630000    -0.9283650000    -0.1303360000
| 21>  H        2.9886680000     1.0903260000    -0.0578520000
| 22>  H        3.0103340000    -0.4292940000    -0.9296400000
| 23>  H        2.7474580000    -1.6718670000     1.2294520000
| 24>  H        2.7260570000    -0.1517850000     2.1014010000
| 25>  H        5.0367250000     0.3654730000     1.2602900000
| 26>  H        5.0581490000    -1.1581180000     0.3864030000
| 27> *
| 28>
| 29>                          ****END OF INPUT****
 Total Charge           Charge          ....    0
 Multiplicity           Mult            ....    1
 Number of Electrons    NEL             ....   46
 Basis Dimension        Dim             ....  129

MULLIKEN ATOMIC CHARGES
-----------------------
   0 C :    0.000932
   1 C :   -0.027709
   2 C :   -0.085628
   3 C :    0.087706
   4 C :   -0.284511
   5 N :    0.060026
   6 H :    0.023779
   7 H :    0.023246
   8 H :    0.021741
   9 H :    0.012662
  10 H :    0.011517
  11 H :    0.032743
  12 H :    0.032741
  13 H :    0.046518
  14 H :    0.044238
Sum of atomic charges:   -0.0000000

LOEWDIN ATOMIC CHARGES
----------------------
   0 C :   -0.062561
   1 C :   -0.046192
   2 C :   -0.028406
   3 C :   -0.057006
   4 C :   -0.045796
   5 N :   -0.069339
   6 H :    0.029667
   7 H :    0.027132
   8 H :    0.026782
   9 H :    0.024735
  10 H :    0.024706
  11 H :    0.031916
  12 H :    0.032047
  13 H :    0.056241
  14 H :    0.056076

  Mayer bond orders larger than 0.1
B(  0-C ,  1-C ) :   1.1177 B(  0-C ,  6-H ) :   0.9597 B(  0-C ,  7-H ) :   0.9663
B(  0-C ,  8-H ) :   0.9657 B(  1-C ,  2-C ) :   1.0980 B(  1-C ,  9-H ) :   0.9347
B(  1-C , 10-H ) :   0.9340 B(  2-C ,  3-C ) :   1.0861 B(  2-C , 11-H ) :   0.9399
B(  2-C , 12-H ) :   0.9403 B(  3-C ,  4-C ) :   1.1286 B(  3-C , 13-H ) :   0.8867
B(  3-C , 14-H ) :   0.8840 B(  4-C ,  5-N ) :   3.0585

FINAL SINGLE POINT ENERGY      -250.166953910447

DIPOLE MOMENT
-------------
                                X             Y             Z
Electronic contribution:      7.69018      -3.55985       6.39615
Nuclear contribution   :     -8.36150       4.26036      -7.63313
                        -----------------------------------------
Total Dipole Moment    :     -0.67132       0.70051      -1.23699
                        -----------------------------------------
Magnitude (a.u.)       :      1.57211
Magnitude (Debye)      :      3.99598

                             ****ORCA TERMINATED NORMALLY****
TOTAL RUN TIME: 0 days 0 hours 0 minutes 5 seconds 453 msec
