                         Program Version 3.0.3 - RELEASE   -
|  1> ! RI PBE def2-SVP def2-SVP/J NBO PAL2
|  2> % maxcore 2000
|  3> % output
|  4>     # printlevel mini
|  5>     print[ P_Basis ] 0
|  6>     print[ P_SCFInfo ] 1
|  7>     print[ P_SCFIterInfo ] 1
|  8>     print[ P_OrbEn ] 0
|  9>     print[ P_Cartesian ] 0
| 10> end
| 11> *xyz 0 1
| 12>  C        0.9411050000    -0.1588500000     0.1085930000
| 13>  C        2.4594170000    -0.1142550000     0.0778780000
| 14>  C        3.0036350000     1.1995680000    -0.4593990000
| 15>  C        4.5186470000     1.2518030000    -0.4887260000
| 16>  N        4.9998780000     2.5010940000    -1.0378400000
| 17>  C        6.4406660000     2.6098800000    -1.0315420000
| 18>  H        0.5749640000    -1.1115280000     0.4981890000
| 19>  H        0.5225770000    -0.0264110000    -0.8930130000
| 20>  H        0.5358840000     0.6360970000     0.7411920000
| 21>  H        2.8377780000    -0.9389210000    -0.5371820000
| 22>  H        2.8517990000    -0.2853180000     1.0870290000
| 23>  H        2.6254860000     2.0253210000     0.1582020000
| 24>  H        2.6257550000     1.3762760000    -1.4722350000
| 25>  H        4.8990930000     0.4389920000    -1.1199320000
| 26>  H        4.9124460000     1.0585090000     0.5276010000
| 27>  H        4.5944210000     3.2728350000    -0.5223340000
| 28>  H        6.8669650000     1.8597120000    -1.7039990000
| 29>  H        6.8989610000     2.4604410000    -0.0387610000
| 30>  H        6.7414140000     3.5918470000    -1.4025400000
| 31> *
| 32>
| 33>                          ****END OF INPUT****
 Total Charge           Charge          ....    0
 Multiplicity           Mult            ....    1
 Number of Electrons    NEL             ....   50
 Basis Dimension        Dim             ....  149

MULLIKEN ATOMIC CHARGES
-----------------------
   0 C :    0.002457
   1 C :   -0.055353
   2 C :   -0.039298
   3 C :    0.116110
   4 N :   -0.267515
   5 C :    0.072671
   6 H :    0.015787
   7 H :    0.015936
   8 H :    0.015592
   9 H :    0.011847
  10 H :    0.008483
  11 H :    0.000289
  12 H :    0.010367
  13 H :   -0.003017
  14 H :   -0.026937
  15 H :    0.097903
  16 H :    0.017570
  17 H :   -0.010124
  18 H :    0.017232
Sum of atomic charges:    0.0000000

LOEWDIN ATOMIC CHARGES
----------------------
   0 C :   -0.064877
   1 C :   -0.046287
   2 C :   -0.048478
   3 C :    0.011100
   4 N :   -0.106677
   5 C :   -0.006709
   6 H :    0.025620
   7 H :    0.024232
   8 H :    0.023707
   9 H :    0.023266
  10 H :    0.021448
  11 H :    0.018464
  12 H :    0.024033
  13 H :    0.017567
  14 H :   -0.006410
  15 H :    0.051951
  16 H :    0.020767
  17 H :   -0.004114
  18 H :    0.021396

  Mayer bond orders larger than 0.1
B(  0-C ,  1-C ) :   1.1166 B(  0-C ,  6-H ) :   0.9610 B(  0-C ,  7-H ) :   0.9657
B(  0-C ,  8-H ) :   0.9658 B(  1-C ,  2-C ) :   1.0936 B(  1-C ,  9-H ) :   0.9385
B(  1-C , 10-H ) :   0.9366 B(  2-C ,  3-C ) :   1.0852 B(  2-C , 11-H ) :   0.9351
B(  2-C , 12-H ) :   0.9315 B(  3-C ,  4-N ) :   1.0523 B(  3-C , 13-H ) :   0.9258
B(  3-C , 14-H ) :   0.9129 B(  4-N ,  5-C ) :   1.0671 B(  4-N , 15-H ) :   0.9462
B(  5-C , 16-H ) :   0.9686 B(  5-C , 17-H ) :   0.9435 B(  5-C , 18-H ) :   0.9727

FINAL SINGLE POINT ENERGY      -252.559896767952

DIPOLE MOMENT
-------------
                                X             Y             Z
Electronic contribution:      1.15126       1.55942      -1.00962
Nuclear contribution   :     -1.11885      -1.49650       1.31567
                        -----------------------------------------
Total Dipole Moment    :      0.03241       0.06292       0.30605
                        -----------------------------------------
Magnitude (a.u.)       :      0.31413
Magnitude (Debye)      :      0.79845

                             ****ORCA TERMINATED NORMALLY****
TOTAL RUN TIME: 0 days 0 hours 0 minutes 6 seconds 890 msec
