                         Program Version 3.0.3 - RELEASE   -
|  1> ! RI PBE def2-SVP def2-SVP/J NBO PAL2
|  2> % maxcore 2000
|  3> % output
|  4>     # printlevel mini
|  5>     print[ P_Basis ] 0
|  6>     print[ P_SCFInfo ] 1
|  7>     print[ P_SCFIterInfo ] 1
|  8>     print[ P_OrbEn ] 0
|  9>     print[ P_Cartesian ] 0
| 10> end
| 11> *xyz 0 1
| 12>  C        1.0540130000    -0.7820140000    -0.2360520000
| 13>  C        2.0572000000     0.3265340000    -0.4985850000
| 14>  C        2.9288390000     0.0901230000    -1.7284310000
| 15>  C        4.0583560000     1.1147730000    -1.7989420000
| 16>  N        2.0890530000     0.0487990000    -2.9165340000
| 17>  C        2.7237170000    -0.4587950000    -4.1115100000
| 18>  H        0.4151770000    -0.5456250000     0.6181260000
| 19>  H        1.5626140000    -1.7257680000    -0.0183710000
| 20>  H        0.4204750000    -0.9400400000    -1.1100020000
| 21>  H        2.7092920000     0.4570960000     0.3715460000
| 22>  H        1.5330610000     1.2829700000    -0.6274020000
| 23>  H        3.3756920000    -0.9097380000    -1.6381910000
| 24>  H        3.6502430000     2.1301870000    -1.8407210000
| 25>  H        4.7048750000     1.0522770000    -0.9196550000
| 26>  H        4.6851350000     0.9667450000    -2.6809570000
| 27>  H        1.7027040000     0.9701480000    -3.0880080000
| 28>  H        3.0251670000    -1.4973850000    -3.9474030000
| 29>  H        3.6153180000     0.0966080000    -4.4428920000
| 30>  H        2.0049690000    -0.4550840000    -4.9339170000
| 31> *
| 32>
| 33>                          ****END OF INPUT****
 Total Charge           Charge          ....    0
 Multiplicity           Mult            ....    1
 Number of Electrons    NEL             ....   50
 Basis Dimension        Dim             ....  149

MULLIKEN ATOMIC CHARGES
-----------------------
   0 C :    0.016003
   1 C :   -0.014194
   2 C :   -0.051740
   3 C :    0.028787
   4 N :   -0.240463
   5 C :    0.069766
   6 H :    0.013264
   7 H :    0.005537
   8 H :    0.020661
   9 H :    0.004217
  10 H :   -0.006442
  11 H :   -0.007681
  12 H :    0.005516
  13 H :    0.013471
  14 H :    0.018931
  15 H :    0.092568
  16 H :    0.015188
  17 H :   -0.006510
  18 H :    0.023123
Sum of atomic charges:   -0.0000000

LOEWDIN ATOMIC CHARGES
----------------------
   0 C :   -0.067417
   1 C :   -0.047631
   2 C :   -0.000222
   3 C :   -0.076395
   4 N :   -0.091455
   5 C :   -0.008566
   6 H :    0.023486
   7 H :    0.022467
   8 H :    0.023735
   9 H :    0.023104
  10 H :    0.019028
  11 H :    0.018631
  12 H :    0.020935
  13 H :    0.026366
  14 H :    0.023312
  15 H :    0.050519
  16 H :    0.021925
  17 H :   -0.005260
  18 H :    0.023437

  Mayer bond orders larger than 0.1
B(  0-C ,  1-C ) :   1.1199 B(  0-C ,  6-H ) :   0.9611 B(  0-C ,  7-H ) :   0.9615
B(  0-C ,  8-H ) :   0.9553 B(  1-C ,  2-C ) :   1.0579 B(  1-C ,  9-H ) :   0.9355
B(  1-C , 10-H ) :   0.9257 B(  2-C ,  3-C ) :   1.0702 B(  2-C ,  4-N ) :   1.0409
B(  2-C , 11-H ) :   0.9098 B(  3-C , 12-H ) :   0.9538 B(  3-C , 13-H ) :   0.9507
B(  3-C , 14-H ) :   0.9540 B(  4-N ,  5-C ) :   1.0732 B(  4-N , 15-H ) :   0.9440
B(  5-C , 16-H ) :   0.9653 B(  5-C , 17-H ) :   0.9398 B(  5-C , 18-H ) :   0.9715

FINAL SINGLE POINT ENERGY      -252.562086099381

DIPOLE MOMENT
-------------
                                X             Y             Z
Electronic contribution:     -0.77932       0.12660      -0.57763
Nuclear contribution   :      0.98303       0.11928       0.44600
                        -----------------------------------------
Total Dipole Moment    :      0.20371       0.24588      -0.13163
                        -----------------------------------------
Magnitude (a.u.)       :      0.34537
Magnitude (Debye)      :      0.87787

                             ****ORCA TERMINATED NORMALLY****
TOTAL RUN TIME: 0 days 0 hours 0 minutes 7 seconds 169 msec
