                         Program Version 3.0.3 - RELEASE   -
|  1> ! RI PBE def2-SVP def2-SVP/J NBO PAL2
|  2> % maxcore 2000
|  3> % output
|  4>     # printlevel mini
|  5>     print[ P_Basis ] 0
|  6>     print[ P_SCFInfo ] 1
|  7>     print[ P_SCFIterInfo ] 1
|  8>     print[ P_OrbEn ] 0
|  9>     print[ P_Cartesian ] 0
| 10> end
| 11> *xyz 0 1
| 12>  C        0.9199390000    -0.1391910000    -0.0391020000
| 13>  C        2.4076040000    -0.1635870000    -0.0420500000
| 14>  C        3.1881690000     0.8106170000    -0.5175810000
| 15>  C        4.6285430000     0.7689850000    -0.5118490000
| 16>  N        5.3133090000     1.7409580000    -0.9852400000
| 17>  N        6.6381640000     1.6691980000    -0.9639580000
| 18>  H        0.5226380000    -0.2233530000     0.9782570000
| 19>  H        0.5070580000    -0.9824610000    -0.6033570000
| 20>  H        0.5354940000     0.7834740000    -0.4781640000
| 21>  H        2.8814550000    -1.0496720000     0.3787820000
| 22>  H        2.7455450000     1.7078830000    -0.9440620000
| 23>  H        5.1188690000    -0.1185990000    -0.0904100000
| 24>  H        7.1415200000     2.4459840000    -1.3407940000
| 25>  H        7.1286920000     0.8724640000    -0.5857510000
| 26> *
| 27>
| 28>                          ****END OF INPUT****
 Total Charge           Charge          ....    0
 Multiplicity           Mult            ....    1
 Number of Electrons    NEL             ....   46
 Basis Dimension        Dim             ....  124

MULLIKEN ATOMIC CHARGES
-----------------------
   0 C :    0.046668
   1 C :   -0.124590
   2 C :    0.043941
   3 C :   -0.052998
   4 N :   -0.082728
   5 N :   -0.055353
   6 H :    0.028387
   7 H :    0.030224
   8 H :    0.017392
   9 H :   -0.012592
  10 H :   -0.015191
  11 H :   -0.042543
  12 H :    0.124137
  13 H :    0.095247
Sum of atomic charges:   -0.0000000

LOEWDIN ATOMIC CHARGES
----------------------
   0 C :   -0.064927
   1 C :   -0.053168
   2 C :   -0.053870
   3 C :   -0.070169
   4 N :   -0.036261
   5 N :    0.035378
   6 H :    0.034652
   7 H :    0.035114
   8 H :    0.030535
   9 H :    0.018375
  10 H :    0.028710
  11 H :   -0.008741
  12 H :    0.062977
  13 H :    0.041396

  Mayer bond orders larger than 0.1
B(  0-C ,  1-C ) :   1.0877 B(  0-C ,  6-H ) :   0.9460 B(  0-C ,  7-H ) :   0.9461
B(  0-C ,  8-H ) :   0.9608 B(  1-C ,  2-C ) :   1.7729 B(  1-C ,  9-H ) :   0.9542
B(  2-C ,  3-C ) :   1.1444 B(  2-C , 10-H ) :   0.9584 B(  3-C ,  4-N ) :   1.7432
B(  3-C ,  5-N ) :   0.1334 B(  3-C , 11-H ) :   0.9367 B(  4-N ,  5-N ) :   1.1496
B(  5-N , 12-H ) :   0.9621 B(  5-N , 13-H ) :   0.9364

FINAL SINGLE POINT ENERGY      -266.153291181731

DIPOLE MOMENT
-------------
                                X             Y             Z
Electronic contribution:      5.05319       2.47526      -1.23988
Nuclear contribution   :     -4.30818      -2.70561       1.34306
                        -----------------------------------------
Total Dipole Moment    :      0.74500      -0.23035       0.10318
                        -----------------------------------------
Magnitude (a.u.)       :      0.78660
Magnitude (Debye)      :      1.99937

                             ****ORCA TERMINATED NORMALLY****
TOTAL RUN TIME: 0 days 0 hours 0 minutes 5 seconds 447 msec
