                         Program Version 3.0.3 - RELEASE   -
|  1> ! RI PBE def2-SVP def2-SVP/J NBO PAL2
|  2> % maxcore 2000
|  3> % output
|  4>     # printlevel mini
|  5>     print[ P_Basis ] 0
|  6>     print[ P_SCFInfo ] 1
|  7>     print[ P_SCFIterInfo ] 1
|  8>     print[ P_OrbEn ] 0
|  9>     print[ P_Cartesian ] 0
| 10> end
| 11> *xyz 0 1
| 12>  C        0.9858790000     0.1076130000     0.0701600000
| 13>  C        2.4695400000     0.0402490000     0.1365820000
| 14>  C        3.2961850000     1.0191610000    -0.2169390000
| 15>  C        4.7714630000     0.9200740000    -0.1459780000
| 16>  N        5.4007980000     2.1318180000     0.0155830000
| 17>  N        5.4733020000    -0.1394990000    -0.2608890000
| 18>  H        0.5909210000    -0.6805050000    -0.5790900000
| 19>  H        0.6413970000     1.0704460000    -0.3105820000
| 20>  H        0.5426310000    -0.0539420000     1.0577980000
| 21>  H        2.8973110000    -0.8877240000     0.5132200000
| 22>  H        2.8891790000     1.9670560000    -0.5638750000
| 23>  H        4.9047810000     2.8519630000     0.5119120000
| 24>  H        6.3847270000     2.0642680000     0.2223220000
| 25>  H        4.8819060000    -0.9321780000    -0.4896130000
| 26> *
| 27>
| 28>                          ****END OF INPUT****
 Total Charge           Charge          ....    0
 Multiplicity           Mult            ....    1
 Number of Electrons    NEL             ....   46
 Basis Dimension        Dim             ....  124

MULLIKEN ATOMIC CHARGES
-----------------------
   0 C :    0.042028
   1 C :   -0.107392
   2 C :    0.005909
   3 C :   -0.142612
   4 N :   -0.066991
   5 N :   -0.109189
   6 H :    0.041310
   7 H :    0.022030
   8 H :    0.037618
   9 H :    0.002153
  10 H :   -0.010788
  11 H :    0.103276
  12 H :    0.107974
  13 H :    0.074673
Sum of atomic charges:   -0.0000000

LOEWDIN ATOMIC CHARGES
----------------------
   0 C :   -0.062048
   1 C :   -0.012351
   2 C :   -0.074441
   3 C :   -0.005518
   4 N :   -0.006012
   5 N :   -0.177027
   6 H :    0.041961
   7 H :    0.032178
   8 H :    0.040443
   9 H :    0.024036
  10 H :    0.024424
  11 H :    0.065575
  12 H :    0.069015
  13 H :    0.039764

  Mayer bond orders larger than 0.1
B(  0-C ,  1-C ) :   1.0886 B(  0-C ,  6-H ) :   0.9422 B(  0-C ,  7-H ) :   0.9605
B(  0-C ,  8-H ) :   0.9445 B(  1-C ,  2-C ) :   1.8686 B(  1-C ,  9-H ) :   0.9519
B(  2-C ,  3-C ) :   0.9842 B(  2-C , 10-H ) :   0.9379 B(  3-C ,  4-N ) :   1.2020
B(  3-C ,  5-N ) :   1.9483 B(  4-N , 11-H ) :   0.9501 B(  4-N , 12-H ) :   0.9417
B(  5-N , 13-H ) :   0.9285

FINAL SINGLE POINT ENERGY      -266.187065279967

DIPOLE MOMENT
-------------
                                X             Y             Z
Electronic contribution:      4.87409       0.66322      -0.39350
Nuclear contribution   :     -5.78805      -0.14311       0.78036
                        -----------------------------------------
Total Dipole Moment    :     -0.91396       0.52011       0.38686
                        -----------------------------------------
Magnitude (a.u.)       :      1.12049
Magnitude (Debye)      :      2.84806

                             ****ORCA TERMINATED NORMALLY****
TOTAL RUN TIME: 0 days 0 hours 0 minutes 6 seconds 224 msec
