                         Program Version 3.0.3 - RELEASE   -
|  1> ! RI PBE def2-SVP def2-SVP/J NBO PAL2
|  2> % maxcore 2000
|  3> % output
|  4>     # printlevel mini
|  5>     print[ P_Basis ] 0
|  6>     print[ P_SCFInfo ] 1
|  7>     print[ P_SCFIterInfo ] 1
|  8>     print[ P_OrbEn ] 0
|  9>     print[ P_Cartesian ] 0
| 10> end
| 11> *xyz 0 1
| 12>  C        1.1235280000    -0.0678660000     0.0109830000
| 13>  C        2.6055370000     0.0900060000    -0.1469250000
| 14>  C        3.1753030000     0.2662790000    -1.3406730000
| 15>  C        3.3661640000     0.0351450000     1.1033240000
| 16>  N        4.6367990000     0.1543020000     1.1450250000
| 17>  N        5.2604370000     0.0946970000     2.3112330000
| 18>  H        0.6159960000    -0.0181450000    -0.9525390000
| 19>  H        0.7103180000     0.7140980000     0.6565520000
| 20>  H        0.8768480000    -1.0265640000     0.4789790000
| 21>  H        2.5761060000     0.3011580000    -2.2427750000
| 22>  H        4.2480100000     0.3786050000    -1.4370040000
| 23>  H        2.7925580000    -0.1155030000     2.0275000000
| 24>  H        6.2553060000     0.1936040000     2.3003080000
| 25>  H        4.7642800000    -0.0428060000     3.1795120000
| 26> *
| 27>
| 28>                          ****END OF INPUT****
 Total Charge           Charge          ....    0
 Multiplicity           Mult            ....    1
 Number of Electrons    NEL             ....   46
 Basis Dimension        Dim             ....  124

MULLIKEN ATOMIC CHARGES
-----------------------
   0 C :    0.048415
   1 C :   -0.107401
   2 C :   -0.042090
   3 C :   -0.037916
   4 N :   -0.063016
   5 N :   -0.045482
   6 H :    0.012824
   7 H :    0.029257
   8 H :    0.026205
   9 H :    0.001001
  10 H :    0.014108
  11 H :   -0.056395
  12 H :    0.125598
  13 H :    0.094893
Sum of atomic charges:   -0.0000000

LOEWDIN ATOMIC CHARGES
----------------------
   0 C :   -0.056138
   1 C :   -0.054436
   2 C :   -0.067976
   3 C :   -0.072703
   4 N :   -0.020913
   5 N :    0.043240
   6 H :    0.030623
   7 H :    0.033681
   8 H :    0.033222
   9 H :    0.017050
  10 H :    0.020555
  11 H :   -0.012471
  12 H :    0.064299
  13 H :    0.041968

  Mayer bond orders larger than 0.1
B(  0-C ,  1-C ) :   1.0716 B(  0-C ,  6-H ) :   0.9529 B(  0-C ,  7-H ) :   0.9484
B(  0-C ,  8-H ) :   0.9477 B(  1-C ,  2-C ) :   1.9305 B(  1-C ,  3-C ) :   1.0800
B(  2-C ,  9-H ) :   0.9275 B(  2-C , 10-H ) :   0.9286 B(  3-C ,  4-N ) :   1.8020
B(  3-C ,  5-N ) :   0.1443 B(  3-C , 11-H ) :   0.9310 B(  4-N ,  5-N ) :   1.1628
B(  5-N , 12-H ) :   0.9624 B(  5-N , 13-H ) :   0.9356

FINAL SINGLE POINT ENERGY      -266.146977059526

DIPOLE MOMENT
-------------
                                X             Y             Z
Electronic contribution:      4.17989       0.25057       1.50800
Nuclear contribution   :     -3.98434      -0.33146      -0.50464
                        -----------------------------------------
Total Dipole Moment    :      0.19555      -0.08088       1.00335
                        -----------------------------------------
Magnitude (a.u.)       :      1.02543
Magnitude (Debye)      :      2.60643

                             ****ORCA TERMINATED NORMALLY****
TOTAL RUN TIME: 0 days 0 hours 0 minutes 6 seconds 131 msec
