                         Program Version 3.0.3 - RELEASE   -
|  1> ! RI PBE def2-SVP def2-SVP/J NBO PAL2
|  2> % maxcore 2000
|  3> % output
|  4>     # printlevel mini
|  5>     print[ P_Basis ] 0
|  6>     print[ P_SCFInfo ] 1
|  7>     print[ P_SCFIterInfo ] 1
|  8>     print[ P_OrbEn ] 0
|  9>     print[ P_Cartesian ] 0
| 10> end
| 11> *xyz 0 1
| 12>  C        1.1080030000     0.2872780000     0.3835860000
| 13>  C        2.5279610000     0.0311890000    -0.0122030000
| 14>  C        3.1370740000    -1.1239540000     0.2509750000
| 15>  C        3.2269280000     1.1203240000    -0.7535310000
| 16>  N        4.6001820000     1.0815610000    -0.7211290000
| 17>  N        2.6473380000     2.0339230000    -1.4309150000
| 18>  H        0.7229030000    -0.5330160000     0.9893610000
| 19>  H        0.4620890000     0.3798720000    -0.4952390000
| 20>  H        1.0136790000     1.2171250000     0.9504220000
| 21>  H        2.6233060000    -1.9181630000     0.7811140000
| 22>  H        4.1470260000    -1.3266810000    -0.0837040000
| 23>  H        5.0274500000     0.7441060000     0.1241630000
| 24>  H        5.0352490000     1.8957820000    -1.1253130000
| 25>  H        1.6418120000     1.9003740000    -1.4343870000
| 26> *
| 27>
| 28>                          ****END OF INPUT****
 Total Charge           Charge          ....    0
 Multiplicity           Mult            ....    1
 Number of Electrons    NEL             ....   46
 Basis Dimension        Dim             ....  124

MULLIKEN ATOMIC CHARGES
-----------------------
   0 C :    0.032555
   1 C :   -0.118611
   2 C :   -0.038621
   3 C :   -0.155557
   4 N :   -0.063614
   5 N :   -0.082553
   6 H :    0.016414
   7 H :    0.046853
   8 H :    0.043098
   9 H :    0.015969
  10 H :    0.018187
  11 H :    0.110291
  12 H :    0.108724
  13 H :    0.066864
Sum of atomic charges:    0.0000000

LOEWDIN ATOMIC CHARGES
----------------------
   0 C :   -0.058862
   1 C :   -0.054674
   2 C :   -0.051977
   3 C :   -0.000554
   4 N :   -0.004622
   5 N :   -0.162297
   6 H :    0.034827
   7 H :    0.038821
   8 H :    0.039220
   9 H :    0.023101
  10 H :    0.021807
  11 H :    0.066005
  12 H :    0.069993
  13 H :    0.039211

  Mayer bond orders larger than 0.1
B(  0-C ,  1-C ) :   1.0839 B(  0-C ,  6-H ) :   0.9401 B(  0-C ,  7-H ) :   0.9348
B(  0-C ,  8-H ) :   0.9499 B(  1-C ,  2-C ) :   1.9568 B(  1-C ,  3-C ) :   0.9493
B(  2-C ,  9-H ) :   0.9267 B(  2-C , 10-H ) :   0.9272 B(  3-C ,  4-N ) :   1.2373
B(  3-C ,  5-N ) :   1.9566 B(  4-N , 11-H ) :   0.9395 B(  4-N , 12-H ) :   0.9395
B(  5-N , 13-H ) :   0.9276

FINAL SINGLE POINT ENERGY      -266.186176598773

DIPOLE MOMENT
-------------
                                X             Y             Z
Electronic contribution:      2.32557       1.76302      -1.82792
Nuclear contribution   :     -2.22925      -2.21887       2.57332
                        -----------------------------------------
Total Dipole Moment    :      0.09633      -0.45585       0.74539
                        -----------------------------------------
Magnitude (a.u.)       :      0.87903
Magnitude (Debye)      :      2.23430

                             ****ORCA TERMINATED NORMALLY****
TOTAL RUN TIME: 0 days 0 hours 0 minutes 6 seconds 495 msec
