                         Program Version 3.0.3 - RELEASE   -
|  1> ! RI PBE def2-SVP def2-SVP/J NBO PAL2
|  2> % maxcore 2000
|  3> % output
|  4>     # printlevel mini
|  5>     print[ P_Basis ] 0
|  6>     print[ P_SCFInfo ] 1
|  7>     print[ P_SCFIterInfo ] 1
|  8>     print[ P_OrbEn ] 0
|  9>     print[ P_Cartesian ] 0
| 10> end
| 11> *xyz 0 1
| 12>  C        1.1310270000    -0.0672010000     0.0333140000
| 13>  C        2.6281670000    -0.0556330000     0.0928800000
| 14>  C        3.3059720000    -1.2730920000    -0.3657170000
| 15>  C        4.4548260000    -1.7944900000     0.0696870000
| 16>  N        3.1820510000     1.0281410000     0.4967960000
| 17>  N        4.5279950000     1.1184330000     0.6074280000
| 18>  H        0.7798220000    -0.2638460000    -0.9851770000
| 19>  H        0.7417280000     0.8956230000     0.3610290000
| 20>  H        0.7155530000    -0.8530760000     0.6719900000
| 21>  H        2.7637830000    -1.8190840000    -1.1366070000
| 22>  H        5.0240470000    -1.3606000000     0.8828380000
| 23>  H        4.8276250000    -2.7223110000    -0.3486030000
| 24>  H        4.8093220000     2.0841770000     0.5378380000
| 25>  H        5.0636030000     0.5089590000    -0.0078850000
| 26> *
| 27>
| 28>                          ****END OF INPUT****
 Total Charge           Charge          ....    0
 Multiplicity           Mult            ....    1
 Number of Electrons    NEL             ....   46
 Basis Dimension        Dim             ....  124

MULLIKEN ATOMIC CHARGES
-----------------------
   0 C :    0.052096
   1 C :   -0.156879
   2 C :   -0.047658
   3 C :   -0.052164
   4 N :   -0.107102
   5 N :   -0.039102
   6 H :    0.023135
   7 H :    0.021415
   8 H :    0.031907
   9 H :    0.002741
  10 H :    0.038612
  11 H :    0.028760
  12 H :    0.113597
  13 H :    0.090642
Sum of atomic charges:   -0.0000000

LOEWDIN ATOMIC CHARGES
----------------------
   0 C :   -0.060989
   1 C :   -0.075896
   2 C :   -0.049249
   3 C :   -0.058214
   4 N :   -0.048934
   5 N :    0.012821
   6 H :    0.031046
   7 H :    0.033626
   8 H :    0.032992
   9 H :    0.030465
  10 H :    0.023742
  11 H :    0.027099
  12 H :    0.060357
  13 H :    0.041135

  Mayer bond orders larger than 0.1
B(  0-C ,  1-C ) :   1.0590 B(  0-C ,  6-H ) :   0.9502 B(  0-C ,  7-H ) :   0.9498
B(  0-C ,  8-H ) :   0.9527 B(  1-C ,  2-C ) :   1.0579 B(  1-C ,  4-N ) :   1.8692
B(  1-C ,  5-N ) :   0.1064 B(  2-C ,  3-C ) :   1.9010 B(  2-C ,  9-H ) :   0.9448
B(  3-C , 10-H ) :   0.9524 B(  3-C , 11-H ) :   0.9368 B(  4-N ,  5-N ) :   1.1298
B(  5-N , 12-H ) :   0.9614 B(  5-N , 13-H ) :   0.9190

FINAL SINGLE POINT ENERGY      -266.147318947922

DIPOLE MOMENT
-------------
                                X             Y             Z
Electronic contribution:      1.43412       2.08034       0.76101
Nuclear contribution   :     -1.00035      -2.24472      -1.21448
                        -----------------------------------------
Total Dipole Moment    :      0.43377      -0.16438      -0.45347
                        -----------------------------------------
Magnitude (a.u.)       :      0.64870
Magnitude (Debye)      :      1.64886

                             ****ORCA TERMINATED NORMALLY****
TOTAL RUN TIME: 0 days 0 hours 0 minutes 6 seconds 61 msec
