                         Program Version 3.0.3 - RELEASE   -
|  1> ! RI PBE def2-SVP def2-SVP/J NBO PAL2
|  2> % maxcore 2000
|  3> % output
|  4>     # printlevel mini
|  5>     print[ P_Basis ] 0
|  6>     print[ P_SCFInfo ] 1
|  7>     print[ P_SCFIterInfo ] 1
|  8>     print[ P_OrbEn ] 0
|  9>     print[ P_Cartesian ] 0
| 10> end
| 11> *xyz 0 1
| 12>  C        0.8595040000    -0.0082960000     0.0344990000
| 13>  C        2.3811540000     0.0411170000    -0.0818970000
| 14>  C        3.0423030000    -0.3484140000     1.2375200000
| 15>  C        2.8516400000    -0.8453550000    -1.1897230000
| 16>  N        3.4477010000    -0.3833770000    -2.2073420000
| 17>  N        3.7799360000    -1.2400180000    -3.2143090000
| 18>  H        0.5114440000     0.6434890000     0.8400550000
| 19>  H        0.5171270000    -1.0234310000     0.2592700000
| 20>  H        0.3817180000     0.3100610000    -0.8942260000
| 21>  H        2.6842300000     1.0584280000    -0.3471280000
| 22>  H        2.7920400000    -1.3783280000     1.5114890000
| 23>  H        2.7010240000     0.3003020000     2.0483050000
| 24>  H        4.1298740000    -0.2717610000     1.1741190000
| 25>  H        2.6475880000    -1.9233310000    -1.0909210000
| 26>  H        4.5741870000    -0.8873680000    -3.7245760000
| 27>  H        3.9134410000    -2.2060070000    -2.9271470000
| 28> *
| 29>
| 30>                          ****END OF INPUT****
 Total Charge           Charge          ....    0
 Multiplicity           Mult            ....    1
 Number of Electrons    NEL             ....   48
 Basis Dimension        Dim             ....  134

MULLIKEN ATOMIC CHARGES
-----------------------
   0 C :    0.017147
   1 C :   -0.067549
   2 C :   -0.001266
   3 C :   -0.057357
   4 N :   -0.112944
   5 N :   -0.058108
   6 H :    0.016736
   7 H :    0.009298
   8 H :    0.027893
   9 H :    0.006059
  10 H :    0.010912
  11 H :    0.019256
  12 H :    0.028166
  13 H :   -0.035009
  14 H :    0.113177
  15 H :    0.083588
Sum of atomic charges:    0.0000000

LOEWDIN ATOMIC CHARGES
----------------------
   0 C :   -0.054472
   1 C :   -0.056186
   2 C :   -0.058466
   3 C :   -0.043242
   4 N :   -0.047367
   5 N :   -0.003989
   6 H :    0.025049
   7 H :    0.021570
   8 H :    0.028293
   9 H :    0.030953
  10 H :    0.021965
  11 H :    0.025912
  12 H :    0.026893
  13 H :   -0.013547
  14 H :    0.058042
  15 H :    0.038592

  Mayer bond orders larger than 0.1
B(  0-C ,  1-C ) :   1.0676 B(  0-C ,  6-H ) :   0.9600 B(  0-C ,  7-H ) :   0.9629
B(  0-C ,  8-H ) :   0.9628 B(  1-C ,  2-C ) :   1.0656 B(  1-C ,  3-C ) :   1.0104
B(  1-C ,  9-H ) :   0.9067 B(  2-C , 10-H ) :   0.9618 B(  2-C , 11-H ) :   0.9584
B(  2-C , 12-H ) :   0.9637 B(  3-C ,  4-N ) :   1.8989 B(  3-C ,  5-N ) :   0.1267
B(  3-C , 13-H ) :   0.9252 B(  4-N ,  5-N ) :   1.0987 B(  5-N , 14-H ) :   0.9640
B(  5-N , 15-H ) :   0.9424

FINAL SINGLE POINT ENERGY      -267.362666506967

DIPOLE MOMENT
-------------
                                X             Y             Z
Electronic contribution:      2.72302      -0.07222      -5.53768
Nuclear contribution   :     -2.37875      -0.46324       5.64084
                        -----------------------------------------
Total Dipole Moment    :      0.34427      -0.53546       0.10316
                        -----------------------------------------
Magnitude (a.u.)       :      0.64489
Magnitude (Debye)      :      1.63918

                             ****ORCA TERMINATED NORMALLY****
TOTAL RUN TIME: 0 days 0 hours 0 minutes 6 seconds 889 msec
