                         Program Version 3.0.3 - RELEASE   -
|  1> ! RI PBE def2-SVP def2-SVP/J NBO PAL2
|  2> % maxcore 2000
|  3> % output
|  4>     # printlevel mini
|  5>     print[ P_Basis ] 0
|  6>     print[ P_SCFInfo ] 1
|  7>     print[ P_SCFIterInfo ] 1
|  8>     print[ P_OrbEn ] 0
|  9>     print[ P_Cartesian ] 0
| 10> end
| 11> *xyz 0 1
| 12>  C        1.0207470000    -0.0482720000     0.0743610000
| 13>  C        2.5408570000    -0.1611010000     0.0335380000
| 14>  C        3.1824830000     0.5276780000     1.2331660000
| 15>  C        2.9708720000    -1.6181900000    -0.0441440000
| 16>  N        3.6624510000    -1.9513490000    -1.1672840000
| 17>  N        2.7370130000    -2.5113420000     0.8357090000
| 18>  H        0.7154440000     1.0008240000     0.0896320000
| 19>  H        0.6190670000    -0.5262330000     0.9711760000
| 20>  H        0.5613800000    -0.5272570000    -0.7927110000
| 21>  H        2.8917340000     0.3458490000    -0.8730150000
| 22>  H        2.8520520000     0.0683920000     2.1680090000
| 23>  H        2.9029420000     1.5836300000     1.2625380000
| 24>  H        4.2717510000     0.4614530000     1.1961500000
| 25>  H        3.8664110000    -1.2802920000    -1.8798730000
| 26>  H        3.9736540000    -2.9004040000    -1.2746590000
| 27>  H        2.2152420000    -2.1201640000     1.6141070000
| 28> *
| 29>
| 30>                          ****END OF INPUT****
 Total Charge           Charge          ....    0
 Multiplicity           Mult            ....    1
 Number of Electrons    NEL             ....   48
 Basis Dimension        Dim             ....  134

MULLIKEN ATOMIC CHARGES
-----------------------
   0 C :    0.040200
   1 C :   -0.095271
   2 C :    0.026059
   3 C :   -0.194054
   4 N :   -0.037814
   5 N :   -0.104694
   6 H :    0.015721
   7 H :    0.014080
   8 H :    0.022544
   9 H :   -0.025809
  10 H :    0.011981
  11 H :    0.019092
  12 H :    0.030392
  13 H :    0.100526
  14 H :    0.107683
  15 H :    0.069365
Sum of atomic charges:   -0.0000000

LOEWDIN ATOMIC CHARGES
----------------------
   0 C :   -0.049688
   1 C :   -0.064896
   2 C :   -0.052749
   3 C :    0.007056
   4 N :    0.009777
   5 N :   -0.195217
   6 H :    0.025207
   7 H :    0.023019
   8 H :    0.029047
   9 H :    0.019287
  10 H :    0.022887
  11 H :    0.026140
  12 H :    0.030319
  13 H :    0.064371
  14 H :    0.068947
  15 H :    0.036492

  Mayer bond orders larger than 0.1
B(  0-C ,  1-C ) :   1.0823 B(  0-C ,  6-H ) :   0.9603 B(  0-C ,  7-H ) :   0.9588
B(  0-C ,  8-H ) :   0.9600 B(  1-C ,  2-C ) :   1.0847 B(  1-C ,  3-C ) :   0.9473
B(  1-C ,  9-H ) :   0.8863 B(  2-C , 10-H ) :   0.9566 B(  2-C , 11-H ) :   0.9585
B(  2-C , 12-H ) :   0.9608 B(  3-C ,  4-N ) :   1.2606 B(  3-C ,  5-N ) :   1.9664
B(  4-N , 13-H ) :   0.9426 B(  4-N , 14-H ) :   0.9389 B(  5-N , 15-H ) :   0.9296

FINAL SINGLE POINT ENERGY      -267.402572473470

DIPOLE MOMENT
-------------
                                X             Y             Z
Electronic contribution:      2.01061      -4.43474      -1.54754
Nuclear contribution   :     -1.86441       5.26868       0.86122
                        -----------------------------------------
Total Dipole Moment    :      0.14620       0.83393      -0.68632
                        -----------------------------------------
Magnitude (a.u.)       :      1.08989
Magnitude (Debye)      :      2.77028

                             ****ORCA TERMINATED NORMALLY****
TOTAL RUN TIME: 0 days 0 hours 0 minutes 6 seconds 612 msec
