                         Program Version 3.0.3 - RELEASE   -
|  1> ! RI PBE def2-SVP def2-SVP/J NBO PAL2
|  2> % maxcore 2000
|  3> % output
|  4>     # printlevel mini
|  5>     print[ P_Basis ] 0
|  6>     print[ P_SCFInfo ] 1
|  7>     print[ P_SCFIterInfo ] 1
|  8>     print[ P_OrbEn ] 0
|  9>     print[ P_Cartesian ] 0
| 10> end
| 11> *xyz 0 1
| 12>  C        1.0376170000    -0.0429720000     0.0298500000
| 13>  C        2.4843930000    -0.0820290000    -0.0261520000
| 14>  C        3.6874080000    -0.1371330000    -0.0814940000
| 15>  C        5.1020510000    -0.1183910000    -0.1159960000
| 16>  N        5.7808920000    -1.1434540000    -0.4668390000
| 17>  N        7.1186430000    -1.0195020000    -0.5343570000
| 18>  H        0.6002530000    -0.4453140000    -0.8875740000
| 19>  H        0.6784960000     0.9817080000     0.1530240000
| 20>  H        0.6601340000    -0.6347250000     0.8682330000
| 21>  H        5.5967290000     0.8191200000     0.1671440000
| 22>  H        7.5806050000    -1.9096650000    -0.4498540000
| 23>  H        7.5395990000    -0.2854430000     0.0274050000
| 24> *
| 25>
| 26>                          ****END OF INPUT****
 Total Charge           Charge          ....    0
 Multiplicity           Mult            ....    1
 Number of Electrons    NEL             ....   44
 Basis Dimension        Dim             ....  114

MULLIKEN ATOMIC CHARGES
-----------------------
   0 C :    0.054937
   1 C :   -0.181842
   2 C :    0.028824
   3 C :   -0.113915
   4 N :   -0.103469
   5 N :   -0.040846
   6 H :    0.051040
   7 H :    0.045730
   8 H :    0.049913
   9 H :   -0.002397
  10 H :    0.122824
  11 H :    0.089201
Sum of atomic charges:    0.0000000

LOEWDIN ATOMIC CHARGES
----------------------
   0 C :   -0.066644
   1 C :   -0.048216
   2 C :   -0.069993
   3 C :   -0.076608
   4 N :   -0.025985
   5 N :    0.024209
   6 H :    0.052305
   7 H :    0.050418
   8 H :    0.051226
   9 H :    0.003597
  10 H :    0.063845
  11 H :    0.041845

  Mayer bond orders larger than 0.1
B(  0-C ,  1-C ) :   1.1283 B(  0-C ,  6-H ) :   0.9310 B(  0-C ,  7-H ) :   0.9343
B(  0-C ,  8-H ) :   0.9309 B(  1-C ,  2-C ) :   2.4635 B(  2-C ,  3-C ) :   1.0413
B(  3-C ,  4-N ) :   1.7852 B(  3-C ,  5-N ) :   0.1289 B(  3-C ,  9-H ) :   0.9234
B(  4-N ,  5-N ) :   1.1416 B(  5-N , 10-H ) :   0.9611 B(  5-N , 11-H ) :   0.9362

FINAL SINGLE POINT ENERGY      -264.910879397276

DIPOLE MOMENT
-------------
                                X             Y             Z
Electronic contribution:      3.19380      -0.88491      -0.55914
Nuclear contribution   :     -2.81196       1.10211       1.01202
                        -----------------------------------------
Total Dipole Moment    :      0.38183       0.21719       0.45289
                        -----------------------------------------
Magnitude (a.u.)       :      0.63093
Magnitude (Debye)      :      1.60370

                             ****ORCA TERMINATED NORMALLY****
TOTAL RUN TIME: 0 days 0 hours 0 minutes 4 seconds 992 msec
