                         Program Version 3.0.3 - RELEASE   -
|  1> ! RI PBE def2-SVP def2-SVP/J NBO PAL2
|  2> % maxcore 2000
|  3> % output
|  4>     # printlevel mini
|  5>     print[ P_Basis ] 0
|  6>     print[ P_SCFInfo ] 1
|  7>     print[ P_SCFIterInfo ] 1
|  8>     print[ P_OrbEn ] 0
|  9>     print[ P_Cartesian ] 0
| 10> end
| 11> *xyz 0 1
| 12>  C        1.0083510000     0.0743020000     0.0386380000
| 13>  C        2.4567670000     0.0763510000     0.0323870000
| 14>  C        3.6605350000     0.0741240000     0.0348820000
| 15>  C        5.1008720000     0.0569440000     0.0863770000
| 16>  N        5.7173160000     0.4481080000    -1.0615030000
| 17>  N        5.7839640000    -0.2920280000     1.1089530000
| 18>  H        0.6141190000     0.9699970000    -0.4474500000
| 19>  H        0.6225870000     0.0444270000     1.0603970000
| 20>  H        0.6201360000    -0.7970870000    -0.4947610000
| 21>  H        5.1908750000     0.7214070000    -1.8668870000
| 22>  H        6.7208190000     0.4557100000    -1.0843040000
| 23>  H        5.1666580000    -0.5517460000     1.8698800000
| 24> *
| 25>
| 26>                          ****END OF INPUT****
 Total Charge           Charge          ....    0
 Multiplicity           Mult            ....    1
 Number of Electrons    NEL             ....   44
 Basis Dimension        Dim             ....  114

MULLIKEN ATOMIC CHARGES
-----------------------
   0 C :    0.056964
   1 C :   -0.212782
   2 C :    0.003030
   3 C :   -0.178775
   4 N :   -0.031271
   5 N :   -0.095080
   6 H :    0.052075
   7 H :    0.052084
   8 H :    0.054791
   9 H :    0.103456
  10 H :    0.112708
  11 H :    0.082801
Sum of atomic charges:   -0.0000000

LOEWDIN ATOMIC CHARGES
----------------------
   0 C :   -0.065904
   1 C :   -0.037736
   2 C :   -0.088816
   3 C :   -0.013879
   4 N :    0.016701
   5 N :   -0.166648
   6 H :    0.053701
   7 H :    0.053831
   8 H :    0.055189
   9 H :    0.072549
  10 H :    0.071935
  11 H :    0.049076

  Mayer bond orders larger than 0.1
B(  0-C ,  1-C ) :   1.1342 B(  0-C ,  6-H ) :   0.9310 B(  0-C ,  7-H ) :   0.9305
B(  0-C ,  8-H ) :   0.9298 B(  1-C ,  2-C ) :   2.5496 B(  2-C ,  3-C ) :   0.8844
B(  3-C ,  4-N ) :   1.2849 B(  3-C ,  5-N ) :   1.9268 B(  4-N ,  5-N ) :   0.1039
B(  4-N ,  9-H ) :   0.9417 B(  4-N , 10-H ) :   0.9371 B(  5-N , 11-H ) :   0.9289

FINAL SINGLE POINT ENERGY      -264.948140457748

DIPOLE MOMENT
-------------
                                X             Y             Z
Electronic contribution:      3.66431      -0.09528       0.28262
Nuclear contribution   :     -4.63719       0.35050      -1.04093
                        -----------------------------------------
Total Dipole Moment    :     -0.97287       0.25523      -0.75831
                        -----------------------------------------
Magnitude (a.u.)       :      1.25963
Magnitude (Debye)      :      3.20172

                             ****ORCA TERMINATED NORMALLY****
TOTAL RUN TIME: 0 days 0 hours 0 minutes 5 seconds 66 msec
