                         Program Version 3.0.3 - RELEASE   -
|  1> ! RI PBE def2-SVP def2-SVP/J NBO PAL2
|  2> % maxcore 2000
|  3> % output
|  4>     # printlevel mini
|  5>     print[ P_Basis ] 0
|  6>     print[ P_SCFInfo ] 1
|  7>     print[ P_SCFIterInfo ] 1
|  8>     print[ P_OrbEn ] 0
|  9>     print[ P_Cartesian ] 0
| 10> end
| 11> *xyz 0 1
| 12>  C        2.0113520000    -0.1942770000     1.4478820000
| 13>  C        2.5399350000     0.0261950000     0.0341220000
| 14>  C        3.0153200000    -1.2336390000    -0.6218590000
| 15>  C        2.0198900000    -2.3028400000    -0.9592790000
| 16>  N        4.2605860000    -1.3367560000    -0.8745170000
| 17>  N        4.6969960000    -2.4645720000    -1.5154030000
| 18>  H        1.6540580000     0.7428540000     1.8807260000
| 19>  H        2.7966070000    -0.5888310000     2.0970390000
| 20>  H        1.1781330000    -0.9020340000     1.4631360000
| 21>  H        3.3744960000     0.7297760000     0.0486560000
| 22>  H        1.7472070000     0.4716890000    -0.5805960000
| 23>  H        0.9994090000    -1.9775860000    -0.7580950000
| 24>  H        2.1910560000    -3.2193240000    -0.3805340000
| 25>  H        2.0966650000    -2.5732460000    -2.0178440000
| 26>  H        5.6895520000    -2.5667760000    -1.3725170000
| 27>  H        4.2047480000    -3.3192330000    -1.2746960000
| 28> *
| 29>
| 30>                          ****END OF INPUT****
 Total Charge           Charge          ....    0
 Multiplicity           Mult            ....    1
 Number of Electrons    NEL             ....   48
 Basis Dimension        Dim             ....  134

MULLIKEN ATOMIC CHARGES
-----------------------
   0 C :   -0.044094
   1 C :    0.061687
   2 C :   -0.247913
   3 C :    0.033665
   4 N :   -0.119454
   5 N :   -0.059995
   6 H :    0.022822
   7 H :    0.028342
   8 H :    0.018505
   9 H :    0.011117
  10 H :    0.013351
  11 H :    0.017246
  12 H :    0.030964
  13 H :    0.041600
  14 H :    0.111438
  15 H :    0.080718
Sum of atomic charges:   -0.0000000

LOEWDIN ATOMIC CHARGES
----------------------
   0 C :   -0.066728
   1 C :   -0.047978
   2 C :   -0.066820
   3 C :   -0.083061
   4 N :   -0.065158
   5 N :   -0.006467
   6 H :    0.027051
   7 H :    0.027040
   8 H :    0.021560
   9 H :    0.031524
  10 H :    0.028044
  11 H :    0.033380
  12 H :    0.033457
  13 H :    0.038370
  14 H :    0.057774
  15 H :    0.038014

  Mayer bond orders larger than 0.1
B(  0-C ,  1-C ) :   1.1085 B(  0-C ,  6-H ) :   0.9605 B(  0-C ,  7-H ) :   0.9646
B(  0-C ,  8-H ) :   0.9656 B(  1-C ,  2-C ) :   1.0778 B(  1-C ,  9-H ) :   0.9180
B(  1-C , 10-H ) :   0.9134 B(  2-C ,  3-C ) :   1.0629 B(  2-C ,  4-N ) :   1.9206
B(  3-C , 11-H ) :   0.9414 B(  3-C , 12-H ) :   0.9353 B(  3-C , 13-H ) :   0.9369
B(  4-N ,  5-N ) :   1.0945 B(  5-N , 14-H ) :   0.9667 B(  5-N , 15-H ) :   0.9374

FINAL SINGLE POINT ENERGY      -267.367814634582

DIPOLE MOMENT
-------------
                                X             Y             Z
Electronic contribution:      4.47829      -0.38106      -2.82129
Nuclear contribution   :     -4.70945      -0.29825       3.02590
                        -----------------------------------------
Total Dipole Moment    :     -0.23116      -0.67930       0.20462
                        -----------------------------------------
Magnitude (a.u.)       :      0.74616
Magnitude (Debye)      :      1.89659

                             ****ORCA TERMINATED NORMALLY****
TOTAL RUN TIME: 0 days 0 hours 0 minutes 6 seconds 942 msec
