                         Program Version 3.0.3 - RELEASE   -
|  1> ! RI PBE def2-SVP def2-SVP/J NBO PAL2
|  2> % maxcore 2000
|  3> % output
|  4>     # printlevel mini
|  5>     print[ P_Basis ] 0
|  6>     print[ P_SCFInfo ] 1
|  7>     print[ P_SCFIterInfo ] 1
|  8>     print[ P_OrbEn ] 0
|  9>     print[ P_Cartesian ] 0
| 10> end
| 11> *xyz 0 1
| 12>  C        3.5172160000     0.4192140000    -1.4798460000
| 13>  C        3.0495830000    -0.2425080000    -0.1948340000
| 14>  C        3.2529340000     0.6338650000     1.0427930000
| 15>  C        4.6891920000     0.8704670000     1.3607600000
| 16>  N        5.1914490000     2.0342970000     1.3582490000
| 17>  N        6.5287660000     2.1670090000     1.5833110000
| 18>  H        3.3704340000    -0.2375770000    -2.3403740000
| 19>  H        4.5772900000     0.6789930000    -1.4304900000
| 20>  H        2.9652400000     1.3444620000    -1.6663960000
| 21>  H        3.5773580000    -1.1930640000    -0.0535160000
| 22>  H        1.9875850000    -0.4958230000    -0.2735500000
| 23>  H        2.7741160000     0.1481730000     1.9021000000
| 24>  H        2.7682650000     1.6042980000     0.9051220000
| 25>  H        5.3107190000    -0.0105340000     1.5830420000
| 26>  H        6.7300540000     3.0760680000     1.9687090000
| 27>  H        6.9474890000     1.4213610000     2.1329190000
| 28> *
| 29>
| 30>                          ****END OF INPUT****
 Total Charge           Charge          ....    0
 Multiplicity           Mult            ....    1
 Number of Electrons    NEL             ....   48
 Basis Dimension        Dim             ....  134

MULLIKEN ATOMIC CHARGES
-----------------------
   0 C :   -0.025792
   1 C :   -0.060689
   2 C :    0.076110
   3 C :   -0.094172
   4 N :   -0.115189
   5 N :   -0.058285
   6 H :    0.020884
   7 H :    0.032801
   8 H :    0.018684
   9 H :    0.009526
  10 H :    0.012837
  11 H :    0.014468
  12 H :    0.008848
  13 H :   -0.035435
  14 H :    0.113546
  15 H :    0.081858
Sum of atomic charges:   -0.0000000

LOEWDIN ATOMIC CHARGES
----------------------
   0 C :   -0.068895
   1 C :   -0.045278
   2 C :   -0.051189
   3 C :   -0.051892
   4 N :   -0.048747
   5 N :   -0.002684
   6 H :    0.025476
   7 H :    0.027452
   8 H :    0.026186
   9 H :    0.020956
  10 H :    0.024096
  11 H :    0.031456
  12 H :    0.030798
  13 H :   -0.013770
  14 H :    0.058104
  15 H :    0.037930

  Mayer bond orders larger than 0.1
B(  0-C ,  1-C ) :   1.1138 B(  0-C ,  6-H ) :   0.9633 B(  0-C ,  7-H ) :   0.9631
B(  0-C ,  8-H ) :   0.9637 B(  1-C ,  2-C ) :   1.0889 B(  1-C ,  9-H ) :   0.9394
B(  1-C , 10-H ) :   0.9354 B(  2-C ,  3-C ) :   1.0554 B(  2-C , 11-H ) :   0.9139
B(  2-C , 12-H ) :   0.9227 B(  3-C ,  4-N ) :   1.8792 B(  3-C ,  5-N ) :   0.1262
B(  3-C , 13-H ) :   0.9231 B(  4-N ,  5-N ) :   1.1012 B(  5-N , 14-H ) :   0.9639
B(  5-N , 15-H ) :   0.9429

FINAL SINGLE POINT ENERGY      -267.362135546459

DIPOLE MOMENT
-------------
                                X             Y             Z
Electronic contribution:      3.18504       3.06791       3.69598
Nuclear contribution   :     -2.87343      -3.34735      -3.17214
                        -----------------------------------------
Total Dipole Moment    :      0.31161      -0.27944       0.52384
                        -----------------------------------------
Magnitude (a.u.)       :      0.67052
Magnitude (Debye)      :      1.70433

                             ****ORCA TERMINATED NORMALLY****
TOTAL RUN TIME: 0 days 0 hours 0 minutes 6 seconds 840 msec
