                         Program Version 3.0.3 - RELEASE   -
|  1> ! RI PBE def2-SVP def2-SVP/J NBO PAL2
|  2> % maxcore 2000
|  3> % output
|  4>     # printlevel mini
|  5>     print[ P_Basis ] 0
|  6>     print[ P_SCFInfo ] 1
|  7>     print[ P_SCFIterInfo ] 1
|  8>     print[ P_OrbEn ] 0
|  9>     print[ P_Cartesian ] 0
| 10> end
| 11> *xyz 0 1
| 12>  C        1.7840960000    -0.2121670000     0.7298830000
| 13>  C        3.2509900000    -0.0345840000     0.3791380000
| 14>  C        3.5549670000    -0.4165040000    -1.0688190000
| 15>  C        5.0054260000    -0.2251980000    -1.4347950000
| 16>  N        5.8550540000    -1.1631010000    -0.9048120000
| 17>  N        5.4866020000     0.7425150000    -2.1095310000
| 18>  H        1.5873180000     0.0708910000     1.7662600000
| 19>  H        1.4688240000    -1.2519540000     0.6042580000
| 20>  H        1.1460700000     0.4046700000     0.0908250000
| 21>  H        3.8721110000    -0.6351320000     1.0500660000
| 22>  H        3.5500160000     1.0061880000     0.5383020000
| 23>  H        2.9459830000     0.1878130000    -1.7461840000
| 24>  H        3.2662300000    -1.4619190000    -1.2355190000
| 25>  H        5.4946190000    -2.0823700000    -0.7204160000
| 26>  H        6.8021830000    -1.1227190000    -1.2447750000
| 27>  H        4.7493210000     1.3850910000    -2.3815710000
| 28> *
| 29>
| 30>                          ****END OF INPUT****
 Total Charge           Charge          ....    0
 Multiplicity           Mult            ....    1
 Number of Electrons    NEL             ....   48
 Basis Dimension        Dim             ....  134

MULLIKEN ATOMIC CHARGES
-----------------------
   0 C :   -0.001754
   1 C :   -0.040309
   2 C :    0.052128
   3 C :   -0.200138
   4 N :   -0.063087
   5 N :   -0.119556
   6 H :    0.023375
   7 H :    0.014074
   8 H :    0.019476
   9 H :    0.015394
  10 H :    0.016332
  11 H :   -0.002486
  12 H :    0.000435
  13 H :    0.101724
  14 H :    0.109958
  15 H :    0.074432
Sum of atomic charges:   -0.0000000

LOEWDIN ATOMIC CHARGES
----------------------
   0 C :   -0.066991
   1 C :   -0.040341
   2 C :   -0.057503
   3 C :   -0.001062
   4 N :   -0.006223
   5 N :   -0.183648
   6 H :    0.028903
   7 H :    0.023386
   8 H :    0.025474
   9 H :    0.023759
  10 H :    0.027584
  11 H :    0.028084
  12 H :    0.024388
  13 H :    0.064408
  14 H :    0.069072
  15 H :    0.040710

  Mayer bond orders larger than 0.1
B(  0-C ,  1-C ) :   1.1147 B(  0-C ,  6-H ) :   0.9604 B(  0-C ,  7-H ) :   0.9657
B(  0-C ,  8-H ) :   0.9636 B(  1-C ,  2-C ) :   1.0955 B(  1-C ,  9-H ) :   0.9356
B(  1-C , 10-H ) :   0.9371 B(  2-C ,  3-C ) :   1.0063 B(  2-C , 11-H ) :   0.9123
B(  2-C , 12-H ) :   0.9079 B(  3-C ,  4-N ) :   1.2041 B(  3-C ,  5-N ) :   1.9601
B(  4-N , 13-H ) :   0.9458 B(  4-N , 14-H ) :   0.9422 B(  5-N , 15-H ) :   0.9294

FINAL SINGLE POINT ENERGY      -267.403078627532

DIPOLE MOMENT
-------------
                                X             Y             Z
Electronic contribution:      5.60051       0.32615      -3.35429
Nuclear contribution   :     -6.17478      -1.09475       3.69828
                        -----------------------------------------
Total Dipole Moment    :     -0.57427      -0.76860       0.34400
                        -----------------------------------------
Magnitude (a.u.)       :      1.01924
Magnitude (Debye)      :      2.59071

                             ****ORCA TERMINATED NORMALLY****
TOTAL RUN TIME: 0 days 0 hours 0 minutes 6 seconds 257 msec
