                         Program Version 3.0.3 - RELEASE   -
|  1> ! RI PBE def2-SVP def2-SVP/J NBO PAL2
|  2> % maxcore 2000
|  3> % output
|  4>     # printlevel mini
|  5>     print[ P_Basis ] 0
|  6>     print[ P_SCFInfo ] 1
|  7>     print[ P_SCFIterInfo ] 1
|  8>     print[ P_OrbEn ] 0
|  9>     print[ P_Cartesian ] 0
| 10> end
| 11> *xyz 0 1
| 12>  C        0.9625070000    -0.5674000000    -0.3583240000
| 13>  C        2.4775610000    -0.5593870000    -0.2473560000
| 14>  C        2.9610050000     0.0931830000     1.0334210000
| 15>  N        4.4080190000     0.1309380000     1.0965970000
| 16>  C        4.9820430000     0.2454400000     2.4187100000
| 17>  C        5.0441660000    -1.0330600000     1.6769270000
| 18>  H        0.6345560000    -1.0403390000    -1.2863580000
| 19>  H        0.5592850000     0.4491570000    -0.3450420000
| 20>  H        0.5044370000    -1.1140470000     0.4710200000
| 21>  H        2.9187180000    -0.0277510000    -1.0957420000
| 22>  H        2.8610260000    -1.5846140000    -0.2924520000
| 23>  H        2.5330600000    -0.4372310000     1.9042280000
| 24>  H        2.5973730000     1.1258680000     1.0812160000
| 25>  H        4.2982030000     0.2924870000     3.2636800000
| 26>  H        5.8606770000     0.8759260000     2.5032850000
| 27>  H        4.4005850000    -1.8378480000     2.0269280000
| 28>  H        5.9689800000    -1.3549230000     1.2105520000
| 29> *
| 30>
| 31>                          ****END OF INPUT****
 Total Charge           Charge          ....    0
 Multiplicity           Mult            ....    1
 Number of Electrons    NEL             ....   48
 Basis Dimension        Dim             ....  139

MULLIKEN ATOMIC CHARGES
-----------------------
   0 C :   -0.021418
   1 C :   -0.024568
   2 C :    0.092257
   3 N :   -0.283760
   4 C :    0.029007
   5 C :    0.028566
   6 H :    0.021301
   7 H :    0.017999
   8 H :    0.017594
   9 H :    0.018242
  10 H :    0.008188
  11 H :   -0.026036
  12 H :    0.006940
  13 H :    0.021459
  14 H :    0.035894
  15 H :    0.023774
  16 H :    0.034558
Sum of atomic charges:    0.0000000

LOEWDIN ATOMIC CHARGES
----------------------
   0 C :   -0.065202
   1 C :   -0.050861
   2 C :    0.013310
   3 N :   -0.108164
   4 C :    0.002494
   5 C :    0.000532
   6 H :    0.028140
   7 H :    0.024434
   8 H :    0.023637
   9 H :    0.027501
  10 H :    0.022559
  11 H :   -0.002980
  12 H :    0.020703
  13 H :    0.011838
  14 H :    0.020401
  15 H :    0.011316
  16 H :    0.020342

  Mayer bond orders larger than 0.1
B(  0-C ,  1-C ) :   1.1112 B(  0-C ,  6-H ) :   0.9624 B(  0-C ,  7-H ) :   0.9670
B(  0-C ,  8-H ) :   0.9665 B(  1-C ,  2-C ) :   1.0950 B(  1-C ,  9-H ) :   0.9297
B(  1-C , 10-H ) :   0.9364 B(  2-C ,  3-N ) :   1.0161 B(  2-C , 11-H ) :   0.9068
B(  2-C , 12-H ) :   0.9351 B(  3-N ,  4-C ) :   0.9703 B(  3-N ,  5-C ) :   0.9631
B(  4-C ,  5-C ) :   1.0923 B(  4-C , 13-H ) :   0.9310 B(  4-C , 14-H ) :   0.9500
B(  5-C , 15-H ) :   0.9308 B(  5-C , 16-H ) :   0.9504

FINAL SINGLE POINT ENERGY      -251.330010986877

DIPOLE MOMENT
-------------
                                X             Y             Z
Electronic contribution:      4.16557       1.16000       1.01997
Nuclear contribution   :     -4.35089      -1.36596      -0.74115
                        -----------------------------------------
Total Dipole Moment    :     -0.18531      -0.20596       0.27882
                        -----------------------------------------
Magnitude (a.u.)       :      0.39307
Magnitude (Debye)      :      0.99909

                             ****ORCA TERMINATED NORMALLY****
TOTAL RUN TIME: 0 days 0 hours 0 minutes 6 seconds 618 msec
