                         Program Version 3.0.3 - RELEASE   -
|  1> ! RI PBE def2-SVP def2-SVP/J NBO PAL2
|  2> % maxcore 2000
|  3> % output
|  4>     # printlevel mini
|  5>     print[ P_Basis ] 0
|  6>     print[ P_SCFInfo ] 1
|  7>     print[ P_SCFIterInfo ] 1
|  8>     print[ P_OrbEn ] 0
|  9>     print[ P_Cartesian ] 0
| 10> end
| 11> *xyz 0 1
| 12>  C        1.5780530000     1.1468370000    -0.5977990000
| 13>  C        2.4640090000     0.2779330000    -0.1336220000
| 14>  C        3.0583210000    -0.8332500000    -0.9333610000
| 15>  N        4.5077900000    -0.8163100000    -0.8483590000
| 16>  C        5.2088530000    -1.4764230000    -1.9277940000
| 17>  C        5.1847660000     0.0005350000    -1.8324100000
| 18>  H        1.1643000000     1.9273410000     0.0302000000
| 19>  H        1.2280150000     1.1048810000    -1.6249700000
| 20>  H        2.8067280000     0.3465090000     0.8961190000
| 21>  H        2.7015220000    -0.7740840000    -1.9759600000
| 22>  H        2.7220800000    -1.7959220000    -0.5289830000
| 23>  H        4.6116650000    -1.9306660000    -2.7154380000
| 24>  H        6.0971040000    -2.0324040000    -1.6477480000
| 25>  H        4.5692540000     0.5349650000    -2.5523550000
| 26>  H        6.0559300000     0.5429580000    -1.4820110000
| 27> *
| 28>
| 29>                          ****END OF INPUT****
 Total Charge           Charge          ....    0
 Multiplicity           Mult            ....    1
 Number of Electrons    NEL             ....   46
 Basis Dimension        Dim             ....  129

MULLIKEN ATOMIC CHARGES
-----------------------
   0 C :   -0.035154
   1 C :   -0.076023
   2 C :    0.173738
   3 N :   -0.299673
   4 C :    0.019577
   5 C :    0.032314
   6 H :    0.027840
   7 H :    0.017484
   8 H :    0.013414
   9 H :   -0.023501
  10 H :    0.020709
  11 H :    0.025146
  12 H :    0.039106
  13 H :    0.028222
  14 H :    0.036800
Sum of atomic charges:   -0.0000000

LOEWDIN ATOMIC CHARGES
----------------------
   0 C :   -0.062158
   1 C :   -0.029794
   2 C :    0.014012
   3 N :   -0.108916
   4 C :    0.001532
   5 C :    0.003836
   6 H :    0.025813
   7 H :    0.020596
   8 H :    0.029693
   9 H :    0.003497
  10 H :    0.032320
  11 H :    0.012860
  12 H :    0.021187
  13 H :    0.013946
  14 H :    0.021578

  Mayer bond orders larger than 0.1
B(  0-C ,  1-C ) :   2.0056 B(  0-C ,  6-H ) :   0.9453 B(  0-C ,  7-H ) :   0.9461
B(  1-C ,  2-C ) :   1.0639 B(  1-C ,  8-H ) :   0.9550 B(  2-C ,  3-N ) :   0.9922
B(  2-C ,  9-H ) :   0.9035 B(  2-C , 10-H ) :   0.9142 B(  3-N ,  4-C ) :   0.9685
B(  3-N ,  5-C ) :   0.9643 B(  4-C ,  5-C ) :   1.0887 B(  4-C , 11-H ) :   0.9332
B(  4-C , 12-H ) :   0.9506 B(  5-C , 13-H ) :   0.9349 B(  5-C , 14-H ) :   0.9506

FINAL SINGLE POINT ENERGY      -250.104195906305

DIPOLE MOMENT
-------------
                                X             Y             Z
Electronic contribution:      0.95788      -0.54201       1.49011
Nuclear contribution   :     -1.04019       0.50180      -1.87011
                        -----------------------------------------
Total Dipole Moment    :     -0.08231      -0.04022      -0.38001
                        -----------------------------------------
Magnitude (a.u.)       :      0.39089
Magnitude (Debye)      :      0.99357

                             ****ORCA TERMINATED NORMALLY****
TOTAL RUN TIME: 0 days 0 hours 0 minutes 5 seconds 944 msec
