                         Program Version 3.0.3 - RELEASE   -
|  1> ! RI PBE def2-SVP def2-SVP/J NBO PAL2
|  2> % maxcore 2000
|  3> % output
|  4>     # printlevel mini
|  5>     print[ P_Basis ] 0
|  6>     print[ P_SCFInfo ] 1
|  7>     print[ P_SCFIterInfo ] 1
|  8>     print[ P_OrbEn ] 0
|  9>     print[ P_Cartesian ] 0
| 10> end
| 11> *xyz 0 1
| 12>  C        4.3288890000     2.2945510000     0.8713310000
| 13>  C        3.9011020000     1.2448150000     0.4788650000
| 14>  C        3.3852570000    -0.0229250000    -0.0173400000
| 15>  N        3.9516070000    -1.1554120000     0.6941310000
| 16>  C        3.9854010000    -2.3937620000    -0.0569870000
| 17>  C        5.2259930000    -1.6279570000     0.1951870000
| 18>  H        4.7059770000     3.2238660000     1.2274670000
| 19>  H        3.5769380000    -0.0800640000    -1.1033910000
| 20>  H        2.2984940000    -0.0465230000     0.1151070000
| 21>  H        3.5942480000    -2.3820500000    -1.0719020000
| 22>  H        3.7671310000    -3.2927770000     0.5083300000
| 23>  H        5.6648710000    -1.1009340000    -0.6485530000
| 24>  H        5.9327000000    -1.9569190000     0.9483340000
| 25> *
| 26>
| 27>                          ****END OF INPUT****
 Total Charge           Charge          ....    0
 Multiplicity           Mult            ....    1
 Number of Electrons    NEL             ....   44
 Basis Dimension        Dim             ....  119

MULLIKEN ATOMIC CHARGES
-----------------------
   0 C :   -0.484422
   1 C :    0.335083
   2 C :    0.179617
   3 N :   -0.292287
   4 C :    0.036706
   5 C :    0.032520
   6 H :    0.001729
   7 H :    0.011648
   8 H :    0.044650
   9 H :    0.021841
  10 H :    0.040511
  11 H :    0.029297
  12 H :    0.043108
Sum of atomic charges:   -0.0000000

LOEWDIN ATOMIC CHARGES
----------------------
   0 C :   -0.073138
   1 C :   -0.025370
   2 C :    0.007027
   3 N :   -0.103568
   4 C :    0.005952
   5 C :    0.006615
   6 H :    0.035562
   7 H :    0.023303
   8 H :    0.047588
   9 H :    0.012677
  10 H :    0.023015
  11 H :    0.015654
  12 H :    0.024682

  Mayer bond orders larger than 0.1
B(  0-C ,  1-C ) :   2.3543 B(  0-C ,  6-H ) :   1.0959 B(  1-C ,  2-C ) :   1.0443
B(  1-C ,  6-H ) :  -0.1054 B(  2-C ,  3-N ) :   1.0080 B(  2-C ,  7-H ) :   0.8796
B(  2-C ,  8-H ) :   0.8938 B(  3-N ,  4-C ) :   0.9629 B(  3-N ,  5-C ) :   0.9581
B(  4-C ,  5-C ) :   1.0966 B(  4-C ,  9-H ) :   0.9277 B(  4-C , 10-H ) :   0.9496
B(  5-C , 11-H ) :   0.9326 B(  5-C , 12-H ) :   0.9508

FINAL SINGLE POINT ENERGY      -248.857750133886

DIPOLE MOMENT
-------------
                                X             Y             Z
Electronic contribution:     -0.51466       2.83215       1.74093
Nuclear contribution   :      0.56948      -3.03002      -2.23671
                        -----------------------------------------
Total Dipole Moment    :      0.05481      -0.19787      -0.49577
                        -----------------------------------------
Magnitude (a.u.)       :      0.53661
Magnitude (Debye)      :      1.36395

                             ****ORCA TERMINATED NORMALLY****
TOTAL RUN TIME: 0 days 0 hours 0 minutes 5 seconds 555 msec
