                         Program Version 3.0.3 - RELEASE   -
|  1> ! RI PBE def2-SVP def2-SVP/J NBO PAL2
|  2> % maxcore 2000
|  3> % output
|  4>     # printlevel mini
|  5>     print[ P_Basis ] 0
|  6>     print[ P_SCFInfo ] 1
|  7>     print[ P_SCFIterInfo ] 1
|  8>     print[ P_OrbEn ] 0
|  9>     print[ P_Cartesian ] 0
| 10> end
| 11> *xyz 0 1
| 12>  C        1.0018750000    -0.0538720000    -0.0489630000
| 13>  C        2.5184140000     0.0402000000    -0.0489640000
| 14>  C        3.1325360000    -1.1766340000     0.6354520000
| 15>  N        2.9477720000     0.3242400000    -1.4176270000
| 16>  C        4.3322210000     0.1998140000    -1.7972260000
| 17>  C        3.3157640000    -0.7479520000    -2.3131600000
| 18>  H        0.6164880000    -0.1720040000     0.9665130000
| 19>  H        0.6735490000    -0.9165260000    -0.6363200000
| 20>  H        0.5636300000     0.8424240000    -0.4900670000
| 21>  H        2.8075930000     0.9289680000     0.5247960000
| 22>  H        2.7853060000    -2.1116790000     0.1883040000
| 23>  H        2.8316410000    -1.1900230000     1.6852730000
| 24>  H        4.2245940000    -1.1679910000     0.6133110000
| 25>  H        5.0461930000    -0.1932690000    -1.0782590000
| 26>  H        4.7172210000     0.9939970000    -2.4289430000
| 27>  H        3.3612180000    -1.7632910000    -1.9299350000
| 28>  H        2.9460960000    -0.6611030000    -3.3296750000
| 29> *
| 30>
| 31>                          ****END OF INPUT****
 Total Charge           Charge          ....    0
 Multiplicity           Mult            ....    1
 Number of Electrons    NEL             ....   48
 Basis Dimension        Dim             ....  139

MULLIKEN ATOMIC CHARGES
-----------------------
   0 C :    0.042398
   1 C :   -0.017403
   2 C :   -0.021877
   3 N :   -0.284846
   4 C :    0.022797
   5 C :    0.024909
   6 H :    0.011816
   7 H :    0.011717
   8 H :    0.022274
   9 H :    0.007087
  10 H :    0.018378
  11 H :    0.022810
  12 H :    0.024885
  13 H :    0.022540
  14 H :    0.034173
  15 H :    0.024256
  16 H :    0.034086
Sum of atomic charges:    0.0000000

LOEWDIN ATOMIC CHARGES
----------------------
   0 C :   -0.060024
   1 C :    0.000022
   2 C :   -0.076940
   3 N :   -0.104823
   4 C :    0.000518
   5 C :   -0.000054
   6 H :    0.024661
   7 H :    0.024033
   8 H :    0.028514
   9 H :    0.024648
  10 H :    0.023922
  11 H :    0.033194
  12 H :    0.024655
  13 H :    0.008943
  14 H :    0.019172
  15 H :    0.010708
  16 H :    0.018851

  Mayer bond orders larger than 0.1
B(  0-C ,  1-C ) :   1.0857 B(  0-C ,  6-H ) :   0.9610 B(  0-C ,  7-H ) :   0.9599
B(  0-C ,  8-H ) :   0.9540 B(  1-C ,  2-C ) :   1.0712 B(  1-C ,  3-N ) :   1.0024
B(  1-C ,  9-H ) :   0.9180 B(  2-C , 10-H ) :   0.9516 B(  2-C , 11-H ) :   0.9491
B(  2-C , 12-H ) :   0.9527 B(  3-N ,  4-C ) :   0.9775 B(  3-N ,  5-C ) :   0.9745
B(  4-C ,  5-C ) :   1.0829 B(  4-C , 13-H ) :   0.9325 B(  4-C , 14-H ) :   0.9481
B(  5-C , 15-H ) :   0.9318 B(  5-C , 16-H ) :   0.9484

FINAL SINGLE POINT ENERGY      -251.328437632181

DIPOLE MOMENT
-------------
                                X             Y             Z
Electronic contribution:      1.06846       2.11094      -2.53765
Nuclear contribution   :     -0.87309      -2.43160       2.77753
                        -----------------------------------------
Total Dipole Moment    :      0.19537      -0.32067       0.23988
                        -----------------------------------------
Magnitude (a.u.)       :      0.44558
Magnitude (Debye)      :      1.13257

                             ****ORCA TERMINATED NORMALLY****
TOTAL RUN TIME: 0 days 0 hours 0 minutes 6 seconds 577 msec
