                         Program Version 3.0.3 - RELEASE   -
|  1> ! RI PBE def2-SVP def2-SVP/J NBO PAL2
|  2> % maxcore 2000
|  3> % output
|  4>     # printlevel mini
|  5>     print[ P_Basis ] 0
|  6>     print[ P_SCFInfo ] 1
|  7>     print[ P_SCFIterInfo ] 1
|  8>     print[ P_OrbEn ] 0
|  9>     print[ P_Cartesian ] 0
| 10> end
| 11> *xyz 0 1
| 12>  C        0.9908400000     0.1078130000     0.2630920000
| 13>  C        2.5030460000     0.0607790000     0.1306480000
| 14>  C        2.9582970000    -0.5791910000    -1.1669400000
| 15>  N        4.4004280000    -0.5866080000    -1.2826400000
| 16>  C        4.8852630000    -1.2289520000    -2.4861340000
| 17>  C        6.3987470000    -1.2657860000    -2.5167990000
| 18>  H        0.6876850000     0.5715820000     1.2041630000
| 19>  H        0.5567580000    -0.8955260000     0.2335180000
| 20>  H        0.5412070000     0.6850740000    -0.5496910000
| 21>  H        2.9277700000    -0.4977890000     0.9740220000
| 22>  H        2.9227760000     1.0696820000     0.1878760000
| 23>  H        2.5547750000    -0.0093230000    -2.0131390000
| 24>  H        2.5224670000    -1.5934450000    -1.2468600000
| 25>  H        4.8022410000    -1.0445560000    -0.4716980000
| 26>  H        4.5131570000    -0.6567400000    -3.3436510000
| 27>  H        4.4865280000    -2.2533140000    -2.6051340000
| 28>  H        6.8096950000    -0.2567670000    -2.4440530000
| 29>  H        6.7597220000    -1.7233560000    -3.4403560000
| 30>  H        6.7948070000    -1.8517960000    -1.6817140000
| 31> *
| 32>
| 33>                          ****END OF INPUT****
 Total Charge           Charge          ....    0
 Multiplicity           Mult            ....    1
 Number of Electrons    NEL             ....   50
 Basis Dimension        Dim             ....  149

MULLIKEN ATOMIC CHARGES
-----------------------
   0 C :   -0.019891
   1 C :   -0.046246
   2 C :    0.085615
   3 N :   -0.266383
   4 C :    0.078856
   5 C :   -0.026419
   6 H :    0.019467
   7 H :    0.016907
   8 H :    0.020167
   9 H :    0.006323
  10 H :    0.017700
  11 H :   -0.000575
  12 H :   -0.021468
  13 H :    0.092104
  14 H :    0.003193
  15 H :   -0.020116
  16 H :    0.026006
  17 H :    0.017972
  18 H :    0.016788
Sum of atomic charges:    0.0000000

LOEWDIN ATOMIC CHARGES
----------------------
   0 C :   -0.064899
   1 C :   -0.052360
   2 C :    0.009588
   3 N :   -0.104912
   4 C :    0.008687
   5 C :   -0.071251
   6 H :    0.027244
   7 H :    0.023478
   8 H :    0.025110
   9 H :    0.019847
  10 H :    0.025289
  11 H :    0.017723
  12 H :   -0.005205
  13 H :    0.049707
  14 H :    0.018499
  15 H :   -0.004958
  16 H :    0.027238
  17 H :    0.028924
  18 H :    0.022250

  Mayer bond orders larger than 0.1
B(  0-C ,  1-C ) :   1.1108 B(  0-C ,  6-H ) :   0.9622 B(  0-C ,  7-H ) :   0.9658
B(  0-C ,  8-H ) :   0.9681 B(  1-C ,  2-C ) :   1.0867 B(  1-C ,  9-H ) :   0.9376
B(  1-C , 10-H ) :   0.9353 B(  2-C ,  3-N ) :   1.0437 B(  2-C , 11-H ) :   0.9309
B(  2-C , 12-H ) :   0.9181 B(  3-N ,  4-C ) :   1.0325 B(  3-N , 13-H ) :   0.9409
B(  4-C ,  5-C ) :   1.1135 B(  4-C , 14-H ) :   0.9363 B(  4-C , 15-H ) :   0.9183
B(  5-C , 16-H ) :   0.9635 B(  5-C , 17-H ) :   0.9578 B(  5-C , 18-H ) :   0.9678

FINAL SINGLE POINT ENERGY      -252.562951651005

DIPOLE MOMENT
-------------
                                X             Y             Z
Electronic contribution:      1.01599       0.43383      -0.01447
Nuclear contribution   :     -1.05804      -0.70844       0.10663
                        -----------------------------------------
Total Dipole Moment    :     -0.04205      -0.27462       0.09216
                        -----------------------------------------
Magnitude (a.u.)       :      0.29271
Magnitude (Debye)      :      0.74400

                             ****ORCA TERMINATED NORMALLY****
TOTAL RUN TIME: 0 days 0 hours 0 minutes 7 seconds 608 msec
