                         Program Version 3.0.3 - RELEASE   -
|  1> ! RI PBE def2-SVP def2-SVP/J NBO PAL2
|  2> % maxcore 2000
|  3> % output
|  4>     # printlevel mini
|  5>     print[ P_Basis ] 0
|  6>     print[ P_SCFInfo ] 1
|  7>     print[ P_SCFIterInfo ] 1
|  8>     print[ P_OrbEn ] 0
|  9>     print[ P_Cartesian ] 0
| 10> end
| 11> *xyz 0 1
| 12>  C        0.9339410000    -0.1331380000     0.0641090000
| 13>  C        2.4573720000    -0.0230890000    -0.0130860000
| 14>  C        2.8778550000     1.4302680000     0.1901590000
| 15>  N        3.0058990000    -0.9183050000     1.0112040000
| 16>  C        2.9076910000    -0.5797090000    -1.3391900000
| 17>  C        3.5281960000     0.0707030000    -2.3127340000
| 18>  H        0.5808580000     0.1906650000     1.0483180000
| 19>  H        0.6186770000    -1.1670500000    -0.0865200000
| 20>  H        0.4593490000     0.4949120000    -0.6918400000
| 21>  H        2.5375940000     1.7779010000     1.1691920000
| 22>  H        2.4469120000     2.0921010000    -0.5656180000
| 23>  H        3.9654680000     1.5329600000     0.1544860000
| 24>  H        2.6870570000    -0.6285260000     1.9294390000
| 25>  H        4.0181400000    -0.8608610000     1.0152280000
| 26>  H        2.6818280000    -1.6372940000    -1.4600390000
| 27>  H        3.7849920000     1.1216340000    -2.2385910000
| 28>  H        3.8024910000    -0.4328620000    -3.2326180000
| 29> *
| 30>
| 31>                          ****END OF INPUT****
 Total Charge           Charge          ....    0
 Multiplicity           Mult            ....    1
 Number of Electrons    NEL             ....   48
 Basis Dimension        Dim             ....  139

MULLIKEN ATOMIC CHARGES
-----------------------
   0 C :    0.074262
   1 C :   -0.226699
   2 C :    0.071318
   3 N :   -0.158759
   4 C :    0.002336
   5 C :   -0.031263
   6 H :    0.004384
   7 H :    0.018967
   8 H :    0.020300
   9 H :    0.000539
  10 H :    0.017809
  11 H :    0.012240
  12 H :    0.078651
  13 H :    0.084381
  14 H :    0.000208
  15 H :    0.013767
  16 H :    0.017559
Sum of atomic charges:   -0.0000000

LOEWDIN ATOMIC CHARGES
----------------------
   0 C :   -0.045241
   1 C :   -0.029462
   2 C :   -0.065893
   3 N :   -0.086137
   4 C :   -0.018521
   5 C :   -0.070098
   6 H :    0.021481
   7 H :    0.027244
   8 H :    0.028230
   9 H :    0.021578
  10 H :    0.025714
  11 H :    0.021613
  12 H :    0.046938
  13 H :    0.049804
  14 H :    0.027249
  15 H :    0.020179
  16 H :    0.025321

  Mayer bond orders larger than 0.1
B(  0-C ,  1-C ) :   1.0402 B(  0-C ,  6-H ) :   0.9486 B(  0-C ,  7-H ) :   0.9556
B(  0-C ,  8-H ) :   0.9612 B(  1-C ,  2-C ) :   1.0787 B(  1-C ,  3-N ) :   1.0192
B(  1-C ,  4-C ) :   0.9830 B(  2-C ,  9-H ) :   0.9499 B(  2-C , 10-H ) :   0.9364
B(  2-C , 11-H ) :   0.9425 B(  3-N , 12-H ) :   0.9609 B(  3-N , 13-H ) :   0.9669
B(  4-C ,  5-C ) :   2.0106 B(  4-C , 14-H ) :   0.9521 B(  5-C , 15-H ) :   0.9280
B(  5-C , 16-H ) :   0.9355

FINAL SINGLE POINT ENERGY      -251.346577985500

DIPOLE MOMENT
-------------
                                X             Y             Z
Electronic contribution:      1.17931      -2.09148      -0.58727
Nuclear contribution   :     -1.08713       2.46691       0.84166
                        -----------------------------------------
Total Dipole Moment    :      0.09218       0.37542       0.25439
                        -----------------------------------------
Magnitude (a.u.)       :      0.46277
Magnitude (Debye)      :      1.17627

                             ****ORCA TERMINATED NORMALLY****
TOTAL RUN TIME: 0 days 0 hours 0 minutes 7 seconds 58 msec
