                         Program Version 3.0.3 - RELEASE   -
|  1> ! RI PBE def2-SVP def2-SVP/J NBO PAL2
|  2> % maxcore 2000
|  3> % output
|  4>     # printlevel mini
|  5>     print[ P_Basis ] 0
|  6>     print[ P_SCFInfo ] 1
|  7>     print[ P_SCFIterInfo ] 1
|  8>     print[ P_OrbEn ] 0
|  9>     print[ P_Cartesian ] 0
| 10> end
| 11> *xyz 0 1
| 12>  C        0.9665350000     0.0469670000     0.0973140000
| 13>  C        2.4958520000     0.0411830000     0.0836040000
| 14>  C        3.0073380000     0.2270120000    -1.3524630000
| 15>  N        2.9553130000     1.0922660000     0.9952710000
| 16>  C        2.9848370000    -1.2445530000     0.5938260000
| 17>  C        3.3954340000    -2.3029230000     0.9836430000
| 18>  H        0.6010080000     1.0101740000    -0.2703630000
| 19>  H        0.6002850000    -0.1002860000     1.1130190000
| 20>  H        0.5686650000    -0.7396600000    -0.5450750000
| 21>  H        2.6438380000     1.1793680000    -1.7489760000
| 22>  H        2.6601500000    -0.5751360000    -2.0073580000
| 23>  H        4.0990360000     0.2352850000    -1.3716830000
| 24>  H        2.6877380000     1.9969920000     0.6227210000
| 25>  H        3.9666480000     1.0799280000     1.0588330000
| 26>  H        3.7542230000    -3.2395160000     1.3395860000
| 27> *
| 28>
| 29>                          ****END OF INPUT****
 Total Charge           Charge          ....    0
 Multiplicity           Mult            ....    1
 Number of Electrons    NEL             ....   46
 Basis Dimension        Dim             ....  129

MULLIKEN ATOMIC CHARGES
-----------------------
   0 C :    0.081331
   1 C :   -0.240353
   2 C :    0.068522
   3 N :   -0.139591
   4 C :    0.491628
   5 C :   -0.543701
   6 H :    0.006770
   7 H :    0.032714
   8 H :    0.023521
   9 H :    0.007663
  10 H :    0.023913
  11 H :    0.020729
  12 H :    0.082101
  13 H :    0.090121
  14 H :   -0.005369
Sum of atomic charges:   -0.0000000

LOEWDIN ATOMIC CHARGES
----------------------
   0 C :   -0.038918
   1 C :   -0.034140
   2 C :   -0.056612
   3 N :   -0.078716
   4 C :   -0.005089
   5 C :   -0.087311
   6 H :    0.023188
   7 H :    0.032963
   8 H :    0.030132
   9 H :    0.021844
  10 H :    0.030333
  11 H :    0.025805
  12 H :    0.049341
  13 H :    0.052780
  14 H :    0.034401

  Mayer bond orders larger than 0.1
B(  0-C ,  1-C ) :   1.0467 B(  0-C ,  6-H ) :   0.9502 B(  0-C ,  7-H ) :   0.9558
B(  0-C ,  8-H ) :   0.9581 B(  1-C ,  2-C ) :   1.0449 B(  1-C ,  3-N ) :   1.0518
B(  1-C ,  4-C ) :   0.9270 B(  2-C ,  9-H ) :   0.9501 B(  2-C , 10-H ) :   0.9471
B(  2-C , 11-H ) :   0.9539 B(  3-N , 12-H ) :   0.9611 B(  3-N , 13-H ) :   0.9601
B(  4-C ,  5-C ) :   2.2950 B(  4-C , 14-H ) :  -0.1230 B(  5-C , 14-H ) :   1.1120

FINAL SINGLE POINT ENERGY      -250.100713439345

DIPOLE MOMENT
-------------
                                X             Y             Z
Electronic contribution:      1.97211      -2.80338       2.94735
Nuclear contribution   :     -1.84044       3.10480      -3.41895
                        -----------------------------------------
Total Dipole Moment    :      0.13167       0.30142      -0.47160
                        -----------------------------------------
Magnitude (a.u.)       :      0.57497
Magnitude (Debye)      :      1.46147

                             ****ORCA TERMINATED NORMALLY****
TOTAL RUN TIME: 0 days 0 hours 0 minutes 6 seconds 461 msec
