                         Program Version 3.0.3 - RELEASE   -
|  1> ! RI PBE def2-SVP def2-SVP/J NBO PAL2
|  2> % maxcore 2000
|  3> % output
|  4>     # printlevel mini
|  5>     print[ P_Basis ] 0
|  6>     print[ P_SCFInfo ] 1
|  7>     print[ P_SCFIterInfo ] 1
|  8>     print[ P_OrbEn ] 0
|  9>     print[ P_Cartesian ] 0
| 10> end
| 11> *xyz 0 1
| 12>  C        1.0099990000     0.2188850000    -0.1093100000
| 13>  C        2.5101830000     0.0573120000     0.0815950000
| 14>  C        2.9040450000     0.3059390000     1.5383540000
| 15>  N        2.9756740000    -1.2118500000    -0.4752770000
| 16>  C        4.3983330000    -1.2490730000    -0.7024560000
| 17>  C        2.5259070000    -2.3934570000     0.2204350000
| 18>  H        0.7048610000     1.2375230000     0.1412660000
| 19>  H        0.4425700000    -0.4557280000     0.5370260000
| 20>  H        0.7332910000     0.0163850000    -1.1454970000
| 21>  H        2.9981170000     0.8261590000    -0.5294930000
| 22>  H        2.3920540000    -0.3858850000     2.2125990000
| 23>  H        2.6276030000     1.3197680000     1.8379020000
| 24>  H        3.9799760000     0.1978950000     1.6939740000
| 25>  H        4.7072110000    -0.3733240000    -1.2786570000
| 26>  H        4.6516160000    -2.1397910000    -1.2839800000
| 27>  H        5.0029330000    -1.2794130000     0.2220990000
| 28>  H        1.4423870000    -2.3781530000     0.3464740000
| 29>  H        2.9854400000    -2.5279470000     1.2154110000
| 30>  H        2.7740100000    -3.2761550000    -0.3749550000
| 31> *
| 32>
| 33>                          ****END OF INPUT****
 Total Charge           Charge          ....    0
 Multiplicity           Mult            ....    1
 Number of Electrons    NEL             ....   50
 Basis Dimension        Dim             ....  149

MULLIKEN ATOMIC CHARGES
-----------------------
   0 C :    0.037156
   1 C :   -0.053243
   2 C :    0.006149
   3 N :   -0.326708
   4 C :    0.101073
   5 C :    0.100562
   6 H :    0.009903
   7 H :    0.014970
   8 H :    0.020259
   9 H :    0.000994
  10 H :    0.018202
  11 H :    0.011335
  12 H :    0.019371
  13 H :    0.015367
  14 H :    0.016118
  15 H :   -0.011127
  16 H :    0.016155
  17 H :   -0.011807
  18 H :    0.015274
Sum of atomic charges:   -0.0000000

LOEWDIN ATOMIC CHARGES
----------------------
   0 C :   -0.063208
   1 C :    0.003060
   2 C :   -0.075764
   3 N :   -0.113109
   4 C :    0.001311
   5 C :    0.001169
   6 H :    0.027174
   7 H :    0.020739
   8 H :    0.027049
   9 H :    0.022034
  10 H :    0.023768
  11 H :    0.027218
  12 H :    0.024260
  13 H :    0.020565
  14 H :    0.021130
  15 H :   -0.005798
  16 H :    0.020487
  17 H :   -0.004013
  18 H :    0.021929

  Mayer bond orders larger than 0.1
B(  0-C ,  1-C ) :   1.0874 B(  0-C ,  6-H ) :   0.9558 B(  0-C ,  7-H ) :   0.9527
B(  0-C ,  8-H ) :   0.9562 B(  1-C ,  2-C ) :   1.0630 B(  1-C ,  3-N ) :   1.0296
B(  1-C ,  9-H ) :   0.9160 B(  2-C , 10-H ) :   0.9521 B(  2-C , 11-H ) :   0.9549
B(  2-C , 12-H ) :   0.9553 B(  3-N ,  4-C ) :   1.0459 B(  3-N ,  5-C ) :   1.0388
B(  4-C , 13-H ) :   0.9643 B(  4-C , 14-H ) :   0.9652 B(  4-C , 15-H ) :   0.9344
B(  5-C , 16-H ) :   0.9641 B(  5-C , 17-H ) :   0.9350 B(  5-C , 18-H ) :   0.9644

FINAL SINGLE POINT ENERGY      -252.552905942202

DIPOLE MOMENT
-------------
                                X             Y             Z
Electronic contribution:      0.08004      -0.11685      -1.91108
Nuclear contribution   :     -0.01158       0.16708       2.06464
                        -----------------------------------------
Total Dipole Moment    :      0.06846       0.05023       0.15356
                        -----------------------------------------
Magnitude (a.u.)       :      0.17547
Magnitude (Debye)      :      0.44602

                             ****ORCA TERMINATED NORMALLY****
TOTAL RUN TIME: 0 days 0 hours 0 minutes 7 seconds 849 msec
