                         Program Version 3.0.3 - RELEASE   -
|  1> ! RI PBE def2-SVP def2-SVP/J NBO PAL2
|  2> % maxcore 2000
|  3> % output
|  4>     # printlevel mini
|  5>     print[ P_Basis ] 0
|  6>     print[ P_SCFInfo ] 1
|  7>     print[ P_SCFIterInfo ] 1
|  8>     print[ P_OrbEn ] 0
|  9>     print[ P_Cartesian ] 0
| 10> end
| 11> *xyz 0 1
| 12>  C        1.0590520000     0.1454860000     0.2545050000
| 13>  C        2.4913570000    -0.1197710000    -0.1984830000
| 14>  C        2.7698310000    -1.6209610000    -0.3167170000
| 15>  N        2.6060440000    -2.2909220000     0.9640380000
| 16>  C        2.7755330000     0.5579410000    -1.5011610000
| 17>  C        3.7016630000     1.4843350000    -1.7039060000
| 18>  H        0.8411860000    -0.4109630000     1.1669090000
| 19>  H        0.3484200000    -0.1755920000    -0.5137980000
| 20>  H        0.8966760000     1.2099160000     0.4356680000
| 21>  H        3.1808580000     0.2878690000     0.5531440000
| 22>  H        3.7671040000    -1.7552200000    -0.7618110000
| 23>  H        2.0499040000    -2.0556460000    -1.0196030000
| 24>  H        3.3540020000    -2.0302000000     1.5955970000
| 25>  H        2.6536510000    -3.2951170000     0.8513380000
| 26>  H        2.1485300000     0.2471900000    -2.3375730000
| 27>  H        4.3443040000     1.8277040000    -0.8984850000
| 28>  H        3.8504940000     1.9372510000    -2.6774630000
| 29> *
| 30>
| 31>                          ****END OF INPUT****
 Total Charge           Charge          ....    0
 Multiplicity           Mult            ....    1
 Number of Electrons    NEL             ....   48
 Basis Dimension        Dim             ....  139

MULLIKEN ATOMIC CHARGES
-----------------------
   0 C :    0.029733
   1 C :   -0.084469
   2 C :    0.076270
   3 N :   -0.195556
   4 C :   -0.039756
   5 C :   -0.034679
   6 H :    0.022993
   7 H :    0.006476
   8 H :    0.019622
   9 H :   -0.009399
  10 H :   -0.002238
  11 H :    0.000046
  12 H :    0.088675
  13 H :    0.092125
  14 H :   -0.003318
  15 H :    0.013414
  16 H :    0.020061
Sum of atomic charges:    0.0000000

LOEWDIN ATOMIC CHARGES
----------------------
   0 C :   -0.055167
   1 C :   -0.052365
   2 C :    0.012040
   3 N :   -0.106168
   4 C :   -0.017526
   5 C :   -0.069847
   6 H :    0.025438
   7 H :    0.022826
   8 H :    0.025057
   9 H :    0.023937
  10 H :    0.000973
  11 H :    0.018643
  12 H :    0.051154
  13 H :    0.054343
  14 H :    0.023437
  15 H :    0.020091
  16 H :    0.023135

  Mayer bond orders larger than 0.1
B(  0-C ,  1-C ) :   1.0624 B(  0-C ,  6-H ) :   0.9453 B(  0-C ,  7-H ) :   0.9594
B(  0-C ,  8-H ) :   0.9640 B(  1-C ,  2-C ) :   1.0340 B(  1-C ,  4-C ) :   1.0228
B(  1-C ,  9-H ) :   0.9067 B(  2-C ,  3-N ) :   1.1097 B(  2-C , 10-H ) :   0.9379
B(  2-C , 11-H ) :   0.9275 B(  3-N , 12-H ) :   0.9690 B(  3-N , 13-H ) :   0.9654
B(  4-C ,  5-C ) :   2.0139 B(  4-C , 14-H ) :   0.9473 B(  5-C , 15-H ) :   0.9463
B(  5-C , 16-H ) :   0.9404

FINAL SINGLE POINT ENERGY      -251.343167922873

DIPOLE MOMENT
-------------
                                X             Y             Z
Electronic contribution:      1.03937      -0.15172      -0.45525
Nuclear contribution   :     -0.66567      -0.20996       0.47332
                        -----------------------------------------
Total Dipole Moment    :      0.37370      -0.36168       0.01807
                        -----------------------------------------
Magnitude (a.u.)       :      0.52037
Magnitude (Debye)      :      1.32268

                             ****ORCA TERMINATED NORMALLY****
TOTAL RUN TIME: 0 days 0 hours 0 minutes 6 seconds 417 msec
