                         Program Version 3.0.3 - RELEASE   -
|  1> ! RI PBE def2-SVP def2-SVP/J NBO PAL2
|  2> % maxcore 2000
|  3> % output
|  4>     # printlevel mini
|  5>     print[ P_Basis ] 0
|  6>     print[ P_SCFInfo ] 1
|  7>     print[ P_SCFIterInfo ] 1
|  8>     print[ P_OrbEn ] 0
|  9>     print[ P_Cartesian ] 0
| 10> end
| 11> *xyz 0 1
| 12>  C        1.0600140000     0.0636270000    -0.0089500000
| 13>  C        2.5852870000    -0.0010470000    -0.0560810000
| 14>  C        3.0829150000    -1.4472790000    -0.0034030000
| 15>  N        4.5288500000    -1.4925230000     0.0891740000
| 16>  C        3.1045360000     0.6745230000    -1.2400790000
| 17>  C        3.5300870000     1.2079640000    -2.2291720000
| 18>  H        0.6913570000    -0.4059450000     0.9060780000
| 19>  H        0.6233310000    -0.4569160000    -0.8641390000
| 20>  H        0.7116950000     1.0969460000    -0.0303710000
| 21>  H        2.9957160000     0.5109320000     0.8225110000
| 22>  H        2.6658700000    -1.9833220000    -0.8709250000
| 23>  H        2.6638850000    -1.9107680000     0.8952260000
| 24>  H        4.9410440000    -1.0811170000    -0.7407940000
| 25>  H        4.8546230000    -2.4487330000     0.1442610000
| 26>  H        3.9026800000     1.6933670000    -3.0999250000
| 27> *
| 28>
| 29>                          ****END OF INPUT****
 Total Charge           Charge          ....    0
 Multiplicity           Mult            ....    1
 Number of Electrons    NEL             ....   46
 Basis Dimension        Dim             ....  129

MULLIKEN ATOMIC CHARGES
-----------------------
   0 C :    0.035834
   1 C :   -0.064575
   2 C :    0.085126
   3 N :   -0.199984
   4 C :    0.376333
   5 C :   -0.516495
   6 H :    0.017867
   7 H :    0.026597
   8 H :    0.030309
   9 H :    0.028763
  10 H :   -0.002170
  11 H :    0.004029
  12 H :    0.094004
  13 H :    0.089180
  14 H :   -0.004818
Sum of atomic charges:   -0.0000000

LOEWDIN ATOMIC CHARGES
----------------------
   0 C :   -0.042333
   1 C :   -0.057248
   2 C :    0.020800
   3 N :   -0.109103
   4 C :   -0.013014
   5 C :   -0.096865
   6 H :    0.027182
   7 H :    0.028950
   8 H :    0.031975
   9 H :    0.047856
  10 H :    0.001450
  11 H :    0.020247
  12 H :    0.052662
  13 H :    0.053565
  14 H :    0.033876

  Mayer bond orders larger than 0.1
B(  0-C ,  1-C ) :   1.0725 B(  0-C ,  6-H ) :   0.9558 B(  0-C ,  7-H ) :   0.9599
B(  0-C ,  8-H ) :   0.9632 B(  1-C ,  2-C ) :   1.0365 B(  1-C ,  4-C ) :   1.0164
B(  1-C ,  9-H ) :   0.8627 B(  2-C ,  3-N ) :   1.1082 B(  2-C , 10-H ) :   0.9204
B(  2-C , 11-H ) :   0.9312 B(  3-N , 12-H ) :   0.9617 B(  3-N , 13-H ) :   0.9637
B(  4-C ,  5-C ) :   2.3110 B(  4-C , 14-H ) :  -0.1174 B(  5-C , 14-H ) :   1.1078

FINAL SINGLE POINT ENERGY      -250.101055043091

DIPOLE MOMENT
-------------
                                X             Y             Z
Electronic contribution:      2.50202       2.25974      -1.99397
Nuclear contribution   :     -2.63474      -2.65776       1.82015
                        -----------------------------------------
Total Dipole Moment    :     -0.13272      -0.39802      -0.17383
                        -----------------------------------------
Magnitude (a.u.)       :      0.45415
Magnitude (Debye)      :      1.15435

                             ****ORCA TERMINATED NORMALLY****
TOTAL RUN TIME: 0 days 0 hours 0 minutes 6 seconds 373 msec
