                         Program Version 3.0.3 - RELEASE   -
|  1> ! RI PBE def2-SVP def2-SVP/J NBO PAL2
|  2> % maxcore 2000
|  3> % output
|  4>     # printlevel mini
|  5>     print[ P_Basis ] 0
|  6>     print[ P_SCFInfo ] 1
|  7>     print[ P_SCFIterInfo ] 1
|  8>     print[ P_OrbEn ] 0
|  9>     print[ P_Cartesian ] 0
| 10> end
| 11> *xyz 0 1
| 12>  C        0.9085110000     0.0513890000     0.0031390000
| 13>  C        2.4210670000    -0.0859300000    -0.0001070000
| 14>  C        2.9665800000    -1.0487550000     1.0572480000
| 15>  N        2.4711250000    -2.4157870000     0.9482810000
| 16>  C        4.4913080000    -1.0661990000     1.0407190000
| 17>  C        5.1091870000    -1.8129370000     2.2094060000
| 18>  H        0.5746760000     0.7808320000    -0.7380720000
| 19>  H        0.5444160000     0.3834790000     0.9802340000
| 20>  H        0.4147370000    -0.8951920000    -0.2320970000
| 21>  H        2.8740060000     0.8993930000     0.1588660000
| 22>  H        2.7619190000    -0.4223640000    -0.9880500000
| 23>  H        2.6450150000    -0.6823580000     2.0424430000
| 24>  H        2.6685860000    -2.7843530000     0.0235330000
| 25>  H        1.4675510000    -2.4503170000     1.0726240000
| 26>  H        4.8535900000    -0.0328070000     1.0236130000
| 27>  H        4.8197970000    -1.5170130000     0.0946310000
| 28>  H        4.8582640000    -1.3294120000     3.1580550000
| 29>  H        6.1985470000    -1.8415970000     2.1304640000
| 30>  H        4.7375080000    -2.8376630000     2.2518810000
| 31> *
| 32>
| 33>                          ****END OF INPUT****
 Total Charge           Charge          ....    0
 Multiplicity           Mult            ....    1
 Number of Electrons    NEL             ....   50
 Basis Dimension        Dim             ....  149

MULLIKEN ATOMIC CHARGES
-----------------------
   0 C :    0.002791
   1 C :   -0.001721
   2 C :   -0.055190
   3 N :   -0.178855
   4 C :   -0.000608
   5 C :    0.009325
   6 H :    0.021048
   7 H :    0.012946
   8 H :   -0.001027
   9 H :   -0.000414
  10 H :   -0.006001
  11 H :   -0.008684
  12 H :    0.083111
  13 H :    0.085625
  14 H :    0.000368
  15 H :   -0.007841
  16 H :    0.005833
  17 H :    0.017968
  18 H :    0.021326
Sum of atomic charges:    0.0000000

LOEWDIN ATOMIC CHARGES
----------------------
   0 C :   -0.070938
   1 C :   -0.059328
   2 C :   -0.002069
   3 N :   -0.088518
   4 C :   -0.045584
   5 C :   -0.067843
   6 H :    0.028334
   7 H :    0.023959
   8 H :    0.014426
   9 H :    0.022916
  10 H :    0.017813
  11 H :    0.017813
  12 H :    0.048226
  13 H :    0.048198
  14 H :    0.022442
  15 H :    0.018703
  16 H :    0.022529
  17 H :    0.023961
  18 H :    0.024960

  Mayer bond orders larger than 0.1
B(  0-C ,  1-C ) :   1.1170 B(  0-C ,  6-H ) :   0.9594 B(  0-C ,  7-H ) :   0.9630
B(  0-C ,  8-H ) :   0.9521 B(  1-C ,  2-C ) :   1.0387 B(  1-C ,  9-H ) :   0.9185
B(  1-C , 10-H ) :   0.9255 B(  2-C ,  3-N ) :   1.0803 B(  2-C ,  4-C ) :   1.0676
B(  2-C , 11-H ) :   0.9105 B(  3-N , 12-H ) :   0.9684 B(  3-N , 13-H ) :   0.9718
B(  4-C ,  5-C ) :   1.1212 B(  4-C , 14-H ) :   0.9323 B(  4-C , 15-H ) :   0.9254
B(  5-C , 16-H ) :   0.9615 B(  5-C , 17-H ) :   0.9611 B(  5-C , 18-H ) :   0.9542

FINAL SINGLE POINT ENERGY      -252.570759095435

DIPOLE MOMENT
-------------
                                X             Y             Z
Electronic contribution:     -0.14108      -1.05122       0.00918
Nuclear contribution   :     -0.13984       1.23941      -0.35101
                        -----------------------------------------
Total Dipole Moment    :     -0.28091       0.18819      -0.34183
                        -----------------------------------------
Magnitude (a.u.)       :      0.48081
Magnitude (Debye)      :      1.22212

                             ****ORCA TERMINATED NORMALLY****
TOTAL RUN TIME: 0 days 0 hours 0 minutes 7 seconds 132 msec
