                         Program Version 3.0.3 - RELEASE   -
|  1> ! RI PBE def2-SVP def2-SVP/J NBO PAL2
|  2> % maxcore 2000
|  3> % output
|  4>     # printlevel mini
|  5>     print[ P_Basis ] 0
|  6>     print[ P_SCFInfo ] 1
|  7>     print[ P_SCFIterInfo ] 1
|  8>     print[ P_OrbEn ] 0
|  9>     print[ P_Cartesian ] 0
| 10> end
| 11> *xyz 0 1
| 12>  C        1.1745720000     0.1090350000     0.2004510000
| 13>  C        2.6477670000     0.4604930000     0.0815630000
| 14>  C        3.2281430000     0.1968480000    -1.3065600000
| 15>  N        2.5873590000     0.9205490000    -2.4009480000
| 16>  C        4.7049900000     0.4488610000    -1.4082640000
| 17>  C        5.5169150000     0.8462310000    -0.4384780000
| 18>  H        0.8142310000     0.2655540000     1.2193730000
| 19>  H        0.9951700000    -0.9396800000    -0.0550640000
| 20>  H        0.5544440000     0.7238210000    -0.4571720000
| 21>  H        3.2147540000    -0.1215090000     0.8157650000
| 22>  H        2.8006830000     1.5161300000     0.3357720000
| 23>  H        3.0784920000    -0.8709000000    -1.5284810000
| 24>  H        2.6672780000     1.9201240000    -2.2503110000
| 25>  H        1.6013940000     0.6988170000    -2.4530030000
| 26>  H        5.1028760000     0.2948560000    -2.4086890000
| 27>  H        5.1713750000     1.0267490000     0.5733920000
| 28>  H        6.5728560000     1.0032310000    -0.6262440000
| 29> *
| 30>
| 31>                          ****END OF INPUT****
 Total Charge           Charge          ....    0
 Multiplicity           Mult            ....    1
 Number of Electrons    NEL             ....   48
 Basis Dimension        Dim             ....  139

MULLIKEN ATOMIC CHARGES
-----------------------
   0 C :   -0.009435
   1 C :   -0.013025
   2 C :    0.015151
   3 N :   -0.189060
   4 C :   -0.057287
   5 C :   -0.029458
   6 H :    0.019556
   7 H :    0.015945
   8 H :    0.004290
   9 H :    0.017232
  10 H :    0.004917
  11 H :    0.012856
  12 H :    0.088280
  13 H :    0.082375
  14 H :    0.001446
  15 H :    0.014558
  16 H :    0.021659
Sum of atomic charges:    0.0000000

LOEWDIN ATOMIC CHARGES
----------------------
   0 C :   -0.070173
   1 C :   -0.058143
   2 C :   -0.005586
   3 N :   -0.088479
   4 C :   -0.027732
   5 C :   -0.069534
   6 H :    0.029072
   7 H :    0.025111
   8 H :    0.015859
   9 H :    0.026728
  10 H :    0.020024
  11 H :    0.032428
  12 H :    0.051027
  13 H :    0.046951
  14 H :    0.027130
  15 H :    0.019436
  16 H :    0.025881

  Mayer bond orders larger than 0.1
B(  0-C ,  1-C ) :   1.1149 B(  0-C ,  6-H ) :   0.9587 B(  0-C ,  7-H ) :   0.9635
B(  0-C ,  8-H ) :   0.9534 B(  1-C ,  2-C ) :   1.0543 B(  1-C ,  9-H ) :   0.9096
B(  1-C , 10-H ) :   0.9181 B(  2-C ,  3-N ) :   1.0724 B(  2-C ,  4-C ) :   1.0211
B(  2-C , 11-H ) :   0.8890 B(  3-N , 12-H ) :   0.9706 B(  3-N , 13-H ) :   0.9693
B(  4-C ,  5-C ) :   2.0038 B(  4-C , 14-H ) :   0.9548 B(  5-C , 15-H ) :   0.9285
B(  5-C , 16-H ) :   0.9381

FINAL SINGLE POINT ENERGY      -251.344412606919

DIPOLE MOMENT
-------------
                                X             Y             Z
Electronic contribution:      2.59004       0.17131      -2.36013
Nuclear contribution   :     -2.95903      -0.05925       2.67008
                        -----------------------------------------
Total Dipole Moment    :     -0.36899       0.11206       0.30995
                        -----------------------------------------
Magnitude (a.u.)       :      0.49475
Magnitude (Debye)      :      1.25756

                             ****ORCA TERMINATED NORMALLY****
TOTAL RUN TIME: 0 days 0 hours 0 minutes 6 seconds 974 msec
