                         Program Version 3.0.3 - RELEASE   -
|  1> ! RI PBE def2-SVP def2-SVP/J NBO PAL2
|  2> % maxcore 2000
|  3> % output
|  4>     # printlevel mini
|  5>     print[ P_Basis ] 0
|  6>     print[ P_SCFInfo ] 1
|  7>     print[ P_SCFIterInfo ] 1
|  8>     print[ P_OrbEn ] 0
|  9>     print[ P_Cartesian ] 0
| 10> end
| 11> *xyz 0 1
| 12>  C        2.9089180000    -0.5199370000    -1.3798620000
| 13>  C        2.5221530000    -0.0924510000     0.0241200000
| 14>  C        3.0651860000     1.2865430000     0.4308200000
| 15>  N        2.5948940000     1.7679360000     1.7250360000
| 16>  C        4.5261290000     1.2954990000     0.4151610000
| 17>  C        5.7261060000     1.2660200000     0.4103930000
| 18>  H        2.4786430000    -1.4929330000    -1.6259780000
| 19>  H        3.9934790000    -0.5945850000    -1.4826350000
| 20>  H        2.5520580000     0.1982980000    -2.1236620000
| 21>  H        2.8701070000    -0.8283620000     0.7568940000
| 22>  H        1.4308350000    -0.0472420000     0.1136050000
| 23>  H        2.7288650000     2.0122570000    -0.3222820000
| 24>  H        2.9630920000     1.1821140000     2.4654440000
| 25>  H        1.5841540000     1.7046180000     1.7638870000
| 26>  H        6.7903420000     1.2568540000     0.4058590000
| 27> *
| 28>
| 29>                          ****END OF INPUT****
 Total Charge           Charge          ....    0
 Multiplicity           Mult            ....    1
 Number of Electrons    NEL             ....   46
 Basis Dimension        Dim             ....  129

MULLIKEN ATOMIC CHARGES
-----------------------
   0 C :   -0.017127
   1 C :   -0.027195
   2 C :    0.025351
   3 N :   -0.162330
   4 C :    0.395942
   5 C :   -0.508632
   6 H :    0.019741
   7 H :    0.036997
   8 H :    0.017965
   9 H :    0.010888
  10 H :    0.010445
  11 H :    0.021825
  12 H :    0.092383
  13 H :    0.087009
  14 H :   -0.003263
Sum of atomic charges:   -0.0000000

LOEWDIN ATOMIC CHARGES
----------------------
   0 C :   -0.067349
   1 C :   -0.053616
   2 C :   -0.010548
   3 N :   -0.083372
   4 C :   -0.012481
   5 C :   -0.083893
   6 H :    0.028782
   7 H :    0.031202
   8 H :    0.026055
   9 H :    0.023351
  10 H :    0.021223
  11 H :    0.041686
  12 H :    0.053566
  13 H :    0.051166
  14 H :    0.034229

  Mayer bond orders larger than 0.1
B(  0-C ,  1-C ) :   1.1015 B(  0-C ,  6-H ) :   0.9535 B(  0-C ,  7-H ) :   0.9646
B(  0-C ,  8-H ) :   0.9612 B(  1-C ,  2-C ) :   1.0388 B(  1-C ,  9-H ) :   0.9240
B(  1-C , 10-H ) :   0.9305 B(  2-C ,  3-N ) :   1.0940 B(  2-C ,  4-C ) :   1.0101
B(  2-C , 11-H ) :   0.8652 B(  3-N , 12-H ) :   0.9653 B(  3-N , 13-H ) :   0.9660
B(  4-C ,  5-C ) :   2.3235 B(  4-C , 14-H ) :  -0.1191 B(  5-C , 14-H ) :   1.1099

FINAL SINGLE POINT ENERGY      -250.099265105519

DIPOLE MOMENT
-------------
                                X             Y             Z
Electronic contribution:      3.29821       3.14634       2.34999
Nuclear contribution   :     -3.67409      -3.62286      -2.36574
                        -----------------------------------------
Total Dipole Moment    :     -0.37588      -0.47652      -0.01575
                        -----------------------------------------
Magnitude (a.u.)       :      0.60713
Magnitude (Debye)      :      1.54320

                             ****ORCA TERMINATED NORMALLY****
TOTAL RUN TIME: 0 days 0 hours 0 minutes 6 seconds 376 msec
