                         Program Version 3.0.3 - RELEASE   -
|  1> ! RI PBE def2-SVP def2-SVP/J NBO PAL2
|  2> % maxcore 2000
|  3> % output
|  4>     # printlevel mini
|  5>     print[ P_Basis ] 0
|  6>     print[ P_SCFInfo ] 1
|  7>     print[ P_SCFIterInfo ] 1
|  8>     print[ P_OrbEn ] 0
|  9>     print[ P_Cartesian ] 0
| 10> end
| 11> *xyz 0 1
| 12>  C        1.1607560000     0.1742500000    -0.3929550000
| 13>  C        2.6419530000     0.4924400000    -0.2735410000
| 14>  C        3.3589430000    -0.4872040000     0.6392870000
| 15>  N        4.7991370000    -0.3259310000     0.6713000000
| 16>  C        5.2097880000     0.9216060000     1.2715400000
| 17>  C        5.4307640000    -1.4421500000     1.3337150000
| 18>  H        0.6514280000     0.8903960000    -1.0411700000
| 19>  H        0.6681300000     0.2036090000     0.5830970000
| 20>  H        1.0016480000    -0.8233030000    -0.8121190000
| 21>  H        2.7599300000     1.5143810000     0.0991010000
| 22>  H        3.1185850000     0.4609460000    -1.2583710000
| 23>  H        3.1533780000    -1.5031060000     0.2843990000
| 24>  H        2.9261990000    -0.4217850000     1.6587920000
| 25>  H        4.8189090000     1.7699550000     0.7087260000
| 26>  H        6.2997260000     0.9911060000     1.2600690000
| 27>  H        4.8737700000     1.0208860000     2.3213740000
| 28>  H        5.1630600000    -2.3746670000     0.8315800000
| 29>  H        5.1415740000    -1.5325240000     2.3976880000
| 30>  H        6.5171130000    -1.3338040000     1.2904990000
| 31> *
| 32>
| 33>                          ****END OF INPUT****
 Total Charge           Charge          ....    0
 Multiplicity           Mult            ....    1
 Number of Electrons    NEL             ....   50
 Basis Dimension        Dim             ....  149

MULLIKEN ATOMIC CHARGES
-----------------------
   0 C :   -0.027369
   1 C :   -0.030686
   2 C :    0.083462
   3 N :   -0.333430
   4 C :    0.101007
   5 C :    0.101829
   6 H :    0.023497
   7 H :    0.019031
   8 H :    0.017474
   9 H :    0.015135
  10 H :    0.015672
  11 H :   -0.002346
  12 H :   -0.024295
  13 H :    0.020466
  14 H :    0.020675
  15 H :   -0.019470
  16 H :    0.015717
  17 H :   -0.017529
  18 H :    0.021161
Sum of atomic charges:    0.0000000

LOEWDIN ATOMIC CHARGES
----------------------
   0 C :   -0.064755
   1 C :   -0.052160
   2 C :    0.014623
   3 N :   -0.113960
   4 C :    0.001725
   5 C :    0.002188
   6 H :    0.027924
   7 H :    0.024372
   8 H :    0.024283
   9 H :    0.021345
  10 H :    0.025321
  11 H :    0.019126
  12 H :   -0.005651
  13 H :    0.019752
  14 H :    0.022843
  15 H :   -0.004223
  16 H :    0.020516
  17 H :   -0.004345
  18 H :    0.021075

  Mayer bond orders larger than 0.1
B(  0-C ,  1-C ) :   1.1169 B(  0-C ,  6-H ) :   0.9623 B(  0-C ,  7-H ) :   0.9654
B(  0-C ,  8-H ) :   0.9656 B(  1-C ,  2-C ) :   1.0868 B(  1-C ,  9-H ) :   0.9302
B(  1-C , 10-H ) :   0.9318 B(  2-C ,  3-N ) :   1.0351 B(  2-C , 11-H ) :   0.9362
B(  2-C , 12-H ) :   0.9119 B(  3-N ,  4-C ) :   1.0353 B(  3-N ,  5-C ) :   1.0398
B(  4-C , 13-H ) :   0.9644 B(  4-C , 14-H ) :   0.9660 B(  4-C , 15-H ) :   0.9313
B(  5-C , 16-H ) :   0.9655 B(  5-C , 17-H ) :   0.9340 B(  5-C , 18-H ) :   0.9676

FINAL SINGLE POINT ENERGY      -252.553278506505

DIPOLE MOMENT
-------------
                                X             Y             Z
Electronic contribution:      1.72886      -0.29088      -0.86872
Nuclear contribution   :     -1.77814       0.30371       0.98744
                        -----------------------------------------
Total Dipole Moment    :     -0.04928       0.01283       0.11872
                        -----------------------------------------
Magnitude (a.u.)       :      0.12918
Magnitude (Debye)      :      0.32835

                             ****ORCA TERMINATED NORMALLY****
TOTAL RUN TIME: 0 days 0 hours 0 minutes 7 seconds 672 msec
