                         Program Version 3.0.3 - RELEASE   -
|  1> ! RI PBE def2-SVP def2-SVP/J NBO PAL2
|  2> % maxcore 2000
|  3> % output
|  4>     # printlevel mini
|  5>     print[ P_Basis ] 0
|  6>     print[ P_SCFInfo ] 1
|  7>     print[ P_SCFIterInfo ] 1
|  8>     print[ P_OrbEn ] 0
|  9>     print[ P_Cartesian ] 0
| 10> end
| 11> *xyz 0 1
| 12>  C        0.9628150000    -0.0242510000     0.0869850000
| 13>  C        2.2994850000    -0.0246860000     0.0886070000
| 14>  C        3.0472230000    -0.3540520000     1.2638100000
| 15>  N        3.6416930000    -0.6198020000     2.2120300000
| 16>  C        3.0502610000     0.3041160000    -1.0846290000
| 17>  N        3.6475720000     0.5693940000    -2.0311890000
| 18>  H        0.4112590000    -0.2755030000     0.9834360000
| 19>  H        0.4137930000     0.2273850000    -0.8109400000
| 20> *
| 21>
| 22>                          ****END OF INPUT****
 Total Charge           Charge          ....    0
 Multiplicity           Mult            ....    1
 Number of Electrons    NEL             ....   40
 Basis Dimension        Dim             ....   94

MULLIKEN ATOMIC CHARGES
-----------------------
   0 C :    0.126473
   1 C :   -0.320595
   2 C :   -0.073560
   3 N :    0.110071
   4 C :   -0.073508
   5 N :    0.110094
   6 H :    0.060522
   7 H :    0.060503
Sum of atomic charges:   -0.0000000

LOEWDIN ATOMIC CHARGES
----------------------
   0 C :    0.066665
   1 C :   -0.095322
   2 C :   -0.022401
   3 N :   -0.013819
   4 C :   -0.022414
   5 N :   -0.013812
   6 H :    0.050550
   7 H :    0.050553

  Mayer bond orders larger than 0.1
B(  0-C ,  1-C ) :   1.9234 B(  0-C ,  3-N ) :   0.1118 B(  0-C ,  5-N ) :   0.1118
B(  0-C ,  6-H ) :   0.9239 B(  0-C ,  7-H ) :   0.9238 B(  1-C ,  2-C ) :   1.0851
B(  1-C ,  4-C ) :   1.0853 B(  2-C ,  3-N ) :   3.0107 B(  4-C ,  5-N ) :   3.0106

FINAL SINGLE POINT ENERGY      -262.547692530086

DIPOLE MOMENT
-------------
                                X             Y             Z
Electronic contribution:      2.84753      -0.00098       0.00361
Nuclear contribution   :     -4.39177       0.00153      -0.00562
                        -----------------------------------------
Total Dipole Moment    :     -1.54424       0.00055      -0.00201
                        -----------------------------------------
Magnitude (a.u.)       :      1.54424
Magnitude (Debye)      :      3.92515

                             ****ORCA TERMINATED NORMALLY****
TOTAL RUN TIME: 0 days 0 hours 0 minutes 4 seconds 174 msec
