                         Program Version 3.0.3 - RELEASE   -
|  1> ! RI PBE def2-SVP def2-SVP/J NBO PAL2
|  2> % maxcore 2000
|  3> % output
|  4>     # printlevel mini
|  5>     print[ P_Basis ] 0
|  6>     print[ P_SCFInfo ] 1
|  7>     print[ P_SCFIterInfo ] 1
|  8>     print[ P_OrbEn ] 0
|  9>     print[ P_Cartesian ] 0
| 10> end
| 11> *xyz 0 1
| 12>  C        1.3193890000    -0.1476200000     1.2238890000
| 13>  C        2.1110250000    -0.1814100000     0.1619560000
| 14>  C        3.3242540000     0.6763690000    -0.0046030000
| 15>  N        4.5147400000    -0.1131790000    -0.2114210000
| 16>  C        5.4549800000     0.1577990000    -1.1601230000
| 17>  N        6.5904080000    -0.3796550000    -1.3469620000
| 18>  H        0.4459110000    -0.7838910000     1.3036060000
| 19>  H        1.5148560000     0.5271950000     2.0520570000
| 20>  H        1.9051240000    -0.8717790000    -0.6530110000
| 21>  H        3.4237610000     1.3449200000     0.8606390000
| 22>  H        3.2071150000     1.3149310000    -0.8865700000
| 23>  H        4.7445970000    -0.7913150000     0.4975330000
| 24>  H        5.1385320000     0.9464780000    -1.8482540000
| 25>  H        6.7905180000    -1.0988420000    -0.6511460000
| 26> *
| 27>
| 28>                          ****END OF INPUT****
 Total Charge           Charge          ....    0
 Multiplicity           Mult            ....    1
 Number of Electrons    NEL             ....   46
 Basis Dimension        Dim             ....  124

MULLIKEN ATOMIC CHARGES
-----------------------
   0 C :   -0.029818
   1 C :   -0.113345
   2 C :    0.178756
   3 N :   -0.153541
   4 C :   -0.034063
   5 N :   -0.147267
   6 H :    0.032737
   7 H :    0.025369
   8 H :    0.013327
   9 H :    0.015076
  10 H :    0.033017
  11 H :    0.102981
  12 H :    0.010234
  13 H :    0.066536
Sum of atomic charges:   -0.0000000

LOEWDIN ATOMIC CHARGES
----------------------
   0 C :   -0.054645
   1 C :   -0.046929
   2 C :    0.026902
   3 N :   -0.018169
   4 C :    0.008473
   5 N :   -0.175648
   6 H :    0.028686
   7 H :    0.023984
   8 H :    0.028865
   9 H :    0.021242
  10 H :    0.039423
  11 H :    0.066884
  12 H :    0.013764
  13 H :    0.037167

  Mayer bond orders larger than 0.1
B(  0-C ,  1-C ) :   1.9915 B(  0-C ,  6-H ) :   0.9444 B(  0-C ,  7-H ) :   0.9478
B(  1-C ,  2-C ) :   1.0641 B(  1-C ,  8-H ) :   0.9589 B(  2-C ,  3-N ) :   0.9870
B(  2-C ,  9-H ) :   0.9281 B(  2-C , 10-H ) :   0.9111 B(  3-N ,  4-C ) :   1.1743
B(  3-N ,  5-N ) :   0.1140 B(  3-N , 11-H ) :   0.9335 B(  4-C ,  5-N ) :   1.9859
B(  4-C , 12-H ) :   0.9317 B(  5-N , 13-H ) :   0.9419

FINAL SINGLE POINT ENERGY      -266.165124221213

DIPOLE MOMENT
-------------
                                X             Y             Z
Electronic contribution:      2.89227      -0.60287      -1.40800
Nuclear contribution   :     -3.89735       0.57041       2.27685
                        -----------------------------------------
Total Dipole Moment    :     -1.00508      -0.03246       0.86885
                        -----------------------------------------
Magnitude (a.u.)       :      1.32896
Magnitude (Debye)      :      3.37794

                             ****ORCA TERMINATED NORMALLY****
TOTAL RUN TIME: 0 days 0 hours 0 minutes 5 seconds 925 msec
