                         Program Version 3.0.3 - RELEASE   -
|  1> ! RI PBE def2-SVP def2-SVP/J NBO PAL2
|  2> % maxcore 2000
|  3> % output
|  4>     # printlevel mini
|  5>     print[ P_Basis ] 0
|  6>     print[ P_SCFInfo ] 1
|  7>     print[ P_SCFIterInfo ] 1
|  8>     print[ P_OrbEn ] 0
|  9>     print[ P_Cartesian ] 0
| 10> end
| 11> *xyz 0 1
| 12>  C        0.7794970000     0.0837850000     0.1037440000
| 13>  C        2.2516270000     0.1704220000    -0.1058680000
| 14>  C        3.1190960000     0.5043620000     0.8474810000
| 15>  N        4.4892770000     0.5923860000     0.6800730000
| 16>  C        5.4073150000     0.9334460000     1.6433540000
| 17>  N        5.2434120000     1.2372990000     2.8629790000
| 18>  H        0.4023010000    -0.9212140000    -0.1116280000
| 19>  H        0.2394540000     0.7706670000    -0.5559780000
| 20>  H        0.5100400000     0.3282900000     1.1334460000
| 21>  H        2.6250940000    -0.0556500000    -1.1033630000
| 22>  H        2.7697290000     0.7335720000     1.8481310000
| 23>  H        4.8540810000     0.3876240000    -0.2348590000
| 24>  H        6.4244300000     0.9276670000     1.2470940000
| 25>  H        4.2668480000     1.2180450000     3.1491940000
| 26> *
| 27>
| 28>                          ****END OF INPUT****
 Total Charge           Charge          ....    0
 Multiplicity           Mult            ....    1
 Number of Electrons    NEL             ....   46
 Basis Dimension        Dim             ....  124

MULLIKEN ATOMIC CHARGES
-----------------------
   0 C :    0.032093
   1 C :   -0.137081
   2 C :    0.061328
   3 N :   -0.054190
   4 C :   -0.013229
   5 N :   -0.144988
   6 H :    0.031595
   7 H :    0.034960
   8 H :    0.017759
   9 H :   -0.012296
  10 H :   -0.013482
  11 H :    0.113590
  12 H :    0.008642
  13 H :    0.075298
Sum of atomic charges:   -0.0000000

LOEWDIN ATOMIC CHARGES
----------------------
   0 C :   -0.059963
   1 C :   -0.089589
   2 C :   -0.006032
   3 N :    0.024379
   4 C :    0.014208
   5 N :   -0.157063
   6 H :    0.034012
   7 H :    0.035024
   8 H :    0.030913
   9 H :    0.019417
  10 H :    0.019542
  11 H :    0.082495
  12 H :    0.014742
  13 H :    0.037916

  Mayer bond orders larger than 0.1
B(  0-C ,  1-C ) :   1.0985 B(  0-C ,  6-H ) :   0.9494 B(  0-C ,  7-H ) :   0.9486
B(  0-C ,  8-H ) :   0.9626 B(  1-C ,  2-C ) :   1.8262 B(  1-C ,  9-H ) :   0.9578
B(  2-C ,  3-N ) :   1.1172 B(  2-C , 10-H ) :   0.9362 B(  3-N ,  4-C ) :   1.1279
B(  3-N , 11-H ) :   0.9225 B(  4-C ,  5-N ) :   1.9995 B(  4-C , 12-H ) :   0.9431
B(  5-N , 13-H ) :   0.9561

FINAL SINGLE POINT ENERGY      -266.180390681132

DIPOLE MOMENT
-------------
                                X             Y             Z
Electronic contribution:      5.24140       0.89828       1.49711
Nuclear contribution   :     -5.79444      -1.22148      -2.52959
                        -----------------------------------------
Total Dipole Moment    :     -0.55304      -0.32320      -1.03248
                        -----------------------------------------
Magnitude (a.u.)       :      1.21504
Magnitude (Debye)      :      3.08840

                             ****ORCA TERMINATED NORMALLY****
TOTAL RUN TIME: 0 days 0 hours 0 minutes 5 seconds 894 msec
