                         Program Version 3.0.3 - RELEASE   -
|  1> ! RI PBE def2-SVP def2-SVP/J NBO PAL2
|  2> % maxcore 2000
|  3> % output
|  4>     # printlevel mini
|  5>     print[ P_Basis ] 0
|  6>     print[ P_SCFInfo ] 1
|  7>     print[ P_SCFIterInfo ] 1
|  8>     print[ P_OrbEn ] 0
|  9>     print[ P_Cartesian ] 0
| 10> end
| 11> *xyz 0 1
| 12>  C        0.6119650000     0.2463170000     0.4524080000
| 13>  C        2.0482810000     0.2920460000     0.0354310000
| 14>  C        2.8669170000     1.2817760000     0.4005490000
| 15>  N        2.4146340000    -0.7864240000    -0.7674180000
| 16>  C        3.6490900000    -1.3810650000    -0.9251590000
| 17>  N        4.7558170000    -1.1459600000    -0.3591330000
| 18>  H        0.3426060000     1.1378200000     1.0161750000
| 19>  H        0.4123410000    -0.6346630000     1.0697660000
| 20>  H       -0.0449690000     0.1898140000    -0.4225490000
| 21>  H        2.4925150000     2.0674180000     1.0422760000
| 22>  H        3.8859500000     1.3682900000     0.0521000000
| 23>  H        1.6520080000    -1.2788170000    -1.2012900000
| 24>  H        3.6042290000    -2.1873460000    -1.6609890000
| 25>  H        4.6801360000    -0.4016170000     0.3295440000
| 26> *
| 27>
| 28>                          ****END OF INPUT****
 Total Charge           Charge          ....    0
 Multiplicity           Mult            ....    1
 Number of Electrons    NEL             ....   46
 Basis Dimension        Dim             ....  124

MULLIKEN ATOMIC CHARGES
-----------------------
   0 C :    0.030835
   1 C :   -0.086665
   2 C :   -0.079139
   3 N :   -0.054149
   4 C :   -0.021579
   5 N :   -0.132421
   6 H :    0.027269
   7 H :    0.045399
   8 H :    0.036661
   9 H :    0.011466
  10 H :    0.023384
  11 H :    0.108941
  12 H :    0.012460
  13 H :    0.077538
Sum of atomic charges:   -0.0000000

LOEWDIN ATOMIC CHARGES
----------------------
   0 C :   -0.060986
   1 C :   -0.000285
   2 C :   -0.123610
   3 N :    0.016776
   4 C :    0.017445
   5 N :   -0.144009
   6 H :    0.039671
   7 H :    0.038569
   8 H :    0.035979
   9 H :    0.026604
  10 H :    0.022289
  11 H :    0.078407
  12 H :    0.014027
  13 H :    0.039122

  Mayer bond orders larger than 0.1
B(  0-C ,  1-C ) :   1.0831 B(  0-C ,  6-H ) :   0.9475 B(  0-C ,  7-H ) :   0.9484
B(  0-C ,  8-H ) :   0.9446 B(  1-C ,  2-C ) :   1.8940 B(  1-C ,  3-N ) :   1.0997
B(  2-C ,  9-H ) :   0.9205 B(  2-C , 10-H ) :   0.9359 B(  3-N ,  4-C ) :   1.1177
B(  3-N , 11-H ) :   0.9188 B(  4-C ,  5-N ) :   2.0153 B(  4-C , 12-H ) :   0.9412
B(  5-N , 13-H ) :   0.9476

FINAL SINGLE POINT ENERGY      -266.177941096150

DIPOLE MOMENT
-------------
                                X             Y             Z
Electronic contribution:      2.93298      -2.05631      -1.69862
Nuclear contribution   :     -4.34371       2.15788       1.63404
                        -----------------------------------------
Total Dipole Moment    :     -1.41072       0.10157      -0.06458
                        -----------------------------------------
Magnitude (a.u.)       :      1.41585
Magnitude (Debye)      :      3.59880

                             ****ORCA TERMINATED NORMALLY****
TOTAL RUN TIME: 0 days 0 hours 0 minutes 6 seconds 97 msec
