                         Program Version 3.0.3 - RELEASE   -
|  1> ! RI PBE def2-SVP def2-SVP/J NBO PAL2
|  2> % maxcore 2000
|  3> % output
|  4>     # printlevel mini
|  5>     print[ P_Basis ] 0
|  6>     print[ P_SCFInfo ] 1
|  7>     print[ P_SCFIterInfo ] 1
|  8>     print[ P_OrbEn ] 0
|  9>     print[ P_Cartesian ] 0
| 10> end
| 11> *xyz 0 1
| 12>  C        0.9843370000    -0.2016270000     0.0053280000
| 13>  C        2.4776720000    -0.0582910000    -0.0141740000
| 14>  C        3.1499420000     1.1028430000    -0.1720930000
| 15>  N        2.6190530000     2.3352190000    -0.3397140000
| 16>  C        3.2442290000    -1.2397750000     0.1464990000
| 17>  N        3.8360900000    -2.2230280000     0.2802170000
| 18>  H        0.4780110000     0.7563480000    -0.1249540000
| 19>  H        0.6412480000    -0.6273390000     0.9519060000
| 20>  H        0.6412390000    -0.8646660000    -0.7931800000
| 21>  H        4.2340450000     1.0784690000    -0.1687870000
| 22>  H        1.6285230000     2.4862240000    -0.3601440000
| 23>  H        3.2140130000     3.1323130000    -0.4479940000
| 24> *
| 25>
| 26>                          ****END OF INPUT****
 Total Charge           Charge          ....    0
 Multiplicity           Mult            ....    1
 Number of Electrons    NEL             ....   44
 Basis Dimension        Dim             ....  114

MULLIKEN ATOMIC CHARGES
-----------------------
   0 C :    0.096718
   1 C :   -0.271212
   2 C :    0.041592
   3 N :   -0.058060
   4 C :   -0.160276
   5 N :    0.015767
   6 H :   -0.010098
   7 H :    0.044432
   8 H :    0.047175
   9 H :    0.016835
  10 H :    0.109325
  11 H :    0.127803
Sum of atomic charges:    0.0000000

LOEWDIN ATOMIC CHARGES
----------------------
   0 C :   -0.044048
   1 C :   -0.163143
   2 C :    0.032079
   3 N :    0.028504
   4 C :   -0.051067
   5 N :   -0.099344
   6 H :    0.022268
   7 H :    0.042074
   8 H :    0.042472
   9 H :    0.039370
  10 H :    0.071208
  11 H :    0.079626

  Mayer bond orders larger than 0.1
B(  0-C ,  1-C ) :   1.0833 B(  0-C ,  6-H ) :   0.9400 B(  0-C ,  7-H ) :   0.9475
B(  0-C ,  8-H ) :   0.9477 B(  1-C ,  2-C ) :   1.6585 B(  1-C ,  4-C ) :   1.1767
B(  2-C ,  3-N ) :   1.3016 B(  2-C ,  9-H ) :   0.9416 B(  3-N , 10-H ) :   0.9560
B(  3-N , 11-H ) :   0.9550 B(  4-C ,  5-N ) :   2.9577

FINAL SINGLE POINT ENERGY      -264.985225792324

DIPOLE MOMENT
-------------
                                X             Y             Z
Electronic contribution:      4.03025      -3.02622       0.41038
Nuclear contribution   :     -4.89074       5.40012      -0.73420
                        -----------------------------------------
Total Dipole Moment    :     -0.86049       2.37390      -0.32383
                        -----------------------------------------
Magnitude (a.u.)       :      2.54572
Magnitude (Debye)      :      6.47070

                             ****ORCA TERMINATED NORMALLY****
TOTAL RUN TIME: 0 days 0 hours 0 minutes 5 seconds 40 msec
