                         Program Version 3.0.3 - RELEASE   -
|  1> ! RI PBE def2-SVP def2-SVP/J NBO PAL2
|  2> % maxcore 2000
|  3> % output
|  4>     # printlevel mini
|  5>     print[ P_Basis ] 0
|  6>     print[ P_SCFInfo ] 1
|  7>     print[ P_SCFIterInfo ] 1
|  8>     print[ P_OrbEn ] 0
|  9>     print[ P_Cartesian ] 0
| 10> end
| 11> *xyz 0 1
| 12>  C        1.0294200000     0.0526440000    -0.0531670000
| 13>  C        2.5494320000     0.1161870000    -0.1035700000
| 14>  C        2.9906770000     1.1761440000    -1.1168900000
| 15>  N        3.0489500000     0.3810390000     1.2416990000
| 16>  C        3.0897620000    -1.2584040000    -0.5081740000
| 17>  N        4.5459450000    -1.2841220000    -0.5207640000
| 18>  H        0.6157210000     1.0126170000     0.2684710000
| 19>  H        0.7056180000    -0.7073520000     0.6608320000
| 20>  H        0.6076040000    -0.1798240000    -1.0347520000
| 21>  H        2.5900900000     2.1551770000    -0.8385870000
| 22>  H        2.6355420000     0.9479500000    -2.1271470000
| 23>  H        4.0800220000     1.2609860000    -1.1419540000
| 24>  H        2.8661330000     1.3421860000     1.5057980000
| 25>  H        4.0555970000     0.2476670000     1.2363340000
| 26>  H        2.6384200000    -1.5462230000    -1.4690390000
| 27>  H        2.7467480000    -1.9752450000     0.2422620000
| 28>  H        4.9142320000    -0.9384070000    -1.3969120000
| 29>  H        4.8923770000    -2.2258290000    -0.4029210000
| 30> *
| 31>
| 32>                          ****END OF INPUT****
 Total Charge           Charge          ....    0
 Multiplicity           Mult            ....    1
 Number of Electrons    NEL             ....   50
 Basis Dimension        Dim             ....  144

MULLIKEN ATOMIC CHARGES
-----------------------
   0 C :    0.098140
   1 C :   -0.263134
   2 C :    0.052761
   3 N :   -0.151955
   4 C :    0.093249
   5 N :   -0.192336
   6 H :    0.001916
   7 H :    0.014554
   8 H :    0.000043
   9 H :    0.004488
  10 H :   -0.000434
  11 H :    0.010179
  12 H :    0.073739
  13 H :    0.079388
  14 H :   -0.011488
  15 H :    0.006128
  16 H :    0.090035
  17 H :    0.094730
Sum of atomic charges:   -0.0000000

LOEWDIN ATOMIC CHARGES
----------------------
   0 C :   -0.051939
   1 C :   -0.038466
   2 C :   -0.071834
   3 N :   -0.090508
   4 C :    0.010030
   5 N :   -0.097875
   6 H :    0.022034
   7 H :    0.025389
   8 H :    0.019961
   9 H :    0.021130
  10 H :    0.020176
  11 H :    0.019086
  12 H :    0.043692
  13 H :    0.038594
  14 H :    0.001062
  15 H :    0.022307
  16 H :    0.051054
  17 H :    0.056107

  Mayer bond orders larger than 0.1
B(  0-C ,  1-C ) :   1.0576 B(  0-C ,  6-H ) :   0.9528 B(  0-C ,  7-H ) :   0.9522
B(  0-C ,  8-H ) :   0.9518 B(  1-C ,  2-C ) :   1.0341 B(  1-C ,  3-N ) :   1.0500
B(  1-C ,  4-C ) :   1.0026 B(  2-C ,  9-H ) :   0.9533 B(  2-C , 10-H ) :   0.9469
B(  2-C , 11-H ) :   0.9535 B(  3-N , 12-H ) :   0.9655 B(  3-N , 13-H ) :   0.9466
B(  4-C ,  5-N ) :   1.1295 B(  4-C , 14-H ) :   0.9354 B(  4-C , 15-H ) :   0.9287
B(  5-N , 16-H ) :   0.9649 B(  5-N , 17-H ) :   0.9655

FINAL SINGLE POINT ENERGY      -268.588401895242

DIPOLE MOMENT
-------------
                                X             Y             Z
Electronic contribution:      1.69261      -1.07246       1.59417
Nuclear contribution   :     -1.39926       0.98846      -2.19111
                        -----------------------------------------
Total Dipole Moment    :      0.29335      -0.08400      -0.59694
                        -----------------------------------------
Magnitude (a.u.)       :      0.67041
Magnitude (Debye)      :      1.70405

                             ****ORCA TERMINATED NORMALLY****
TOTAL RUN TIME: 0 days 0 hours 0 minutes 6 seconds 966 msec
