                         Program Version 3.0.3 - RELEASE   -
|  1> ! RI PBE def2-SVP def2-SVP/J NBO PAL2
|  2> % maxcore 2000
|  3> % output
|  4>     # printlevel mini
|  5>     print[ P_Basis ] 0
|  6>     print[ P_SCFInfo ] 1
|  7>     print[ P_SCFIterInfo ] 1
|  8>     print[ P_OrbEn ] 0
|  9>     print[ P_Cartesian ] 0
| 10> end
| 11> *xyz 0 1
| 12>  C        0.9402910000    -0.3894750000     0.7047000000
| 13>  C        2.3057090000    -0.1964760000     0.0587410000
| 14>  C        2.8834090000    -1.5162170000    -0.4346160000
| 15>  N        2.2474900000     0.7811570000    -1.0075040000
| 16>  C        2.9243480000     1.9606460000    -1.0179360000
| 17>  N        2.9400730000     2.8785350000    -1.8979730000
| 18>  H        0.9971340000    -1.0995830000     1.5329720000
| 19>  H        0.2234680000    -0.7845800000    -0.0218830000
| 20>  H        0.5515720000     0.5570970000     1.0841290000
| 21>  H        2.9869200000     0.2215090000     0.8071860000
| 22>  H        2.2400550000    -1.9538870000    -1.2042970000
| 23>  H        2.9604760000    -2.2381000000     0.3817550000
| 24>  H        3.8757260000    -1.3704580000    -0.8648800000
| 25>  H        1.6608630000     0.5707550000    -1.8001240000
| 26>  H        3.5321680000     2.1013550000    -0.1198420000
| 27>  H        2.3421080000     2.6506220000    -2.6930080000
| 28> *
| 29>
| 30>                          ****END OF INPUT****
 Total Charge           Charge          ....    0
 Multiplicity           Mult            ....    1
 Number of Electrons    NEL             ....   48
 Basis Dimension        Dim             ....  134

MULLIKEN ATOMIC CHARGES
-----------------------
   0 C :    0.015195
   1 C :   -0.053473
   2 C :    0.014486
   3 N :   -0.120803
   4 C :   -0.037549
   5 N :   -0.152741
   6 H :    0.027180
   7 H :    0.015125
   8 H :    0.027058
   9 H :    0.023487
  10 H :    0.016922
  11 H :    0.027147
  12 H :    0.027897
  13 H :    0.095800
  14 H :    0.008863
  15 H :    0.065406
Sum of atomic charges:   -0.0000000

LOEWDIN ATOMIC CHARGES
----------------------
   0 C :   -0.068059
   1 C :    0.011153
   2 C :   -0.068584
   3 N :   -0.007830
   4 C :    0.006695
   5 N :   -0.184480
   6 H :    0.030521
   7 H :    0.024511
   8 H :    0.029517
   9 H :    0.030072
  10 H :    0.024633
  11 H :    0.030656
  12 H :    0.029855
  13 H :    0.063086
  14 H :    0.012891
  15 H :    0.035364

  Mayer bond orders larger than 0.1
B(  0-C ,  1-C ) :   1.0896 B(  0-C ,  6-H ) :   0.9572 B(  0-C ,  7-H ) :   0.9561
B(  0-C ,  8-H ) :   0.9581 B(  1-C ,  2-C ) :   1.0912 B(  1-C ,  3-N ) :   0.9869
B(  1-C ,  9-H ) :   0.9088 B(  2-C , 10-H ) :   0.9555 B(  2-C , 11-H ) :   0.9568
B(  2-C , 12-H ) :   0.9570 B(  3-N ,  4-C ) :   1.1841 B(  3-N ,  5-N ) :   0.1186
B(  3-N , 13-H ) :   0.9303 B(  4-C ,  5-N ) :   1.9786 B(  4-C , 14-H ) :   0.9307
B(  5-N , 15-H ) :   0.9435

FINAL SINGLE POINT ENERGY      -267.392756543834

DIPOLE MOMENT
-------------
                                X             Y             Z
Electronic contribution:      1.46042       5.17851      -2.63040
Nuclear contribution   :     -2.05231      -6.49843       2.92399
                        -----------------------------------------
Total Dipole Moment    :     -0.59189      -1.31992       0.29359
                        -----------------------------------------
Magnitude (a.u.)       :      1.47605
Magnitude (Debye)      :      3.75182

                             ****ORCA TERMINATED NORMALLY****
TOTAL RUN TIME: 0 days 0 hours 0 minutes 6 seconds 724 msec
