                         Program Version 3.0.3 - RELEASE   -
|  1> ! RI PBE def2-SVP def2-SVP/J NBO PAL2
|  2> % maxcore 2000
|  3> % output
|  4>     # printlevel mini
|  5>     print[ P_Basis ] 0
|  6>     print[ P_SCFInfo ] 1
|  7>     print[ P_SCFIterInfo ] 1
|  8>     print[ P_OrbEn ] 0
|  9>     print[ P_Cartesian ] 0
| 10> end
| 11> *xyz 0 1
| 12>  C        0.8900580000     0.0425560000     0.0404040000
| 13>  C        2.4254570000     0.0086520000     0.0578620000
| 14>  C        2.9439090000     0.0514350000     1.4258560000
| 15>  N        3.3182210000     0.1145800000     2.5094460000
| 16>  C        2.9402820000    -1.1623590000    -0.6534110000
| 17>  N        3.3124330000    -2.0755320000    -1.2415710000
| 18>  H        0.5396900000     0.9429350000     0.5443170000
| 19>  H        0.4841210000    -0.8301030000     0.5505740000
| 20>  H        0.5374260000     0.0467110000    -0.9906150000
| 21>  H        2.8133130000     0.8941250000    -0.4597630000
| 22> *
| 23>
| 24>                          ****END OF INPUT****
 Total Charge           Charge          ....    0
 Multiplicity           Mult            ....    1
 Number of Electrons    NEL             ....   42
 Basis Dimension        Dim             ....  104

MULLIKEN ATOMIC CHARGES
-----------------------
   0 C :    0.016402
   1 C :   -0.025737
   2 C :   -0.210143
   3 N :    0.081800
   4 C :   -0.215952
   5 N :    0.081926
   6 H :    0.058989
   7 H :    0.067063
   8 H :    0.058449
   9 H :    0.087204
Sum of atomic charges:   -0.0000000

LOEWDIN ATOMIC CHARGES
----------------------
   0 C :   -0.019908
   1 C :   -0.072481
   2 C :   -0.030609
   3 N :   -0.032159
   4 C :   -0.030854
   5 N :   -0.031812
   6 H :    0.043757
   7 H :    0.045573
   8 H :    0.043415
   9 H :    0.085078

  Mayer bond orders larger than 0.1
B(  0-C ,  1-C ) :   1.1046 B(  0-C ,  6-H ) :   0.9594 B(  0-C ,  7-H ) :   0.9571
B(  0-C ,  8-H ) :   0.9607 B(  1-C ,  2-C ) :   1.0390 B(  1-C ,  4-C ) :   1.0416
B(  1-C ,  9-H ) :   0.8483 B(  2-C ,  3-N ) :   3.0787 B(  4-C ,  5-N ) :   3.0793

FINAL SINGLE POINT ENERGY      -263.765551196969

DIPOLE MOMENT
-------------
                                X             Y             Z
Electronic contribution:      4.56150      -1.82450       1.05678
Nuclear contribution   :     -5.62385       2.81674      -1.63572
                        -----------------------------------------
Total Dipole Moment    :     -1.06235       0.99224      -0.57894
                        -----------------------------------------
Magnitude (a.u.)       :      1.56471
Magnitude (Debye)      :      3.97717

                             ****ORCA TERMINATED NORMALLY****
TOTAL RUN TIME: 0 days 0 hours 0 minutes 4 seconds 246 msec
