                         Program Version 3.0.3 - RELEASE   -
|  1> ! RI PBE def2-SVP def2-SVP/J NBO PAL2
|  2> % maxcore 2000
|  3> % output
|  4>     # printlevel mini
|  5>     print[ P_Basis ] 0
|  6>     print[ P_SCFInfo ] 1
|  7>     print[ P_SCFIterInfo ] 1
|  8>     print[ P_OrbEn ] 0
|  9>     print[ P_Cartesian ] 0
| 10> end
| 11> *xyz 0 1
| 12>  C        1.0138290000     0.0534170000     0.1531140000
| 13>  C        2.4888380000     0.1232110000    -0.2079220000
| 14>  C        2.7642890000    -0.5265540000    -1.5590260000
| 15>  N        2.5232790000    -1.9650730000    -1.5098600000
| 16>  C        2.9924800000     1.5615390000    -0.1769810000
| 17>  N        4.4443560000     1.6281430000    -0.2718550000
| 18>  H        0.6487080000    -0.9700910000     0.0594460000
| 19>  H        0.4231800000     0.6835690000    -0.5205080000
| 20>  H        0.8325710000     0.3977870000     1.1747360000
| 21>  H        3.0562290000    -0.4390130000     0.5500460000
| 22>  H        3.7802770000    -0.2574750000    -1.8742750000
| 23>  H        2.0727780000    -0.0969850000    -2.2939680000
| 24>  H        3.2486490000    -2.4173440000    -0.9652680000
| 25>  H        2.5728850000    -2.3629100000    -2.4391890000
| 26>  H        2.5899860000     2.0532870000     0.7224500000
| 27>  H        2.5735130000     2.0995040000    -1.0357800000
| 28>  H        4.8669780000     1.2777070000     0.5795600000
| 29>  H        4.7537660000     2.5853810000    -0.3798010000
| 30> *
| 31>
| 32>                          ****END OF INPUT****
 Total Charge           Charge          ....    0
 Multiplicity           Mult            ....    1
 Number of Electrons    NEL             ....   50
 Basis Dimension        Dim             ....  144

MULLIKEN ATOMIC CHARGES
-----------------------
   0 C :    0.038282
   1 C :   -0.148615
   2 C :    0.085561
   3 N :   -0.197263
   4 C :    0.082949
   5 N :   -0.192931
   6 H :    0.021268
   7 H :    0.003695
   8 H :    0.005224
   9 H :   -0.012362
  10 H :   -0.004416
  11 H :   -0.009534
  12 H :    0.084554
  13 H :    0.085186
  14 H :   -0.011295
  15 H :   -0.001914
  16 H :    0.084701
  17 H :    0.086911
Sum of atomic charges:    0.0000000

LOEWDIN ATOMIC CHARGES
----------------------
   0 C :   -0.058858
   1 C :   -0.059556
   2 C :    0.008124
   3 N :   -0.110210
   4 C :    0.009475
   5 N :   -0.106177
   6 H :    0.025888
   7 H :    0.021433
   8 H :    0.019544
   9 H :    0.017099
  10 H :   -0.001295
  11 H :    0.015682
  12 H :    0.048659
  13 H :    0.051292
  14 H :   -0.001201
  15 H :    0.018859
  16 H :    0.049111
  17 H :    0.052132

  Mayer bond orders larger than 0.1
B(  0-C ,  1-C ) :   1.0802 B(  0-C ,  6-H ) :   0.9502 B(  0-C ,  7-H ) :   0.9582
B(  0-C ,  8-H ) :   0.9569 B(  1-C ,  2-C ) :   1.0499 B(  1-C ,  4-C ) :   1.0433
B(  1-C ,  9-H ) :   0.9085 B(  2-C ,  3-N ) :   1.0974 B(  2-C , 10-H ) :   0.9279
B(  2-C , 11-H ) :   0.9270 B(  3-N , 12-H ) :   0.9701 B(  3-N , 13-H ) :   0.9651
B(  4-C ,  5-N ) :   1.0963 B(  4-C , 14-H ) :   0.9352 B(  4-C , 15-H ) :   0.9256
B(  5-N , 16-H ) :   0.9684 B(  5-N , 17-H ) :   0.9651

FINAL SINGLE POINT ENERGY      -268.580959077973

DIPOLE MOMENT
-------------
                                X             Y             Z
Electronic contribution:      1.71298      -0.53377      -0.57986
Nuclear contribution   :     -1.22645       0.80764       0.73225
                        -----------------------------------------
Total Dipole Moment    :      0.48653       0.27387       0.15239
                        -----------------------------------------
Magnitude (a.u.)       :      0.57874
Magnitude (Debye)      :      1.47103

                             ****ORCA TERMINATED NORMALLY****
TOTAL RUN TIME: 0 days 0 hours 0 minutes 6 seconds 809 msec
