                         Program Version 3.0.3 - RELEASE   -
|  1> ! RI PBE def2-SVP def2-SVP/J NBO PAL2
|  2> % maxcore 2000
|  3> % output
|  4>     # printlevel mini
|  5>     print[ P_Basis ] 0
|  6>     print[ P_SCFInfo ] 1
|  7>     print[ P_SCFIterInfo ] 1
|  8>     print[ P_OrbEn ] 0
|  9>     print[ P_Cartesian ] 0
| 10> end
| 11> *xyz 0 1
| 12>  C        1.4558170000    -0.2057880000    -0.2007140000
| 13>  C        2.0093170000     1.1522410000     0.2039480000
| 14>  C        3.3162870000     1.1374750000     1.0069050000
| 15>  N        3.5411760000     2.3616220000     1.7713350000
| 16>  C        4.5698780000     0.9189030000     0.1645020000
| 17>  N        4.5825550000    -0.3635280000    -0.5236960000
| 18>  H        2.1375930000    -0.7244510000    -0.8733920000
| 19>  H        0.4880830000    -0.0969440000    -0.6971310000
| 20>  H        1.3017920000    -0.8389040000     0.6790720000
| 21>  H        2.1522000000     1.7791540000    -0.6857510000
| 22>  H        1.2607500000     1.6669260000     0.8181600000
| 23>  H        3.2574230000     0.3190230000     1.7392310000
| 24>  H        2.7493660000     2.5435680000     2.3764090000
| 25>  H        3.6016390000     3.1532020000     1.1387080000
| 26>  H        5.4326540000     1.0783890000     0.8259770000
| 27>  H        4.6062820000     1.7068800000    -0.5984610000
| 28>  H        4.6666650000    -1.1183600000     0.1473810000
| 29>  H        5.3898030000    -0.4258290000    -1.1307830000
| 30> *
| 31>
| 32>                          ****END OF INPUT****
 Total Charge           Charge          ....    0
 Multiplicity           Mult            ....    1
 Number of Electrons    NEL             ....   50
 Basis Dimension        Dim             ....  144

MULLIKEN ATOMIC CHARGES
-----------------------
   0 C :   -0.016149
   1 C :    0.007958
   2 C :   -0.064326
   3 N :   -0.178854
   4 C :    0.089717
   5 N :   -0.190989
   6 H :    0.028412
   7 H :    0.008879
   8 H :    0.005081
   9 H :   -0.007450
  10 H :   -0.010268
  11 H :   -0.007701
  12 H :    0.082490
  13 H :    0.082754
  14 H :   -0.000205
  15 H :   -0.010303
  16 H :    0.090431
  17 H :    0.090523
Sum of atomic charges:   -0.0000000

LOEWDIN ATOMIC CHARGES
----------------------
   0 C :   -0.075075
   1 C :   -0.057383
   2 C :   -0.008186
   3 N :   -0.094007
   4 C :    0.002509
   5 N :   -0.098710
   6 H :    0.020948
   7 H :    0.022646
   8 H :    0.019633
   9 H :    0.019404
  10 H :    0.014605
  11 H :    0.016252
  12 H :    0.047999
  13 H :    0.047904
  14 H :    0.000712
  15 H :    0.014939
  16 H :    0.051536
  17 H :    0.054274

  Mayer bond orders larger than 0.1
B(  0-C ,  1-C ) :   1.1124 B(  0-C ,  6-H ) :   0.9500 B(  0-C ,  7-H ) :   0.9514
B(  0-C ,  8-H ) :   0.9597 B(  1-C ,  2-C ) :   1.0336 B(  1-C ,  9-H ) :   0.9171
B(  1-C , 10-H ) :   0.9380 B(  2-C ,  3-N ) :   1.0866 B(  2-C ,  4-C ) :   1.0549
B(  2-C , 11-H ) :   0.9080 B(  3-N , 12-H ) :   0.9661 B(  3-N , 13-H ) :   0.9712
B(  4-C ,  5-N ) :   1.1080 B(  4-C , 14-H ) :   0.9332 B(  4-C , 15-H ) :   0.9157
B(  5-N , 16-H ) :   0.9652 B(  5-N , 17-H ) :   0.9640

FINAL SINGLE POINT ENERGY      -268.581263427598

DIPOLE MOMENT
-------------
                                X             Y             Z
Electronic contribution:      2.09555       0.89948       0.97408
Nuclear contribution   :     -1.94985      -0.85896      -1.00431
                        -----------------------------------------
Total Dipole Moment    :      0.14569       0.04052      -0.03023
                        -----------------------------------------
Magnitude (a.u.)       :      0.15421
Magnitude (Debye)      :      0.39198

                             ****ORCA TERMINATED NORMALLY****
TOTAL RUN TIME: 0 days 0 hours 0 minutes 6 seconds 828 msec
