                         Program Version 3.0.3 - RELEASE   -
|  1> ! RI PBE def2-SVP def2-SVP/J NBO PAL2
|  2> % maxcore 2000
|  3> % output
|  4>     # printlevel mini
|  5>     print[ P_Basis ] 0
|  6>     print[ P_SCFInfo ] 1
|  7>     print[ P_SCFIterInfo ] 1
|  8>     print[ P_OrbEn ] 0
|  9>     print[ P_Cartesian ] 0
| 10> end
| 11> *xyz 0 1
| 12>  C        1.0048090000    -0.0981950000    -0.2526420000
| 13>  C        2.5116780000     0.0350510000    -0.1223270000
| 14>  C        3.0280880000    -0.5202060000     1.1915420000
| 15>  N        4.4566630000    -0.3813780000     1.2887740000
| 16>  C        5.1789530000    -0.7966530000     2.3630020000
| 17>  N        4.7754010000    -1.3551750000     3.4321580000
| 18>  H        0.6543670000     0.3066090000    -1.2036990000
| 19>  H        0.4896470000     0.4396010000     0.5474130000
| 20>  H        0.6946420000    -1.1450970000    -0.2026350000
| 21>  H        2.7988360000     1.0895330000    -0.2018690000
| 22>  H        3.0031200000    -0.4894300000    -0.9494400000
| 23>  H        2.7472700000    -1.5789860000     1.2779470000
| 24>  H        2.5425150000     0.0028890000     2.0269670000
| 25>  H        4.9459740000     0.0450100000     0.5226850000
| 26>  H        6.2490130000    -0.6050050000     2.2510190000
| 27>  H        3.7651130000    -1.4865770000     3.4335150000
| 28> *
| 29>
| 30>                          ****END OF INPUT****
 Total Charge           Charge          ....    0
 Multiplicity           Mult            ....    1
 Number of Electrons    NEL             ....   48
 Basis Dimension        Dim             ....  134

MULLIKEN ATOMIC CHARGES
-----------------------
   0 C :   -0.015658
   1 C :   -0.101525
   2 C :    0.096253
   3 N :   -0.140104
   4 C :   -0.019480
   5 N :   -0.164488
   6 H :    0.025407
   7 H :    0.026791
   8 H :    0.024932
   9 H :    0.026152
  10 H :    0.023364
  11 H :    0.017310
  12 H :    0.019000
  13 H :    0.110772
  14 H :    0.003735
  15 H :    0.067537
Sum of atomic charges:   -0.0000000

LOEWDIN ATOMIC CHARGES
----------------------
   0 C :   -0.060891
   1 C :   -0.052475
   2 C :    0.017623
   3 N :   -0.021175
   4 C :    0.007266
   5 N :   -0.178234
   6 H :    0.030739
   7 H :    0.028051
   8 H :    0.027493
   9 H :    0.025606
  10 H :    0.025292
  11 H :    0.017222
  12 H :    0.017741
  13 H :    0.069983
  14 H :    0.011774
  15 H :    0.033983

  Mayer bond orders larger than 0.1
B(  0-C ,  1-C ) :   1.1186 B(  0-C ,  6-H ) :   0.9609 B(  0-C ,  7-H ) :   0.9669
B(  0-C ,  8-H ) :   0.9682 B(  1-C ,  2-C ) :   1.0895 B(  1-C ,  9-H ) :   0.9384
B(  1-C , 10-H ) :   0.9360 B(  2-C ,  3-N ) :   1.0123 B(  2-C , 11-H ) :   0.9292
B(  2-C , 12-H ) :   0.9294 B(  3-N ,  4-C ) :   1.1850 B(  3-N ,  5-N ) :   0.1158
B(  3-N , 13-H ) :   0.9310 B(  4-C ,  5-N ) :   1.9772 B(  4-C , 14-H ) :   0.9433
B(  5-N , 15-H ) :   0.9527

FINAL SINGLE POINT ENERGY      -267.390430042207

DIPOLE MOMENT
-------------
                                X             Y             Z
Electronic contribution:      5.69574      -1.06169       3.80342
Nuclear contribution   :     -6.30388       1.61636      -5.13544
                        -----------------------------------------
Total Dipole Moment    :     -0.60813       0.55467      -1.33202
                        -----------------------------------------
Magnitude (a.u.)       :      1.56581
Magnitude (Debye)      :      3.97997

                             ****ORCA TERMINATED NORMALLY****
TOTAL RUN TIME: 0 days 0 hours 0 minutes 6 seconds 645 msec
