                         Program Version 3.0.3 - RELEASE   -
|  1> ! RI PBE def2-SVP def2-SVP/J NBO PAL2
|  2> % maxcore 2000
|  3> % output
|  4>     # printlevel mini
|  5>     print[ P_Basis ] 0
|  6>     print[ P_SCFInfo ] 1
|  7>     print[ P_SCFIterInfo ] 1
|  8>     print[ P_OrbEn ] 0
|  9>     print[ P_Cartesian ] 0
| 10> end
| 11> *xyz 0 1
| 12>  C        0.8637230000    -0.1047810000    -0.4946660000
| 13>  C        2.1635220000    -0.0629830000    -0.2051120000
| 14>  C        2.7152850000    -0.7011850000     0.9675590000
| 15>  N        3.9674780000    -0.6413530000     1.2150510000
| 16>  N        4.2970800000    -1.3146250000     2.3826770000
| 17>  C        5.5383340000    -1.2604940000     2.6369080000
| 18>  H        0.4609960000     0.3774410000    -1.3768000000
| 19>  H        0.1611080000    -0.6263950000     0.1473990000
| 20>  H        2.8681920000     0.4580320000    -0.8456500000
| 21>  H        2.0450040000    -1.2389560000     1.6441770000
| 22>  H        5.8960840000    -1.7589620000     3.5324910000
| 23>  H        6.2401940000    -0.7342370000     1.9875660000
| 24> *
| 25>
| 26>                          ****END OF INPUT****
 Total Charge           Charge          ....    0
 Multiplicity           Mult            ....    1
 Number of Electrons    NEL             ....   44
 Basis Dimension        Dim             ....  114

MULLIKEN ATOMIC CHARGES
-----------------------
   0 C :   -0.011619
   1 C :    0.016478
   2 C :    0.025673
   3 N :   -0.101925
   4 N :   -0.109268
   5 C :    0.031933
   6 H :    0.039233
   7 H :    0.033636
   8 H :    0.012598
   9 H :   -0.009020
  10 H :    0.046594
  11 H :    0.025688
Sum of atomic charges:   -0.0000000

LOEWDIN ATOMIC CHARGES
----------------------
   0 C :   -0.015927
   1 C :   -0.037542
   2 C :    0.015179
   3 N :   -0.055038
   4 N :   -0.044248
   5 C :    0.013836
   6 H :    0.031512
   7 H :    0.028767
   8 H :    0.036429
   9 H :    0.005297
  10 H :    0.020876
  11 H :    0.000858

  Mayer bond orders larger than 0.1
B(  0-C ,  1-C ) :   1.8702 B(  0-C ,  3-N ) :   0.1107 B(  0-C ,  6-H ) :   0.9445
B(  0-C ,  7-H ) :   0.9485 B(  1-C ,  2-C ) :   1.1043 B(  1-C ,  8-H ) :   0.9566
B(  2-C ,  3-N ) :   1.7728 B(  2-C ,  5-C ) :   0.1032 B(  2-C ,  9-H ) :   0.9447
B(  3-N ,  4-N ) :   0.9964 B(  4-N ,  5-C ) :   1.9068 B(  5-C , 10-H ) :   0.9516
B(  5-C , 11-H ) :   0.9249

FINAL SINGLE POINT ENERGY      -264.926719846524

DIPOLE MOMENT
-------------
                                X             Y             Z
Electronic contribution:      1.65772      -0.48980       1.23790
Nuclear contribution   :     -1.85848       0.56684      -1.41623
                        -----------------------------------------
Total Dipole Moment    :     -0.20075       0.07704      -0.17834
                        -----------------------------------------
Magnitude (a.u.)       :      0.27936
Magnitude (Debye)      :      0.71007

                             ****ORCA TERMINATED NORMALLY****
TOTAL RUN TIME: 0 days 0 hours 0 minutes 5 seconds 54 msec
