                         Program Version 3.0.3 - RELEASE   -
|  1> ! RI PBE def2-SVP def2-SVP/J NBO PAL2
|  2> % maxcore 2000
|  3> % output
|  4>     # printlevel mini
|  5>     print[ P_Basis ] 0
|  6>     print[ P_SCFInfo ] 1
|  7>     print[ P_SCFIterInfo ] 1
|  8>     print[ P_OrbEn ] 0
|  9>     print[ P_Cartesian ] 0
| 10> end
| 11> *xyz 0 1
| 12>  C        1.6732120000    -1.2032060000     0.2077470000
| 13>  C        2.4149220000    -0.1259290000    -0.0048850000
| 14>  C        3.0224880000     0.7017620000     1.0781650000
| 15>  N        4.4544300000     0.7985790000     0.8950850000
| 16>  N        5.0597820000     1.7824060000     1.5815470000
| 17>  C        6.2958810000     1.6801720000     1.8527900000
| 18>  H        1.2373730000    -1.7647160000    -0.6103440000
| 19>  H        1.4667930000    -1.5569060000     1.2135020000
| 20>  H        2.6178790000     0.2052700000    -1.0208370000
| 21>  H        2.7485710000     0.2941740000     2.0623400000
| 22>  H        2.6397670000     1.7257770000     1.0338840000
| 23>  H        4.9366080000    -0.0972530000     0.8935240000
| 24>  H        6.7749130000     2.5095840000     2.3583710000
| 25>  H        6.8972700000     0.8043870000     1.5873100000
| 26> *
| 27>
| 28>                          ****END OF INPUT****
 Total Charge           Charge          ....    0
 Multiplicity           Mult            ....    1
 Number of Electrons    NEL             ....   46
 Basis Dimension        Dim             ....  124

MULLIKEN ATOMIC CHARGES
-----------------------
   0 C :   -0.022380
   1 C :   -0.127308
   2 C :    0.224517
   3 N :   -0.157341
   4 N :   -0.079101
   5 C :   -0.063533
   6 H :    0.031481
   7 H :    0.020228
   8 H :    0.012653
   9 H :   -0.002055
  10 H :    0.028371
  11 H :    0.090030
  12 H :    0.042436
  13 H :    0.002002
Sum of atomic charges:   -0.0000000

LOEWDIN ATOMIC CHARGES
----------------------
   0 C :   -0.054534
   1 C :   -0.042609
   2 C :    0.016332
   3 N :    0.004971
   4 N :   -0.025755
   5 C :   -0.081365
   6 H :    0.027429
   7 H :    0.022794
   8 H :    0.028549
   9 H :    0.012394
  10 H :    0.039336
  11 H :    0.043890
  12 H :    0.018549
  13 H :   -0.009981

  Mayer bond orders larger than 0.1
B(  0-C ,  1-C ) :   1.9960 B(  0-C ,  6-H ) :   0.9450 B(  0-C ,  7-H ) :   0.9478
B(  1-C ,  2-C ) :   1.0539 B(  1-C ,  8-H ) :   0.9585 B(  2-C ,  3-N ) :   0.9731
B(  2-C ,  9-H ) :   0.9268 B(  2-C , 10-H ) :   0.9072 B(  3-N ,  4-N ) :   1.0977
B(  3-N ,  5-C ) :   0.1497 B(  3-N , 11-H ) :   0.9197 B(  4-N ,  5-C ) :   1.8844
B(  5-C , 12-H ) :   0.9571 B(  5-C , 13-H ) :   0.9286

FINAL SINGLE POINT ENERGY      -266.128570224820

DIPOLE MOMENT
-------------
                                X             Y             Z
Electronic contribution:      1.37218       1.92050       0.04610
Nuclear contribution   :     -1.37706      -2.54761      -0.07332
                        -----------------------------------------
Total Dipole Moment    :     -0.00488      -0.62711      -0.02721
                        -----------------------------------------
Magnitude (a.u.)       :      0.62772
Magnitude (Debye)      :      1.59554

                             ****ORCA TERMINATED NORMALLY****
TOTAL RUN TIME: 0 days 0 hours 0 minutes 6 seconds 81 msec
