                         Program Version 3.0.3 - RELEASE   -
|  1> ! RI PBE def2-SVP def2-SVP/J NBO PAL2
|  2> % maxcore 2000
|  3> % output
|  4>     # printlevel mini
|  5>     print[ P_Basis ] 0
|  6>     print[ P_SCFInfo ] 1
|  7>     print[ P_SCFIterInfo ] 1
|  8>     print[ P_OrbEn ] 0
|  9>     print[ P_Cartesian ] 0
| 10> end
| 11> *xyz 0 1
| 12>  C        0.9320410000     0.0559190000    -0.0306490000
| 13>  C        2.4021820000     0.1702630000     0.1814380000
| 14>  C        2.8917780000     0.4438660000     1.5711850000
| 15>  N        3.1539550000     0.0262770000    -0.8436370000
| 16>  N        4.5078440000     0.1486360000    -0.5522960000
| 17>  C        5.2350640000     0.0032990000    -1.5791730000
| 18>  H        0.4321480000     0.9783920000     0.2830400000
| 19>  H        0.5218810000    -0.7468180000     0.5911510000
| 20>  H        0.7073370000    -0.1426970000    -1.0773160000
| 21>  H        2.0573690000     0.5250510000     2.2682210000
| 22>  H        3.4743660000     1.3667720000     1.5970840000
| 23>  H        3.5634260000    -0.3499760000     1.9036680000
| 24>  H        6.3116810000     0.0806430000    -1.4591860000
| 25>  H        4.8094190000    -0.1947350000    -2.5652300000
| 26> *
| 27>
| 28>                          ****END OF INPUT****
 Total Charge           Charge          ....    0
 Multiplicity           Mult            ....    1
 Number of Electrons    NEL             ....   46
 Basis Dimension        Dim             ....  124

MULLIKEN ATOMIC CHARGES
-----------------------
   0 C :    0.069191
   1 C :   -0.250783
   2 C :    0.086399
   3 N :   -0.086704
   4 N :   -0.113868
   5 C :    0.022358
   6 H :    0.038959
   7 H :    0.039022
   8 H :    0.026993
   9 H :    0.008522
  10 H :    0.047181
  11 H :    0.049545
  12 H :    0.044290
  13 H :    0.018895
Sum of atomic charges:   -0.0000000

LOEWDIN ATOMIC CHARGES
----------------------
   0 C :   -0.063943
   1 C :   -0.000790
   2 C :   -0.077550
   3 N :   -0.080176
   4 N :   -0.045942
   5 C :    0.005776
   6 H :    0.042449
   7 H :    0.042417
   8 H :    0.034870
   9 H :    0.027600
  10 H :    0.049803
  11 H :    0.049862
  12 H :    0.018300
  13 H :   -0.002674

  Mayer bond orders larger than 0.1
B(  0-C ,  1-C ) :   1.0931 B(  0-C ,  6-H ) :   0.9384 B(  0-C ,  7-H ) :   0.9389
B(  0-C ,  8-H ) :   0.9452 B(  1-C ,  2-C ) :   1.0556 B(  1-C ,  3-N ) :   1.8927
B(  1-C ,  5-C ) :   0.1100 B(  2-C ,  9-H ) :   0.9456 B(  2-C , 10-H ) :   0.9313
B(  2-C , 11-H ) :   0.9332 B(  3-N ,  4-N ) :   1.0023 B(  4-N ,  5-C ) :   1.9295
B(  5-C , 12-H ) :   0.9521 B(  5-C , 13-H ) :   0.9226

FINAL SINGLE POINT ENERGY      -266.150899577766

DIPOLE MOMENT
-------------
                                X             Y             Z
Electronic contribution:      3.08026      -0.30168      -2.58626
Nuclear contribution   :     -3.29229       0.34569       2.89344
                        -----------------------------------------
Total Dipole Moment    :     -0.21203       0.04401       0.30718
                        -----------------------------------------
Magnitude (a.u.)       :      0.37583
Magnitude (Debye)      :      0.95529

                             ****ORCA TERMINATED NORMALLY****
TOTAL RUN TIME: 0 days 0 hours 0 minutes 5 seconds 811 msec
