                         Program Version 3.0.3 - RELEASE   -
|  1> ! RI PBE def2-SVP def2-SVP/J NBO PAL2
|  2> % maxcore 2000
|  3> % output
|  4>     # printlevel mini
|  5>     print[ P_Basis ] 0
|  6>     print[ P_SCFInfo ] 1
|  7>     print[ P_SCFIterInfo ] 1
|  8>     print[ P_OrbEn ] 0
|  9>     print[ P_Cartesian ] 0
| 10> end
| 11> *xyz 0 1
| 12>  C        1.0591810000     0.0434530000     0.1891340000
| 13>  C        2.5500420000    -0.2021660000     0.3201190000
| 14>  C        2.9364320000    -0.6017550000     1.7313990000
| 15>  N        2.9157370000    -1.2537660000    -0.6187750000
| 16>  N        4.2280480000    -1.5186580000    -0.7205220000
| 17>  C        4.6732740000    -2.0671880000    -1.7751940000
| 18>  H        0.7447560000     0.8351440000     0.8710240000
| 19>  H        0.4984540000    -0.8628580000     0.4328370000
| 20>  H        0.7889760000     0.3528830000    -0.8250670000
| 21>  H        3.0824240000     0.7270790000     0.0632400000
| 22>  H        2.3765980000    -1.4880820000     2.0412970000
| 23>  H        2.7186620000     0.2113220000     2.4277540000
| 24>  H        4.0007170000    -0.8310810000     1.7858260000
| 25>  H        2.4193710000    -1.2019710000    -1.5054830000
| 26>  H        5.7272540000    -2.3136450000    -1.8155370000
| 27>  H        4.0402630000    -2.3123010000    -2.6349410000
| 28> *
| 29>
| 30>                          ****END OF INPUT****
 Total Charge           Charge          ....    0
 Multiplicity           Mult            ....    1
 Number of Electrons    NEL             ....   48
 Basis Dimension        Dim             ....  134

MULLIKEN ATOMIC CHARGES
-----------------------
   0 C :   -0.009172
   1 C :   -0.015157
   2 C :    0.022532
   3 N :   -0.126394
   4 N :   -0.071140
   5 C :   -0.057432
   6 H :    0.027401
   7 H :    0.026387
   8 H :    0.017469
   9 H :    0.001376
  10 H :    0.011314
  11 H :    0.017280
  12 H :    0.035030
  13 H :    0.084295
  14 H :    0.038653
  15 H :   -0.002442
Sum of atomic charges:    0.0000000

LOEWDIN ATOMIC CHARGES
----------------------
   0 C :   -0.065596
   1 C :    0.001806
   2 C :   -0.063939
   3 N :    0.005117
   4 N :   -0.021813
   5 C :   -0.079733
   6 H :    0.033557
   7 H :    0.028114
   8 H :    0.023216
   9 H :    0.011013
  10 H :    0.025348
  11 H :    0.026694
  12 H :    0.029694
  13 H :    0.040619
  14 H :    0.017515
  15 H :   -0.011612

  Mayer bond orders larger than 0.1
B(  0-C ,  1-C ) :   1.0829 B(  0-C ,  6-H ) :   0.9615 B(  0-C ,  7-H ) :   0.9574
B(  0-C ,  8-H ) :   0.9558 B(  1-C ,  2-C ) :   1.0885 B(  1-C ,  3-N ) :   0.9911
B(  1-C ,  9-H ) :   0.9142 B(  2-C , 10-H ) :   0.9521 B(  2-C , 11-H ) :   0.9592
B(  2-C , 12-H ) :   0.9504 B(  3-N ,  4-N ) :   1.1175 B(  3-N ,  5-C ) :   0.1478
B(  3-N , 13-H ) :   0.9155 B(  4-N ,  5-C ) :   1.8850 B(  5-C , 14-H ) :   0.9576
B(  5-C , 15-H ) :   0.9271

FINAL SINGLE POINT ENERGY      -267.356765452198

DIPOLE MOMENT
-------------
                                X             Y             Z
Electronic contribution:      3.18796      -1.94577      -2.47596
Nuclear contribution   :     -3.70153       2.22135       2.12513
                        -----------------------------------------
Total Dipole Moment    :     -0.51357       0.27558      -0.35082
                        -----------------------------------------
Magnitude (a.u.)       :      0.68028
Magnitude (Debye)      :      1.72912

                             ****ORCA TERMINATED NORMALLY****
TOTAL RUN TIME: 0 days 0 hours 0 minutes 6 seconds 711 msec
