                         Program Version 3.0.3 - RELEASE   -
|  1> ! RI PBE def2-SVP def2-SVP/J NBO PAL2
|  2> % maxcore 2000
|  3> % output
|  4>     # printlevel mini
|  5>     print[ P_Basis ] 0
|  6>     print[ P_SCFInfo ] 1
|  7>     print[ P_SCFIterInfo ] 1
|  8>     print[ P_OrbEn ] 0
|  9>     print[ P_Cartesian ] 0
| 10> end
| 11> *xyz 0 1
| 12>  C        1.7808480000    -1.1612600000    -0.7183130000
| 13>  C        2.7840290000    -0.0728890000    -0.3522270000
| 14>  C        2.7619950000     0.2646170000     1.0987280000
| 15>  N        3.7960710000     0.1443610000     1.8248630000
| 16>  N        3.7397810000     0.5317930000     3.1222540000
| 17>  C        4.6763710000    -0.1518380000     3.9804280000
| 18>  H        1.7908290000    -1.3582710000    -1.7925950000
| 19>  H        0.7625000000    -0.8714500000    -0.4445090000
| 20>  H        2.0120230000    -2.0946950000    -0.2000080000
| 21>  H        2.5599270000     0.8302450000    -0.9341990000
| 22>  H        3.7996590000    -0.3779820000    -0.6136700000
| 23>  H        1.8135570000     0.6270270000     1.5231300000
| 24>  H        2.7967060000     0.5744360000     3.5007640000
| 25>  H        5.6802590000    -0.0281000000     3.5733410000
| 26>  H        4.4763950000    -1.2274890000     4.0825440000
| 27>  H        4.6451400000     0.3075950000     4.9700570000
| 28> *
| 29>
| 30>                          ****END OF INPUT****
 Total Charge           Charge          ....    0
 Multiplicity           Mult            ....    1
 Number of Electrons    NEL             ....   48
 Basis Dimension        Dim             ....  134

MULLIKEN ATOMIC CHARGES
-----------------------
   0 C :   -0.046854
   1 C :    0.051448
   2 C :   -0.106850
   3 N :   -0.074230
   4 N :   -0.135246
   5 C :    0.084925
   6 H :    0.025617
   7 H :    0.018009
   8 H :    0.024910
   9 H :    0.021135
  10 H :    0.013098
  11 H :   -0.030264
  12 H :    0.085086
  13 H :    0.035396
  14 H :    0.014375
  15 H :    0.019446
Sum of atomic charges:   -0.0000000

LOEWDIN ATOMIC CHARGES
----------------------
   0 C :   -0.064915
   1 C :   -0.054026
   2 C :   -0.052898
   3 N :   -0.040175
   4 N :   -0.008219
   5 C :   -0.006692
   6 H :    0.027254
   7 H :    0.022668
   8 H :    0.025789
   9 H :    0.032036
  10 H :    0.031679
  11 H :   -0.012743
  12 H :    0.039320
  13 H :    0.029843
  14 H :    0.007585
  15 H :    0.023494

  Mayer bond orders larger than 0.1
B(  0-C ,  1-C ) :   1.0937 B(  0-C ,  6-H ) :   0.9619 B(  0-C ,  7-H ) :   0.9699
B(  0-C ,  8-H ) :   0.9685 B(  1-C ,  2-C ) :   1.0555 B(  1-C ,  9-H ) :   0.9201
B(  1-C , 10-H ) :   0.9296 B(  2-C ,  3-N ) :   1.8687 B(  2-C ,  4-N ) :   0.1323
B(  2-C , 11-H ) :   0.9243 B(  3-N ,  4-N ) :   1.0714 B(  4-N ,  5-C ) :   1.0386
B(  4-N , 12-H ) :   0.9211 B(  5-C , 13-H ) :   0.9672 B(  5-C , 14-H ) :   0.9590
B(  5-C , 15-H ) :   0.9674

FINAL SINGLE POINT ENERGY      -267.357841791226

DIPOLE MOMENT
-------------
                                X             Y             Z
Electronic contribution:      1.59713       2.45586       1.84010
Nuclear contribution   :     -2.06249      -2.55755      -1.46094
                        -----------------------------------------
Total Dipole Moment    :     -0.46536      -0.10169       0.37916
                        -----------------------------------------
Magnitude (a.u.)       :      0.60882
Magnitude (Debye)      :      1.54749

                             ****ORCA TERMINATED NORMALLY****
TOTAL RUN TIME: 0 days 0 hours 0 minutes 6 seconds 340 msec
