                         Program Version 3.0.3 - RELEASE   -
|  1> ! RI PBE def2-SVP def2-SVP/J NBO PAL2
|  2> % maxcore 2000
|  3> % output
|  4>     # printlevel mini
|  5>     print[ P_Basis ] 0
|  6>     print[ P_SCFInfo ] 1
|  7>     print[ P_SCFIterInfo ] 1
|  8>     print[ P_OrbEn ] 0
|  9>     print[ P_Cartesian ] 0
| 10> end
| 11> *xyz 0 1
| 12>  C        0.7892870000     0.1952930000    -0.0055300000
| 13>  C        2.3057220000     0.1105080000    -0.1538290000
| 14>  C        2.8138980000    -1.2625560000     0.0950280000
| 15>  N        3.4610950000    -1.9033970000    -0.7905660000
| 16>  N        3.8348560000    -3.1736010000    -0.3483760000
| 17>  C        4.4912510000    -3.8120220000    -1.2228020000
| 18>  H        0.4451510000     1.2216010000    -0.1458580000
| 19>  H        0.4671600000    -0.1324060000     0.9861260000
| 20>  H        0.2893020000    -0.4339520000    -0.7447770000
| 21>  H        2.7756130000     0.7860440000     0.5717320000
| 22>  H        2.6220640000     0.4264320000    -1.1497340000
| 23>  H        2.6112430000    -1.7313730000     1.0641380000
| 24>  H        4.8286610000    -4.8139700000    -0.9748950000
| 25>  H        4.7213070000    -3.3864020000    -2.2013480000
| 26> *
| 27>
| 28>                          ****END OF INPUT****
 Total Charge           Charge          ....    0
 Multiplicity           Mult            ....    1
 Number of Electrons    NEL             ....   46
 Basis Dimension        Dim             ....  124

MULLIKEN ATOMIC CHARGES
-----------------------
   0 C :   -0.049358
   1 C :    0.055762
   2 C :   -0.039643
   3 N :   -0.098392
   4 N :   -0.108413
   5 C :    0.024471
   6 H :    0.029147
   7 H :    0.025624
   8 H :    0.039339
   9 H :    0.035982
  10 H :    0.017329
  11 H :   -0.001733
  12 H :    0.045815
  13 H :    0.024070
Sum of atomic charges:   -0.0000000

LOEWDIN ATOMIC CHARGES
----------------------
   0 C :   -0.057634
   1 C :   -0.054730
   2 C :    0.027147
   3 N :   -0.061925
   4 N :   -0.044354
   5 C :    0.007921
   6 H :    0.030724
   7 H :    0.026694
   8 H :    0.030873
   9 H :    0.042368
  10 H :    0.032782
  11 H :   -0.000084
  12 H :    0.020379
  13 H :   -0.000162

  Mayer bond orders larger than 0.1
B(  0-C ,  1-C ) :   1.0919 B(  0-C ,  6-H ) :   0.9630 B(  0-C ,  7-H ) :   0.9698
B(  0-C ,  8-H ) :   0.9702 B(  1-C ,  2-C ) :   1.0296 B(  1-C ,  9-H ) :   0.9157
B(  1-C , 10-H ) :   0.9243 B(  2-C ,  3-N ) :   1.8815 B(  2-C ,  5-C ) :   0.1120
B(  2-C , 11-H ) :   0.9339 B(  3-N ,  4-N ) :   0.9745 B(  4-N ,  5-C ) :   1.9320
B(  5-C , 12-H ) :   0.9507 B(  5-C , 13-H ) :   0.9242

FINAL SINGLE POINT ENERGY      -266.143656960590

DIPOLE MOMENT
-------------
                                X             Y             Z
Electronic contribution:      4.17361      -4.33217      -0.55589
Nuclear contribution   :     -4.34153       4.60481       0.60000
                        -----------------------------------------
Total Dipole Moment    :     -0.16792       0.27264       0.04411
                        -----------------------------------------
Magnitude (a.u.)       :      0.32323
Magnitude (Debye)      :      0.82158

                             ****ORCA TERMINATED NORMALLY****
TOTAL RUN TIME: 0 days 0 hours 0 minutes 5 seconds 395 msec
