                         Program Version 3.0.3 - RELEASE   -
|  1> ! RI PBE def2-SVP def2-SVP/J NBO PAL2
|  2> % maxcore 2000
|  3> % output
|  4>     # printlevel mini
|  5>     print[ P_Basis ] 0
|  6>     print[ P_SCFInfo ] 1
|  7>     print[ P_SCFIterInfo ] 1
|  8>     print[ P_OrbEn ] 0
|  9>     print[ P_Cartesian ] 0
| 10> end
| 11> *xyz 0 1
| 12>  C        1.2012400000    -0.1007160000     0.4324300000
| 13>  C        2.6901910000     0.1397820000     0.2565930000
| 14>  C        2.9924400000     1.0285610000    -0.9339020000
| 15>  N        4.4092970000     1.2299150000    -1.0632010000
| 16>  N        4.8809120000     1.9777100000    -2.0440250000
| 17>  C        6.1355870000     2.1605180000    -2.1663170000
| 18>  H        1.0035820000    -0.7419830000     1.2935600000
| 19>  H        0.7722030000    -0.5856910000    -0.4482870000
| 20>  H        0.6644760000     0.8387970000     0.5877810000
| 21>  H        3.2075600000    -0.8183680000     0.1304320000
| 22>  H        3.1002400000     0.6007870000     1.1626650000
| 23>  H        2.4844540000     1.9940330000    -0.8123690000
| 24>  H        2.5921690000     0.5706380000    -1.8477150000
| 25>  H        5.0424150000     0.7964070000    -0.4031400000
| 26>  H        6.4796740000     2.7805070000    -2.9837660000
| 27>  H        6.8722620000     1.7215130000    -1.4858490000
| 28> *
| 29>
| 30>                          ****END OF INPUT****
 Total Charge           Charge          ....    0
 Multiplicity           Mult            ....    1
 Number of Electrons    NEL             ....   48
 Basis Dimension        Dim             ....  134

MULLIKEN ATOMIC CHARGES
-----------------------
   0 C :   -0.014269
   1 C :   -0.110745
   2 C :    0.166398
   3 N :   -0.154734
   4 N :   -0.062406
   5 C :   -0.074760
   6 H :    0.025940
   7 H :    0.025571
   8 H :    0.024356
   9 H :    0.019637
  10 H :    0.019413
  11 H :    0.011175
  12 H :    0.010229
  13 H :    0.090612
  14 H :    0.034122
  15 H :   -0.010539
Sum of atomic charges:   -0.0000000

LOEWDIN ATOMIC CHARGES
----------------------
   0 C :   -0.061736
   1 C :   -0.055511
   2 C :    0.020130
   3 N :    0.013896
   4 N :   -0.022959
   5 C :   -0.103148
   6 H :    0.029767
   7 H :    0.027410
   8 H :    0.027441
   9 H :    0.023875
  10 H :    0.023551
  11 H :    0.018421
  12 H :    0.017783
  13 H :    0.041083
  14 H :    0.014929
  15 H :   -0.014932

  Mayer bond orders larger than 0.1
B(  0-C ,  1-C ) :   1.1216 B(  0-C ,  6-H ) :   0.9613 B(  0-C ,  7-H ) :   0.9664
B(  0-C ,  8-H ) :   0.9645 B(  1-C ,  2-C ) :   1.0847 B(  1-C ,  9-H ) :   0.9355
B(  1-C , 10-H ) :   0.9383 B(  2-C ,  3-N ) :   1.0005 B(  2-C , 11-H ) :   0.9305
B(  2-C , 12-H ) :   0.9341 B(  3-N ,  4-N ) :   1.1301 B(  3-N ,  5-C ) :   0.1697
B(  3-N , 13-H ) :   0.9217 B(  4-N ,  5-C ) :   1.8512 B(  5-C , 14-H ) :   0.9594
B(  5-C , 15-H ) :   0.9290

FINAL SINGLE POINT ENERGY      -267.351836433254

DIPOLE MOMENT
-------------
                                X             Y             Z
Electronic contribution:      4.38963       2.68161      -3.22901
Nuclear contribution   :     -4.50451      -3.18197       3.90558
                        -----------------------------------------
Total Dipole Moment    :     -0.11489      -0.50036       0.67656
                        -----------------------------------------
Magnitude (a.u.)       :      0.84929
Magnitude (Debye)      :      2.15873

                             ****ORCA TERMINATED NORMALLY****
TOTAL RUN TIME: 0 days 0 hours 0 minutes 6 seconds 542 msec
