                         Program Version 3.0.3 - RELEASE   -
|  1> ! RI PBE def2-SVP def2-SVP/J NBO PAL2
|  2> % maxcore 2000
|  3> % output
|  4>     # printlevel mini
|  5>     print[ P_Basis ] 0
|  6>     print[ P_SCFInfo ] 1
|  7>     print[ P_SCFIterInfo ] 1
|  8>     print[ P_OrbEn ] 0
|  9>     print[ P_Cartesian ] 0
| 10> end
| 11> *xyz 0 1
| 12>  C        1.3140190000    -0.1519770000     0.0831080000
| 13>  C        2.8000000000     0.1355600000     0.0346620000
| 14>  N        3.2416080000     0.7921390000     1.2490750000
| 15>  C        4.4675890000     1.5577820000     1.1492040000
| 16>  C        3.1578300000     2.2386480000     1.2673100000
| 17>  C        2.7050810000     2.9001420000     2.5335050000
| 18>  H        0.9909260000    -0.6782520000    -0.8179860000
| 19>  H        0.7379510000     0.7740280000     0.1572030000
| 20>  H        1.0723420000    -0.7691240000     0.9506740000
| 21>  H        3.0377770000     0.7413570000    -0.8577900000
| 22>  H        3.3602770000    -0.8004810000    -0.0596010000
| 23>  H        4.9672770000     1.5894240000     0.1832000000
| 24>  H        5.1312600000     1.5039190000     2.0068180000
| 25>  H        2.7973220000     2.6987760000     0.3460290000
| 26>  H        3.1079220000     2.3733960000     3.4003970000
| 27>  H        1.6145510000     2.8937310000     2.6113530000
| 28>  H        3.0416770000     3.9397430000     2.5725380000
| 29> *
| 30>
| 31>                          ****END OF INPUT****
 Total Charge           Charge          ....    0
 Multiplicity           Mult            ....    1
 Number of Electrons    NEL             ....   48
 Basis Dimension        Dim             ....  139

MULLIKEN ATOMIC CHARGES
-----------------------
   0 C :   -0.012751
   1 C :    0.073795
   2 N :   -0.286479
   3 C :    0.081463
   4 C :   -0.116880
   5 C :    0.097510
   6 H :    0.019785
   7 H :    0.018489
   8 H :    0.030246
   9 H :   -0.015994
  10 H :    0.008544
  11 H :    0.015280
  12 H :    0.023063
  13 H :    0.009308
  14 H :    0.008735
  15 H :    0.025952
  16 H :    0.019935
Sum of atomic charges:    0.0000000

LOEWDIN ATOMIC CHARGES
----------------------
   0 C :   -0.071761
   1 C :    0.011980
   2 N :   -0.110135
   3 C :    0.003602
   4 C :   -0.006087
   5 C :   -0.063500
   6 H :    0.028666
   7 H :    0.024904
   8 H :    0.029785
   9 H :   -0.001240
  10 H :    0.021128
  11 H :    0.011878
  12 H :    0.018013
  13 H :    0.009930
  14 H :    0.031855
  15 H :    0.030781
  16 H :    0.030203

  Mayer bond orders larger than 0.1
B(  0-C ,  1-C ) :   1.1237 B(  0-C ,  6-H ) :   0.9590 B(  0-C ,  7-H ) :   0.9618
B(  0-C ,  8-H ) :   0.9595 B(  1-C ,  2-N ) :   1.0078 B(  1-C ,  9-H ) :   0.9125
B(  1-C , 10-H ) :   0.9379 B(  2-N ,  3-C ) :   0.9659 B(  2-N ,  4-C ) :   0.9196
B(  3-C ,  4-C ) :   1.0652 B(  3-C , 11-H ) :   0.9260 B(  3-C , 12-H ) :   0.9388
B(  4-C ,  5-C ) :   1.0913 B(  4-C , 13-H ) :   0.9215 B(  5-C , 14-H ) :   0.9414
B(  5-C , 15-H ) :   0.9567 B(  5-C , 16-H ) :   0.9534

FINAL SINGLE POINT ENERGY      -251.336712139394

DIPOLE MOMENT
-------------
                                X             Y             Z
Electronic contribution:      2.19120      -0.34113       0.63075
Nuclear contribution   :     -2.16265       0.57010      -0.93424
                        -----------------------------------------
Total Dipole Moment    :      0.02855       0.22897      -0.30348
                        -----------------------------------------
Magnitude (a.u.)       :      0.38124
Magnitude (Debye)      :      0.96904

                             ****ORCA TERMINATED NORMALLY****
TOTAL RUN TIME: 0 days 0 hours 0 minutes 6 seconds 688 msec
