                         Program Version 3.0.3 - RELEASE   -
|  1> ! RI PBE def2-SVP def2-SVP/J NBO PAL2
|  2> % maxcore 2000
|  3> % output
|  4>     # printlevel mini
|  5>     print[ P_Basis ] 0
|  6>     print[ P_SCFInfo ] 1
|  7>     print[ P_SCFIterInfo ] 1
|  8>     print[ P_OrbEn ] 0
|  9>     print[ P_Cartesian ] 0
| 10> end
| 11> *xyz 0 1
| 12>  C        2.8880820000    -0.7637490000     0.8701550000
| 13>  C        2.3268980000     0.2423930000    -0.1138800000
| 14>  N        3.2468110000     1.3440630000    -0.3121050000
| 15>  C        2.7128320000     2.5766930000    -0.8484990000
| 16>  C        3.1918380000     2.5139900000     0.5524800000
| 17>  C        2.2391970000     2.6587860000     1.7062320000
| 18>  H        2.2213280000    -1.6237680000     0.9669030000
| 19>  H        3.0115100000    -0.3200600000     1.8608400000
| 20>  H        3.8654700000    -1.1177550000     0.5365970000
| 21>  H        1.3272700000     0.5702380000     0.2112750000
| 22>  H        2.1902610000    -0.2329330000    -1.0907040000
| 23>  H        1.6338310000     2.6390580000    -0.9851700000
| 24>  H        3.2977460000     3.0599880000    -1.6251240000
| 25>  H        4.1821510000     2.9171790000     0.7537140000
| 26>  H        2.1550720000     3.7138170000     1.9795020000
| 27>  H        1.2358310000     2.3034030000     1.4700500000
| 28>  H        2.5953920000     2.1187660000     2.5878340000
| 29> *
| 30>
| 31>                          ****END OF INPUT****
 Total Charge           Charge          ....    0
 Multiplicity           Mult            ....    1
 Number of Electrons    NEL             ....   48
 Basis Dimension        Dim             ....  139

MULLIKEN ATOMIC CHARGES
-----------------------
   0 C :   -0.014536
   1 C :    0.082214
   2 N :   -0.281112
   3 C :    0.068551
   4 C :   -0.101450
   5 C :    0.065022
   6 H :    0.021497
   7 H :    0.017421
   8 H :    0.024036
   9 H :   -0.020928
  10 H :    0.011249
  11 H :    0.013692
  12 H :    0.029565
  13 H :    0.018732
  14 H :    0.029979
  15 H :    0.008105
  16 H :    0.027963
Sum of atomic charges:   -0.0000000

LOEWDIN ATOMIC CHARGES
----------------------
   0 C :   -0.071055
   1 C :    0.009538
   2 N :   -0.110916
   3 C :    0.003689
   4 C :   -0.005088
   5 C :   -0.069624
   6 H :    0.028731
   7 H :    0.023674
   8 H :    0.029014
   9 H :   -0.002887
  10 H :    0.023165
  11 H :    0.010058
  12 H :    0.018038
  13 H :    0.019936
  14 H :    0.037102
  15 H :    0.026802
  16 H :    0.029823

  Mayer bond orders larger than 0.1
B(  0-C ,  1-C ) :   1.1228 B(  0-C ,  6-H ) :   0.9586 B(  0-C ,  7-H ) :   0.9658
B(  0-C ,  8-H ) :   0.9558 B(  1-C ,  2-N ) :   1.0197 B(  1-C ,  9-H ) :   0.9121
B(  1-C , 10-H ) :   0.9377 B(  2-N ,  3-C ) :   0.9757 B(  2-N ,  4-C ) :   0.9474
B(  3-C ,  4-C ) :   1.0498 B(  3-C , 11-H ) :   0.9300 B(  3-C , 12-H ) :   0.9404
B(  4-C ,  5-C ) :   1.0926 B(  4-C , 13-H ) :   0.9369 B(  5-C , 14-H ) :   0.9500
B(  5-C , 15-H ) :   0.9424 B(  5-C , 16-H ) :   0.9541

FINAL SINGLE POINT ENERGY      -251.331809835653

DIPOLE MOMENT
-------------
                                X             Y             Z
Electronic contribution:      1.94422       1.52294      -2.59182
Nuclear contribution   :     -2.33912      -1.35707       2.81181
                        -----------------------------------------
Total Dipole Moment    :     -0.39489       0.16587       0.21999
                        -----------------------------------------
Magnitude (a.u.)       :      0.48151
Magnitude (Debye)      :      1.22389

                             ****ORCA TERMINATED NORMALLY****
TOTAL RUN TIME: 0 days 0 hours 0 minutes 7 seconds 27 msec
