                         Program Version 3.0.3 - RELEASE   -
|  1> ! RI PBE def2-SVP def2-SVP/J NBO PAL2
|  2> % maxcore 2000
|  3> % output
|  4>     # printlevel mini
|  5>     print[ P_Basis ] 0
|  6>     print[ P_SCFInfo ] 1
|  7>     print[ P_SCFIterInfo ] 1
|  8>     print[ P_OrbEn ] 0
|  9>     print[ P_Cartesian ] 0
| 10> end
| 11> *xyz 0 1
| 12>  C        1.1490390000     0.7333400000    -0.3736610000
| 13>  C        2.3363820000    -0.1923810000    -0.5346320000
| 14>  N        3.4783520000     0.2890960000     0.2194590000
| 15>  C        4.6251230000    -0.5564430000     0.1386780000
| 16>  C        5.5893770000    -0.3085830000    -0.9794030000
| 17>  C        5.9581960000     0.0519990000     0.4291540000
| 18>  H        0.2985380000     0.3824340000    -0.9618770000
| 19>  H        1.4026340000     1.7448930000    -0.6974750000
| 20>  H        0.8285110000     0.7848360000     0.6714280000
| 21>  H        2.6316910000    -0.2410420000    -1.5877750000
| 22>  H        2.0478870000    -1.2188380000    -0.2469730000
| 23>  H        3.2171030000     0.4302920000     1.1886610000
| 24>  H        4.4966670000    -1.6023110000     0.4304900000
| 25>  H        5.3493990000     0.5069600000    -1.6498840000
| 26>  H        6.0754060000    -1.1594930000    -1.4398900000
| 27>  H        5.9633790000     1.1042680000     0.6837740000
| 28>  H        6.6973160000    -0.5508190000     0.9416270000
| 29> *
| 30>
| 31>                          ****END OF INPUT****
 Total Charge           Charge          ....    0
 Multiplicity           Mult            ....    1
 Number of Electrons    NEL             ....   48
 Basis Dimension        Dim             ....  139

MULLIKEN ATOMIC CHARGES
-----------------------
   0 C :   -0.027169
   1 C :    0.071701
   2 N :   -0.209531
   3 C :   -0.067735
   4 C :   -0.026812
   5 C :   -0.023805
   6 H :    0.020811
   7 H :    0.026925
   8 H :    0.017896
   9 H :    0.012544
  10 H :   -0.016619
  11 H :    0.098025
  12 H :   -0.001650
  13 H :    0.035584
  14 H :    0.030709
  15 H :    0.029054
  16 H :    0.030070
Sum of atomic charges:    0.0000000

LOEWDIN ATOMIC CHARGES
----------------------
   0 C :   -0.072852
   1 C :    0.009701
   2 N :   -0.088026
   3 C :   -0.007597
   4 C :   -0.052391
   5 C :   -0.050222
   6 H :    0.029867
   7 H :    0.027622
   8 H :    0.022661
   9 H :    0.020685
  10 H :   -0.002335
  11 H :    0.054705
  12 H :    0.001489
  13 H :    0.029048
  14 H :    0.024713
  15 H :    0.027538
  16 H :    0.025393

  Mayer bond orders larger than 0.1
B(  0-C ,  1-C ) :   1.1161 B(  0-C ,  6-H ) :   0.9574 B(  0-C ,  7-H ) :   0.9612
B(  0-C ,  8-H ) :   0.9671 B(  1-C ,  2-N ) :   1.0286 B(  1-C ,  9-H ) :   0.9386
B(  1-C , 10-H ) :   0.9215 B(  2-N ,  3-C ) :   1.1093 B(  2-N , 11-H ) :   0.9407
B(  3-C ,  4-C ) :   1.0025 B(  3-C ,  5-C ) :   1.0004 B(  3-C , 12-H ) :   0.9191
B(  4-C ,  5-C ) :   1.0533 B(  4-C , 13-H ) :   0.9382 B(  4-C , 14-H ) :   0.9471
B(  5-C , 15-H ) :   0.9426 B(  5-C , 16-H ) :   0.9443

FINAL SINGLE POINT ENERGY      -251.338333314260

DIPOLE MOMENT
-------------
                                X             Y             Z
Electronic contribution:      2.51167      -0.25848       0.82371
Nuclear contribution   :     -2.69166       0.05465      -0.62605
                        -----------------------------------------
Total Dipole Moment    :     -0.18000      -0.20383       0.19766
                        -----------------------------------------
Magnitude (a.u.)       :      0.33618
Magnitude (Debye)      :      0.85449

                             ****ORCA TERMINATED NORMALLY****
TOTAL RUN TIME: 0 days 0 hours 0 minutes 6 seconds 599 msec
