                         Program Version 3.0.3 - RELEASE   -
|  1> ! RI PBE def2-SVP def2-SVP/J NBO PAL2
|  2> % maxcore 2000
|  3> % output
|  4>     # printlevel mini
|  5>     print[ P_Basis ] 0
|  6>     print[ P_SCFInfo ] 1
|  7>     print[ P_SCFIterInfo ] 1
|  8>     print[ P_OrbEn ] 0
|  9>     print[ P_Cartesian ] 0
| 10> end
| 11> *xyz 0 1
| 12>  C        1.0998260000     0.2779550000    -0.1322750000
| 13>  C        2.5913530000     0.0214440000     0.0581990000
| 14>  N        3.1697370000    -0.8404000000    -0.9656040000
| 15>  C        3.3484080000     1.3302460000     0.1560490000
| 16>  C        4.8371790000     1.3793810000     0.0550780000
| 17>  C        3.9943900000     1.9656890000    -1.0383140000
| 18>  H        0.5424030000    -0.6621490000    -0.1624240000
| 19>  H        0.9229220000     0.8094400000    -1.0727060000
| 20>  H        0.6894970000     0.8881780000     0.6774450000
| 21>  H        2.7308960000    -0.5020980000     1.0124060000
| 22>  H        2.8599510000    -0.5467530000    -1.8852930000
| 23>  H        2.8477500000    -1.7916860000    -0.8430790000
| 24>  H        2.9014280000     2.0243800000     0.8615610000
| 25>  H        5.3362260000     0.4454020000    -0.1712720000
| 26>  H        5.3763410000     2.0519800000     0.7107320000
| 27>  H        3.9785230000     1.4297960000    -1.9792320000
| 28>  H        3.9416600000     3.0429940000    -1.1351600000
| 29> *
| 30>
| 31>                          ****END OF INPUT****
 Total Charge           Charge          ....    0
 Multiplicity           Mult            ....    1
 Number of Electrons    NEL             ....   48
 Basis Dimension        Dim             ....  139

MULLIKEN ATOMIC CHARGES
-----------------------
   0 C :    0.032346
   1 C :    0.016565
   2 N :   -0.184505
   3 C :   -0.125941
   4 C :   -0.003397
   5 C :   -0.063726
   6 H :    0.005231
   7 H :    0.009649
   8 H :    0.010051
   9 H :    0.002758
  10 H :    0.085881
  11 H :    0.091211
  12 H :    0.010709
  13 H :    0.031479
  14 H :    0.027106
  15 H :    0.022172
  16 H :    0.032409
Sum of atomic charges:    0.0000000

LOEWDIN ATOMIC CHARGES
----------------------
   0 C :   -0.076121
   1 C :    0.001008
   2 N :   -0.088778
   3 C :   -0.050410
   4 C :   -0.046266
   5 C :   -0.052100
   6 H :    0.018954
   7 H :    0.022558
   8 H :    0.025212
   9 H :    0.024166
  10 H :    0.047664
  11 H :    0.053958
  12 H :    0.025120
  13 H :    0.026318
  14 H :    0.023154
  15 H :    0.020839
  16 H :    0.024725

  Mayer bond orders larger than 0.1
B(  0-C ,  1-C ) :   1.0839 B(  0-C ,  6-H ) :   0.9563 B(  0-C ,  7-H ) :   0.9547
B(  0-C ,  8-H ) :   0.9460 B(  1-C ,  2-N ) :   1.1036 B(  1-C ,  3-C ) :   1.0231
B(  1-C ,  9-H ) :   0.9078 B(  2-N , 10-H ) :   0.9647 B(  2-N , 11-H ) :   0.9655
B(  3-C ,  4-C ) :   0.9948 B(  3-C ,  5-C ) :   1.0088 B(  3-C , 12-H ) :   0.9404
B(  4-C ,  5-C ) :   1.0439 B(  4-C , 13-H ) :   0.9322 B(  4-C , 14-H ) :   0.9470
B(  5-C , 15-H ) :   0.9430 B(  5-C , 16-H ) :   0.9474

FINAL SINGLE POINT ENERGY      -251.343412612141

DIPOLE MOMENT
-------------
                                X             Y             Z
Electronic contribution:      1.76642      -0.22695       0.24496
Nuclear contribution   :     -2.26802       0.04347      -0.30574
                        -----------------------------------------
Total Dipole Moment    :     -0.50160      -0.18348      -0.06078
                        -----------------------------------------
Magnitude (a.u.)       :      0.53755
Magnitude (Debye)      :      1.36634

                             ****ORCA TERMINATED NORMALLY****
TOTAL RUN TIME: 0 days 0 hours 0 minutes 6 seconds 780 msec
