                         Program Version 3.0.3 - RELEASE   -
|  1> ! RI PBE def2-SVP def2-SVP/J NBO PAL2
|  2> % maxcore 2000
|  3> % output
|  4>     # printlevel mini
|  5>     print[ P_Basis ] 0
|  6>     print[ P_SCFInfo ] 1
|  7>     print[ P_SCFIterInfo ] 1
|  8>     print[ P_OrbEn ] 0
|  9>     print[ P_Cartesian ] 0
| 10> end
| 11> *xyz 0 1
| 12>  C        0.8661740000    -0.2715590000     0.0397340000
| 13>  C        2.3514530000     0.0447260000    -0.0304070000
| 14>  N        2.9558070000    -0.2078510000     1.2712680000
| 15>  C        3.0119370000    -0.8090370000    -1.0948330000
| 16>  C        4.4157070000    -1.2426720000    -0.9980160000
| 17>  N        3.3268390000    -2.2011150000    -0.8101810000
| 18>  H        0.3583980000     0.3820560000     0.7547190000
| 19>  H        0.7117240000    -1.3084010000     0.3489790000
| 20>  H        0.3936960000    -0.1336030000    -0.9344580000
| 21>  H        2.4615180000     1.0956880000    -0.3416550000
| 22>  H        2.3297320000     0.0698470000     2.0149760000
| 23>  H        3.8140770000     0.3139550000     1.3895960000
| 24>  H        2.6024430000    -0.6460930000    -2.0893730000
| 25>  H        4.9861790000    -0.9525930000    -0.1215160000
| 26>  H        5.0023540000    -1.3777010000    -1.9003950000
| 27>  H        3.2085840000    -2.3321270000     0.1933510000
| 28> *
| 29>
| 30>                          ****END OF INPUT****
 Total Charge           Charge          ....    0
 Multiplicity           Mult            ....    1
 Number of Electrons    NEL             ....   48
 Basis Dimension        Dim             ....  134

MULLIKEN ATOMIC CHARGES
-----------------------
   0 C :    0.011813
   1 C :    0.006073
   2 N :   -0.185812
   3 C :   -0.071212
   4 C :    0.041302
   5 N :   -0.199352
   6 H :    0.017726
   7 H :    0.023477
   8 H :    0.021873
   9 H :   -0.001421
  10 H :    0.089900
  11 H :    0.095230
  12 H :    0.009431
  13 H :    0.010285
  14 H :    0.029017
  15 H :    0.101669
Sum of atomic charges:   -0.0000000

LOEWDIN ATOMIC CHARGES
----------------------
   0 C :   -0.061418
   1 C :   -0.006105
   2 N :   -0.092786
   3 C :   -0.016705
   4 C :   -0.006631
   5 N :   -0.106056
   6 H :    0.022159
   7 H :    0.029374
   8 H :    0.031892
   9 H :    0.009932
  10 H :    0.055006
  11 H :    0.054607
  12 H :    0.018458
  13 H :    0.008509
  14 H :    0.018304
  15 H :    0.041460

  Mayer bond orders larger than 0.1
B(  0-C ,  1-C ) :   1.0917 B(  0-C ,  6-H ) :   0.9567 B(  0-C ,  7-H ) :   0.9566
B(  0-C ,  8-H ) :   0.9588 B(  1-C ,  2-N ) :   1.0783 B(  1-C ,  3-C ) :   0.9886
B(  1-C ,  9-H ) :   0.9096 B(  2-N , 10-H ) :   0.9612 B(  2-N , 11-H ) :   0.9568
B(  3-C ,  4-C ) :   1.0673 B(  3-C ,  5-N ) :   0.9936 B(  3-C , 12-H ) :   0.9354
B(  4-C ,  5-N ) :   1.0103 B(  4-C , 13-H ) :   0.9274 B(  4-C , 14-H ) :   0.9411
B(  5-N , 15-H ) :   0.9345

FINAL SINGLE POINT ENERGY      -267.356159895995

DIPOLE MOMENT
-------------
                                X             Y             Z
Electronic contribution:      1.99649      -1.58293      -0.86018
Nuclear contribution   :     -2.07762       2.60103       1.45912
                        -----------------------------------------
Total Dipole Moment    :     -0.08113       1.01810       0.59893
                        -----------------------------------------
Magnitude (a.u.)       :      1.18399
Magnitude (Debye)      :      3.00946

                             ****ORCA TERMINATED NORMALLY****
TOTAL RUN TIME: 0 days 0 hours 0 minutes 6 seconds 680 msec
