                         Program Version 3.0.3 - RELEASE   -
|  1> ! RI PBE def2-SVP def2-SVP/J NBO PAL2
|  2> % maxcore 2000
|  3> % output
|  4>     # printlevel mini
|  5>     print[ P_Basis ] 0
|  6>     print[ P_SCFInfo ] 1
|  7>     print[ P_SCFIterInfo ] 1
|  8>     print[ P_OrbEn ] 0
|  9>     print[ P_Cartesian ] 0
| 10> end
| 11> *xyz 0 1
| 12>  C        0.9790120000     0.2829770000    -0.0807760000
| 13>  C        2.4273450000    -0.2063080000     0.0158210000
| 14>  N        2.6443050000    -1.1275490000     1.1194120000
| 15>  C        2.9109520000    -0.7856110000    -1.2942310000
| 16>  C        2.7215790000     0.0728720000    -2.5080130000
| 17>  C        3.4949970000    -1.9769470000    -1.3723680000
| 18>  H        0.6626740000     0.7020290000     0.8777590000
| 19>  H        0.3115430000    -0.5491730000    -0.3250310000
| 20>  H        0.8479140000     1.0571900000    -0.8397510000
| 21>  H        3.0583930000     0.6721660000     0.2148780000
| 22>  H        2.0342700000    -1.9322800000     1.0198440000
| 23>  H        2.3955150000    -0.6799050000     1.9927980000
| 24>  H        3.0992250000     1.0867360000    -2.3371860000
| 25>  H        1.6657860000     0.1711180000    -2.7773680000
| 26>  H        3.2483690000    -0.3458940000    -3.3660190000
| 27>  H        3.6674770000    -2.5823670000    -0.4920000000
| 28>  H        3.8427630000    -2.3626550000    -2.3246690000
| 29> *
| 30>
| 31>                          ****END OF INPUT****
 Total Charge           Charge          ....    0
 Multiplicity           Mult            ....    1
 Number of Electrons    NEL             ....   48
 Basis Dimension        Dim             ....  139

MULLIKEN ATOMIC CHARGES
-----------------------
   0 C :   -0.007724
   1 C :    0.009587
   2 N :   -0.165197
   3 C :   -0.177788
   4 C :    0.062813
   5 C :   -0.027729
   6 H :    0.008297
   7 H :    0.017770
   8 H :    0.019780
   9 H :    0.015314
  10 H :    0.089051
  11 H :    0.082361
  12 H :    0.021571
  13 H :    0.032529
  14 H :    0.010938
  15 H :    0.010097
  16 H :   -0.001670
Sum of atomic charges:   -0.0000000

LOEWDIN ATOMIC CHARGES
----------------------
   0 C :   -0.076308
   1 C :   -0.000268
   2 N :   -0.084970
   3 C :   -0.039159
   4 C :   -0.056369
   5 C :   -0.077712
   6 H :    0.020902
   7 H :    0.024517
   8 H :    0.024564
   9 H :    0.031392
  10 H :    0.049872
  11 H :    0.050937
  12 H :    0.032027
  13 H :    0.033388
  14 H :    0.031786
  15 H :    0.018124
  16 H :    0.017277

  Mayer bond orders larger than 0.1
B(  0-C ,  1-C ) :   1.0610 B(  0-C ,  6-H ) :   0.9573 B(  0-C ,  7-H ) :   0.9563
B(  0-C ,  8-H ) :   0.9419 B(  1-C ,  2-N ) :   1.1257 B(  1-C ,  3-C ) :   0.9860
B(  1-C ,  9-H ) :   0.8872 B(  2-N , 10-H ) :   0.9603 B(  2-N , 11-H ) :   0.9655
B(  3-C ,  4-C ) :   1.0901 B(  3-C ,  5-C ) :   2.0135 B(  4-C , 12-H ) :   0.9446
B(  4-C , 13-H ) :   0.9414 B(  4-C , 14-H ) :   0.9427 B(  5-C , 15-H ) :   0.9135
B(  5-C , 16-H ) :   0.9252

FINAL SINGLE POINT ENERGY      -251.349134732295

DIPOLE MOMENT
-------------
                                X             Y             Z
Electronic contribution:      1.94155      -1.53736       1.20804
Nuclear contribution   :     -2.46903       1.82837      -1.08251
                        -----------------------------------------
Total Dipole Moment    :     -0.52748       0.29102       0.12553
                        -----------------------------------------
Magnitude (a.u.)       :      0.61537
Magnitude (Debye)      :      1.56414

                             ****ORCA TERMINATED NORMALLY****
TOTAL RUN TIME: 0 days 0 hours 0 minutes 6 seconds 953 msec
