                         Program Version 3.0.3 - RELEASE   -
|  1> ! RI PBE def2-SVP def2-SVP/J NBO PAL2
|  2> % maxcore 2000
|  3> % output
|  4>     # printlevel mini
|  5>     print[ P_Basis ] 0
|  6>     print[ P_SCFInfo ] 1
|  7>     print[ P_SCFIterInfo ] 1
|  8>     print[ P_OrbEn ] 0
|  9>     print[ P_Cartesian ] 0
| 10> end
| 11> *xyz 0 1
| 12>  C        0.7675480000    -0.1669620000     0.0847390000
| 13>  C        2.2842450000    -0.0538490000     0.0014450000
| 14>  N        2.9799490000    -1.3349180000     0.0498060000
| 15>  C        2.7319460000     0.6870180000    -1.2596760000
| 16>  C        2.2896900000     2.1099100000    -1.3152090000
| 17>  C        1.5580670000     2.6527000000    -2.2784850000
| 18>  H        0.4662890000    -0.6763510000     1.0040760000
| 19>  H        0.3814340000    -0.7439190000    -0.7623080000
| 20>  H        0.2869760000     0.8144390000     0.0661250000
| 21>  H        2.6362580000     0.5240930000     0.8656200000
| 22>  H        2.7055550000    -1.9037420000    -0.7448520000
| 23>  H        2.7049940000    -1.8508390000     0.8777010000
| 24>  H        2.3662980000     0.1503680000    -2.1439390000
| 25>  H        3.8264860000     0.6410080000    -1.2867680000
| 26>  H        2.6126820000     2.7387660000    -0.4858960000
| 27>  H        1.2129760000     2.0672190000    -3.1254970000
| 28>  H        1.2819980000     3.7007680000    -2.2608730000
| 29> *
| 30>
| 31>                          ****END OF INPUT****
 Total Charge           Charge          ....    0
 Multiplicity           Mult            ....    1
 Number of Electrons    NEL             ....   48
 Basis Dimension        Dim             ....  139

MULLIKEN ATOMIC CHARGES
-----------------------
   0 C :    0.036352
   1 C :   -0.088648
   2 N :   -0.177182
   3 C :    0.083957
   4 C :   -0.085158
   5 C :   -0.028535
   6 H :    0.008675
   7 H :    0.003433
   8 H :    0.015624
   9 H :    0.004323
  10 H :    0.083044
  11 H :    0.082311
  12 H :   -0.009033
  13 H :    0.031536
  14 H :    0.002649
  15 H :    0.014735
  16 H :    0.021918
Sum of atomic charges:   -0.0000000

LOEWDIN ATOMIC CHARGES
----------------------
   0 C :   -0.077286
   1 C :   -0.002422
   2 N :   -0.098315
   3 C :   -0.043558
   4 C :   -0.027775
   5 C :   -0.067536
   6 H :    0.020509
   7 H :    0.020315
   8 H :    0.026582
   9 H :    0.020502
  10 H :    0.047437
  11 H :    0.049516
  12 H :    0.023106
  13 H :    0.039188
  14 H :    0.025317
  15 H :    0.020596
  16 H :    0.023824

  Mayer bond orders larger than 0.1
B(  0-C ,  1-C ) :   1.0616 B(  0-C ,  6-H ) :   0.9588 B(  0-C ,  7-H ) :   0.9553
B(  0-C ,  8-H ) :   0.9420 B(  1-C ,  2-N ) :   1.0839 B(  1-C ,  3-C ) :   1.0526
B(  1-C ,  9-H ) :   0.9141 B(  2-N , 10-H ) :   0.9681 B(  2-N , 11-H ) :   0.9672
B(  3-C ,  4-C ) :   1.0716 B(  3-C , 12-H ) :   0.9182 B(  3-C , 13-H ) :   0.9038
B(  4-C ,  5-C ) :   1.9979 B(  4-C , 14-H ) :   0.9539 B(  5-C , 15-H ) :   0.9473
B(  5-C , 16-H ) :   0.9413

FINAL SINGLE POINT ENERGY      -251.346066514152

DIPOLE MOMENT
-------------
                                X             Y             Z
Electronic contribution:      1.99502       0.66474      -0.22252
Nuclear contribution   :     -2.36099      -0.89909       0.33418
                        -----------------------------------------
Total Dipole Moment    :     -0.36598      -0.23434       0.11166
                        -----------------------------------------
Magnitude (a.u.)       :      0.44869
Magnitude (Debye)      :      1.14049

                             ****ORCA TERMINATED NORMALLY****
TOTAL RUN TIME: 0 days 0 hours 0 minutes 6 seconds 909 msec
