                         Program Version 3.0.3 - RELEASE   -
|  1> ! RI PBE def2-SVP def2-SVP/J NBO PAL2
|  2> % maxcore 2000
|  3> % output
|  4>     # printlevel mini
|  5>     print[ P_Basis ] 0
|  6>     print[ P_SCFInfo ] 1
|  7>     print[ P_SCFIterInfo ] 1
|  8>     print[ P_OrbEn ] 0
|  9>     print[ P_Cartesian ] 0
| 10> end
| 11> *xyz 0 1
| 12>  C        0.8454410000    -0.0187980000    -0.0812780000
| 13>  C        2.3566990000    -0.0948050000     0.1046320000
| 14>  N        2.7778780000    -0.4040640000     1.4602940000
| 15>  C        2.9526560000    -1.1282030000    -0.8580440000
| 16>  C        4.4034130000    -1.1195360000    -0.9197550000
| 17>  C        5.6011070000    -1.1019100000    -0.9946060000
| 18>  H        0.4109460000     0.7120750000     0.6050220000
| 19>  H        0.3825330000    -0.9892610000     0.1263090000
| 20>  H        0.5739210000     0.2736850000    -1.0997270000
| 21>  H        2.7922440000     0.8781210000    -0.1475740000
| 22>  H        2.3644900000    -1.2779670000     1.7679650000
| 23>  H        2.4657660000     0.3132950000     2.1028960000
| 24>  H        2.5530640000    -0.9537400000    -1.8624360000
| 25>  H        2.6065440000    -2.1266380000    -0.5609200000
| 26>  H        6.6635990000    -1.0871440000    -1.0475770000
| 27> *
| 28>
| 29>                          ****END OF INPUT****
 Total Charge           Charge          ....    0
 Multiplicity           Mult            ....    1
 Number of Electrons    NEL             ....   46
 Basis Dimension        Dim             ....  129

MULLIKEN ATOMIC CHARGES
-----------------------
   0 C :    0.049354
   1 C :   -0.091061
   2 N :   -0.168968
   3 C :    0.085707
   4 C :    0.383225
   5 C :   -0.513392
   6 H :    0.012684
   7 H :    0.004366
   8 H :    0.009958
   9 H :    0.015088
  10 H :    0.080925
  11 H :    0.089278
  12 H :    0.030129
  13 H :    0.020906
  14 H :   -0.008198
Sum of atomic charges:   -0.0000000

LOEWDIN ATOMIC CHARGES
----------------------
   0 C :   -0.077250
   1 C :    0.002638
   2 N :   -0.088572
   3 C :   -0.048114
   4 C :   -0.015474
   5 C :   -0.092306
   6 H :    0.023171
   7 H :    0.021070
   8 H :    0.025404
   9 H :    0.026755
  10 H :    0.048171
  11 H :    0.052351
  12 H :    0.047788
  13 H :    0.043152
  14 H :    0.031215

  Mayer bond orders larger than 0.1
B(  0-C ,  1-C ) :   1.0760 B(  0-C ,  6-H ) :   0.9588 B(  0-C ,  7-H ) :   0.9502
B(  0-C ,  8-H ) :   0.9446 B(  1-C ,  2-N ) :   1.0868 B(  1-C ,  3-C ) :   1.0417
B(  1-C ,  9-H ) :   0.9126 B(  2-N , 10-H ) :   0.9688 B(  2-N , 11-H ) :   0.9703
B(  3-C ,  4-C ) :   1.0601 B(  3-C , 12-H ) :   0.8993 B(  3-C , 13-H ) :   0.8874
B(  4-C ,  5-C ) :   2.3132 B(  4-C , 14-H ) :  -0.1139 B(  5-C , 14-H ) :   1.1050

FINAL SINGLE POINT ENERGY      -250.101576581605

DIPOLE MOMENT
-------------
                                X             Y             Z
Electronic contribution:      5.50037      -1.14956      -1.02377
Nuclear contribution   :     -6.27078       1.24241       1.18802
                        -----------------------------------------
Total Dipole Moment    :     -0.77041       0.09284       0.16426
                        -----------------------------------------
Magnitude (a.u.)       :      0.79318
Magnitude (Debye)      :      2.01611

                             ****ORCA TERMINATED NORMALLY****
TOTAL RUN TIME: 0 days 0 hours 0 minutes 6 seconds 358 msec
