                         Program Version 3.0.3 - RELEASE   -
|  1> ! RI PBE def2-SVP def2-SVP/J NBO PAL2
|  2> % maxcore 2000
|  3> % output
|  4>     # printlevel mini
|  5>     print[ P_Basis ] 0
|  6>     print[ P_SCFInfo ] 1
|  7>     print[ P_SCFIterInfo ] 1
|  8>     print[ P_OrbEn ] 0
|  9>     print[ P_Cartesian ] 0
| 10> end
| 11> *xyz 0 1
| 12>  C        1.6250060000    -0.8701770000    -0.4601150000
| 13>  C        2.8719400000    -1.4661530000     0.1650290000
| 14>  N        3.1574840000    -0.9624660000     1.4963610000
| 15>  C        2.1580640000    -1.3766230000     2.4540780000
| 16>  C        4.4957870000    -1.3385070000     1.9149000000
| 17>  C        4.9771000000    -0.6080530000     3.1540930000
| 18>  H        1.5453250000    -1.1851030000    -1.5031210000
| 19>  H        1.6691210000     0.2208500000    -0.4317450000
| 20>  H        0.7103720000    -1.1885280000     0.0435690000
| 21>  H        3.7311140000    -1.2168760000    -0.4649630000
| 22>  H        2.7948860000    -2.5715430000     0.1641800000
| 23>  H        1.1702900000    -1.0329910000     2.1463770000
| 24>  H        2.3616230000    -0.9375890000     3.4309600000
| 25>  H        2.1175910000    -2.4763190000     2.5732610000
| 26>  H        5.1707260000    -1.1024490000     1.0866810000
| 27>  H        4.5711620000    -2.4321180000     2.0767010000
| 28>  H        4.8723610000     0.4714550000     3.0244890000
| 29>  H        6.0310740000    -0.8333120000     3.3323560000
| 30>  H        4.4287760000    -0.8993970000     4.0518990000
| 31> *
| 32>
| 33>                          ****END OF INPUT****
 Total Charge           Charge          ....    0
 Multiplicity           Mult            ....    1
 Number of Electrons    NEL             ....   50
 Basis Dimension        Dim             ....  149

MULLIKEN ATOMIC CHARGES
-----------------------
   0 C :   -0.014551
   1 C :    0.061986
   2 N :   -0.337812
   3 C :    0.104382
   4 C :    0.065558
   5 C :   -0.022144
   6 H :    0.017735
   7 H :    0.032267
   8 H :    0.019695
   9 H :    0.006045
  10 H :   -0.017006
  11 H :    0.018302
  12 H :    0.019570
  13 H :   -0.017227
  14 H :    0.006926
  15 H :   -0.018440
  16 H :    0.033763
  17 H :    0.018518
  18 H :    0.022432
Sum of atomic charges:   -0.0000000

LOEWDIN ATOMIC CHARGES
----------------------
   0 C :   -0.073478
   1 C :    0.011576
   2 N :   -0.115280
   3 C :    0.002024
   4 C :    0.011947
   5 C :   -0.074781
   6 H :    0.030936
   7 H :    0.029207
   8 H :    0.021916
   9 H :    0.020181
  10 H :   -0.003365
  11 H :    0.021130
  12 H :    0.021451
  13 H :   -0.003187
  14 H :    0.020485
  15 H :   -0.003704
  16 H :    0.029394
  17 H :    0.031163
  18 H :    0.022382

  Mayer bond orders larger than 0.1
B(  0-C ,  1-C ) :   1.1204 B(  0-C ,  6-H ) :   0.9510 B(  0-C ,  7-H ) :   0.9609
B(  0-C ,  8-H ) :   0.9581 B(  1-C ,  2-N ) :   1.0245 B(  1-C ,  9-H ) :   0.9374
B(  1-C , 10-H ) :   0.9133 B(  2-N ,  3-C ) :   1.0270 B(  2-N ,  4-C ) :   1.0243
B(  3-C , 11-H ) :   0.9629 B(  3-C , 12-H ) :   0.9628 B(  3-C , 13-H ) :   0.9316
B(  4-C ,  5-C ) :   1.1175 B(  4-C , 14-H ) :   0.9372 B(  4-C , 15-H ) :   0.9138
B(  5-C , 16-H ) :   0.9608 B(  5-C , 17-H ) :   0.9513 B(  5-C , 18-H ) :   0.9591

FINAL SINGLE POINT ENERGY      -252.554143690796

DIPOLE MOMENT
-------------
                                X             Y             Z
Electronic contribution:      0.48974       0.57000      -0.49635
Nuclear contribution   :     -0.47113      -0.70527       0.48889
                        -----------------------------------------
Total Dipole Moment    :      0.01862      -0.13526      -0.00746
                        -----------------------------------------
Magnitude (a.u.)       :      0.13674
Magnitude (Debye)      :      0.34757

                             ****ORCA TERMINATED NORMALLY****
TOTAL RUN TIME: 0 days 0 hours 0 minutes 7 seconds 969 msec
