                         Program Version 3.0.3 - RELEASE   -
|  1> ! RI PBE def2-SVP def2-SVP/J NBO PAL2
|  2> % maxcore 2000
|  3> % output
|  4>     # printlevel mini
|  5>     print[ P_Basis ] 0
|  6>     print[ P_SCFInfo ] 1
|  7>     print[ P_SCFIterInfo ] 1
|  8>     print[ P_OrbEn ] 0
|  9>     print[ P_Cartesian ] 0
| 10> end
| 11> *xyz 0 1
| 12>  C        1.2192610000    -0.5022030000    -0.4928530000
| 13>  C        2.7200570000    -0.4103000000    -0.3123980000
| 14>  N        3.3065100000     0.4663830000    -1.3059180000
| 15>  C        4.7203650000     0.7578280000    -1.1225640000
| 16>  C        5.5703260000    -0.4583540000    -1.4557180000
| 17>  C        5.0972850000     1.9348320000    -2.0041880000
| 18>  H        0.7793880000    -1.1861030000     0.2359740000
| 19>  H        0.9738950000    -0.8584520000    -1.4955530000
| 20>  H        0.7450750000     0.4748600000    -0.3569150000
| 21>  H        3.1564870000    -1.4076600000    -0.4222590000
| 22>  H        2.9507620000    -0.0831620000     0.7184080000
| 23>  H        2.7910550000     1.3393020000    -1.3156320000
| 24>  H        4.9270960000     1.0356980000    -0.0710800000
| 25>  H        5.3912900000    -0.7682680000    -2.4886900000
| 26>  H        5.3471710000    -1.3044750000    -0.8029250000
| 27>  H        6.6313930000    -0.2249490000    -1.3398910000
| 28>  H        4.9098420000     1.6958620000    -3.0543700000
| 29>  H        6.1539680000     2.1850110000    -1.8898220000
| 30>  H        4.5144510000     2.8249500000    -1.7486050000
| 31> *
| 32>
| 33>                          ****END OF INPUT****
 Total Charge           Charge          ....    0
 Multiplicity           Mult            ....    1
 Number of Electrons    NEL             ....   50
 Basis Dimension        Dim             ....  149

MULLIKEN ATOMIC CHARGES
-----------------------
   0 C :   -0.029452
   1 C :    0.066954
   2 N :   -0.240037
   3 C :   -0.040241
   4 C :    0.012174
   5 C :    0.001403
   6 H :    0.021653
   7 H :    0.025990
   8 H :    0.015757
   9 H :    0.010498
  10 H :   -0.017462
  11 H :    0.088914
  12 H :   -0.021473
  13 H :    0.017255
  14 H :    0.020030
  15 H :    0.013148
  16 H :    0.024093
  17 H :    0.018578
  18 H :    0.012220
Sum of atomic charges:   -0.0000000

LOEWDIN ATOMIC CHARGES
----------------------
   0 C :   -0.070626
   1 C :    0.007897
   2 N :   -0.100328
   3 C :    0.001248
   4 C :   -0.066313
   5 C :   -0.064374
   6 H :    0.029734
   7 H :    0.027767
   8 H :    0.021620
   9 H :    0.017605
  10 H :   -0.003440
  11 H :    0.049360
  12 H :   -0.002039
  13 H :    0.026214
  14 H :    0.022983
  15 H :    0.025987
  16 H :    0.026925
  17 H :    0.028439
  18 H :    0.021340

  Mayer bond orders larger than 0.1
B(  0-C ,  1-C ) :   1.1181 B(  0-C ,  6-H ) :   0.9592 B(  0-C ,  7-H ) :   0.9620
B(  0-C ,  8-H ) :   0.9655 B(  1-C ,  2-N ) :   1.0360 B(  1-C ,  9-H ) :   0.9343
B(  1-C , 10-H ) :   0.9183 B(  2-N ,  3-C ) :   1.0395 B(  2-N , 11-H ) :   0.9376
B(  3-C ,  4-C ) :   1.0836 B(  3-C ,  5-C ) :   1.0826 B(  3-C , 12-H ) :   0.8999
B(  4-C , 13-H ) :   0.9545 B(  4-C , 14-H ) :   0.9550 B(  4-C , 15-H ) :   0.9572
B(  5-C , 16-H ) :   0.9586 B(  5-C , 17-H ) :   0.9589 B(  5-C , 18-H ) :   0.9565

FINAL SINGLE POINT ENERGY      -252.564798032365

DIPOLE MOMENT
-------------
                                X             Y             Z
Electronic contribution:     -0.35477       0.35556      -0.18834
Nuclear contribution   :      0.31247      -0.16710       0.42797
                        -----------------------------------------
Total Dipole Moment    :     -0.04230       0.18846       0.23962
                        -----------------------------------------
Magnitude (a.u.)       :      0.30778
Magnitude (Debye)      :      0.78231

                             ****ORCA TERMINATED NORMALLY****
TOTAL RUN TIME: 0 days 0 hours 0 minutes 7 seconds 381 msec
