                         Program Version 3.0.3 - RELEASE   -
|  1> ! RI PBE def2-SVP def2-SVP/J NBO PAL2
|  2> % maxcore 2000
|  3> % output
|  4>     # printlevel mini
|  5>     print[ P_Basis ] 0
|  6>     print[ P_SCFInfo ] 1
|  7>     print[ P_SCFIterInfo ] 1
|  8>     print[ P_OrbEn ] 0
|  9>     print[ P_Cartesian ] 0
| 10> end
| 11> *xyz 0 1
| 12>  C        1.0371940000     0.2973890000     0.0982890000
| 13>  C        2.5494350000     0.2256390000     0.1017010000
| 14>  N        3.0197560000    -0.9318960000    -0.6311010000
| 15>  C        4.4642450000    -1.0215950000    -0.7083270000
| 16>  C        4.8848810000    -2.2459130000    -1.4503130000
| 17>  C        5.6904960000    -2.2485750000    -2.5027310000
| 18>  H        0.6865690000     1.1531800000     0.6789870000
| 19>  H        0.6080760000    -0.6119020000     0.5238860000
| 20>  H        0.6505370000     0.4084330000    -0.9192950000
| 21>  H        2.9127360000     0.1378930000     1.1320540000
| 22>  H        2.9669460000     1.1701090000    -0.2920660000
| 23>  H        2.6343820000    -0.9241000000    -1.5689170000
| 24>  H        4.8428130000    -1.0784090000     0.3210550000
| 25>  H        4.9332420000    -0.1320360000    -1.1645710000
| 26>  H        4.4721690000    -3.1812200000    -1.0786030000
| 27>  H        6.1054300000    -1.3267250000    -2.8996910000
| 28>  H        5.9712940000    -3.1688620000    -3.0018570000
| 29> *
| 30>
| 31>                          ****END OF INPUT****
 Total Charge           Charge          ....    0
 Multiplicity           Mult            ....    1
 Number of Electrons    NEL             ....   48
 Basis Dimension        Dim             ....  139

MULLIKEN ATOMIC CHARGES
-----------------------
   0 C :   -0.024380
   1 C :    0.068392
   2 N :   -0.285581
   3 C :    0.190313
   4 C :   -0.111125
   5 C :   -0.027447
   6 H :    0.020159
   7 H :    0.029017
   8 H :    0.016915
   9 H :    0.006604
  10 H :   -0.017786
  11 H :    0.096072
  12 H :    0.012970
  13 H :   -0.023760
  14 H :    0.007165
  15 H :    0.016180
  16 H :    0.026291
Sum of atomic charges:   -0.0000000

LOEWDIN ATOMIC CHARGES
----------------------
   0 C :   -0.070773
   1 C :    0.007614
   2 N :   -0.103576
   3 C :    0.012612
   4 C :   -0.035874
   5 C :   -0.062046
   6 H :    0.029665
   7 H :    0.028218
   8 H :    0.022821
   9 H :    0.019194
  10 H :   -0.003705
  11 H :    0.052796
  12 H :    0.029912
  13 H :    0.000573
  14 H :    0.026913
  15 H :    0.020774
  16 H :    0.024882

  Mayer bond orders larger than 0.1
B(  0-C ,  1-C ) :   1.1146 B(  0-C ,  6-H ) :   0.9579 B(  0-C ,  7-H ) :   0.9633
B(  0-C ,  8-H ) :   0.9672 B(  1-C ,  2-N ) :   1.0339 B(  1-C ,  9-H ) :   0.9379
B(  1-C , 10-H ) :   0.9191 B(  2-N ,  3-C ) :   1.0066 B(  2-N , 11-H ) :   0.9444
B(  3-C ,  4-C ) :   1.0549 B(  3-C , 12-H ) :   0.9108 B(  3-C , 13-H ) :   0.9108
B(  4-C ,  5-C ) :   1.9996 B(  4-C , 14-H ) :   0.9602 B(  5-C , 15-H ) :   0.9443
B(  5-C , 16-H ) :   0.9455

FINAL SINGLE POINT ENERGY      -251.338262690486

DIPOLE MOMENT
-------------
                                X             Y             Z
Electronic contribution:      2.19084      -2.41735      -0.92865
Nuclear contribution   :     -2.22730       2.68662       0.81929
                        -----------------------------------------
Total Dipole Moment    :     -0.03646       0.26927      -0.10935
                        -----------------------------------------
Magnitude (a.u.)       :      0.29291
Magnitude (Debye)      :      0.74452

                             ****ORCA TERMINATED NORMALLY****
TOTAL RUN TIME: 0 days 0 hours 0 minutes 6 seconds 660 msec
