                         Program Version 3.0.3 - RELEASE   -
|  1> ! RI PBE def2-SVP def2-SVP/J NBO PAL2
|  2> % maxcore 2000
|  3> % output
|  4>     # printlevel mini
|  5>     print[ P_Basis ] 0
|  6>     print[ P_SCFInfo ] 1
|  7>     print[ P_SCFIterInfo ] 1
|  8>     print[ P_OrbEn ] 0
|  9>     print[ P_Cartesian ] 0
| 10> end
| 11> *xyz 0 1
| 12>  C        1.5510850000     0.7602670000     0.0942820000
| 13>  C        3.0171010000     0.4509560000    -0.1199240000
| 14>  N        3.3357490000    -0.8897040000     0.3270590000
| 15>  C        4.7222140000    -1.2430190000     0.0891510000
| 16>  C        4.9909230000    -2.6379800000     0.4024220000
| 17>  C        5.2073880000    -3.7942170000     0.6389870000
| 18>  H        1.3208080000     1.7818200000    -0.2148920000
| 19>  H        1.2835190000     0.6456870000     1.1463950000
| 20>  H        0.9174850000     0.0870830000    -0.4907560000
| 21>  H        3.6306560000     1.1508230000     0.4591080000
| 22>  H        3.2820540000     0.6135550000    -1.1806020000
| 23>  H        2.7336100000    -1.5635800000    -0.1313040000
| 24>  H        5.3545200000    -0.6076610000     0.7208870000
| 25>  H        5.0419010000    -1.0531890000    -0.9519860000
| 26>  H        5.4008680000    -4.8175320000     0.8579820000
| 27> *
| 28>
| 29>                          ****END OF INPUT****
 Total Charge           Charge          ....    0
 Multiplicity           Mult            ....    1
 Number of Electrons    NEL             ....   46
 Basis Dimension        Dim             ....  129

MULLIKEN ATOMIC CHARGES
-----------------------
   0 C :   -0.021757
   1 C :    0.069777
   2 N :   -0.281869
   3 C :    0.205864
   4 C :    0.304823
   5 C :   -0.481777
   6 H :    0.020750
   7 H :    0.031176
   8 H :    0.020565
   9 H :    0.007573
  10 H :   -0.015466
  11 H :    0.103530
  12 H :    0.028776
  13 H :    0.007021
  14 H :    0.001013
Sum of atomic charges:   -0.0000000

LOEWDIN ATOMIC CHARGES
----------------------
   0 C :   -0.069788
   1 C :    0.007657
   2 N :   -0.097351
   3 C :    0.007908
   4 C :   -0.026319
   5 C :   -0.079521
   6 H :    0.030675
   7 H :    0.029550
   8 H :    0.024518
   9 H :    0.020666
  10 H :   -0.003100
  11 H :    0.056380
  12 H :    0.043502
  13 H :    0.020264
  14 H :    0.034959

  Mayer bond orders larger than 0.1
B(  0-C ,  1-C ) :   1.1181 B(  0-C ,  6-H ) :   0.9561 B(  0-C ,  7-H ) :   0.9646
B(  0-C ,  8-H ) :   0.9651 B(  1-C ,  2-N ) :   1.0315 B(  1-C ,  9-H ) :   0.9334
B(  1-C , 10-H ) :   0.9192 B(  2-N ,  3-C ) :   1.0214 B(  2-N , 11-H ) :   0.9421
B(  3-C ,  4-C ) :   1.0465 B(  3-C , 12-H ) :   0.8873 B(  3-C , 13-H ) :   0.8858
B(  4-C ,  5-C ) :   2.3613 B(  4-C , 14-H ) :  -0.1058 B(  5-C , 14-H ) :   1.0968

FINAL SINGLE POINT ENERGY      -250.092078246828

DIPOLE MOMENT
-------------
                                X             Y             Z
Electronic contribution:      4.20993      -5.81446       1.27353
Nuclear contribution   :     -4.31294       6.00743      -1.63302
                        -----------------------------------------
Total Dipole Moment    :     -0.10301       0.19296      -0.35949
                        -----------------------------------------
Magnitude (a.u.)       :      0.42081
Magnitude (Debye)      :      1.06961

                             ****ORCA TERMINATED NORMALLY****
TOTAL RUN TIME: 0 days 0 hours 0 minutes 5 seconds 906 msec
