                         Program Version 3.0.3 - RELEASE   -
|  1> ! RI PBE def2-SVP def2-SVP/J NBO PAL2
|  2> % maxcore 2000
|  3> % output
|  4>     # printlevel mini
|  5>     print[ P_Basis ] 0
|  6>     print[ P_SCFInfo ] 1
|  7>     print[ P_SCFIterInfo ] 1
|  8>     print[ P_OrbEn ] 0
|  9>     print[ P_Cartesian ] 0
| 10> end
| 11> *xyz 0 1
| 12>  C        1.0443540000    -0.1553810000    -0.2309750000
| 13>  C        2.4523470000    -0.1614170000     0.3260200000
| 14>  N        3.4334970000    -0.2923520000    -0.7326640000
| 15>  C        4.8019470000    -0.2057300000    -0.2660100000
| 16>  C        5.7772220000    -0.5045880000    -1.3880730000
| 17>  N        5.5465760000     0.3806190000    -2.5246180000
| 18>  H        0.3068960000    -0.0912320000     0.5719680000
| 19>  H        0.8546280000    -1.0641810000    -0.8059800000
| 20>  H        0.8871680000     0.7016200000    -0.8929060000
| 21>  H        2.5761050000    -1.0117420000     1.0061070000
| 22>  H        2.6135260000     0.7465100000     0.9350040000
| 23>  H        3.2851080000     0.4511050000    -1.4070250000
| 24>  H        4.9412920000    -0.9446690000     0.5308120000
| 25>  H        5.0353460000     0.7839240000     0.1636520000
| 26>  H        5.6986970000    -1.5688930000    -1.6515230000
| 27>  H        6.7922480000    -0.3340820000    -1.0185410000
| 28>  H        4.7938710000     0.0178520000    -3.0966280000
| 29>  H        6.3636630000     0.4210260000    -3.1188200000
| 30> *
| 31>
| 32>                          ****END OF INPUT****
 Total Charge           Charge          ....    0
 Multiplicity           Mult            ....    1
 Number of Electrons    NEL             ....   50
 Basis Dimension        Dim             ....  144

MULLIKEN ATOMIC CHARGES
-----------------------
   0 C :   -0.029023
   1 C :    0.064298
   2 N :   -0.288080
   3 C :    0.104503
   4 C :    0.065697
   5 N :   -0.228840
   6 H :    0.022020
   7 H :    0.024583
   8 H :    0.018524
   9 H :    0.008595
  10 H :   -0.015238
  11 H :    0.091449
  12 H :    0.000590
  13 H :   -0.019519
  14 H :   -0.002799
  15 H :   -0.001243
  16 H :    0.091895
  17 H :    0.092588
Sum of atomic charges:   -0.0000000

LOEWDIN ATOMIC CHARGES
----------------------
   0 C :   -0.073450
   1 C :    0.007483
   2 N :   -0.108829
   3 C :    0.003774
   4 C :    0.000001
   5 N :   -0.114128
   6 H :    0.029846
   7 H :    0.026562
   8 H :    0.022881
   9 H :    0.018018
  10 H :   -0.002588
  11 H :    0.046625
  12 H :    0.019061
  13 H :   -0.002537
  14 H :    0.003400
  15 H :    0.020224
  16 H :    0.049717
  17 H :    0.053939

  Mayer bond orders larger than 0.1
B(  0-C ,  1-C ) :   1.1165 B(  0-C ,  6-H ) :   0.9565 B(  0-C ,  7-H ) :   0.9620
B(  0-C ,  8-H ) :   0.9665 B(  1-C ,  2-N ) :   1.0367 B(  1-C ,  9-H ) :   0.9402
B(  1-C , 10-H ) :   0.9191 B(  2-N ,  3-C ) :   1.0330 B(  2-N , 11-H ) :   0.9294
B(  3-C ,  4-C ) :   1.0794 B(  3-C , 12-H ) :   0.9298 B(  3-C , 13-H ) :   0.9100
B(  4-C ,  5-N ) :   1.1038 B(  4-C , 14-H ) :   0.9289 B(  4-C , 15-H ) :   0.9353
B(  5-N , 16-H ) :   0.9629 B(  5-N , 17-H ) :   0.9695

FINAL SINGLE POINT ENERGY      -268.576612746832

DIPOLE MOMENT
-------------
                                X             Y             Z
Electronic contribution:      2.07934       0.03251      -1.32349
Nuclear contribution   :     -1.91221      -0.11236       1.09930
                        -----------------------------------------
Total Dipole Moment    :      0.16713      -0.07985      -0.22419
                        -----------------------------------------
Magnitude (a.u.)       :      0.29081
Magnitude (Debye)      :      0.73918

                             ****ORCA TERMINATED NORMALLY****
TOTAL RUN TIME: 0 days 0 hours 0 minutes 6 seconds 875 msec
