                         Program Version 3.0.3 - RELEASE   -
|  1> ! RI PBE def2-SVP def2-SVP/J NBO PAL2
|  2> % maxcore 2000
|  3> % output
|  4>     # printlevel mini
|  5>     print[ P_Basis ] 0
|  6>     print[ P_SCFInfo ] 1
|  7>     print[ P_SCFIterInfo ] 1
|  8>     print[ P_OrbEn ] 0
|  9>     print[ P_Cartesian ] 0
| 10> end
| 11> *xyz 0 1
| 12>  C        0.9358090000     0.0220790000    -0.1339910000
| 13>  C        2.4448820000    -0.0979760000     0.0463240000
| 14>  N        2.8634660000    -0.1830640000     1.4430580000
| 15>  C        2.9944710000    -1.2901070000    -0.7256430000
| 16>  C        4.5088560000    -1.3409550000    -0.7948450000
| 17>  N        4.9405910000    -2.4980500000    -1.5714820000
| 18>  H        0.5431280000     0.8785860000     0.4209200000
| 19>  H        0.4326920000    -0.8770700000     0.2369590000
| 20>  H        0.6636080000     0.1481430000    -1.1857390000
| 21>  H        2.9113410000     0.8085720000    -0.3608980000
| 22>  H        2.4239370000    -0.9862510000     1.8815620000
| 23>  H        2.5472660000     0.6319860000     1.9553330000
| 24>  H        2.5968410000    -1.2834640000    -1.7449970000
| 25>  H        2.6188000000    -2.2118770000    -0.2572380000
| 26>  H        4.9149760000    -1.3058040000     0.2243120000
| 27>  H        4.8680750000    -0.4423410000    -1.3086340000
| 28>  H        4.6755180000    -3.3524650000    -1.0947210000
| 29>  H        5.9501650000    -2.5143330000    -1.6471720000
| 30> *
| 31>
| 32>                          ****END OF INPUT****
 Total Charge           Charge          ....    0
 Multiplicity           Mult            ....    1
 Number of Electrons    NEL             ....   50
 Basis Dimension        Dim             ....  144

MULLIKEN ATOMIC CHARGES
-----------------------
   0 C :    0.045472
   1 C :   -0.070492
   2 N :   -0.176909
   3 C :   -0.011699
   4 C :    0.107623
   5 N :   -0.216079
   6 H :    0.003414
   7 H :    0.002865
   8 H :    0.011345
   9 H :   -0.002037
  10 H :    0.079094
  11 H :    0.083557
  12 H :    0.007619
  13 H :   -0.013839
  14 H :   -0.006667
  15 H :   -0.010683
  16 H :    0.081707
  17 H :    0.085708
Sum of atomic charges:    0.0000000

LOEWDIN ATOMIC CHARGES
----------------------
   0 C :   -0.075983
   1 C :   -0.005338
   2 N :   -0.094433
   3 C :   -0.048344
   4 C :    0.006927
   5 N :   -0.117467
   6 H :    0.018835
   7 H :    0.019826
   8 H :    0.025370
   9 H :    0.020206
  10 H :    0.046047
  11 H :    0.049236
  12 H :    0.025853
  13 H :    0.015504
  14 H :   -0.000958
  15 H :    0.017114
  16 H :    0.046748
  17 H :    0.050858

  Mayer bond orders larger than 0.1
B(  0-C ,  1-C ) :   1.0744 B(  0-C ,  6-H ) :   0.9566 B(  0-C ,  7-H ) :   0.9532
B(  0-C ,  8-H ) :   0.9476 B(  1-C ,  2-N ) :   1.0664 B(  1-C ,  3-C ) :   1.0552
B(  1-C ,  9-H ) :   0.9085 B(  2-N , 10-H ) :   0.9685 B(  2-N , 11-H ) :   0.9677
B(  3-C ,  4-C ) :   1.0925 B(  3-C , 12-H ) :   0.9296 B(  3-C , 13-H ) :   0.9234
B(  4-C ,  5-N ) :   1.0821 B(  4-C , 14-H ) :   0.9259 B(  4-C , 15-H ) :   0.9260
B(  5-N , 16-H ) :   0.9695 B(  5-N , 17-H ) :   0.9660

FINAL SINGLE POINT ENERGY      -268.582964503394

DIPOLE MOMENT
-------------
                                X             Y             Z
Electronic contribution:      1.98954      -0.44437       0.12155
Nuclear contribution   :     -2.19775       0.43934       0.36735
                        -----------------------------------------
Total Dipole Moment    :     -0.20821      -0.00502       0.48890
                        -----------------------------------------
Magnitude (a.u.)       :      0.53142
Magnitude (Debye)      :      1.35075

                             ****ORCA TERMINATED NORMALLY****
TOTAL RUN TIME: 0 days 0 hours 0 minutes 6 seconds 736 msec
