                         Program Version 3.0.3 - RELEASE   -
|  1> ! RI PBE def2-SVP def2-SVP/J NBO PAL2
|  2> % maxcore 2000
|  3> % output
|  4>     # printlevel mini
|  5>     print[ P_Basis ] 0
|  6>     print[ P_SCFInfo ] 1
|  7>     print[ P_SCFIterInfo ] 1
|  8>     print[ P_OrbEn ] 0
|  9>     print[ P_Cartesian ] 0
| 10> end
| 11> *xyz 0 1
| 12>  C        0.9754420000    -0.0479840000    -0.0257230000
| 13>  C        2.4730520000    -0.0460070000    -0.0590140000
| 14>  N        3.0453530000     0.0263260000    -1.2774110000
| 15>  C        3.1970990000    -0.1141680000     1.0891270000
| 16>  C        4.6031030000    -0.1116090000     1.0460110000
| 17>  N        5.7557950000    -0.1056370000     0.9454150000
| 18>  H        0.5485090000     0.0115010000    -1.0276020000
| 19>  H        0.6056150000     0.8005300000     0.5521910000
| 20>  H        0.6056150000    -0.9589200000     0.4477270000
| 21>  H        2.4879980000     0.0755980000    -2.1074840000
| 22>  H        4.0475780000     0.0317690000    -1.3691510000
| 23>  H        2.7013620000    -0.1710490000     2.0472740000
| 24> *
| 25>
| 26>                          ****END OF INPUT****
 Total Charge           Charge          ....    0
 Multiplicity           Mult            ....    1
 Number of Electrons    NEL             ....   44
 Basis Dimension        Dim             ....  114

MULLIKEN ATOMIC CHARGES
-----------------------
   0 C :    0.051385
   1 C :   -0.127194
   2 N :   -0.016769
   3 C :   -0.160390
   4 C :   -0.135404
   5 N :    0.007485
   6 H :    0.014138
   7 H :    0.057541
   8 H :    0.056154
   9 H :    0.112571
  10 H :    0.128637
  11 H :    0.011846
Sum of atomic charges:    0.0000000

LOEWDIN ATOMIC CHARGES
----------------------
   0 C :   -0.053611
   1 C :    0.035911
   2 N :    0.044428
   3 C :   -0.190132
   4 C :   -0.059902
   5 N :   -0.108024
   6 H :    0.030730
   7 H :    0.050764
   8 H :    0.050561
   9 H :    0.074369
  10 H :    0.082378
  11 H :    0.042529

  Mayer bond orders larger than 0.1
B(  0-C ,  1-C ) :   1.0552 B(  0-C ,  6-H ) :   0.9512 B(  0-C ,  7-H ) :   0.9508
B(  0-C ,  8-H ) :   0.9504 B(  1-C ,  2-N ) :   1.3791 B(  1-C ,  3-C ) :   1.6101
B(  2-N ,  9-H ) :   0.9405 B(  2-N , 10-H ) :   0.9320 B(  3-C ,  4-C ) :   1.1482
B(  3-C , 11-H ) :   0.9497 B(  4-C ,  5-N ) :   2.9156

FINAL SINGLE POINT ENERGY      -264.991419349944

DIPOLE MOMENT
-------------
                                X             Y             Z
Electronic contribution:      6.20804      -0.09355       1.55179
Nuclear contribution   :     -8.14533       0.15673      -2.64018
                        -----------------------------------------
Total Dipole Moment    :     -1.93729       0.06318      -1.08839
                        -----------------------------------------
Magnitude (a.u.)       :      2.22299
Magnitude (Debye)      :      5.65038

                             ****ORCA TERMINATED NORMALLY****
TOTAL RUN TIME: 0 days 0 hours 0 minutes 5 seconds 245 msec
