                         Program Version 3.0.3 - RELEASE   -
|  1> ! RI PBE def2-SVP def2-SVP/J NBO PAL2
|  2> % maxcore 2000
|  3> % output
|  4>     # printlevel mini
|  5>     print[ P_Basis ] 0
|  6>     print[ P_SCFInfo ] 1
|  7>     print[ P_SCFIterInfo ] 1
|  8>     print[ P_OrbEn ] 0
|  9>     print[ P_Cartesian ] 0
| 10> end
| 11> *xyz 0 1
| 12>  C        1.0083900000     0.1695140000    -0.0336740000
| 13>  C        2.5184850000     0.0768620000     0.1339820000
| 14>  N        2.9966210000     0.5950360000     1.4134770000
| 15>  C        3.0144180000    -1.3685500000    -0.0278100000
| 16>  C        4.5050720000    -1.4149930000    -0.3325600000
| 17>  N        2.6379020000    -2.1282630000     1.1618580000
| 18>  H        0.6611780000     1.1943850000     0.1227220000
| 19>  H        0.5150260000    -0.4806590000     0.6936010000
| 20>  H        0.6955260000    -0.1426640000    -1.0345740000
| 21>  H        2.9999840000     0.6730140000    -0.6494450000
| 22>  H        2.4048870000     0.2348620000     2.1546350000
| 23>  H        2.9111400000     1.6030320000     1.4397560000
| 24>  H        2.4660250000    -1.8056980000    -0.8699260000
| 25>  H        5.0611500000    -0.9138980000     0.4641470000
| 26>  H        4.7379100000    -0.9125830000    -1.2762290000
| 27>  H        4.8556880000    -2.4479600000    -0.4061910000
| 28>  H        3.2910110000    -1.9138340000     1.9079510000
| 29>  H        2.7168860000    -3.1215930000     0.9854890000
| 30> *
| 31>
| 32>                          ****END OF INPUT****
 Total Charge           Charge          ....    0
 Multiplicity           Mult            ....    1
 Number of Electrons    NEL             ....   50
 Basis Dimension        Dim             ....  144

MULLIKEN ATOMIC CHARGES
-----------------------
   0 C :    0.053446
   1 C :   -0.040072
   2 N :   -0.189108
   3 C :   -0.042506
   4 C :    0.051926
   5 N :   -0.190884
   6 H :   -0.001736
   7 H :    0.016426
   8 H :   -0.002059
   9 H :   -0.006707
  10 H :    0.083949
  11 H :    0.087801
  12 H :   -0.007879
  13 H :    0.015359
  14 H :   -0.000795
  15 H :   -0.000437
  16 H :    0.084719
  17 H :    0.088556
Sum of atomic charges:   -0.0000000

LOEWDIN ATOMIC CHARGES
----------------------
   0 C :   -0.076650
   1 C :   -0.006389
   2 N :   -0.094277
   3 C :   -0.006441
   4 C :   -0.077237
   5 N :   -0.094859
   6 H :    0.016417
   7 H :    0.023469
   8 H :    0.021719
   9 H :    0.018442
  10 H :    0.046521
  11 H :    0.051232
  12 H :    0.018139
  13 H :    0.023180
  14 H :    0.022089
  15 H :    0.016699
  16 H :    0.046548
  17 H :    0.051399

  Mayer bond orders larger than 0.1
B(  0-C ,  1-C ) :   1.0769 B(  0-C ,  6-H ) :   0.9593 B(  0-C ,  7-H ) :   0.9461
B(  0-C ,  8-H ) :   0.9446 B(  1-C ,  2-N ) :   1.0843 B(  1-C ,  3-C ) :   0.9941
B(  1-C ,  9-H ) :   0.9187 B(  2-N , 10-H ) :   0.9629 B(  2-N , 11-H ) :   0.9689
B(  3-C ,  4-C ) :   1.0811 B(  3-C ,  5-N ) :   1.0830 B(  3-C , 12-H ) :   0.9193
B(  4-C , 13-H ) :   0.9445 B(  4-C , 14-H ) :   0.9442 B(  4-C , 15-H ) :   0.9583
B(  5-N , 16-H ) :   0.9633 B(  5-N , 17-H ) :   0.9685

FINAL SINGLE POINT ENERGY      -268.588293525373

DIPOLE MOMENT
-------------
                                X             Y             Z
Electronic contribution:      0.05473      -0.12772       1.32409
Nuclear contribution   :     -0.05525       0.13080      -1.33939
                        -----------------------------------------
Total Dipole Moment    :     -0.00051       0.00308      -0.01530
                        -----------------------------------------
Magnitude (a.u.)       :      0.01562
Magnitude (Debye)      :      0.03970

                             ****ORCA TERMINATED NORMALLY****
TOTAL RUN TIME: 0 days 0 hours 0 minutes 6 seconds 960 msec
