                         Program Version 3.0.3 - RELEASE   -
|  1> ! RI PBE def2-SVP def2-SVP/J NBO PAL2
|  2> % maxcore 2000
|  3> % output
|  4>     # printlevel mini
|  5>     print[ P_Basis ] 0
|  6>     print[ P_SCFInfo ] 1
|  7>     print[ P_SCFIterInfo ] 1
|  8>     print[ P_OrbEn ] 0
|  9>     print[ P_Cartesian ] 0
| 10> end
| 11> *xyz 0 1
| 12>  C        2.3469400000     0.7771750000     1.3190880000
| 13>  C        2.6787640000     0.0416410000     0.0297870000
| 14>  N        3.1012490000     0.9026990000    -1.0516410000
| 15>  C        2.1316370000     1.7724030000    -1.6604260000
| 16>  C        4.4277880000     1.0913400000    -1.3043150000
| 17>  N        4.9953820000     1.9389670000    -2.0655650000
| 18>  H        2.0354970000     0.0707980000     2.0925090000
| 19>  H        1.5317990000     1.4900820000     1.1731460000
| 20>  H        3.2158470000     1.3274690000     1.6871140000
| 21>  H        1.8102950000    -0.5385510000    -0.3026690000
| 22>  H        3.4821670000    -0.6775060000     0.2095890000
| 23>  H        1.1322320000     1.3694610000    -1.4923180000
| 24>  H        2.2944080000     1.8272960000    -2.7408320000
| 25>  H        2.1622300000     2.7939210000    -1.2596480000
| 26>  H        5.0599340000     0.3766670000    -0.7715130000
| 27>  H        4.3278210000     2.5736270000    -2.4998050000
| 28> *
| 29>
| 30>                          ****END OF INPUT****
 Total Charge           Charge          ....    0
 Multiplicity           Mult            ....    1
 Number of Electrons    NEL             ....   48
 Basis Dimension        Dim             ....  134

MULLIKEN ATOMIC CHARGES
-----------------------
   0 C :   -0.030959
   1 C :    0.059605
   2 N :   -0.248463
   3 C :    0.063380
   4 C :    0.004887
   5 N :   -0.155011
   6 H :    0.028593
   7 H :    0.028294
   8 H :    0.032434
   9 H :    0.019201
  10 H :    0.026230
  11 H :    0.026696
  12 H :    0.043021
  13 H :    0.035994
  14 H :    0.001066
  15 H :    0.065031
Sum of atomic charges:   -0.0000000

LOEWDIN ATOMIC CHARGES
----------------------
   0 C :   -0.078872
   1 C :    0.024116
   2 N :   -0.045249
   3 C :    0.007044
   4 C :    0.009108
   5 N :   -0.176590
   6 H :    0.032392
   7 H :    0.026612
   8 H :    0.030759
   9 H :    0.020415
  10 H :    0.028527
  11 H :    0.030022
  12 H :    0.027774
  13 H :    0.019409
  14 H :    0.011186
  15 H :    0.033347

  Mayer bond orders larger than 0.1
B(  0-C ,  1-C ) :   1.1099 B(  0-C ,  6-H ) :   0.9561 B(  0-C ,  7-H ) :   0.9631
B(  0-C ,  8-H ) :   0.9615 B(  1-C ,  2-N ) :   1.0190 B(  1-C ,  9-H ) :   0.9393
B(  1-C , 10-H ) :   0.9336 B(  2-N ,  3-C ) :   1.0110 B(  2-N ,  4-C ) :   1.1507
B(  2-N ,  5-N ) :   0.1044 B(  3-C , 11-H ) :   0.9574 B(  3-C , 12-H ) :   0.9552
B(  3-C , 13-H ) :   0.9584 B(  4-C ,  5-N ) :   1.9768 B(  4-C , 14-H ) :   0.9356
B(  5-N , 15-H ) :   0.9507

FINAL SINGLE POINT ENERGY      -267.384075716382

DIPOLE MOMENT
-------------
                                X             Y             Z
Electronic contribution:      3.77233       0.04930      -3.08409
Nuclear contribution   :     -5.08894      -0.35720       3.62641
                        -----------------------------------------
Total Dipole Moment    :     -1.31662      -0.30790       0.54232
                        -----------------------------------------
Magnitude (a.u.)       :      1.45684
Magnitude (Debye)      :      3.70300

                             ****ORCA TERMINATED NORMALLY****
TOTAL RUN TIME: 0 days 0 hours 0 minutes 6 seconds 824 msec
