                         Program Version 3.0.3 - RELEASE   -
|  1> ! RI PBE def2-SVP def2-SVP/J NBO PAL2
|  2> % maxcore 2000
|  3> % output
|  4>     # printlevel mini
|  5>     print[ P_Basis ] 0
|  6>     print[ P_SCFInfo ] 1
|  7>     print[ P_SCFIterInfo ] 1
|  8>     print[ P_OrbEn ] 0
|  9>     print[ P_Cartesian ] 0
| 10> end
| 11> *xyz 0 1
| 12>  C        1.9171470000    -0.5087670000    -0.1545670000
| 13>  C        3.2098150000     0.2372000000     0.0999310000
| 14>  N        4.2901560000    -0.3403690000    -0.6539940000
| 15>  C        5.5726550000     0.1282890000    -0.6198870000
| 16>  C        6.5313970000    -0.6321050000    -1.4882920000
| 17>  N        5.9953800000     1.1199280000     0.0649970000
| 18>  H        1.1020170000    -0.0662980000     0.4196590000
| 19>  H        2.0039340000    -1.5577760000     0.1404870000
| 20>  H        1.6420920000    -0.4693840000    -1.2118280000
| 21>  H        3.4467370000     0.2130830000     1.1720340000
| 22>  H        3.0872750000     1.2943090000    -0.1713960000
| 23>  H        4.0861230000    -1.1324170000    -1.2366470000
| 24>  H        6.2196880000    -0.5978540000    -2.5361350000
| 25>  H        6.5805300000    -1.6826460000    -1.1878560000
| 26>  H        7.5198050000    -0.1892020000    -1.3964630000
| 27>  H        5.2485390000     1.5476290000     0.6089570000
| 28> *
| 29>
| 30>                          ****END OF INPUT****
 Total Charge           Charge          ....    0
 Multiplicity           Mult            ....    1
 Number of Electrons    NEL             ....   48
 Basis Dimension        Dim             ....  134

MULLIKEN ATOMIC CHARGES
-----------------------
   0 C :   -0.062947
   1 C :    0.059108
   2 N :   -0.128224
   3 C :   -0.199199
   4 C :    0.042227
   5 N :   -0.121373
   6 H :    0.034739
   7 H :    0.032575
   8 H :    0.032681
   9 H :    0.029586
  10 H :    0.024670
  11 H :    0.097511
  12 H :    0.033692
  13 H :    0.028564
  14 H :    0.033822
  15 H :    0.062569
Sum of atomic charges:   -0.0000000

LOEWDIN ATOMIC CHARGES
----------------------
   0 C :   -0.069878
   1 C :    0.012913
   2 N :   -0.024699
   3 C :   -0.001529
   4 C :   -0.072604
   5 N :   -0.183005
   6 H :    0.037412
   7 H :    0.028264
   8 H :    0.027858
   9 H :    0.018598
  10 H :    0.018407
  11 H :    0.066717
  12 H :    0.034162
  13 H :    0.033363
  14 H :    0.042391
  15 H :    0.031630

  Mayer bond orders larger than 0.1
B(  0-C ,  1-C ) :   1.1179 B(  0-C ,  6-H ) :   0.9577 B(  0-C ,  7-H ) :   0.9636
B(  0-C ,  8-H ) :   0.9656 B(  1-C ,  2-N ) :   1.0149 B(  1-C ,  9-H ) :   0.9346
B(  1-C , 10-H ) :   0.9307 B(  2-N ,  3-C ) :   1.1869 B(  2-N ,  5-N ) :   0.1008
B(  2-N , 11-H ) :   0.9286 B(  3-C ,  4-C ) :   1.0369 B(  3-C ,  5-N ) :   2.0093
B(  4-C , 12-H ) :   0.9523 B(  4-C , 13-H ) :   0.9503 B(  4-C , 14-H ) :   0.9464
B(  5-N , 15-H ) :   0.9452

FINAL SINGLE POINT ENERGY      -267.398033894783

DIPOLE MOMENT
-------------
                                X             Y             Z
Electronic contribution:      3.13625       1.59312       0.44206
Nuclear contribution   :     -4.31469      -2.35792      -0.74288
                        -----------------------------------------
Total Dipole Moment    :     -1.17844      -0.76480      -0.30082
                        -----------------------------------------
Magnitude (a.u.)       :      1.43671
Magnitude (Debye)      :      3.65182

                             ****ORCA TERMINATED NORMALLY****
TOTAL RUN TIME: 0 days 0 hours 0 minutes 6 seconds 685 msec
