                         Program Version 3.0.3 - RELEASE   -
|  1> ! RI PBE def2-SVP def2-SVP/J NBO PAL2
|  2> % maxcore 2000
|  3> % output
|  4>     # printlevel mini
|  5>     print[ P_Basis ] 0
|  6>     print[ P_SCFInfo ] 1
|  7>     print[ P_SCFIterInfo ] 1
|  8>     print[ P_OrbEn ] 0
|  9>     print[ P_Cartesian ] 0
| 10> end
| 11> *xyz 0 1
| 12>  C        1.0409080000     0.0908720000    -0.3523730000
| 13>  C        2.5367350000     0.0345090000    -0.1324850000
| 14>  N        2.8444830000    -0.4615790000     1.1959810000
| 15>  C        4.2662930000    -0.5829080000     1.4253490000
| 16>  C        4.5480010000    -1.1388000000     2.7440740000
| 17>  N        4.7730110000    -1.6002530000     3.7719460000
| 18>  H        0.8115310000     0.4937840000    -1.3405780000
| 19>  H        0.5645110000     0.7214800000     0.4004020000
| 20>  H        0.5956840000    -0.9063590000    -0.2906380000
| 21>  H        2.9624640000     1.0405520000    -0.2189960000
| 22>  H        3.0094280000    -0.5729800000    -0.9244550000
| 23>  H        2.3927790000    -1.3556350000     1.3490360000
| 24>  H        4.7220090000     0.4120500000     1.3740260000
| 25>  H        4.7928430000    -1.2069520000     0.6817020000
| 26> *
| 27>
| 28>                          ****END OF INPUT****
 Total Charge           Charge          ....    0
 Multiplicity           Mult            ....    1
 Number of Electrons    NEL             ....   46
 Basis Dimension        Dim             ....  124

MULLIKEN ATOMIC CHARGES
-----------------------
   0 C :   -0.022959
   1 C :    0.072479
   2 N :   -0.289038
   3 C :    0.191494
   4 C :   -0.285475
   5 N :    0.060166
   6 H :    0.025109
   7 H :    0.039402
   8 H :    0.023321
   9 H :    0.009856
  10 H :   -0.007884
  11 H :    0.112524
  12 H :    0.041515
  13 H :    0.029490
Sum of atomic charges:    0.0000000

LOEWDIN ATOMIC CHARGES
----------------------
   0 C :   -0.068049
   1 C :    0.009801
   2 N :   -0.092852
   3 C :   -0.002700
   4 C :   -0.047714
   5 N :   -0.056195
   6 H :    0.033246
   7 H :    0.032529
   8 H :    0.025682
   9 H :    0.022168
  10 H :    0.000804
  11 H :    0.060718
  12 H :    0.052694
  13 H :    0.029869

  Mayer bond orders larger than 0.1
B(  0-C ,  1-C ) :   1.1161 B(  0-C ,  6-H ) :   0.9556 B(  0-C ,  7-H ) :   0.9641
B(  0-C ,  8-H ) :   0.9666 B(  1-C ,  2-N ) :   1.0222 B(  1-C ,  9-H ) :   0.9356
B(  1-C , 10-H ) :   0.9222 B(  2-N ,  3-C ) :   1.0400 B(  2-N , 11-H ) :   0.9386
B(  3-C ,  4-C ) :   1.1062 B(  3-C , 12-H ) :   0.8805 B(  3-C , 13-H ) :   0.8866
B(  4-C ,  5-N ) :   3.0625

FINAL SINGLE POINT ENERGY      -266.170645389261

DIPOLE MOMENT
-------------
                                X             Y             Z
Electronic contribution:      5.59863      -2.81044       7.76474
Nuclear contribution   :     -5.95469       3.11695      -9.27053
                        -----------------------------------------
Total Dipole Moment    :     -0.35605       0.30650      -1.50579
                        -----------------------------------------
Magnitude (a.u.)       :      1.57738
Magnitude (Debye)      :      4.00938

                             ****ORCA TERMINATED NORMALLY****
TOTAL RUN TIME: 0 days 0 hours 0 minutes 5 seconds 756 msec
