                         Program Version 3.0.3 - RELEASE   -
|  1> ! RI PBE def2-SVP def2-SVP/J NBO PAL2
|  2> % maxcore 2000
|  3> % output
|  4>     # printlevel mini
|  5>     print[ P_Basis ] 0
|  6>     print[ P_SCFInfo ] 1
|  7>     print[ P_SCFIterInfo ] 1
|  8>     print[ P_OrbEn ] 0
|  9>     print[ P_Cartesian ] 0
| 10> end
| 11> *xyz 0 1
| 12>  C        1.7098820000     0.3533490000    -0.0408280000
| 13>  C        3.1636250000     0.0074710000    -0.3116560000
| 14>  N        3.4965450000    -1.2935560000     0.2091800000
| 15>  C        4.4577200000    -1.3694610000     1.0303400000
| 16>  N        4.9055140000    -2.5459360000     1.5446540000
| 17>  C        4.1841240000    -3.7710730000     1.3146950000
| 18>  H        1.4465630000     1.3131320000    -0.4927460000
| 19>  H        1.5191010000     0.4151660000     1.0333520000
| 20>  H        1.0540060000    -0.4159000000    -0.4535810000
| 21>  H        3.8168560000     0.7965870000     0.0996800000
| 22>  H        3.3275700000    -0.0001580000    -1.3962480000
| 23>  H        5.0297350000    -0.4942400000     1.3713080000
| 24>  H        5.4775450000    -2.4855700000     2.3671420000
| 25>  H        3.1804930000    -3.7532120000     1.7548440000
| 26>  H        4.7484040000    -4.6027390000     1.7370390000
| 27>  H        4.0666170000    -3.9299620000     0.2420250000
| 28> *
| 29>
| 30>                          ****END OF INPUT****
 Total Charge           Charge          ....    0
 Multiplicity           Mult            ....    1
 Number of Electrons    NEL             ....   48
 Basis Dimension        Dim             ....  134

MULLIKEN ATOMIC CHARGES
-----------------------
   0 C :   -0.021031
   1 C :    0.080249
   2 N :   -0.233611
   3 C :    0.038918
   4 N :   -0.156449
   5 C :    0.094677
   6 H :    0.009954
   7 H :    0.011523
   8 H :    0.025435
   9 H :   -0.025856
  10 H :    0.014929
  11 H :   -0.030933
  12 H :    0.116401
  13 H :    0.021985
  14 H :    0.014888
  15 H :    0.038923
Sum of atomic charges:    0.0000000

LOEWDIN ATOMIC CHARGES
----------------------
   0 C :   -0.073860
   1 C :    0.004887
   2 N :   -0.163650
   3 C :    0.016702
   4 N :   -0.013504
   5 C :    0.010062
   6 H :    0.023783
   7 H :    0.021221
   8 H :    0.027021
   9 H :   -0.003339
  10 H :    0.020028
  11 H :   -0.013981
  12 H :    0.071174
  13 H :    0.018859
  14 H :    0.022942
  15 H :    0.031654

  Mayer bond orders larger than 0.1
B(  0-C ,  1-C ) :   1.1134 B(  0-C ,  6-H ) :   0.9562 B(  0-C ,  7-H ) :   0.9656
B(  0-C ,  8-H ) :   0.9630 B(  1-C ,  2-N ) :   1.0398 B(  1-C ,  9-H ) :   0.9072
B(  1-C , 10-H ) :   0.9335 B(  2-N ,  3-C ) :   1.7976 B(  3-C ,  4-N ) :   1.2254
B(  3-C , 11-H ) :   0.9238 B(  4-N ,  5-C ) :   1.0357 B(  4-N , 12-H ) :   0.9399
B(  5-C , 13-H ) :   0.9623 B(  5-C , 14-H ) :   0.9690 B(  5-C , 15-H ) :   0.9625

FINAL SINGLE POINT ENERGY      -267.389173132307

DIPOLE MOMENT
-------------
                                X             Y             Z
Electronic contribution:      3.15056      -1.37988       0.77661
Nuclear contribution   :     -2.60315       1.20593      -0.09154
                        -----------------------------------------
Total Dipole Moment    :      0.54741      -0.17395       0.68507
                        -----------------------------------------
Magnitude (a.u.)       :      0.89400
Magnitude (Debye)      :      2.27236

                             ****ORCA TERMINATED NORMALLY****
TOTAL RUN TIME: 0 days 0 hours 0 minutes 6 seconds 351 msec
