                         Program Version 3.0.3 - RELEASE   -
|  1> ! RI PBE def2-SVP def2-SVP/J NBO PAL2
|  2> % maxcore 2000
|  3> % output
|  4>     # printlevel mini
|  5>     print[ P_Basis ] 0
|  6>     print[ P_SCFInfo ] 1
|  7>     print[ P_SCFIterInfo ] 1
|  8>     print[ P_OrbEn ] 0
|  9>     print[ P_Cartesian ] 0
| 10> end
| 11> *xyz 0 1
| 12>  C        1.0523840000     0.6443800000    -0.0088730000
| 13>  C        0.6300690000    -0.5200410000    -0.8915620000
| 14>  N        1.6641080000    -0.9961730000    -1.7858980000
| 15>  C        2.7869040000    -1.7009650000    -1.2321660000
| 16>  N        1.8053340000    -0.2632160000    -2.8907110000
| 17>  C        2.8648830000    -0.3276190000    -3.6006040000
| 18>  H        0.2201880000     0.9684430000     0.6210110000
| 19>  H        1.3664690000     1.4915260000    -0.6223450000
| 20>  H        1.8809570000     0.3709740000     0.6496780000
| 21>  H       -0.2106670000    -0.2266200000    -1.5223540000
| 22>  H        0.3024550000    -1.3644690000    -0.2772190000
| 23>  H        2.4774340000    -2.1884330000    -0.3083360000
| 24>  H        3.6370880000    -1.0361340000    -1.0154910000
| 25>  H        3.1352730000    -2.4735590000    -1.9250700000
| 26>  H        2.8793600000     0.2647730000    -4.5073860000
| 27>  H        3.7343710000    -0.9409560000    -3.3681630000
| 28> *
| 29>
| 30>                          ****END OF INPUT****
 Total Charge           Charge          ....    0
 Multiplicity           Mult            ....    1
 Number of Electrons    NEL             ....   48
 Basis Dimension        Dim             ....  134

MULLIKEN ATOMIC CHARGES
-----------------------
   0 C :   -0.033675
   1 C :    0.093456
   2 N :   -0.237039
   3 C :    0.092496
   4 N :   -0.066457
   5 C :   -0.080487
   6 H :    0.024837
   7 H :    0.035323
   8 H :    0.017674
   9 H :    0.022031
  10 H :    0.013125
  11 H :    0.025121
  12 H :    0.023645
  13 H :    0.040303
  14 H :    0.027571
  15 H :    0.002075
Sum of atomic charges:    0.0000000

LOEWDIN ATOMIC CHARGES
----------------------
   0 C :   -0.079981
   1 C :    0.013876
   2 N :   -0.008043
   3 C :   -0.003867
   4 N :   -0.031433
   5 C :   -0.102739
   6 H :    0.030836
   7 H :    0.030982
   8 H :    0.023263
   9 H :    0.028761
  10 H :    0.019295
  11 H :    0.030334
  12 H :    0.016292
  13 H :    0.027778
  14 H :    0.015081
  15 H :   -0.010435

  Mayer bond orders larger than 0.1
B(  0-C ,  1-C ) :   1.1138 B(  0-C ,  6-H ) :   0.9582 B(  0-C ,  7-H ) :   0.9620
B(  0-C ,  8-H ) :   0.9602 B(  1-C ,  2-N ) :   1.0133 B(  1-C ,  9-H ) :   0.9332
B(  1-C , 10-H ) :   0.9406 B(  2-N ,  3-C ) :   1.0132 B(  2-N ,  4-N ) :   1.1313
B(  2-N ,  5-C ) :   0.1477 B(  3-C , 11-H ) :   0.9564 B(  3-C , 12-H ) :   0.9405
B(  3-C , 13-H ) :   0.9527 B(  4-N ,  5-C ) :   1.8522 B(  5-C , 14-H ) :   0.9545
B(  5-C , 15-H ) :   0.9206

FINAL SINGLE POINT ENERGY      -267.349811265076

DIPOLE MOMENT
-------------
                                X             Y             Z
Electronic contribution:     -0.96866      -0.50229      -3.78881
Nuclear contribution   :      1.20143       0.15798       4.45860
                        -----------------------------------------
Total Dipole Moment    :      0.23277      -0.34432       0.66978
                        -----------------------------------------
Magnitude (a.u.)       :      0.78825
Magnitude (Debye)      :      2.00357

                             ****ORCA TERMINATED NORMALLY****
TOTAL RUN TIME: 0 days 0 hours 0 minutes 6 seconds 455 msec
