                         Program Version 3.0.3 - RELEASE   -
|  1> ! RI PBE def2-SVP def2-SVP/J NBO PAL2
|  2> % maxcore 2000
|  3> % output
|  4>     # printlevel mini
|  5>     print[ P_Basis ] 0
|  6>     print[ P_SCFInfo ] 1
|  7>     print[ P_SCFIterInfo ] 1
|  8>     print[ P_OrbEn ] 0
|  9>     print[ P_Cartesian ] 0
| 10> end
| 11> *xyz 0 1
| 12>  C        0.9694240000     0.0023050000    -0.5459280000
| 13>  C        2.3501030000    -0.0407430000    -0.0016050000
| 14>  N        3.2420540000     0.7539840000    -0.4173830000
| 15>  N        4.4906330000     0.5487180000     0.2301190000
| 16>  C        5.5867810000     0.8507370000    -0.6934380000
| 17>  C        5.2090460000     1.8202550000     0.3424570000
| 18>  H        0.2492920000     0.1938590000     0.2554210000
| 19>  H        0.7024880000    -0.9635610000    -0.9855840000
| 20>  H        0.8793800000     0.7797370000    -1.3039080000
| 21>  H        2.5921220000    -0.7754340000     0.7723990000
| 22>  H        5.2980940000     1.0781980000    -1.7132220000
| 23>  H        6.4594610000     0.2198050000    -0.5734680000
| 24>  H        4.6656590000     2.7014810000     0.0211980000
| 25>  H        5.7954630000     1.9242590000     1.2476320000
| 26> *
| 27>
| 28>                          ****END OF INPUT****
 Total Charge           Charge          ....    0
 Multiplicity           Mult            ....    1
 Number of Electrons    NEL             ....   46
 Basis Dimension        Dim             ....  124

MULLIKEN ATOMIC CHARGES
-----------------------
   0 C :    0.043070
   1 C :   -0.070672
   2 N :   -0.088102
   3 N :   -0.234244
   4 C :    0.033391
   5 C :    0.046818
   6 H :    0.042595
   7 H :    0.039256
   8 H :    0.033374
   9 H :    0.002225
  10 H :    0.034160
  11 H :    0.045324
  12 H :    0.030379
  13 H :    0.042427
Sum of atomic charges:   -0.0000000

LOEWDIN ATOMIC CHARGES
----------------------
   0 C :   -0.075623
   1 C :    0.001555
   2 N :   -0.053228
   3 N :   -0.077416
   4 C :   -0.002801
   5 C :    0.000144
   6 H :    0.043620
   7 H :    0.042821
   8 H :    0.036725
   9 H :    0.000635
  10 H :    0.018309
  11 H :    0.024013
  12 H :    0.017721
  13 H :    0.023525

  Mayer bond orders larger than 0.1
B(  0-C ,  1-C ) :   1.0627 B(  0-C ,  6-H ) :   0.9436 B(  0-C ,  7-H ) :   0.9441
B(  0-C ,  8-H ) :   0.9517 B(  1-C ,  2-N ) :   1.9436 B(  1-C ,  9-H ) :   0.9364
B(  2-N ,  3-N ) :   0.9396 B(  3-N ,  4-C ) :   0.9344 B(  3-N ,  5-C ) :   0.9355
B(  4-C ,  5-C ) :   1.1011 B(  4-C , 10-H ) :   0.9339 B(  4-C , 11-H ) :   0.9510
B(  5-C , 12-H ) :   0.9331 B(  5-C , 13-H ) :   0.9506

FINAL SINGLE POINT ENERGY      -266.120782857811

DIPOLE MOMENT
-------------
                                X             Y             Z
Electronic contribution:      2.01621       0.01334       0.73350
Nuclear contribution   :     -2.18852      -0.07363      -0.73567
                        -----------------------------------------
Total Dipole Moment    :     -0.17231      -0.06029      -0.00217
                        -----------------------------------------
Magnitude (a.u.)       :      0.18257
Magnitude (Debye)      :      0.46405

                             ****ORCA TERMINATED NORMALLY****
TOTAL RUN TIME: 0 days 0 hours 0 minutes 5 seconds 535 msec
