                         Program Version 3.0.3 - RELEASE   -
|  1> ! RI PBE def2-SVP def2-SVP/J NBO PAL2
|  2> % maxcore 2000
|  3> % output
|  4>     # printlevel mini
|  5>     print[ P_Basis ] 0
|  6>     print[ P_SCFInfo ] 1
|  7>     print[ P_SCFIterInfo ] 1
|  8>     print[ P_OrbEn ] 0
|  9>     print[ P_Cartesian ] 0
| 10> end
| 11> *xyz 0 1
| 12>  C        1.0205640000     0.1698260000    -0.1096200000
| 13>  C        2.4682540000    -0.1770730000     0.0740440000
| 14>  N        3.4588050000     0.3455600000    -0.5222500000
| 15>  N        2.6685660000    -1.2432110000     0.9527680000
| 16>  C        3.8860800000    -1.3299010000     1.7097230000
| 17>  C        2.5958410000    -1.0348940000     2.3852350000
| 18>  H        0.9014230000     1.0236130000    -0.7758760000
| 19>  H        0.5550650000     0.4034490000     0.8513180000
| 20>  H        0.4849800000    -0.6871110000    -0.5247670000
| 21>  H        3.1437610000     1.0522940000    -1.1815900000
| 22>  H        4.5911910000    -0.5151060000     1.5860400000
| 23>  H        4.3180140000    -2.3214070000     1.7867260000
| 24>  H        2.4496590000    -0.0176390000     2.7385980000
| 25>  H        2.0800970000    -1.8023900000     2.9523520000
| 26> *
| 27>
| 28>                          ****END OF INPUT****
 Total Charge           Charge          ....    0
 Multiplicity           Mult            ....    1
 Number of Electrons    NEL             ....   46
 Basis Dimension        Dim             ....  124

MULLIKEN ATOMIC CHARGES
-----------------------
   0 C :    0.077041
   1 C :   -0.186465
   2 N :   -0.090451
   3 N :   -0.219947
   4 C :    0.053629
   5 C :    0.027608
   6 H :    0.013741
   7 H :    0.030793
   8 H :    0.051362
   9 H :    0.081650
  10 H :    0.045884
  11 H :    0.035881
  12 H :    0.037678
  13 H :    0.041596
Sum of atomic charges:    0.0000000

LOEWDIN ATOMIC CHARGES
----------------------
   0 C :   -0.077582
   1 C :   -0.002247
   2 N :   -0.140590
   3 N :   -0.070649
   4 C :    0.022532
   5 C :    0.019099
   6 H :    0.030825
   7 H :    0.038752
   8 H :    0.047563
   9 H :    0.046007
  10 H :    0.022262
  11 H :    0.024103
  12 H :    0.018278
  13 H :    0.021646

  Mayer bond orders larger than 0.1
B(  0-C ,  1-C ) :   1.0549 B(  0-C ,  6-H ) :   0.9456 B(  0-C ,  7-H ) :   0.9385
B(  0-C ,  8-H ) :   0.9400 B(  1-C ,  2-N ) :   1.9778 B(  1-C ,  3-N ) :   1.0725
B(  2-N ,  9-H ) :   0.9202 B(  3-N ,  4-C ) :   0.9624 B(  3-N ,  5-C ) :   0.9472
B(  4-C ,  5-C ) :   1.0862 B(  4-C , 10-H ) :   0.9298 B(  4-C , 11-H ) :   0.9487
B(  5-C , 12-H ) :   0.9356 B(  5-C , 13-H ) :   0.9501

FINAL SINGLE POINT ENERGY      -266.157156153357

DIPOLE MOMENT
-------------
                                X             Y             Z
Electronic contribution:      1.98234      -0.98189      -1.00529
Nuclear contribution   :     -2.62500       1.23495       1.41086
                        -----------------------------------------
Total Dipole Moment    :     -0.64265       0.25305       0.40557
                        -----------------------------------------
Magnitude (a.u.)       :      0.80095
Magnitude (Debye)      :      2.03586

                             ****ORCA TERMINATED NORMALLY****
TOTAL RUN TIME: 0 days 0 hours 0 minutes 6 seconds 134 msec
