                         Program Version 3.0.3 - RELEASE   -
|  1> ! RI PBE def2-SVP def2-SVP/J NBO PAL2
|  2> % maxcore 2000
|  3> % output
|  4>     # printlevel mini
|  5>     print[ P_Basis ] 0
|  6>     print[ P_SCFInfo ] 1
|  7>     print[ P_SCFIterInfo ] 1
|  8>     print[ P_OrbEn ] 0
|  9>     print[ P_Cartesian ] 0
| 10> end
| 11> *xyz 0 1
| 12>  C        0.8124800000     0.0617130000     0.2008440000
| 13>  C        2.2855110000     0.0328840000     0.0415850000
| 14>  N        3.0591900000     0.0721290000     1.0479380000
| 15>  N        4.4035880000     0.0348830000     0.6843630000
| 16>  C        5.1772750000     0.0746980000     1.6906880000
| 17>  C        6.6503060000     0.0458920000     1.5314270000
| 18>  H        0.3633190000    -0.8325840000    -0.2428100000
| 19>  H        0.3882100000     0.9199190000    -0.3300250000
| 20>  H        0.5397740000     0.1180170000     1.2540190000
| 21>  H        2.7104390000    -0.0235500000    -0.9654500000
| 22>  H        4.7523490000     0.1312920000     2.6977150000
| 23>  H        6.9230020000    -0.0111560000     0.4782900000
| 24>  H        7.0746920000    -0.8118470000     2.0629540000
| 25>  H        7.0993640000     0.9405900000     1.9743810000
| 26> *
| 27>
| 28>                          ****END OF INPUT****
 Total Charge           Charge          ....    0
 Multiplicity           Mult            ....    1
 Number of Electrons    NEL             ....   46
 Basis Dimension        Dim             ....  124

MULLIKEN ATOMIC CHARGES
-----------------------
   0 C :    0.051512
   1 C :   -0.072070
   2 N :   -0.091451
   3 N :   -0.091450
   4 C :   -0.072072
   5 C :    0.051513
   6 H :    0.041686
   7 H :    0.042105
   8 H :    0.031189
   9 H :   -0.002971
  10 H :   -0.002972
  11 H :    0.031189
  12 H :    0.042107
  13 H :    0.041683
Sum of atomic charges:   -0.0000000

LOEWDIN ATOMIC CHARGES
----------------------
   0 C :   -0.074037
   1 C :    0.012065
   2 N :   -0.061283
   3 N :   -0.061283
   4 C :    0.012065
   5 C :   -0.074037
   6 H :    0.044404
   7 H :    0.044507
   8 H :    0.036455
   9 H :   -0.002111
  10 H :   -0.002111
  11 H :    0.036455
  12 H :    0.044504
  13 H :    0.044407

  Mayer bond orders larger than 0.1
B(  0-C ,  1-C ) :   1.0632 B(  0-C ,  6-H ) :   0.9425 B(  0-C ,  7-H ) :   0.9425
B(  0-C ,  8-H ) :   0.9510 B(  1-C ,  2-N ) :   1.8858 B(  1-C ,  4-C ) :   0.1037
B(  1-C ,  9-H ) :   0.9352 B(  2-N ,  3-N ) :   0.9741 B(  3-N ,  4-C ) :   1.8858
B(  4-C ,  5-C ) :   1.0632 B(  4-C , 10-H ) :   0.9352 B(  5-C , 11-H ) :   0.9510
B(  5-C , 12-H ) :   0.9425 B(  5-C , 13-H ) :   0.9425

FINAL SINGLE POINT ENERGY      -266.156195341505

DIPOLE MOMENT
-------------
                                X             Y             Z
Electronic contribution:     -0.00001      -0.00068       0.00003
Nuclear contribution   :      0.00001       0.00098      -0.00005
                        -----------------------------------------
Total Dipole Moment    :      0.00000       0.00030      -0.00001
                        -----------------------------------------
Magnitude (a.u.)       :      0.00030
Magnitude (Debye)      :      0.00077

                             ****ORCA TERMINATED NORMALLY****
TOTAL RUN TIME: 0 days 0 hours 0 minutes 5 seconds 602 msec
