                         Program Version 3.0.3 - RELEASE   -
|  1> ! RI PBE def2-SVP def2-SVP/J NBO PAL2
|  2> % maxcore 2000
|  3> % output
|  4>     # printlevel mini
|  5>     print[ P_Basis ] 0
|  6>     print[ P_SCFInfo ] 1
|  7>     print[ P_SCFIterInfo ] 1
|  8>     print[ P_OrbEn ] 0
|  9>     print[ P_Cartesian ] 0
| 10> end
| 11> *xyz 0 1
| 12>  C        0.9514280000     1.6175730000     0.9430770000
| 13>  C        2.4330150000     1.7034650000     1.0689940000
| 14>  N        3.1698010000     0.8062710000     0.5325130000
| 15>  N        4.4953630000     0.8527400000     0.6255760000
| 16>  C        5.2311270000    -0.2009270000    -0.0105740000
| 17>  C        5.1754650000     1.8975980000     1.3242570000
| 18>  H        0.4693140000     1.5574560000     1.9247850000
| 19>  H        0.6767520000     0.7336370000     0.3667490000
| 20>  H        0.5404810000     2.5013350000     0.4431820000
| 21>  H        2.8473420000     2.5463290000     1.6259910000
| 22>  H        4.5116300000    -0.8732220000    -0.4736050000
| 23>  H        5.8316690000    -0.7732330000     0.7080040000
| 24>  H        5.9036160000     0.1810100000    -0.7893020000
| 25>  H        4.9609160000     2.8847660000     0.8906020000
| 26>  H        6.2491000000     1.7231670000     1.2647690000
| 27>  H        4.8889620000     1.9322240000     2.3850620000
| 28> *
| 29>
| 30>                          ****END OF INPUT****
 Total Charge           Charge          ....    0
 Multiplicity           Mult            ....    1
 Number of Electrons    NEL             ....   48
 Basis Dimension        Dim             ....  134

MULLIKEN ATOMIC CHARGES
-----------------------
   0 C :    0.066486
   1 C :   -0.185963
   2 N :   -0.038980
   3 N :   -0.253129
   4 C :    0.111278
   5 C :    0.102920
   6 H :    0.020354
   7 H :    0.020069
   8 H :    0.021005
   9 H :   -0.023227
  10 H :    0.033024
  11 H :    0.021637
  12 H :    0.020381
  13 H :    0.025781
  14 H :    0.027069
  15 H :    0.031294
Sum of atomic charges:   -0.0000000

LOEWDIN ATOMIC CHARGES
----------------------
   0 C :   -0.073979
   1 C :   -0.092388
   2 N :   -0.042441
   3 N :   -0.014335
   4 C :    0.006245
   5 C :   -0.003819
   6 H :    0.030177
   7 H :    0.032023
   8 H :    0.030129
   9 H :   -0.010802
  10 H :    0.032596
  11 H :    0.016259
  12 H :    0.015675
  13 H :    0.020819
  14 H :    0.031618
  15 H :    0.022225

  Mayer bond orders larger than 0.1
B(  0-C ,  1-C ) :   1.0735 B(  0-C ,  6-H ) :   0.9469 B(  0-C ,  7-H ) :   0.9548
B(  0-C ,  8-H ) :   0.9479 B(  1-C ,  2-N ) :   1.8300 B(  1-C ,  3-N ) :   0.1471
B(  1-C ,  9-H ) :   0.9227 B(  2-N ,  3-N ) :   1.1324 B(  3-N ,  4-C ) :   1.0200
B(  3-N ,  5-C ) :   1.0219 B(  4-C , 10-H ) :   0.9593 B(  4-C , 11-H ) :   0.9616
B(  4-C , 12-H ) :   0.9616 B(  5-C , 13-H ) :   0.9436 B(  5-C , 14-H ) :   0.9575
B(  5-C , 15-H ) :   0.9438

FINAL SINGLE POINT ENERGY      -267.353335353120

DIPOLE MOMENT
-------------
                                X             Y             Z
Electronic contribution:     -0.16359      -0.94671      -0.60814
Nuclear contribution   :      0.81835       1.18501       0.79460
                        -----------------------------------------
Total Dipole Moment    :      0.65475       0.23830       0.18646
                        -----------------------------------------
Magnitude (a.u.)       :      0.72129
Magnitude (Debye)      :      1.83337

                             ****ORCA TERMINATED NORMALLY****
TOTAL RUN TIME: 0 days 0 hours 0 minutes 6 seconds 626 msec
