                         Program Version 3.0.3 - RELEASE   -
|  1> ! RI PBE def2-SVP def2-SVP/J NBO PAL2
|  2> % maxcore 2000
|  3> % output
|  4>     # printlevel mini
|  5>     print[ P_Basis ] 0
|  6>     print[ P_SCFInfo ] 1
|  7>     print[ P_SCFIterInfo ] 1
|  8>     print[ P_OrbEn ] 0
|  9>     print[ P_Cartesian ] 0
| 10> end
| 11> *xyz 0 1
| 12>  C        0.9387800000    -0.5270090000    -0.7258890000
| 13>  C        2.1669970000    -0.0249190000    -0.0249320000
| 14>  N        3.3680470000    -0.3672840000    -0.2804200000
| 15>  N        1.9767130000     0.8877970000     0.9843580000
| 16>  C        0.7930010000     1.4118000000     1.4467360000
| 17>  C        0.6788720000     2.2983660000     2.4352990000
| 18>  H        1.2249470000    -1.2387560000    -1.4981460000
| 19>  H        0.3883030000     0.2917150000    -1.1963790000
| 20>  H        0.2608070000    -1.0262710000    -0.0289090000
| 21>  H        3.3950530000    -1.0408420000    -1.0379060000
| 22>  H        2.8365040000     1.1897020000     1.4190830000
| 23>  H       -0.0917160000     1.0474600000     0.9386870000
| 24>  H        1.5412820000     2.6851740000     2.9662750000
| 25>  H       -0.2968800000     2.6547460000     2.7310620000
| 26> *
| 27>
| 28>                          ****END OF INPUT****
 Total Charge           Charge          ....    0
 Multiplicity           Mult            ....    1
 Number of Electrons    NEL             ....   46
 Basis Dimension        Dim             ....  124

MULLIKEN ATOMIC CHARGES
-----------------------
   0 C :    0.028178
   1 C :   -0.190291
   2 N :   -0.118676
   3 N :   -0.022419
   4 C :    0.017637
   5 C :   -0.071890
   6 H :    0.018973
   7 H :    0.055726
   8 H :    0.055797
   9 H :    0.082383
  10 H :    0.110364
  11 H :    0.002063
  12 H :    0.011414
  13 H :    0.020741
Sum of atomic charges:   -0.0000000

LOEWDIN ATOMIC CHARGES
----------------------
   0 C :   -0.083298
   1 C :    0.005817
   2 N :   -0.169017
   3 N :    0.048967
   4 C :    0.001657
   5 C :   -0.132934
   6 H :    0.037401
   7 H :    0.044167
   8 H :    0.043978
   9 H :    0.044502
  10 H :    0.083898
  11 H :    0.026666
  12 H :    0.020280
  13 H :    0.027916

  Mayer bond orders larger than 0.1
B(  0-C ,  1-C ) :   1.0505 B(  0-C ,  6-H ) :   0.9389 B(  0-C ,  7-H ) :   0.9356
B(  0-C ,  8-H ) :   0.9366 B(  1-C ,  2-N ) :   1.9440 B(  1-C ,  3-N ) :   1.1428
B(  2-N ,  9-H ) :   0.9270 B(  3-N ,  4-C ) :   1.1599 B(  3-N , 10-H ) :   0.9096
B(  4-C ,  5-C ) :   1.8755 B(  4-C , 11-H ) :   0.9456 B(  5-C , 12-H ) :   0.9527
B(  5-C , 13-H ) :   0.9400

FINAL SINGLE POINT ENERGY      -266.186729060710

DIPOLE MOMENT
-------------
                                X             Y             Z
Electronic contribution:      3.02520      -0.02941       0.29445
Nuclear contribution   :     -3.72046      -0.16814      -0.59597
                        -----------------------------------------
Total Dipole Moment    :     -0.69526      -0.19755      -0.30152
                        -----------------------------------------
Magnitude (a.u.)       :      0.78315
Magnitude (Debye)      :      1.99062

                             ****ORCA TERMINATED NORMALLY****
TOTAL RUN TIME: 0 days 0 hours 0 minutes 6 seconds 29 msec
