                         Program Version 3.0.3 - RELEASE   -
|  1> ! RI PBE def2-SVP def2-SVP/J NBO PAL2
|  2> % maxcore 2000
|  3> % output
|  4>     # printlevel mini
|  5>     print[ P_Basis ] 0
|  6>     print[ P_SCFInfo ] 1
|  7>     print[ P_SCFIterInfo ] 1
|  8>     print[ P_OrbEn ] 0
|  9>     print[ P_Cartesian ] 0
| 10> end
| 11> *xyz 0 1
| 12>  C        1.0169950000    -0.0998110000    -0.1061960000
| 13>  C        2.5159220000    -0.0916490000    -0.0322410000
| 14>  N        3.1765390000    -0.0776180000     1.0693580000
| 15>  N        2.4827610000    -0.1096210000     2.2206440000
| 16>  C        3.2582690000    -0.1113100000    -1.2463730000
| 17>  C        3.8198660000    -0.1236860000    -2.3105180000
| 18>  H        0.6112180000    -0.9561980000     0.4428120000
| 19>  H        0.6788200000    -0.1559900000    -1.1384210000
| 20>  H        0.5918460000     0.8095070000     0.3365490000
| 21>  H        3.0455580000     0.1969350000     2.9966070000
| 22>  H        1.5452580000     0.2760530000     2.2188810000
| 23>  H        4.3385480000    -0.1367100000    -3.2395020000
| 24> *
| 25>
| 26>                          ****END OF INPUT****
 Total Charge           Charge          ....    0
 Multiplicity           Mult            ....    1
 Number of Electrons    NEL             ....   44
 Basis Dimension        Dim             ....  114

MULLIKEN ATOMIC CHARGES
-----------------------
   0 C :    0.042373
   1 C :   -0.226817
   2 N :   -0.102095
   3 N :   -0.039871
   4 C :    0.454719
   5 C :   -0.460710
   6 H :    0.047233
   7 H :    0.031912
   8 H :    0.037076
   9 H :    0.124755
  10 H :    0.090081
  11 H :    0.001345
Sum of atomic charges:   -0.0000000

LOEWDIN ATOMIC CHARGES
----------------------
   0 C :   -0.072412
   1 C :   -0.090610
   2 N :   -0.032090
   3 N :    0.029039
   4 C :   -0.018118
   5 C :   -0.077283
   6 H :    0.039544
   7 H :    0.044458
   8 H :    0.034896
   9 H :    0.065842
  10 H :    0.042819
  11 H :    0.033915

  Mayer bond orders larger than 0.1
B(  0-C ,  1-C ) :   1.0687 B(  0-C ,  6-H ) :   0.9420 B(  0-C ,  7-H ) :   0.9425
B(  0-C ,  8-H ) :   0.9367 B(  1-C ,  2-N ) :   1.8001 B(  1-C ,  3-N ) :   0.1117
B(  1-C ,  4-C ) :   1.0255 B(  2-N ,  3-N ) :   1.1411 B(  3-N ,  9-H ) :   0.9623
B(  3-N , 10-H ) :   0.9325 B(  4-C ,  5-C ) :   2.2640 B(  5-C , 11-H ) :   1.0899

FINAL SINGLE POINT ENERGY      -264.903634045097

DIPOLE MOMENT
-------------
                                X             Y             Z
Electronic contribution:      3.95540      -0.18938      -0.75178
Nuclear contribution   :     -4.77464       0.56017       1.30645
                        -----------------------------------------
Total Dipole Moment    :     -0.81924       0.37079       0.55467
                        -----------------------------------------
Magnitude (a.u.)       :      1.05655
Magnitude (Debye)      :      2.68554

                             ****ORCA TERMINATED NORMALLY****
TOTAL RUN TIME: 0 days 0 hours 0 minutes 5 seconds 371 msec
