                         Program Version 3.0.3 - RELEASE   -
|  1> ! RI PBE def2-SVP def2-SVP/J NBO PAL2
|  2> % maxcore 2000
|  3> % output
|  4>     # printlevel mini
|  5>     print[ P_Basis ] 0
|  6>     print[ P_SCFInfo ] 1
|  7>     print[ P_SCFIterInfo ] 1
|  8>     print[ P_OrbEn ] 0
|  9>     print[ P_Cartesian ] 0
| 10> end
| 11> *xyz 0 1
| 12>  C        1.4458710000     1.7056110000     0.4912320000
| 13>  C        1.3641440000     0.2338740000     0.1465710000
| 14>  N        2.6092040000    -0.2101180000    -0.4130990000
| 15>  N        2.7480150000    -1.4779250000    -0.7846600000
| 16>  C        3.8480000000    -1.8822600000    -1.2816280000
| 17>  C        4.0264650000    -3.2965190000    -1.7047190000
| 18>  H        0.5019570000     2.0484090000     0.9170640000
| 19>  H        1.6514690000     2.3085560000    -0.3975060000
| 20>  H        2.2337420000     1.8962280000     1.2251230000
| 21>  H        0.5477880000     0.0629050000    -0.5665560000
| 22>  H        1.1267460000    -0.3470750000     1.0467740000
| 23>  H        3.3757500000     0.4400680000    -0.5223830000
| 24>  H        4.6931420000    -1.1919960000    -1.4093800000
| 25>  H        3.1100540000    -3.8571390000    -1.5185920000
| 26>  H        4.8468620000    -3.7766660000    -1.1603880000
| 27>  H        4.2697800000    -3.3678550000    -2.7703620000
| 28> *
| 29>
| 30>                          ****END OF INPUT****
 Total Charge           Charge          ....    0
 Multiplicity           Mult            ....    1
 Number of Electrons    NEL             ....   48
 Basis Dimension        Dim             ....  134

MULLIKEN ATOMIC CHARGES
-----------------------
   0 C :   -0.084125
   1 C :    0.141483
   2 N :   -0.167115
   3 N :   -0.035994
   4 C :   -0.146472
   5 C :    0.042217
   6 H :    0.033066
   7 H :    0.030509
   8 H :    0.030424
   9 H :    0.013820
  10 H :    0.011239
  11 H :    0.086835
  12 H :   -0.032542
  13 H :    0.026077
  14 H :    0.024817
  15 H :    0.025761
Sum of atomic charges:   -0.0000000

LOEWDIN ATOMIC CHARGES
----------------------
   0 C :   -0.075267
   1 C :    0.016653
   2 N :    0.002335
   3 N :   -0.034627
   4 C :   -0.077830
   5 C :   -0.076575
   6 H :    0.036571
   7 H :    0.026791
   8 H :    0.026384
   9 H :    0.016850
  10 H :    0.016766
  11 H :    0.039024
  12 H :   -0.015067
  13 H :    0.034804
  14 H :    0.031476
  15 H :    0.031713

  Mayer bond orders larger than 0.1
B(  0-C ,  1-C ) :   1.1122 B(  0-C ,  6-H ) :   0.9611 B(  0-C ,  7-H ) :   0.9636
B(  0-C ,  8-H ) :   0.9654 B(  1-C ,  2-N ) :   1.0124 B(  1-C ,  9-H ) :   0.9357
B(  1-C , 10-H ) :   0.9321 B(  2-N ,  3-N ) :   1.1007 B(  2-N ,  4-C ) :   0.1528
B(  2-N , 11-H ) :   0.9264 B(  3-N ,  4-C ) :   1.8439 B(  4-C ,  5-C ) :   1.0840
B(  4-C , 12-H ) :   0.9307 B(  5-C , 13-H ) :   0.9565 B(  5-C , 14-H ) :   0.9472
B(  5-C , 15-H ) :   0.9471

FINAL SINGLE POINT ENERGY      -267.359256538207

DIPOLE MOMENT
-------------
                                X             Y             Z
Electronic contribution:      0.51952      -1.37323      -0.54003
Nuclear contribution   :     -0.31593       2.02041       0.62808
                        -----------------------------------------
Total Dipole Moment    :      0.20360       0.64718       0.08805
                        -----------------------------------------
Magnitude (a.u.)       :      0.68414
Magnitude (Debye)      :      1.73894

                             ****ORCA TERMINATED NORMALLY****
TOTAL RUN TIME: 0 days 0 hours 0 minutes 6 seconds 447 msec
