                         Program Version 3.0.3 - RELEASE   -
|  1> ! RI PBE def2-SVP def2-SVP/J NBO PAL2
|  2> % maxcore 2000
|  3> % output
|  4>     # printlevel mini
|  5>     print[ P_Basis ] 0
|  6>     print[ P_SCFInfo ] 1
|  7>     print[ P_SCFIterInfo ] 1
|  8>     print[ P_OrbEn ] 0
|  9>     print[ P_Cartesian ] 0
| 10> end
| 11> *xyz 0 1
| 12>  C        1.1768790000     0.0796010000    -0.0157220000
| 13>  N        2.6194820000     0.0332240000    -0.0256500000
| 14>  C        3.2621590000    -0.7228660000    -1.0816620000
| 15>  C        3.3797090000     0.7566090000    -1.0375050000
| 16>  C        2.6813530000     1.5795010000    -2.0899990000
| 17>  C        4.6484360000     1.3768160000    -0.5151410000
| 18>  H        0.8066470000    -0.7530140000     0.5875160000
| 19>  H        0.7082710000     0.0073560000    -1.0072100000
| 20>  H        0.8425610000     1.0069690000     0.4559570000
| 21>  H        2.6241150000    -1.1437410000    -1.8574340000
| 22>  H        4.0931680000    -1.3559360000    -0.7833560000
| 23>  H        1.8039040000     1.0825390000    -2.5032240000
| 24>  H        3.3659400000     1.7794590000    -2.9182470000
| 25>  H        2.3683290000     2.5461050000    -1.6829190000
| 26>  H        5.0857670000     0.7499790000     0.2626870000
| 27>  H        4.4465700000     2.3617450000    -0.0831450000
| 28>  H        5.3808090000     1.5051440000    -1.3175470000
| 29> *
| 30>
| 31>                          ****END OF INPUT****
 Total Charge           Charge          ....    0
 Multiplicity           Mult            ....    1
 Number of Electrons    NEL             ....   48
 Basis Dimension        Dim             ....  139

MULLIKEN ATOMIC CHARGES
-----------------------
   0 C :    0.094388
   1 N :   -0.283349
   2 C :    0.098943
   3 C :   -0.279610
   4 C :    0.109169
   5 C :    0.104404
   6 H :    0.026939
   7 H :   -0.007576
   8 H :    0.021463
   9 H :    0.012703
  10 H :    0.020917
  11 H :   -0.000109
  12 H :    0.024331
  13 H :    0.015913
  14 H :    0.013175
  15 H :    0.012884
  16 H :    0.015413
Sum of atomic charges:    0.0000000

LOEWDIN ATOMIC CHARGES
----------------------
   0 C :   -0.003197
   1 N :   -0.109902
   2 C :    0.005987
   3 C :   -0.028508
   4 C :   -0.057084
   5 C :   -0.055217
   6 H :    0.025795
   7 H :   -0.000591
   8 H :    0.023999
   9 H :    0.009930
  10 H :    0.016099
  11 H :    0.024418
  12 H :    0.034017
  13 H :    0.029006
  14 H :    0.030944
  15 H :    0.027637
  16 H :    0.026667

  Mayer bond orders larger than 0.1
B(  0-C ,  1-N ) :   1.0397 B(  0-C ,  6-H ) :   0.9684 B(  0-C ,  7-H ) :   0.9370
B(  0-C ,  8-H ) :   0.9700 B(  1-N ,  2-C ) :   0.9662 B(  1-N ,  3-C ) :   0.9192
B(  2-C ,  3-C ) :   1.0306 B(  2-C ,  9-H ) :   0.9298 B(  2-C , 10-H ) :   0.9329
B(  3-C ,  4-C ) :   1.0816 B(  3-C ,  5-C ) :   1.0824 B(  4-C , 11-H ) :   0.9366
B(  4-C , 12-H ) :   0.9496 B(  4-C , 13-H ) :   0.9507 B(  5-C , 14-H ) :   0.9388
B(  5-C , 15-H ) :   0.9505 B(  5-C , 16-H ) :   0.9539

FINAL SINGLE POINT ENERGY      -251.334587693756

DIPOLE MOMENT
-------------
                                X             Y             Z
Electronic contribution:      0.60470      -1.72240       1.48601
Nuclear contribution   :     -0.77476       1.82630      -1.90332
                        -----------------------------------------
Total Dipole Moment    :     -0.17005       0.10390      -0.41731
                        -----------------------------------------
Magnitude (a.u.)       :      0.46245
Magnitude (Debye)      :      1.17546

                             ****ORCA TERMINATED NORMALLY****
TOTAL RUN TIME: 0 days 0 hours 0 minutes 7 seconds 88 msec
