                         Program Version 3.0.3 - RELEASE   -
|  1> ! RI PBE def2-SVP def2-SVP/J NBO PAL2
|  2> % maxcore 2000
|  3> % output
|  4>     # printlevel mini
|  5>     print[ P_Basis ] 0
|  6>     print[ P_SCFInfo ] 1
|  7>     print[ P_SCFIterInfo ] 1
|  8>     print[ P_OrbEn ] 0
|  9>     print[ P_Cartesian ] 0
| 10> end
| 11> *xyz 0 1
| 12>  C        1.0967500000    -0.0941680000     0.0115370000
| 13>  N        2.5297300000    -0.0211810000    -0.1588090000
| 14>  C        3.0534940000    -0.5995290000    -1.3798310000
| 15>  C        3.0049820000     0.8687410000    -1.2031590000
| 16>  C        4.1997140000     1.6942680000    -0.9157960000
| 17>  C        5.4049570000     1.4788020000    -1.4212740000
| 18>  H        0.8335180000    -1.0544880000     0.4611830000
| 19>  H        0.5432950000     0.0076090000    -0.9362140000
| 20>  H        0.7692030000     0.6988830000     0.6878630000
| 21>  H        2.3425380000    -1.0416990000    -2.0744490000
| 22>  H        3.9961550000    -1.1275270000    -1.2846110000
| 23>  H        2.2228990000     1.3815240000    -1.7668230000
| 24>  H        4.0389180000     2.5376250000    -0.2469820000
| 25>  H        5.5957440000     0.6488710000    -2.0939600000
| 26>  H        6.2433940000     2.1222590000    -1.1813840000
| 27> *
| 28>
| 29>                          ****END OF INPUT****
 Total Charge           Charge          ....    0
 Multiplicity           Mult            ....    1
 Number of Electrons    NEL             ....   46
 Basis Dimension        Dim             ....  129

MULLIKEN ATOMIC CHARGES
-----------------------
   0 C :    0.089965
   1 N :   -0.290626
   2 C :    0.067147
   3 C :   -0.020077
   4 C :    0.008919
   5 C :   -0.035943
   6 H :    0.026604
   7 H :   -0.007471
   8 H :    0.029466
   9 H :    0.019006
  10 H :    0.032442
  11 H :    0.022294
  12 H :    0.009033
  13 H :    0.021215
  14 H :    0.028027
Sum of atomic charges:    0.0000000

LOEWDIN ATOMIC CHARGES
----------------------
   0 C :   -0.000333
   1 N :   -0.103463
   2 C :    0.007843
   3 C :   -0.005007
   4 C :   -0.028150
   5 C :   -0.051608
   6 H :    0.025033
   7 H :    0.000608
   8 H :    0.025280
   9 H :    0.012917
  10 H :    0.021712
  11 H :    0.017758
  12 H :    0.029200
  13 H :    0.022332
  14 H :    0.025876

  Mayer bond orders larger than 0.1
B(  0-C ,  1-N ) :   1.0228 B(  0-C ,  6-H ) :   0.9701 B(  0-C ,  7-H ) :   0.9337
B(  0-C ,  8-H ) :   0.9713 B(  1-N ,  2-C ) :   0.9748 B(  1-N ,  3-C ) :   0.8930
B(  2-C ,  3-C ) :   1.0640 B(  2-C ,  9-H ) :   0.9292 B(  2-C , 10-H ) :   0.9364
B(  3-C ,  4-C ) :   1.0325 B(  3-C , 11-H ) :   0.9066 B(  4-C ,  5-C ) :   2.0113
B(  4-C , 12-H ) :   0.9532 B(  5-C , 13-H ) :   0.9480 B(  5-C , 14-H ) :   0.9437

FINAL SINGLE POINT ENERGY      -250.106001853914

DIPOLE MOMENT
-------------
                                X             Y             Z
Electronic contribution:      1.51767       0.60215       0.51601
Nuclear contribution   :     -1.82772      -0.56947      -0.83265
                        -----------------------------------------
Total Dipole Moment    :     -0.31004       0.03268      -0.31664
                        -----------------------------------------
Magnitude (a.u.)       :      0.44436
Magnitude (Debye)      :      1.12947

                             ****ORCA TERMINATED NORMALLY****
TOTAL RUN TIME: 0 days 0 hours 0 minutes 6 seconds 177 msec
