                         Program Version 3.0.3 - RELEASE   -
|  1> ! RI PBE def2-SVP def2-SVP/J NBO PAL2
|  2> % maxcore 2000
|  3> % output
|  4>     # printlevel mini
|  5>     print[ P_Basis ] 0
|  6>     print[ P_SCFInfo ] 1
|  7>     print[ P_SCFIterInfo ] 1
|  8>     print[ P_OrbEn ] 0
|  9>     print[ P_Cartesian ] 0
| 10> end
| 11> *xyz 0 1
| 12>  C        1.1921790000     0.0942650000    -0.0490650000
| 13>  N        2.6353160000     0.0334410000     0.0065010000
| 14>  C        3.2829400000    -0.7454700000    -1.0165710000
| 15>  C        3.3320350000     0.7436620000    -1.0563040000
| 16>  C        4.5164810000     1.4821010000    -0.7250850000
| 17>  C        5.5109370000     2.1067820000    -0.4753120000
| 18>  H        0.7785690000    -0.7647590000     0.4837470000
| 19>  H        0.7977090000     0.0868550000    -1.0778580000
| 20>  H        0.8486160000     1.0036390000     0.4478640000
| 21>  H        2.6608390000    -1.2286990000    -1.7673420000
| 22>  H        4.1647620000    -1.2959640000    -0.7093690000
| 23>  H        2.7059920000     1.2082600000    -1.8168850000
| 24>  H        6.3916160000     2.6573970000    -0.2438210000
| 25> *
| 26>
| 27>                          ****END OF INPUT****
 Total Charge           Charge          ....    0
 Multiplicity           Mult            ....    1
 Number of Electrons    NEL             ....   44
 Basis Dimension        Dim             ....  119

MULLIKEN ATOMIC CHARGES
-----------------------
   0 C :    0.085129
   1 N :   -0.270226
   2 C :    0.105003
   3 C :   -0.113686
   4 C :    0.481145
   5 C :   -0.464998
   6 H :    0.033353
   7 H :   -0.003314
   8 H :    0.036377
   9 H :    0.025988
  10 H :    0.040957
  11 H :    0.041331
  12 H :    0.002942
Sum of atomic charges:   -0.0000000

LOEWDIN ATOMIC CHARGES
----------------------
   0 C :    0.002879
   1 N :   -0.091129
   2 C :    0.025349
   3 C :   -0.012920
   4 C :   -0.017507
   5 C :   -0.073857
   6 H :    0.028048
   7 H :    0.002325
   8 H :    0.029076
   9 H :    0.015170
  10 H :    0.027604
  11 H :    0.029871
  12 H :    0.035089

  Mayer bond orders larger than 0.1
B(  0-C ,  1-N ) :   1.0201 B(  0-C ,  6-H ) :   0.9694 B(  0-C ,  7-H ) :   0.9354
B(  0-C ,  8-H ) :   0.9712 B(  1-N ,  2-C ) :   0.9694 B(  1-N ,  3-C ) :   0.9271
B(  2-C ,  3-C ) :   1.0263 B(  2-C ,  9-H ) :   0.9284 B(  2-C , 10-H ) :   0.9395
B(  3-C ,  4-C ) :   0.9846 B(  3-C , 11-H ) :   0.9124 B(  4-C ,  5-C ) :   2.3032
B(  4-C , 12-H ) :  -0.1015 B(  5-C , 12-H ) :   1.0916

FINAL SINGLE POINT ENERGY      -248.863078035022

DIPOLE MOMENT
-------------
                                X             Y             Z
Electronic contribution:      4.21882       2.01432       0.39854
Nuclear contribution   :     -4.61811      -2.19295      -0.78556
                        -----------------------------------------
Total Dipole Moment    :     -0.39929      -0.17863      -0.38702
                        -----------------------------------------
Magnitude (a.u.)       :      0.58406
Magnitude (Debye)      :      1.48456

                             ****ORCA TERMINATED NORMALLY****
TOTAL RUN TIME: 0 days 0 hours 0 minutes 5 seconds 718 msec
