                         Program Version 3.0.3 - RELEASE   -
|  1> ! RI PBE def2-SVP def2-SVP/J NBO PAL2
|  2> % maxcore 2000
|  3> % output
|  4>     # printlevel mini
|  5>     print[ P_Basis ] 0
|  6>     print[ P_SCFInfo ] 1
|  7>     print[ P_SCFIterInfo ] 1
|  8>     print[ P_OrbEn ] 0
|  9>     print[ P_Cartesian ] 0
| 10> end
| 11> *xyz 0 1
| 12>  C        1.1756450000     0.2287190000    -0.0803430000
| 13>  N        2.6168350000     0.1780750000    -0.0133440000
| 14>  C        3.2727890000    -0.7340790000    -0.9279500000
| 15>  C        3.3361130000     0.7303660000    -1.1366590000
| 16>  C        4.5736480000     1.5313440000    -0.8605140000
| 17>  N        4.2425530000     2.9322610000    -0.6385860000
| 18>  H        0.7530950000    -0.5551950000     0.5528060000
| 19>  H        0.7853640000     0.0937010000    -1.1025460000
| 20>  H        0.8328880000     1.1953420000     0.2948030000
| 21>  H        2.6502160000    -1.3096280000    -1.6099540000
| 22>  H        4.1308520000    -1.2680680000    -0.5307700000
| 23>  H        2.7224810000     1.1072680000    -1.9577800000
| 24>  H        5.2898700000     1.3689340000    -1.6828760000
| 25>  H        5.0313200000     1.1373790000     0.0504680000
| 26>  H        3.9476590000     3.3671350000    -1.5048030000
| 27>  H        5.0550620000     3.4434460000    -0.3182410000
| 28> *
| 29>
| 30>                          ****END OF INPUT****
 Total Charge           Charge          ....    0
 Multiplicity           Mult            ....    1
 Number of Electrons    NEL             ....   48
 Basis Dimension        Dim             ....  134

MULLIKEN ATOMIC CHARGES
-----------------------
   0 C :    0.094927
   1 N :   -0.279865
   2 C :    0.081249
   3 C :   -0.096651
   4 C :    0.173539
   5 N :   -0.216712
   6 H :    0.024328
   7 H :   -0.012303
   8 H :    0.029943
   9 H :    0.015209
  10 H :    0.022140
  11 H :    0.001351
  12 H :   -0.005544
  13 H :   -0.004783
  14 H :    0.084107
  15 H :    0.089067
Sum of atomic charges:    0.0000000

LOEWDIN ATOMIC CHARGES
----------------------
   0 C :    0.001718
   1 N :   -0.103667
   2 C :    0.003194
   3 C :   -0.007779
   4 C :    0.003393
   5 N :   -0.110740
   6 H :    0.023300
   7 H :   -0.001298
   8 H :    0.026755
   9 H :    0.011153
  10 H :    0.018503
  11 H :    0.007537
  12 H :    0.001185
  13 H :    0.026698
  14 H :    0.047924
  15 H :    0.052123

  Mayer bond orders larger than 0.1
B(  0-C ,  1-N ) :   1.0266 B(  0-C ,  6-H ) :   0.9702 B(  0-C ,  7-H ) :   0.9353
B(  0-C ,  8-H ) :   0.9711 B(  1-N ,  2-C ) :   0.9695 B(  1-N ,  3-C ) :   0.9504
B(  2-C ,  3-C ) :   1.0522 B(  2-C ,  9-H ) :   0.9270 B(  2-C , 10-H ) :   0.9374
B(  3-C ,  4-C ) :   1.0459 B(  3-C , 11-H ) :   0.9190 B(  4-C ,  5-N ) :   1.0859
B(  4-C , 12-H ) :   0.9189 B(  4-C , 13-H ) :   0.9103 B(  5-N , 14-H ) :   0.9701
B(  5-N , 15-H ) :   0.9647

FINAL SINGLE POINT ENERGY      -267.343715149553

DIPOLE MOMENT
-------------
                                X             Y             Z
Electronic contribution:      0.97552       0.01896       0.88831
Nuclear contribution   :     -0.78408       0.07290      -1.53933
                        -----------------------------------------
Total Dipole Moment    :      0.19144       0.09186      -0.65102
                        -----------------------------------------
Magnitude (a.u.)       :      0.68477
Magnitude (Debye)      :      1.74055

                             ****ORCA TERMINATED NORMALLY****
TOTAL RUN TIME: 0 days 0 hours 0 minutes 6 seconds 527 msec
