                         Program Version 3.0.3 - RELEASE   -
|  1> ! RI PBE def2-SVP def2-SVP/J NBO PAL2
|  2> % maxcore 2000
|  3> % output
|  4>     # printlevel mini
|  5>     print[ P_Basis ] 0
|  6>     print[ P_SCFInfo ] 1
|  7>     print[ P_SCFIterInfo ] 1
|  8>     print[ P_OrbEn ] 0
|  9>     print[ P_Cartesian ] 0
| 10> end
| 11> *xyz 0 1
| 12>  C        1.0937360000     0.1536260000    -0.0875950000
| 13>  N        2.5392070000     0.0955730000    -0.0511320000
| 14>  C        3.1851910000    -0.6880480000    -1.0687380000
| 15>  C        3.2188190000     0.8002890000    -1.1218800000
| 16>  C        4.4055790000     1.5395170000    -0.7845480000
| 17>  N        5.3598100000     2.1336950000    -0.5419540000
| 18>  H        0.6936890000    -0.6983120000     0.4650840000
| 19>  H        0.6866200000     0.1288900000    -1.1102770000
| 20>  H        0.7574410000     1.0692490000     0.4014590000
| 21>  H        2.5655940000    -1.1743820000    -1.8190770000
| 22>  H        4.0727350000    -1.2298860000    -0.7633760000
| 23>  H        2.6065790000     1.2713890000    -1.8877660000
| 24> *
| 25>
| 26>                          ****END OF INPUT****
 Total Charge           Charge          ....    0
 Multiplicity           Mult            ....    1
 Number of Electrons    NEL             ....   44
 Basis Dimension        Dim             ....  114

MULLIKEN ATOMIC CHARGES
-----------------------
   0 C :    0.080620
   1 N :   -0.263116
   2 C :    0.115010
   3 C :   -0.176046
   4 C :   -0.057662
   5 N :    0.061322
   6 H :    0.042137
   7 H :    0.004029
   8 H :    0.044498
   9 H :    0.037388
  10 H :    0.052231
  11 H :    0.059589
Sum of atomic charges:    0.0000000

LOEWDIN ATOMIC CHARGES
----------------------
   0 C :    0.005986
   1 N :   -0.081262
   2 C :    0.035438
   3 C :   -0.028602
   4 C :   -0.039398
   5 N :   -0.054595
   6 H :    0.032282
   7 H :    0.005818
   8 H :    0.032710
   9 H :    0.020488
  10 H :    0.032993
  11 H :    0.038141

  Mayer bond orders larger than 0.1
B(  0-C ,  1-N ) :   1.0138 B(  0-C ,  6-H ) :   0.9695 B(  0-C ,  7-H ) :   0.9381
B(  0-C ,  8-H ) :   0.9711 B(  1-N ,  2-C ) :   0.9638 B(  1-N ,  3-C ) :   0.9859
B(  2-C ,  3-C ) :   1.0467 B(  2-C ,  9-H ) :   0.9303 B(  2-C , 10-H ) :   0.9381
B(  3-C ,  4-C ) :   1.0955 B(  3-C , 11-H ) :   0.9083 B(  4-C ,  5-N ) :   3.0442

FINAL SINGLE POINT ENERGY      -264.940734380156

DIPOLE MOMENT
-------------
                                X             Y             Z
Electronic contribution:      6.03293       3.29402       0.39837
Nuclear contribution   :     -7.48701      -4.17232      -1.00175
                        -----------------------------------------
Total Dipole Moment    :     -1.45407      -0.87830      -0.60338
                        -----------------------------------------
Magnitude (a.u.)       :      1.80272
Magnitude (Debye)      :      4.58214

                             ****ORCA TERMINATED NORMALLY****
TOTAL RUN TIME: 0 days 0 hours 0 minutes 5 seconds 67 msec
