                         Program Version 3.0.3 - RELEASE   -
|  1> ! RI PBE def2-SVP def2-SVP/J NBO PAL2
|  2> % maxcore 2000
|  3> % output
|  4>     # printlevel mini
|  5>     print[ P_Basis ] 0
|  6>     print[ P_SCFInfo ] 1
|  7>     print[ P_SCFIterInfo ] 1
|  8>     print[ P_OrbEn ] 0
|  9>     print[ P_Cartesian ] 0
| 10> end
| 11> *xyz 0 1
| 12>  C        0.9206930000     0.0707540000    -0.0351030000
| 13>  N        2.3597010000     0.0533020000    -0.0301290000
| 14>  C        3.1670900000     1.1527640000    -0.0271730000
| 15>  C        4.4731640000     0.7316090000    -0.0226900000
| 16>  C        4.4525640000    -0.6827040000    -0.0229650000
| 17>  C        3.1353000000    -1.0685560000    -0.0276030000
| 18>  H        0.5775830000     1.1043940000    -0.0361710000
| 19>  H        0.5196390000    -0.4255870000     0.8518970000
| 20>  H        0.5257870000    -0.4253800000    -0.9249720000
| 21>  H        2.7452650000     2.1456230000    -0.0284980000
| 22>  H        5.3422830000     1.3705240000    -0.0195780000
| 23>  H        5.3036370000    -1.3457500000    -0.0201020000
| 24>  H        2.6876840000    -2.0502040000    -0.0293030000
| 25> *
| 26>
| 27>                          ****END OF INPUT****
 Total Charge           Charge          ....    0
 Multiplicity           Mult            ....    1
 Number of Electrons    NEL             ....   44
 Basis Dimension        Dim             ....  119

MULLIKEN ATOMIC CHARGES
-----------------------
   0 C :    0.100396
   1 N :   -0.185264
   2 C :    0.048321
   3 C :   -0.033708
   4 C :   -0.024414
   5 C :    0.046512
   6 H :    0.033180
   7 H :    0.042063
   8 H :    0.041993
   9 H :   -0.011067
  10 H :   -0.022006
  11 H :   -0.021553
  12 H :   -0.014452
Sum of atomic charges:   -0.0000000

LOEWDIN ATOMIC CHARGES
----------------------
   0 C :    0.025672
   1 N :    0.066016
   2 C :   -0.041707
   3 C :   -0.090435
   4 C :   -0.083792
   5 C :   -0.045452
   6 H :    0.034081
   7 H :    0.030606
   8 H :    0.030597
   9 H :    0.014927
  10 H :    0.022190
  11 H :    0.022194
  12 H :    0.015103

  Mayer bond orders larger than 0.1
B(  0-C ,  1-N ) :   0.9923 B(  0-C ,  6-H ) :   0.9691 B(  0-C ,  7-H ) :   0.9669
B(  0-C ,  8-H ) :   0.9669 B(  1-N ,  2-C ) :   1.2085 B(  1-N ,  5-C ) :   1.2117
B(  2-C ,  3-C ) :   1.4651 B(  2-C ,  9-H ) :   0.9826 B(  3-C ,  4-C ) :   1.3198
B(  3-C , 10-H ) :   1.0053 B(  4-C ,  5-C ) :   1.4626 B(  4-C , 11-H ) :   1.0058
B(  5-C , 12-H ) :   0.9875

FINAL SINGLE POINT ENERGY      -248.977887049873

DIPOLE MOMENT
-------------
                                X             Y             Z
Electronic contribution:      2.33760      -0.04109       0.00815
Nuclear contribution   :     -3.21971       0.06140      -0.01113
                        -----------------------------------------
Total Dipole Moment    :     -0.88211       0.02031      -0.00298
                        -----------------------------------------
Magnitude (a.u.)       :      0.88235
Magnitude (Debye)      :      2.24275

                             ****ORCA TERMINATED NORMALLY****
TOTAL RUN TIME: 0 days 0 hours 0 minutes 5 seconds 706 msec
