                         Program Version 3.0.3 - RELEASE   -
|  1> ! RI PBE def2-SVP def2-SVP/J NBO PAL2
|  2> % maxcore 2000
|  3> % output
|  4>     # printlevel mini
|  5>     print[ P_Basis ] 0
|  6>     print[ P_SCFInfo ] 1
|  7>     print[ P_SCFIterInfo ] 1
|  8>     print[ P_OrbEn ] 0
|  9>     print[ P_Cartesian ] 0
| 10> end
| 11> *xyz 0 1
| 12>  C        1.1074840000     0.0874220000    -0.0914770000
| 13>  N        2.5152840000     0.0506750000     0.1957390000
| 14>  C        2.9894870000     1.1646200000     0.9912140000
| 15>  C        4.4045510000     0.7508910000     1.3893430000
| 16>  C        4.3731630000    -0.7924810000     1.3455810000
| 17>  C        2.9430620000    -1.1252060000     0.9257150000
| 18>  H        0.8623010000     0.9924800000    -0.6524050000
| 19>  H        0.4868080000     0.0737930000     0.8243180000
| 20>  H        0.8265140000    -0.7734270000    -0.7029340000
| 21>  H        2.3620090000     1.3031830000     1.8937110000
| 22>  H        2.9515630000     2.0956490000     0.4193800000
| 23>  H        4.6745600000     1.1379240000     2.3731050000
| 24>  H        5.1320840000     1.1394890000     0.6750600000
| 25>  H        4.6256480000    -1.2452230000     2.3056640000
| 26>  H        5.0854790000    -1.1692660000     0.6099520000
| 27>  H        2.3092500000    -1.2897220000     1.8193780000
| 28>  H        2.8683510000    -2.0196910000     0.3015660000
| 29> *
| 30>
| 31>                          ****END OF INPUT****
 Total Charge           Charge          ....    0
 Multiplicity           Mult            ....    1
 Number of Electrons    NEL             ....   48
 Basis Dimension        Dim             ....  139

MULLIKEN ATOMIC CHARGES
-----------------------
   0 C :    0.106451
   1 N :   -0.375654
   2 C :    0.125712
   3 C :   -0.001998
   4 C :   -0.001982
   5 C :    0.122992
   6 H :    0.019398
   7 H :   -0.014767
   8 H :    0.019862
   9 H :   -0.027409
  10 H :    0.007674
  11 H :    0.003849
  12 H :    0.014674
  13 H :    0.005191
  14 H :    0.014763
  15 H :   -0.027073
  16 H :    0.008316
Sum of atomic charges:   -0.0000000

LOEWDIN ATOMIC CHARGES
----------------------
   0 C :    0.000103
   1 N :   -0.116786
   2 C :    0.019279
   3 C :   -0.043830
   4 C :   -0.043894
   5 C :    0.018754
   6 H :    0.022441
   7 H :   -0.003458
   8 H :    0.022454
   9 H :   -0.006748
  10 H :    0.017505
  11 H :    0.023782
  12 H :    0.027696
  13 H :    0.024066
  14 H :    0.027680
  15 H :   -0.006702
  16 H :    0.017659

  Mayer bond orders larger than 0.1
B(  0-C ,  1-N ) :   1.0420 B(  0-C ,  6-H ) :   0.9684 B(  0-C ,  7-H ) :   0.9350
B(  0-C ,  8-H ) :   0.9684 B(  1-N ,  2-C ) :   1.0123 B(  1-N ,  5-C ) :   1.0130
B(  2-C ,  3-C ) :   1.1412 B(  2-C ,  9-H ) :   0.8973 B(  2-C , 10-H ) :   0.9381
B(  3-C ,  4-C ) :   1.1371 B(  3-C , 11-H ) :   0.9289 B(  3-C , 12-H ) :   0.9213
B(  4-C ,  5-C ) :   1.1405 B(  4-C , 13-H ) :   0.9289 B(  4-C , 14-H ) :   0.9214
B(  5-C , 15-H ) :   0.8972 B(  5-C , 16-H ) :   0.9380

FINAL SINGLE POINT ENERGY      -251.363014971930

DIPOLE MOMENT
-------------
                                X             Y             Z
Electronic contribution:      1.01007       0.00747      -0.95488
Nuclear contribution   :     -1.03575      -0.00989       1.07729
                        -----------------------------------------
Total Dipole Moment    :     -0.02568      -0.00242       0.12241
                        -----------------------------------------
Magnitude (a.u.)       :      0.12509
Magnitude (Debye)      :      0.31796

                             ****ORCA TERMINATED NORMALLY****
TOTAL RUN TIME: 0 days 0 hours 0 minutes 7 seconds 140 msec
