                         Program Version 3.0.3 - RELEASE   -
|  1> ! RI PBE def2-SVP def2-SVP/J NBO PAL2
|  2> % maxcore 2000
|  3> % output
|  4>     # printlevel mini
|  5>     print[ P_Basis ] 0
|  6>     print[ P_SCFInfo ] 1
|  7>     print[ P_SCFIterInfo ] 1
|  8>     print[ P_OrbEn ] 0
|  9>     print[ P_Cartesian ] 0
| 10> end
| 11> *xyz 0 1
| 12>  C        1.1496170000     0.0866370000     0.3590710000
| 13>  N        2.4068840000     0.0850010000    -0.3320910000
| 14>  C        2.6846940000    -1.1000480000    -1.1276740000
| 15>  C        3.6079690000    -0.5863950000    -2.1858190000
| 16>  C        3.6054210000     0.7392200000    -2.1935920000
| 17>  C        2.6801510000     1.2616950000    -1.1415270000
| 18>  H        1.0760850000    -0.7912530000     1.0058610000
| 19>  H        0.2780030000     0.0809650000    -0.3220180000
| 20>  H        1.0726940000     0.9717650000     0.9955190000
| 21>  H        1.7728420000    -1.5265630000    -1.5918340000
| 22>  H        3.1251920000    -1.8951060000    -0.5130010000
| 23>  H        4.1624050000    -1.2299820000    -2.8566730000
| 24>  H        4.1573930000     1.3770210000    -2.8719620000
| 25>  H        1.7666760000     1.6792260000    -1.6106380000
| 26>  H        3.1175740000     2.0655970000    -0.5362320000
| 27> *
| 28>
| 29>                          ****END OF INPUT****
 Total Charge           Charge          ....    0
 Multiplicity           Mult            ....    1
 Number of Electrons    NEL             ....   46
 Basis Dimension        Dim             ....  129

MULLIKEN ATOMIC CHARGES
-----------------------
   0 C :    0.089624
   1 N :   -0.392866
   2 C :    0.220398
   3 C :   -0.095007
   4 C :   -0.095331
   5 C :    0.220602
   6 H :    0.022892
   7 H :   -0.008297
   8 H :    0.022700
   9 H :   -0.007002
  10 H :    0.016895
  11 H :   -0.002228
  12 H :   -0.002151
  13 H :   -0.006986
  14 H :    0.016758
Sum of atomic charges:   -0.0000000

LOEWDIN ATOMIC CHARGES
----------------------
   0 C :   -0.000946
   1 N :   -0.119244
   2 C :    0.026469
   3 C :   -0.038943
   4 C :   -0.039002
   5 C :    0.026505
   6 H :    0.023241
   7 H :   -0.004620
   8 H :    0.023205
   9 H :    0.007064
  10 H :    0.019827
  11 H :    0.024776
  12 H :    0.024781
  13 H :    0.007080
  14 H :    0.019809

  Mayer bond orders larger than 0.1
B(  0-C ,  1-N ) :   1.0429 B(  0-C ,  6-H ) :   0.9688 B(  0-C ,  7-H ) :   0.9383
B(  0-C ,  8-H ) :   0.9688 B(  1-N ,  2-C ) :   1.0155 B(  1-N ,  5-C ) :   1.0156
B(  2-C ,  3-C ) :   1.0264 B(  2-C ,  9-H ) :   0.8899 B(  2-C , 10-H ) :   0.9290
B(  3-C ,  4-C ) :   1.8873 B(  3-C , 11-H ) :   0.9873 B(  4-C ,  5-C ) :   1.0264
B(  4-C , 12-H ) :   0.9873 B(  5-C , 13-H ) :   0.8899 B(  5-C , 14-H ) :   0.9289

FINAL SINGLE POINT ENERGY      -250.141504170113

DIPOLE MOMENT
-------------
                                X             Y             Z
Electronic contribution:      2.88508      -0.00241      -1.36300
Nuclear contribution   :     -3.01414       0.00131       1.21121
                        -----------------------------------------
Total Dipole Moment    :     -0.12906      -0.00110      -0.15179
                        -----------------------------------------
Magnitude (a.u.)       :      0.19925
Magnitude (Debye)      :      0.50645

                             ****ORCA TERMINATED NORMALLY****
TOTAL RUN TIME: 0 days 0 hours 0 minutes 6 seconds 156 msec
