                         Program Version 3.0.3 - RELEASE   -
|  1> ! RI PBE def2-SVP def2-SVP/J NBO PAL2
|  2> % maxcore 2000
|  3> % output
|  4>     # printlevel mini
|  5>     print[ P_Basis ] 0
|  6>     print[ P_SCFInfo ] 1
|  7>     print[ P_SCFIterInfo ] 1
|  8>     print[ P_OrbEn ] 0
|  9>     print[ P_Cartesian ] 0
| 10> end
| 11> *xyz 0 1
| 12>  C        1.0718420000    -0.0515150000    -0.0752870000
| 13>  N        2.5092450000    -0.0055130000    -0.0704620000
| 14>  C        3.3008080000     1.0858560000    -0.0696830000
| 15>  C        4.6003660000     0.6349060000    -0.0644910000
| 16>  C        4.4772780000    -0.7624530000    -0.0624630000
| 17>  N        3.2072770000    -1.1401260000    -0.0661120000
| 18>  H        0.6857610000     0.9667190000    -0.0782330000
| 19>  H        0.7093490000    -0.5728280000     0.8119430000
| 20>  H        0.7153820000    -0.5756750000    -0.9632860000
| 21>  H        2.8880360000     2.0824180000    -0.0728250000
| 22>  H        5.4988570000     1.2294290000    -0.0624810000
| 23>  H        5.2565890000    -1.5099060000    -0.0585100000
| 24> *
| 25>
| 26>                          ****END OF INPUT****
 Total Charge           Charge          ....    0
 Multiplicity           Mult            ....    1
 Number of Electrons    NEL             ....   44
 Basis Dimension        Dim             ....  114

MULLIKEN ATOMIC CHARGES
-----------------------
   0 C :    0.119341
   1 N :   -0.149498
   2 C :    0.095709
   3 C :   -0.088042
   4 C :    0.030137
   5 N :   -0.124372
   6 H :    0.028988
   7 H :    0.050454
   8 H :    0.050433
   9 H :   -0.002662
  10 H :   -0.007996
  11 H :   -0.002495
Sum of atomic charges:   -0.0000000

LOEWDIN ATOMIC CHARGES
----------------------
   0 C :    0.023522
   1 N :    0.097668
   2 C :   -0.029241
   3 C :   -0.106858
   4 C :   -0.051795
   5 N :   -0.104295
   6 H :    0.031958
   7 H :    0.035856
   8 H :    0.035854
   9 H :    0.021349
  10 H :    0.027186
  11 H :    0.018795

  Mayer bond orders larger than 0.1
B(  0-C ,  1-N ) :   0.9811 B(  0-C ,  6-H ) :   0.9649 B(  0-C ,  7-H ) :   0.9651
B(  0-C ,  8-H ) :   0.9651 B(  1-N ,  2-C ) :   1.2264 B(  1-N ,  5-N ) :   1.1633
B(  2-C ,  3-C ) :   1.4349 B(  2-C ,  5-N ) :   0.1220 B(  2-C ,  9-H ) :   0.9785
B(  3-C ,  4-C ) :   1.3255 B(  3-C , 10-H ) :   0.9914 B(  4-C ,  5-N ) :   1.5556
B(  4-C , 11-H ) :   0.9899

FINAL SINGLE POINT ENERGY      -264.995283199365

DIPOLE MOMENT
-------------
                                X             Y             Z
Electronic contribution:      2.31747      -1.02759       0.00973
Nuclear contribution   :     -2.87704       1.75564      -0.01289
                        -----------------------------------------
Total Dipole Moment    :     -0.55957       0.72806      -0.00316
                        -----------------------------------------
Magnitude (a.u.)       :      0.91826
Magnitude (Debye)      :      2.33403

                             ****ORCA TERMINATED NORMALLY****
TOTAL RUN TIME: 0 days 0 hours 0 minutes 5 seconds 901 msec
