                         Program Version 3.0.3 - RELEASE   -
|  1> ! RI PBE def2-SVP def2-SVP/J NBO PAL2
|  2> % maxcore 2000
|  3> % output
|  4>     # printlevel mini
|  5>     print[ P_Basis ] 0
|  6>     print[ P_SCFInfo ] 1
|  7>     print[ P_SCFIterInfo ] 1
|  8>     print[ P_OrbEn ] 0
|  9>     print[ P_Cartesian ] 0
| 10> end
| 11> *xyz 0 1
| 12>  C        1.1228650000     0.0887300000    -0.2313890000
| 13>  N        2.5262310000     0.0234890000     0.0126900000
| 14>  C        3.3325650000    -1.1850130000     0.0620720000
| 15>  C        4.7397550000    -0.6313900000     0.3544400000
| 16>  C        4.4635410000     0.8493660000     0.4178630000
| 17>  N        3.2351960000     1.1417800000     0.2229700000
| 18>  H        0.7494510000    -0.9262440000    -0.3751280000
| 19>  H        0.8873360000     0.6659510000    -1.1332060000
| 20>  H        0.5780520000     0.5328840000     0.6099240000
| 21>  H        3.2902890000    -1.7306130000    -0.8881160000
| 22>  H        2.9824020000    -1.8651220000     0.8476060000
| 23>  H        5.4587560000    -0.8788410000    -0.4310120000
| 24>  H        5.1518980000    -1.0097120000     1.2936980000
| 25>  H        5.1919620000     1.6253460000     0.6058000000
| 26> *
| 27>
| 28>                          ****END OF INPUT****
 Total Charge           Charge          ....    0
 Multiplicity           Mult            ....    1
 Number of Electrons    NEL             ....   46
 Basis Dimension        Dim             ....  124

MULLIKEN ATOMIC CHARGES
-----------------------
   0 C :    0.124777
   1 N :   -0.301104
   2 C :    0.172598
   3 C :   -0.060282
   4 C :   -0.077178
   5 N :   -0.042329
   6 H :    0.017587
   7 H :    0.025498
   8 H :    0.028253
   9 H :    0.015384
  10 H :    0.019700
  11 H :    0.036755
  12 H :    0.032248
  13 H :    0.008092
Sum of atomic charges:   -0.0000000

LOEWDIN ATOMIC CHARGES
----------------------
   0 C :    0.007286
   1 N :   -0.038401
   2 C :    0.025296
   3 C :   -0.063261
   4 C :   -0.086986
   5 N :   -0.031301
   6 H :    0.028495
   7 H :    0.020874
   8 H :    0.021379
   9 H :    0.016613
  10 H :    0.017477
  11 H :    0.034210
  12 H :    0.033395
  13 H :    0.014922

  Mayer bond orders larger than 0.1
B(  0-C ,  1-N ) :   1.0204 B(  0-C ,  6-H ) :   0.9645 B(  0-C ,  7-H ) :   0.9610
B(  0-C ,  8-H ) :   0.9619 B(  1-N ,  2-C ) :   0.9605 B(  1-N ,  4-C ) :   0.1523
B(  1-N ,  5-N ) :   1.1106 B(  2-C ,  3-C ) :   1.1076 B(  2-C ,  9-H ) :   0.9373
B(  2-C , 10-H ) :   0.9389 B(  3-C ,  4-C ) :   1.0192 B(  3-C , 11-H ) :   0.9270
B(  3-C , 12-H ) :   0.9262 B(  4-C ,  5-N ) :   1.8231 B(  4-C , 13-H ) :   0.9793

FINAL SINGLE POINT ENERGY      -266.158930506316

DIPOLE MOMENT
-------------
                                X             Y             Z
Electronic contribution:      1.22470       2.74050       0.43002
Nuclear contribution   :     -1.23680      -3.55099      -0.49164
                        -----------------------------------------
Total Dipole Moment    :     -0.01210      -0.81049      -0.06161
                        -----------------------------------------
Magnitude (a.u.)       :      0.81292
Magnitude (Debye)      :      2.06627

                             ****ORCA TERMINATED NORMALLY****
TOTAL RUN TIME: 0 days 0 hours 0 minutes 5 seconds 999 msec
