                         Program Version 3.0.3 - RELEASE   -
|  1> ! RI PBE def2-SVP def2-SVP/J NBO PAL2
|  2> % maxcore 2000
|  3> % output
|  4>     # printlevel mini
|  5>     print[ P_Basis ] 0
|  6>     print[ P_SCFInfo ] 1
|  7>     print[ P_SCFIterInfo ] 1
|  8>     print[ P_OrbEn ] 0
|  9>     print[ P_Cartesian ] 0
| 10> end
| 11> *xyz 0 1
| 12>  C        1.0315310000     0.0604980000     0.0684040000
| 13>  N        2.4734540000     0.0694790000     0.0723980000
| 14>  C        3.2866420000     1.1711780000     0.0754860000
| 15>  C        4.5647170000     0.6875880000     0.0787070000
| 16>  N        4.5558830000    -0.6775000000     0.0776210000
| 17>  C        3.2908540000    -1.0119690000     0.0738540000
| 18>  H        0.6699940000     1.0873610000     0.0680290000
| 19>  H        0.6429550000    -0.4427420000     0.9559180000
| 20>  H        0.6478850000    -0.4416520000    -0.8218670000
| 21>  H        2.8867450000     2.1721070000     0.0751230000
| 22>  H        5.4861300000     1.2493320000     0.0817070000
| 23>  H        2.9037090000    -2.0210790000     0.0720100000
| 24> *
| 25>
| 26>                          ****END OF INPUT****
 Total Charge           Charge          ....    0
 Multiplicity           Mult            ....    1
 Number of Electrons    NEL             ....   44
 Basis Dimension        Dim             ....  114

MULLIKEN ATOMIC CHARGES
-----------------------
   0 C :    0.096817
   1 N :   -0.189307
   2 C :    0.034450
   3 C :   -0.006268
   4 N :   -0.146723
   5 C :    0.078311
   6 H :    0.039973
   7 H :    0.049977
   8 H :    0.049910
   9 H :   -0.002647
  10 H :   -0.006605
  11 H :    0.002112
Sum of atomic charges:   -0.0000000

LOEWDIN ATOMIC CHARGES
----------------------
   0 C :    0.027157
   1 N :    0.056812
   2 C :   -0.053993
   3 C :   -0.056008
   4 N :   -0.109315
   5 C :   -0.019608
   6 H :    0.036809
   7 H :    0.034747
   8 H :    0.034739
   9 H :    0.019252
  10 H :    0.016821
  11 H :    0.012588

  Mayer bond orders larger than 0.1
B(  0-C ,  1-N ) :   0.9743 B(  0-C ,  6-H ) :   0.9700 B(  0-C ,  7-H ) :   0.9684
B(  0-C ,  8-H ) :   0.9684 B(  1-N ,  2-C ) :   1.1902 B(  1-N ,  5-C ) :   1.2168
B(  2-C ,  3-C ) :   1.4902 B(  2-C ,  9-H ) :   0.9788 B(  3-C ,  4-N ) :   1.4087
B(  3-C , 10-H ) :   0.9913 B(  4-N ,  5-C ) :   1.6299 B(  5-C , 11-H ) :   0.9725

FINAL SINGLE POINT ENERGY      -265.007281384931

DIPOLE MOMENT
-------------
                                X             Y             Z
Electronic contribution:      3.73605      -0.79161       0.00980
Nuclear contribution   :     -5.26646       1.22628      -0.01367
                        -----------------------------------------
Total Dipole Moment    :     -1.53040       0.43467      -0.00387
                        -----------------------------------------
Magnitude (a.u.)       :      1.59094
Magnitude (Debye)      :      4.04384

                             ****ORCA TERMINATED NORMALLY****
TOTAL RUN TIME: 0 days 0 hours 0 minutes 5 seconds 562 msec
