                         Program Version 3.0.3 - RELEASE   -
|  1> ! RI PBE def2-SVP def2-SVP/J NBO PAL2
|  2> % maxcore 2000
|  3> % output
|  4>     # printlevel mini
|  5>     print[ P_Basis ] 0
|  6>     print[ P_SCFInfo ] 1
|  7>     print[ P_SCFIterInfo ] 1
|  8>     print[ P_OrbEn ] 0
|  9>     print[ P_Cartesian ] 0
| 10> end
| 11> *xyz 0 1
| 12>  C        1.0548690000    -0.0608160000     0.0140640000
| 13>  N        2.4880080000    -0.0839010000     0.0504950000
| 14>  C        3.1934090000     0.9647170000     0.7918760000
| 15>  C        4.2476730000    -0.0748760000     1.2042860000
| 16>  N        5.4326110000    -0.0195760000     0.3815660000
| 17>  C        3.1583360000    -1.1149930000     0.8436810000
| 18>  H        0.7087150000     0.8127470000    -0.5445160000
| 19>  H        0.6020030000    -0.0251160000     1.0223100000
| 20>  H        0.6794590000    -0.9520400000    -0.4954160000
| 21>  H        2.6220740000     1.3377850000     1.6568790000
| 22>  H        3.5413760000     1.8128810000     0.1950720000
| 23>  H        4.5453200000    -0.0558950000     2.2530090000
| 24>  H        5.1725960000    -0.0587250000    -0.5978260000
| 25>  H        6.0336580000    -0.8142410000     0.5643290000
| 26>  H        2.5752540000    -1.4225320000     1.7279750000
| 27>  H        3.4692280000    -2.0069370000     0.2893270000
| 28> *
| 29>
| 30>                          ****END OF INPUT****
 Total Charge           Charge          ....    0
 Multiplicity           Mult            ....    1
 Number of Electrons    NEL             ....   48
 Basis Dimension        Dim             ....  134

MULLIKEN ATOMIC CHARGES
-----------------------
   0 C :    0.088694
   1 N :   -0.367100
   2 C :    0.203363
   3 C :   -0.190399
   4 N :   -0.133548
   5 C :    0.213355
   6 H :    0.024164
   7 H :   -0.011508
   8 H :    0.023083
   9 H :   -0.013758
  10 H :    0.007097
  11 H :    0.010788
  12 H :    0.087605
  13 H :    0.088798
  14 H :   -0.021298
  15 H :   -0.009338
Sum of atomic charges:    0.0000000

LOEWDIN ATOMIC CHARGES
----------------------
   0 C :   -0.008203
   1 N :   -0.124242
   2 C :    0.031888
   3 C :   -0.003024
   4 N :   -0.089360
   5 C :    0.012469
   6 H :    0.023872
   7 H :   -0.004475
   8 H :    0.023793
   9 H :    0.003033
  10 H :    0.010792
  11 H :    0.014999
  12 H :    0.053349
  13 H :    0.052031
  14 H :   -0.000465
  15 H :    0.003544

  Mayer bond orders larger than 0.1
B(  0-C ,  1-N ) :   1.0472 B(  0-C ,  6-H ) :   0.9688 B(  0-C ,  7-H ) :   0.9373
B(  0-C ,  8-H ) :   0.9691 B(  1-N ,  2-C ) :   1.0056 B(  1-N ,  5-C ) :   1.0054
B(  2-C ,  3-C ) :   1.0445 B(  2-C ,  9-H ) :   0.9124 B(  2-C , 10-H ) :   0.9277
B(  3-C ,  4-N ) :   1.1264 B(  3-C ,  5-C ) :   1.0121 B(  3-C , 11-H ) :   0.9315
B(  4-N , 12-H ) :   0.9599 B(  4-N , 13-H ) :   0.9672 B(  5-C , 14-H ) :   0.9035
B(  5-C , 15-H ) :   0.9261

FINAL SINGLE POINT ENERGY      -267.352727118901

DIPOLE MOMENT
-------------
                                X             Y             Z
Electronic contribution:      2.34848       0.20808      -0.55061
Nuclear contribution   :     -2.51181      -0.60442       0.63313
                        -----------------------------------------
Total Dipole Moment    :     -0.16333      -0.39634       0.08252
                        -----------------------------------------
Magnitude (a.u.)       :      0.43654
Magnitude (Debye)      :      1.10960

                             ****ORCA TERMINATED NORMALLY****
TOTAL RUN TIME: 0 days 0 hours 0 minutes 6 seconds 222 msec
