                         Program Version 3.0.3 - RELEASE   -
|  1> ! RI PBE def2-SVP def2-SVP/J NBO PAL2
|  2> % maxcore 2000
|  3> % output
|  4>     # printlevel mini
|  5>     print[ P_Basis ] 0
|  6>     print[ P_SCFInfo ] 1
|  7>     print[ P_SCFIterInfo ] 1
|  8>     print[ P_OrbEn ] 0
|  9>     print[ P_Cartesian ] 0
| 10> end
| 11> *xyz 0 1
| 12>  C        1.1495750000     0.0839620000    -0.2514070000
| 13>  N        2.5584450000     0.0453590000     0.0085660000
| 14>  C        3.3629280000    -1.1597180000     0.0939120000
| 15>  C        4.7641210000    -0.5661180000     0.3859560000
| 16>  N        4.6085020000     0.8912910000     0.4332040000
| 17>  C        3.3732750000     1.1146340000     0.2157260000
| 18>  H        0.7837070000    -0.9357820000    -0.3729490000
| 19>  H        0.9113310000     0.6294990000    -1.1719070000
| 20>  H        0.5869740000     0.5379430000     0.5726370000
| 21>  H        3.3297830000    -1.7260880000    -0.8442210000
| 22>  H        3.0066230000    -1.8187570000     0.8943020000
| 23>  H        5.4897210000    -0.8329100000    -0.3874840000
| 24>  H        5.1683430000    -0.9230190000     1.3373480000
| 25>  H        2.9459520000     2.1142020000     0.1888070000
| 26> *
| 27>
| 28>                          ****END OF INPUT****
 Total Charge           Charge          ....    0
 Multiplicity           Mult            ....    1
 Number of Electrons    NEL             ....   46
 Basis Dimension        Dim             ....  124

MULLIKEN ATOMIC CHARGES
-----------------------
   0 C :    0.099794
   1 N :   -0.331443
   2 C :    0.116191
   3 C :    0.068521
   4 N :   -0.240477
   5 C :    0.111832
   6 H :    0.031164
   7 H :    0.029676
   8 H :    0.032743
   9 H :    0.014823
  10 H :    0.018604
  11 H :    0.023953
  12 H :    0.019708
  13 H :    0.004911
Sum of atomic charges:   -0.0000000

LOEWDIN ATOMIC CHARGES
----------------------
   0 C :    0.013189
   1 N :   -0.060495
   2 C :    0.020138
   3 C :    0.006176
   4 N :   -0.167375
   5 C :    0.015604
   6 H :    0.033581
   7 H :    0.023017
   8 H :    0.023520
   9 H :    0.014776
  10 H :    0.015521
  11 H :    0.024103
  12 H :    0.023294
  13 H :    0.014951

  Mayer bond orders larger than 0.1
B(  0-C ,  1-N ) :   1.0041 B(  0-C ,  6-H ) :   0.9699 B(  0-C ,  7-H ) :   0.9640
B(  0-C ,  8-H ) :   0.9647 B(  1-N ,  2-C ) :   1.0013 B(  1-N ,  4-N ) :   0.1383
B(  1-N ,  5-C ) :   1.1569 B(  2-C ,  3-C ) :   1.0741 B(  2-C ,  9-H ) :   0.9373
B(  2-C , 10-H ) :   0.9386 B(  3-C ,  4-N ) :   1.0813 B(  3-C , 11-H ) :   0.9376
B(  3-C , 12-H ) :   0.9374 B(  4-N ,  5-C ) :   1.8302 B(  5-C , 13-H ) :   0.9621

FINAL SINGLE POINT ENERGY      -266.183189643630

DIPOLE MOMENT
-------------
                                X             Y             Z
Electronic contribution:      2.58500       2.45347       0.61102
Nuclear contribution   :     -3.65911      -3.10736      -0.84352
                        -----------------------------------------
Total Dipole Moment    :     -1.07411      -0.65389      -0.23250
                        -----------------------------------------
Magnitude (a.u.)       :      1.27880
Magnitude (Debye)      :      3.25046

                             ****ORCA TERMINATED NORMALLY****
TOTAL RUN TIME: 0 days 0 hours 0 minutes 6 seconds 12 msec
