                         Program Version 3.0.3 - RELEASE   -
|  1> ! RI PBE def2-SVP def2-SVP/J NBO PAL2
|  2> % maxcore 2000
|  3> % output
|  4>     # printlevel mini
|  5>     print[ P_Basis ] 0
|  6>     print[ P_SCFInfo ] 1
|  7>     print[ P_SCFIterInfo ] 1
|  8>     print[ P_OrbEn ] 0
|  9>     print[ P_Cartesian ] 0
| 10> end
| 11> *xyz 0 1
| 12>  C        1.1687150000     0.4236060000    -0.1852830000
| 13>  N        2.3922270000    -0.3028040000     0.0800060000
| 14>  C        2.9732140000    -0.0075970000     1.3506220000
| 15>  C        4.4551680000     0.0120730000     1.5037040000
| 16>  C        3.6748040000     1.2916870000     1.6544640000
| 17>  C        3.5491540000     1.9452050000     3.0003340000
| 18>  H        0.7984520000     0.1693300000    -1.1805070000
| 19>  H        1.2733980000     1.5183060000    -0.1197200000
| 20>  H        0.4037820000     0.1225870000     0.5359960000
| 21>  H        3.0660930000    -0.1512170000    -0.6584510000
| 22>  H        2.4121430000    -0.4365780000     2.1786260000
| 23>  H        5.0539720000    -0.1194330000     0.6088500000
| 24>  H        4.8877910000    -0.4320840000     2.3927390000
| 25>  H        3.7506770000     1.9740640000     0.8117440000
| 26>  H        3.4253350000     1.1929870000     3.7845680000
| 27>  H        2.6833370000     2.6119480000     3.0423330000
| 28>  H        4.4378380000     2.5330200000     3.2485770000
| 29> *
| 30>
| 31>                          ****END OF INPUT****
 Total Charge           Charge          ....    0
 Multiplicity           Mult            ....    1
 Number of Electrons    NEL             ....   48
 Basis Dimension        Dim             ....  139

MULLIKEN ATOMIC CHARGES
-----------------------
   0 C :    0.071310
   1 N :   -0.171670
   2 C :   -0.053962
   3 C :    0.007498
   4 C :   -0.164505
   5 C :    0.065297
   6 H :    0.017113
   7 H :    0.002625
   8 H :    0.015229
   9 H :    0.087977
  10 H :    0.010294
  11 H :    0.023286
  12 H :    0.023240
  13 H :    0.013290
  14 H :    0.005978
  15 H :    0.024776
  16 H :    0.022224
Sum of atomic charges:    0.0000000

LOEWDIN ATOMIC CHARGES
----------------------
   0 C :   -0.005406
   1 N :   -0.083386
   2 C :   -0.002893
   3 C :   -0.049287
   4 C :   -0.067850
   5 C :   -0.059055
   6 H :    0.020991
   7 H :   -0.001144
   8 H :    0.021760
   9 H :    0.053207
  10 H :    0.017785
  11 H :    0.024581
  12 H :    0.026046
  13 H :    0.021876
  14 H :    0.026419
  15 H :    0.028890
  16 H :    0.027465

  Mayer bond orders larger than 0.1
B(  0-C ,  1-N ) :   1.0599 B(  0-C ,  6-H ) :   0.9725 B(  0-C ,  7-H ) :   0.9483
B(  0-C ,  8-H ) :   0.9649 B(  1-N ,  2-C ) :   1.1410 B(  1-N ,  9-H ) :   0.9370
B(  2-C ,  3-C ) :   1.0047 B(  2-C ,  4-C ) :   0.9128 B(  2-C , 10-H ) :   0.9351
B(  3-C ,  4-C ) :   0.9835 B(  3-C , 11-H ) :   0.9403 B(  3-C , 12-H ) :   0.9381
B(  4-C ,  5-C ) :   1.0964 B(  4-C , 13-H ) :   0.9358 B(  5-C , 14-H ) :   0.9487
B(  5-C , 15-H ) :   0.9620 B(  5-C , 16-H ) :   0.9561

FINAL SINGLE POINT ENERGY      -251.335478716020

DIPOLE MOMENT
-------------
                                X             Y             Z
Electronic contribution:      0.91697      -2.18199      -1.25867
Nuclear contribution   :     -0.82550       2.50427       1.14686
                        -----------------------------------------
Total Dipole Moment    :      0.09147       0.32228      -0.11181
                        -----------------------------------------
Magnitude (a.u.)       :      0.35318
Magnitude (Debye)      :      0.89770

                             ****ORCA TERMINATED NORMALLY****
TOTAL RUN TIME: 0 days 0 hours 0 minutes 6 seconds 942 msec
