                         Program Version 3.0.3 - RELEASE   -
|  1> ! RI PBE def2-SVP def2-SVP/J NBO PAL2
|  2> % maxcore 2000
|  3> % output
|  4>     # printlevel mini
|  5>     print[ P_Basis ] 0
|  6>     print[ P_SCFInfo ] 1
|  7>     print[ P_SCFIterInfo ] 1
|  8>     print[ P_OrbEn ] 0
|  9>     print[ P_Cartesian ] 0
| 10> end
| 11> *xyz 0 1
| 12>  C        1.1642090000    -0.4578220000     0.1539940000
| 13>  N        2.5739140000    -0.1603630000     0.0149650000
| 14>  C        3.0397020000     0.8565400000     0.9014860000
| 15>  C        4.0989680000     1.8076210000     0.4490420000
| 16>  C        2.7195530000     2.3244590000     0.7184880000
| 17>  N        2.5111360000     3.2424860000     1.7992130000
| 18>  H        0.8746130000    -1.2165470000    -0.5757540000
| 19>  H        0.5059490000     0.4164640000     0.0290710000
| 20>  H        0.9767500000    -0.8722240000     1.1487080000
| 21>  H        2.8018140000     0.0711090000    -0.9422390000
| 22>  H        3.1095420000     0.5271920000     1.9368940000
| 23>  H        4.4340790000     1.7498590000    -0.5806630000
| 24>  H        4.8849300000     2.0663960000     1.1499600000
| 25>  H        2.1351340000     2.5594350000    -0.1685440000
| 26>  H        3.2959820000     3.2459420000     2.4361950000
| 27>  H        1.6821140000     3.0072430000     2.3306930000
| 28> *
| 29>
| 30>                          ****END OF INPUT****
 Total Charge           Charge          ....    0
 Multiplicity           Mult            ....    1
 Number of Electrons    NEL             ....   48
 Basis Dimension        Dim             ....  134

MULLIKEN ATOMIC CHARGES
-----------------------
   0 C :    0.074914
   1 N :   -0.169766
   2 C :   -0.048376
   3 C :   -0.012787
   4 C :   -0.085748
   5 N :   -0.120442
   6 H :    0.020779
   7 H :   -0.001799
   8 H :    0.012866
   9 H :    0.087542
  10 H :    0.001926
  11 H :    0.028659
  12 H :    0.027486
  13 H :    0.014422
  14 H :    0.077927
  15 H :    0.092396
Sum of atomic charges:    0.0000000

LOEWDIN ATOMIC CHARGES
----------------------
   0 C :   -0.004695
   1 N :   -0.083101
   2 C :   -0.024815
   3 C :   -0.051808
   4 C :   -0.031138
   5 N :   -0.086240
   6 H :    0.021820
   7 H :   -0.001798
   8 H :    0.020693
   9 H :    0.053203
  10 H :    0.013140
  11 H :    0.026672
  12 H :    0.026903
  13 H :    0.016256
  14 H :    0.050484
  15 H :    0.054426

  Mayer bond orders larger than 0.1
B(  0-C ,  1-N ) :   1.0599 B(  0-C ,  6-H ) :   0.9730 B(  0-C ,  7-H ) :   0.9477
B(  0-C ,  8-H ) :   0.9658 B(  1-N ,  2-C ) :   1.1338 B(  1-N ,  9-H ) :   0.9383
B(  2-C ,  3-C ) :   0.9917 B(  2-C ,  4-C ) :   0.8767 B(  2-C , 10-H ) :   0.9308
B(  3-C ,  4-C ) :   0.9867 B(  3-C , 11-H ) :   0.9413 B(  3-C , 12-H ) :   0.9359
B(  4-C ,  5-N ) :   1.1591 B(  4-C , 13-H ) :   0.9324 B(  5-N , 14-H ) :   0.9635
B(  5-N , 15-H ) :   0.9717

FINAL SINGLE POINT ENERGY      -267.347799490368

DIPOLE MOMENT
-------------
                                X             Y             Z
Electronic contribution:      1.60172       0.93876       0.16647
Nuclear contribution   :     -1.71626      -1.05420      -0.06983
                        -----------------------------------------
Total Dipole Moment    :     -0.11454      -0.11544       0.09664
                        -----------------------------------------
Magnitude (a.u.)       :      0.18917
Magnitude (Debye)      :      0.48083

                             ****ORCA TERMINATED NORMALLY****
TOTAL RUN TIME: 0 days 0 hours 0 minutes 6 seconds 52 msec
