                         Program Version 3.0.3 - RELEASE   -
|  1> ! RI PBE def2-SVP def2-SVP/J NBO PAL2
|  2> % maxcore 2000
|  3> % output
|  4>     # printlevel mini
|  5>     print[ P_Basis ] 0
|  6>     print[ P_SCFInfo ] 1
|  7>     print[ P_SCFIterInfo ] 1
|  8>     print[ P_OrbEn ] 0
|  9>     print[ P_Cartesian ] 0
| 10> end
| 11> *xyz 0 1
| 12>  C        2.7902350000    -1.1035340000    -0.1326150000
| 13>  N        2.2690510000     0.2231660000     0.1165620000
| 14>  C        2.8328900000     1.2379610000    -0.7244830000
| 15>  C        2.4145800000     2.6908730000    -0.4629230000
| 16>  C        3.8274200000     3.1282250000    -0.8934560000
| 17>  C        4.3153150000     1.6953710000    -0.6105380000
| 18>  H        2.3402620000    -1.8143320000     0.5634170000
| 19>  H        3.8856350000    -1.1847200000    -0.0451270000
| 20>  H        2.5165350000    -1.4165070000    -1.1443620000
| 21>  H        2.4022160000     0.4746810000     1.0888630000
| 22>  H        2.6204260000     0.9707500000    -1.7664990000
| 23>  H        2.2636090000     2.8536170000     0.6087910000
| 24>  H        1.5504890000     3.0835340000    -1.0005230000
| 25>  H        4.2971950000     3.9446390000    -0.3441750000
| 26>  H        3.8659100000     3.3603960000    -1.9598310000
| 27>  H        4.6658780000     1.5928740000     0.4213370000
| 28>  H        5.0568340000     1.2578160000    -1.2812270000
| 29> *
| 30>
| 31>                          ****END OF INPUT****
 Total Charge           Charge          ....    0
 Multiplicity           Mult            ....    1
 Number of Electrons    NEL             ....   48
 Basis Dimension        Dim             ....  139

MULLIKEN ATOMIC CHARGES
-----------------------
   0 C :    0.070335
   1 N :   -0.190842
   2 C :   -0.126111
   3 C :    0.062590
   4 C :   -0.027137
   5 C :    0.048578
   6 H :    0.019719
   7 H :    0.000704
   8 H :    0.014319
   9 H :    0.088331
  10 H :   -0.000352
  11 H :   -0.002549
  12 H :    0.013695
  13 H :    0.009421
  14 H :    0.016351
  15 H :   -0.011997
  16 H :    0.014944
Sum of atomic charges:   -0.0000000

LOEWDIN ATOMIC CHARGES
----------------------
   0 C :   -0.005681
   1 N :   -0.093095
   2 C :    0.000621
   3 C :   -0.034054
   4 C :   -0.034868
   5 C :   -0.055415
   6 H :    0.022212
   7 H :   -0.000915
   8 H :    0.021414
   9 H :    0.049076
  10 H :    0.019995
  11 H :    0.021652
  12 H :    0.016774
  13 H :    0.016289
  14 H :    0.024051
  15 H :    0.017899
  16 H :    0.014045

  Mayer bond orders larger than 0.1
B(  0-C ,  1-N ) :   1.0627 B(  0-C ,  6-H ) :   0.9718 B(  0-C ,  7-H ) :   0.9487
B(  0-C ,  8-H ) :   0.9659 B(  1-N ,  2-C ) :   1.1137 B(  1-N ,  9-H ) :   0.9328
B(  2-C ,  3-C ) :   1.0691 B(  2-C ,  5-C ) :   1.0392 B(  2-C , 10-H ) :   0.9059
B(  3-C ,  4-C ) :   1.1065 B(  3-C , 11-H ) :   0.9150 B(  3-C , 12-H ) :   0.9322
B(  4-C ,  5-C ) :   1.1245 B(  4-C , 13-H ) :   0.9332 B(  4-C , 14-H ) :   0.9382
B(  5-C , 15-H ) :   0.9045 B(  5-C , 16-H ) :   0.9357

FINAL SINGLE POINT ENERGY      -251.339704908010

DIPOLE MOMENT
-------------
                                X             Y             Z
Electronic contribution:     -1.26140       0.78036       0.19906
Nuclear contribution   :      1.52951      -0.81082      -0.04918
                        -----------------------------------------
Total Dipole Moment    :      0.26811      -0.03046       0.14988
                        -----------------------------------------
Magnitude (a.u.)       :      0.30867
Magnitude (Debye)      :      0.78458

                             ****ORCA TERMINATED NORMALLY****
TOTAL RUN TIME: 0 days 0 hours 0 minutes 6 seconds 674 msec
