                         Program Version 3.0.3 - RELEASE   -
|  1> ! RI PBE def2-SVP def2-SVP/J NBO PAL2
|  2> % maxcore 2000
|  3> % output
|  4>     # printlevel mini
|  5>     print[ P_Basis ] 0
|  6>     print[ P_SCFInfo ] 1
|  7>     print[ P_SCFIterInfo ] 1
|  8>     print[ P_OrbEn ] 0
|  9>     print[ P_Cartesian ] 0
| 10> end
| 11> *xyz 0 1
| 12>  C        1.2279330000     0.5346010000    -0.0393110000
| 13>  N        1.8767350000    -0.1916850000    -1.1107530000
| 14>  C        2.8716720000    -1.1400390000    -0.6936980000
| 15>  C        4.0818630000    -0.6193000000     0.0445080000
| 16>  C        3.0597760000    -2.3003510000    -1.6212300000
| 17>  C        2.3362970000    -2.4889230000    -0.3182470000
| 18>  H        0.4576310000     1.1852130000    -0.4589590000
| 19>  H        1.8977060000     1.1562650000     0.5742310000
| 20>  H        0.7329120000    -0.1758770000     0.6277620000
| 21>  H        2.2743650000     0.4510860000    -1.7849790000
| 22>  H        3.8012480000    -0.1234010000     0.9777210000
| 23>  H        4.6305990000     0.1022710000    -0.5696810000
| 24>  H        4.7672710000    -1.4313140000     0.2967420000
| 25>  H        4.0549810000    -2.7172370000    -1.7199460000
| 26>  H        2.4621200000    -2.3072140000    -2.5236540000
| 27>  H        2.8357070000    -3.0357950000     0.4724190000
| 28>  H        1.2628850000    -2.6211080000    -0.3635960000
| 29> *
| 30>
| 31>                          ****END OF INPUT****
 Total Charge           Charge          ....    0
 Multiplicity           Mult            ....    1
 Number of Electrons    NEL             ....   48
 Basis Dimension        Dim             ....  139

MULLIKEN ATOMIC CHARGES
-----------------------
   0 C :    0.074371
   1 N :   -0.198336
   2 C :   -0.256714
   3 C :    0.111201
   4 C :    0.006302
   5 C :    0.000113
   6 H :    0.019845
   7 H :    0.001448
   8 H :    0.016739
   9 H :    0.098231
  10 H :    0.018512
  11 H :    0.010920
  12 H :   -0.001218
  13 H :    0.021480
  14 H :    0.023075
  15 H :    0.023487
  16 H :    0.030543
Sum of atomic charges:    0.0000000

LOEWDIN ATOMIC CHARGES
----------------------
   0 C :   -0.006820
   1 N :   -0.082636
   2 C :   -0.033907
   3 C :   -0.061532
   4 C :   -0.043537
   5 C :   -0.045379
   6 H :    0.022133
   7 H :   -0.001750
   8 H :    0.022571
   9 H :    0.054031
  10 H :    0.025081
  11 H :    0.024025
  12 H :    0.027879
  13 H :    0.022299
  14 H :    0.026424
  15 H :    0.022502
  16 H :    0.028618

  Mayer bond orders larger than 0.1
B(  0-C ,  1-N ) :   1.0581 B(  0-C ,  6-H ) :   0.9708 B(  0-C ,  7-H ) :   0.9471
B(  0-C ,  8-H ) :   0.9658 B(  1-N ,  2-C ) :   1.1167 B(  1-N ,  9-H ) :   0.9441
B(  2-C ,  3-C ) :   1.0669 B(  2-C ,  4-C ) :   0.9825 B(  2-C ,  5-C ) :   0.9761
B(  3-C , 10-H ) :   0.9509 B(  3-C , 11-H ) :   0.9529 B(  3-C , 12-H ) :   0.9285
B(  4-C ,  5-C ) :   1.0453 B(  4-C , 13-H ) :   0.9436 B(  4-C , 14-H ) :   0.9354
B(  5-C , 15-H ) :   0.9474 B(  5-C , 16-H ) :   0.9325

FINAL SINGLE POINT ENERGY      -251.338296261788

DIPOLE MOMENT
-------------
                                X             Y             Z
Electronic contribution:     -0.63779      -1.04054      -1.97732
Nuclear contribution   :      0.85447       1.31836       2.05925
                        -----------------------------------------
Total Dipole Moment    :      0.21668       0.27781       0.08193
                        -----------------------------------------
Magnitude (a.u.)       :      0.36172
Magnitude (Debye)      :      0.91941

                             ****ORCA TERMINATED NORMALLY****
TOTAL RUN TIME: 0 days 0 hours 0 minutes 6 seconds 604 msec
