                         Program Version 3.0.3 - RELEASE   -
|  1> ! RI PBE def2-SVP def2-SVP/J NBO PAL2
|  2> % maxcore 2000
|  3> % output
|  4>     # printlevel mini
|  5>     print[ P_Basis ] 0
|  6>     print[ P_SCFInfo ] 1
|  7>     print[ P_SCFIterInfo ] 1
|  8>     print[ P_OrbEn ] 0
|  9>     print[ P_Cartesian ] 0
| 10> end
| 11> *xyz 0 1
| 12>  C        1.1902620000     0.4528470000    -0.2028050000
| 13>  N        2.4312800000     0.0019710000     0.3901750000
| 14>  C        2.9616710000    -1.1861830000    -0.2017740000
| 15>  C        4.2250910000    -1.7866710000     0.4251990000
| 16>  N        3.6973780000    -3.1245570000     0.1191760000
| 17>  C        2.3322780000    -2.5888240000     0.0240200000
| 18>  H        0.8415060000     1.3510510000     0.3104330000
| 19>  H        0.3787100000    -0.2920170000    -0.1793330000
| 20>  H        1.3644600000     0.7181520000    -1.2492450000
| 21>  H        2.3173560000    -0.1294060000     1.3878880000
| 22>  H        3.1060370000    -1.0100200000    -1.2714250000
| 23>  H        4.2675740000    -1.5531060000     1.4999860000
| 24>  H        5.1911830000    -1.5485610000    -0.0264270000
| 25>  H        3.8474840000    -3.8314590000     0.8265020000
| 26>  H        1.7704440000    -2.6085960000     0.9708550000
| 27>  H        1.7180740000    -3.0301120000    -0.7656150000
| 28> *
| 29>
| 30>                          ****END OF INPUT****
 Total Charge           Charge          ....    0
 Multiplicity           Mult            ....    1
 Number of Electrons    NEL             ....   48
 Basis Dimension        Dim             ....  134

MULLIKEN ATOMIC CHARGES
-----------------------
   0 C :    0.065790
   1 N :   -0.191011
   2 C :   -0.175777
   3 C :    0.186097
   4 N :   -0.277361
   5 C :    0.165871
   6 H :    0.020335
   7 H :    0.003980
   8 H :    0.018643
   9 H :    0.092361
  10 H :    0.018018
  11 H :   -0.017551
  12 H :    0.009920
  13 H :    0.094351
  14 H :   -0.025722
  15 H :    0.012057
Sum of atomic charges:    0.0000000

LOEWDIN ATOMIC CHARGES
----------------------
   0 C :   -0.005691
   1 N :   -0.089126
   2 C :   -0.005153
   3 C :    0.026114
   4 N :   -0.113052
   5 C :    0.003911
   6 H :    0.022808
   7 H :    0.000119
   8 H :    0.023399
   9 H :    0.048491
  10 H :    0.025640
  11 H :    0.000960
  12 H :    0.010915
  13 H :    0.045808
  14 H :   -0.002866
  15 H :    0.007723

  Mayer bond orders larger than 0.1
B(  0-C ,  1-N ) :   1.0641 B(  0-C ,  6-H ) :   0.9711 B(  0-C ,  7-H ) :   0.9504
B(  0-C ,  8-H ) :   0.9648 B(  1-N ,  2-C ) :   1.1107 B(  1-N ,  9-H ) :   0.9327
B(  2-C ,  3-C ) :   1.0501 B(  2-C ,  5-C ) :   1.0194 B(  2-C , 10-H ) :   0.8950
B(  3-C ,  4-N ) :   1.0416 B(  3-C , 11-H ) :   0.9164 B(  3-C , 12-H ) :   0.9345
B(  4-N ,  5-C ) :   1.0553 B(  4-N , 13-H ) :   0.9424 B(  5-C , 14-H ) :   0.9065
B(  5-C , 15-H ) :   0.9380

FINAL SINGLE POINT ENERGY      -267.347312966822

DIPOLE MOMENT
-------------
                                X             Y             Z
Electronic contribution:      2.43627      -1.58402       0.08950
Nuclear contribution   :     -2.80996       1.55876       0.41176
                        -----------------------------------------
Total Dipole Moment    :     -0.37369      -0.02526       0.50126
                        -----------------------------------------
Magnitude (a.u.)       :      0.62573
Magnitude (Debye)      :      1.59049

                             ****ORCA TERMINATED NORMALLY****
TOTAL RUN TIME: 0 days 0 hours 0 minutes 6 seconds 186 msec
