                         Program Version 3.0.3 - RELEASE   -
|  1> ! RI PBE def2-SVP def2-SVP/J NBO PAL2
|  2> % maxcore 2000
|  3> % output
|  4>     # printlevel mini
|  5>     print[ P_Basis ] 0
|  6>     print[ P_SCFInfo ] 1
|  7>     print[ P_SCFIterInfo ] 1
|  8>     print[ P_OrbEn ] 0
|  9>     print[ P_Cartesian ] 0
| 10> end
| 11> *xyz 0 1
| 12>  C        1.1580460000    -0.1339060000    -0.3298470000
| 13>  N        2.5515190000    -0.4995440000    -0.4359410000
| 14>  C        3.4126030000     0.2672150000     0.4380160000
| 15>  C        4.8545900000    -0.0864760000     0.2275250000
| 16>  C        5.6319180000     0.5972170000    -0.8588800000
| 17>  C        5.9234520000     0.8974030000     0.5806190000
| 18>  H        0.5676830000    -0.7057670000    -1.0485160000
| 19>  H        0.9606470000     0.9391250000    -0.4965270000
| 20>  H        0.7892880000    -0.3818780000     0.6698110000
| 21>  H        2.8706500000    -0.3934150000    -1.3911680000
| 22>  H        3.1225450000     0.0505670000     1.4736700000
| 23>  H        3.2899400000     1.3599020000     0.3052980000
| 24>  H        5.0845030000    -1.1340210000     0.3928780000
| 25>  H        5.1241950000     1.3628580000    -1.4352660000
| 26>  H        6.3555020000     0.0196950000    -1.4203970000
| 27>  H        5.6126170000     1.8616010000     0.9658220000
| 28>  H        6.8456110000     0.5223330000     1.0061210000
| 29> *
| 30>
| 31>                          ****END OF INPUT****
 Total Charge           Charge          ....    0
 Multiplicity           Mult            ....    1
 Number of Electrons    NEL             ....   48
 Basis Dimension        Dim             ....  139

MULLIKEN ATOMIC CHARGES
-----------------------
   0 C :    0.076447
   1 N :   -0.268048
   2 C :    0.191470
   3 C :   -0.174766
   4 C :   -0.044256
   5 C :   -0.018572
   6 H :    0.019545
   7 H :   -0.009661
   8 H :    0.014449
   9 H :    0.094436
  10 H :    0.004427
  11 H :   -0.033153
  12 H :    0.025494
  13 H :    0.028249
  14 H :    0.036555
  15 H :    0.027123
  16 H :    0.030261
Sum of atomic charges:    0.0000000

LOEWDIN ATOMIC CHARGES
----------------------
   0 C :   -0.006619
   1 N :   -0.105469
   2 C :    0.017942
   3 C :   -0.049689
   4 C :   -0.052064
   5 C :   -0.042222
   6 H :    0.022359
   7 H :   -0.003760
   8 H :    0.020323
   9 H :    0.052219
  10 H :    0.021120
  11 H :   -0.004261
  12 H :    0.028149
  13 H :    0.023328
  14 H :    0.027327
  15 H :    0.024439
  16 H :    0.026875

  Mayer bond orders larger than 0.1
B(  0-C ,  1-N ) :   1.0642 B(  0-C ,  6-H ) :   0.9721 B(  0-C ,  7-H ) :   0.9434
B(  0-C ,  8-H ) :   0.9681 B(  1-N ,  2-C ) :   1.0467 B(  1-N ,  9-H ) :   0.9464
B(  2-C ,  3-C ) :   1.0783 B(  2-C , 10-H ) :   0.9229 B(  2-C , 11-H ) :   0.8978
B(  3-C ,  4-C ) :   0.9911 B(  3-C ,  5-C ) :   0.9858 B(  3-C , 12-H ) :   0.9425
B(  4-C ,  5-C ) :   1.0480 B(  4-C , 13-H ) :   0.9464 B(  4-C , 14-H ) :   0.9481
B(  5-C , 15-H ) :   0.9454 B(  5-C , 16-H ) :   0.9467

FINAL SINGLE POINT ENERGY      -251.333840537975

DIPOLE MOMENT
-------------
                                X             Y             Z
Electronic contribution:      1.74297      -1.22737      -0.02357
Nuclear contribution   :     -1.73124       1.45726      -0.14382
                        -----------------------------------------
Total Dipole Moment    :      0.01173       0.22990      -0.16739
                        -----------------------------------------
Magnitude (a.u.)       :      0.28462
Magnitude (Debye)      :      0.72344

                             ****ORCA TERMINATED NORMALLY****
TOTAL RUN TIME: 0 days 0 hours 0 minutes 6 seconds 389 msec
