                         Program Version 3.0.3 - RELEASE   -
|  1> ! RI PBE def2-SVP def2-SVP/J NBO PAL2
|  2> % maxcore 2000
|  3> % output
|  4>     # printlevel mini
|  5>     print[ P_Basis ] 0
|  6>     print[ P_SCFInfo ] 1
|  7>     print[ P_SCFIterInfo ] 1
|  8>     print[ P_OrbEn ] 0
|  9>     print[ P_Cartesian ] 0
| 10> end
| 11> *xyz 0 1
| 12>  C        1.0520720000    -0.2373120000    -0.1124240000
| 13>  N        2.4828980000    -0.0768870000     0.0065540000
| 14>  C        3.1578290000    -1.3456300000     0.1070630000
| 15>  C        2.9773410000     0.8386910000    -0.9797220000
| 16>  C        4.3644050000     0.8147820000    -1.5183460000
| 17>  C        3.2103310000     0.4831780000    -2.4276100000
| 18>  H        0.6714150000    -0.8059290000     0.7395220000
| 19>  H        0.7500680000    -0.7585720000    -1.0379110000
| 20>  H        0.5694170000     0.7429650000    -0.1081620000
| 21>  H        2.7152280000    -1.9124770000     0.9291690000
| 22>  H        4.2134520000    -1.2019750000     0.3394790000
| 23>  H        3.0805960000    -1.9715560000    -0.8004110000
| 24>  H        2.5679860000     1.8325260000    -0.8205480000
| 25>  H        5.0218780000    -0.0002210000    -1.2459560000
| 26>  H        4.8711560000     1.7637190000    -1.6429360000
| 27>  H        3.1077380000    -0.5550750000    -2.7194530000
| 28>  H        2.9196890000     1.1938610000    -3.1913200000
| 29> *
| 30>
| 31>                          ****END OF INPUT****
 Total Charge           Charge          ....    0
 Multiplicity           Mult            ....    1
 Number of Electrons    NEL             ....   48
 Basis Dimension        Dim             ....  139

MULLIKEN ATOMIC CHARGES
-----------------------
   0 C :    0.111164
   1 N :   -0.287506
   2 C :    0.084046
   3 C :   -0.018588
   4 C :   -0.054736
   5 C :   -0.050884
   6 H :    0.018127
   7 H :   -0.012713
   8 H :    0.014535
   9 H :    0.017400
  10 H :    0.028800
  11 H :   -0.005448
  12 H :    0.017904
  13 H :    0.039962
  14 H :    0.033938
  15 H :    0.031254
  16 H :    0.032746
Sum of atomic charges:   -0.0000000

LOEWDIN ATOMIC CHARGES
----------------------
   0 C :    0.007802
   1 N :   -0.100481
   2 C :    0.001518
   3 C :    0.002809
   4 C :   -0.052927
   5 C :   -0.068023
   6 H :    0.019847
   7 H :   -0.002876
   8 H :    0.021823
   9 H :    0.024844
  10 H :    0.023125
  11 H :   -0.002695
  12 H :    0.022381
  13 H :    0.026551
  14 H :    0.028565
  15 H :    0.023520
  16 H :    0.024217

  Mayer bond orders larger than 0.1
B(  0-C ,  1-N ) :   1.0338 B(  0-C ,  6-H ) :   0.9677 B(  0-C ,  7-H ) :   0.9404
B(  0-C ,  8-H ) :   0.9623 B(  1-N ,  2-C ) :   1.0455 B(  1-N ,  3-C ) :   1.0678
B(  2-C ,  9-H ) :   0.9626 B(  2-C , 10-H ) :   0.9611 B(  2-C , 11-H ) :   0.9367
B(  3-C ,  4-C ) :   1.0092 B(  3-C ,  5-C ) :   0.9694 B(  3-C , 12-H ) :   0.9404
B(  4-C ,  5-C ) :   1.0174 B(  4-C , 13-H ) :   0.9470 B(  4-C , 14-H ) :   0.9415
B(  5-C , 15-H ) :   0.9459 B(  5-C , 16-H ) :   0.9468

FINAL SINGLE POINT ENERGY      -251.323372843912

DIPOLE MOMENT
-------------
                                X             Y             Z
Electronic contribution:      0.77622       1.93904       0.53447
Nuclear contribution   :     -0.82701      -2.04115      -0.62838
                        -----------------------------------------
Total Dipole Moment    :     -0.05079      -0.10211      -0.09391
                        -----------------------------------------
Magnitude (a.u.)       :      0.14774
Magnitude (Debye)      :      0.37552

                             ****ORCA TERMINATED NORMALLY****
TOTAL RUN TIME: 0 days 0 hours 0 minutes 6 seconds 822 msec
