                         Program Version 3.0.3 - RELEASE   -
|  1> ! RI PBE def2-SVP def2-SVP/J NBO PAL2
|  2> % maxcore 2000
|  3> % output
|  4>     # printlevel mini
|  5>     print[ P_Basis ] 0
|  6>     print[ P_SCFInfo ] 1
|  7>     print[ P_SCFIterInfo ] 1
|  8>     print[ P_OrbEn ] 0
|  9>     print[ P_Cartesian ] 0
| 10> end
| 11> *xyz 0 1
| 12>  C        2.3621490000     0.0020900000    -1.2623060000
| 13>  N        3.6172050000     0.5622820000    -0.8044300000
| 14>  C        3.6687030000     0.7900080000     0.6267990000
| 15>  C        5.0826990000     0.8012170000     1.1647810000
| 16>  C        6.0513940000    -0.2281930000     0.7588020000
| 17>  N        6.2128390000     1.1583620000     0.3156210000
| 18>  H        2.3751990000    -0.0849020000    -2.3505750000
| 19>  H        1.4757390000     0.5903360000    -0.9757380000
| 20>  H        2.2402330000    -1.0035620000    -0.8521620000
| 21>  H        3.7814800000     1.4352270000    -1.2892590000
| 22>  H        3.1201440000    -0.0201160000     1.1196410000
| 23>  H        3.1618590000     1.7234380000     0.9203470000
| 24>  H        5.1605990000     1.2005240000     2.1728710000
| 25>  H        5.7158490000    -0.9494790000     0.0202730000
| 26>  H        6.7996090000    -0.5810570000     1.4601460000
| 27>  H        5.8939100000     1.2038140000    -0.6482230000
| 28> *
| 29>
| 30>                          ****END OF INPUT****
 Total Charge           Charge          ....    0
 Multiplicity           Mult            ....    1
 Number of Electrons    NEL             ....   48
 Basis Dimension        Dim             ....  134

MULLIKEN ATOMIC CHARGES
-----------------------
   0 C :    0.056381
   1 N :   -0.294469
   2 C :    0.161140
   3 C :   -0.112144
   4 C :    0.040399
   5 N :   -0.201370
   6 H :    0.028198
   7 H :    0.000857
   8 H :    0.027474
   9 H :    0.110607
  10 H :    0.015657
  11 H :    0.002172
  12 H :    0.016514
  13 H :    0.027573
  14 H :    0.030902
  15 H :    0.090109
Sum of atomic charges:    0.0000000

LOEWDIN ATOMIC CHARGES
----------------------
   0 C :   -0.004657
   1 N :   -0.103768
   2 C :    0.006824
   3 C :   -0.020757
   4 C :   -0.003510
   5 N :   -0.107296
   6 H :    0.024711
   7 H :    0.001289
   8 H :    0.023583
   9 H :    0.055873
  10 H :    0.028649
  11 H :    0.008007
  12 H :    0.019944
  13 H :    0.013207
  14 H :    0.017159
  15 H :    0.040742

  Mayer bond orders larger than 0.1
B(  0-C ,  1-N ) :   1.0662 B(  0-C ,  6-H ) :   0.9725 B(  0-C ,  7-H ) :   0.9478
B(  0-C ,  8-H ) :   0.9691 B(  1-N ,  2-C ) :   1.0322 B(  1-N ,  9-H ) :   0.9365
B(  2-C ,  3-C ) :   1.0260 B(  2-C , 10-H ) :   0.9261 B(  2-C , 11-H ) :   0.9273
B(  3-C ,  4-C ) :   1.0513 B(  3-C ,  5-N ) :   1.0207 B(  3-C , 12-H ) :   0.9301
B(  4-C ,  5-N ) :   0.9902 B(  4-C , 13-H ) :   0.9383 B(  4-C , 14-H ) :   0.9434
B(  5-N , 15-H ) :   0.9420

FINAL SINGLE POINT ENERGY      -267.342962196673

DIPOLE MOMENT
-------------
                                X             Y             Z
Electronic contribution:      3.62697       1.39799       1.01626
Nuclear contribution   :     -4.53891      -1.49582      -1.29321
                        -----------------------------------------
Total Dipole Moment    :     -0.91194      -0.09783      -0.27695
                        -----------------------------------------
Magnitude (a.u.)       :      0.95807
Magnitude (Debye)      :      2.43523

                             ****ORCA TERMINATED NORMALLY****
TOTAL RUN TIME: 0 days 0 hours 0 minutes 6 seconds 527 msec
