                         Program Version 3.0.3 - RELEASE   -
|  1> ! RI PBE def2-SVP def2-SVP/J NBO PAL2
|  2> % maxcore 2000
|  3> % output
|  4>     # printlevel mini
|  5>     print[ P_Basis ] 0
|  6>     print[ P_SCFInfo ] 1
|  7>     print[ P_SCFIterInfo ] 1
|  8>     print[ P_OrbEn ] 0
|  9>     print[ P_Cartesian ] 0
| 10> end
| 11> *xyz 0 1
| 12>  C        0.8980250000    -0.2438570000    -0.1670800000
| 13>  N        2.2733160000     0.1454740000    -0.3644530000
| 14>  C        2.5453130000     0.4133200000    -1.7577270000
| 15>  C        2.6378290000     1.2616050000     0.4862670000
| 16>  C        4.1137820000     1.4871420000     0.5344740000
| 17>  C        4.7069800000     2.6551440000     0.3352820000
| 18>  H        0.6717130000    -1.1221650000    -0.7760490000
| 19>  H        0.1806370000     0.5516540000    -0.4423270000
| 20>  H        0.7290230000    -0.5045060000     0.8803450000
| 21>  H        2.3430400000    -0.4810500000    -2.3513800000
| 22>  H        3.5940550000     0.6834230000    -1.8910940000
| 23>  H        1.9277270000     1.2382380000    -2.1597250000
| 24>  H        2.2901800000     1.0237450000     1.4990230000
| 25>  H        2.1276500000     2.1975060000     0.1868070000
| 26>  H        4.7093620000     0.6070870000     0.7681410000
| 27>  H        4.1349230000     3.5448950000     0.0895390000
| 28>  H        5.7820160000     2.7678660000     0.4154590000
| 29> *
| 30>
| 31>                          ****END OF INPUT****
 Total Charge           Charge          ....    0
 Multiplicity           Mult            ....    1
 Number of Electrons    NEL             ....   48
 Basis Dimension        Dim             ....  139

MULLIKEN ATOMIC CHARGES
-----------------------
   0 C :    0.102395
   1 N :   -0.352382
   2 C :    0.097959
   3 C :    0.174800
   4 C :   -0.092188
   5 C :   -0.030894
   6 H :    0.018000
   7 H :   -0.014278
   8 H :    0.017495
   9 H :    0.022039
  10 H :    0.026125
  11 H :   -0.015826
  12 H :    0.017206
  13 H :   -0.026020
  14 H :    0.009218
  15 H :    0.017865
  16 H :    0.028484
Sum of atomic charges:    0.0000000

LOEWDIN ATOMIC CHARGES
----------------------
   0 C :    0.002195
   1 N :   -0.114083
   2 C :    0.001665
   3 C :    0.016430
   4 C :   -0.032795
   5 C :   -0.061820
   6 H :    0.021750
   7 H :   -0.003164
   8 H :    0.020955
   9 H :    0.021675
  10 H :    0.023458
  11 H :   -0.003014
  12 H :    0.031943
  13 H :    0.000134
  14 H :    0.027757
  15 H :    0.021441
  16 H :    0.025474

  Mayer bond orders larger than 0.1
B(  0-C ,  1-N ) :   1.0378 B(  0-C ,  6-H ) :   0.9672 B(  0-C ,  7-H ) :   0.9353
B(  0-C ,  8-H ) :   0.9662 B(  1-N ,  2-C ) :   1.0333 B(  1-N ,  3-C ) :   1.0108
B(  2-C ,  9-H ) :   0.9684 B(  2-C , 10-H ) :   0.9613 B(  2-C , 11-H ) :   0.9347
B(  3-C ,  4-C ) :   1.0627 B(  3-C , 12-H ) :   0.9155 B(  3-C , 13-H ) :   0.9045
B(  4-C ,  5-C ) :   1.9849 B(  4-C , 14-H ) :   0.9554 B(  5-C , 15-H ) :   0.9457
B(  5-C , 16-H ) :   0.9468

FINAL SINGLE POINT ENERGY      -251.329829660502

DIPOLE MOMENT
-------------
                                X             Y             Z
Electronic contribution:      2.14779      -0.16830       1.61259
Nuclear contribution   :     -2.30652       0.20913      -1.63986
                        -----------------------------------------
Total Dipole Moment    :     -0.15873       0.04083      -0.02727
                        -----------------------------------------
Magnitude (a.u.)       :      0.16615
Magnitude (Debye)      :      0.42232

                             ****ORCA TERMINATED NORMALLY****
TOTAL RUN TIME: 0 days 0 hours 0 minutes 6 seconds 691 msec
