                         Program Version 3.0.3 - RELEASE   -
|  1> ! RI PBE def2-SVP def2-SVP/J NBO PAL2
|  2> % maxcore 2000
|  3> % output
|  4>     # printlevel mini
|  5>     print[ P_Basis ] 0
|  6>     print[ P_SCFInfo ] 1
|  7>     print[ P_SCFIterInfo ] 1
|  8>     print[ P_OrbEn ] 0
|  9>     print[ P_Cartesian ] 0
| 10> end
| 11> *xyz 0 1
| 12>  C        0.8955940000     0.1480270000     0.0607990000
| 13>  N        2.3285530000     0.0032690000    -0.0321660000
| 14>  C        2.6995610000    -1.3227890000    -0.4703340000
| 15>  C        2.8879020000     1.0359710000    -0.8832220000
| 16>  C        4.3442740000     1.0603910000    -0.8802150000
| 17>  C        5.5434770000     1.0966610000    -0.8969010000
| 18>  H        0.4963430000    -0.6021150000     0.7462560000
| 19>  H        0.3849330000     0.0249430000    -0.9125720000
| 20>  H        0.6431220000     1.1354070000     0.4547150000
| 21>  H        2.3124820000    -2.0607680000     0.2351180000
| 22>  H        3.7862130000    -1.4136330000    -0.5003490000
| 23>  H        2.3036570000    -1.5658730000    -1.4738750000
| 24>  H        2.5239540000     2.0055680000    -0.5272810000
| 25>  H        2.5418120000     0.9375590000    -1.9315420000
| 26>  H        6.6072330000     1.1286930000    -0.9052400000
| 27> *
| 28>
| 29>                          ****END OF INPUT****
 Total Charge           Charge          ....    0
 Multiplicity           Mult            ....    1
 Number of Electrons    NEL             ....   46
 Basis Dimension        Dim             ....  129

MULLIKEN ATOMIC CHARGES
-----------------------
   0 C :    0.108117
   1 N :   -0.349739
   2 C :    0.092914
   3 C :    0.201249
   4 C :    0.334924
   5 C :   -0.494295
   6 H :    0.025625
   7 H :   -0.014866
   8 H :    0.018230
   9 H :    0.023606
  10 H :    0.040152
  11 H :   -0.017791
  12 H :    0.028187
  13 H :    0.004610
  14 H :   -0.000923
Sum of atomic charges:   -0.0000000

LOEWDIN ATOMIC CHARGES
----------------------
   0 C :    0.003351
   1 N :   -0.107872
   2 C :    0.002117
   3 C :    0.012233
   4 C :   -0.022706
   5 C :   -0.078562
   6 H :    0.024648
   7 H :   -0.002564
   8 H :    0.022163
   9 H :    0.023612
  10 H :    0.028515
  11 H :   -0.002600
  12 H :    0.044431
  13 H :    0.018771
  14 H :    0.034463

  Mayer bond orders larger than 0.1
B(  0-C ,  1-N ) :   1.0373 B(  0-C ,  6-H ) :   0.9682 B(  0-C ,  7-H ) :   0.9343
B(  0-C ,  8-H ) :   0.9650 B(  1-N ,  2-C ) :   1.0294 B(  1-N ,  3-C ) :   1.0262
B(  2-C ,  9-H ) :   0.9674 B(  2-C , 10-H ) :   0.9632 B(  2-C , 11-H ) :   0.9316
B(  3-C ,  4-C ) :   1.0359 B(  3-C , 12-H ) :   0.8957 B(  3-C , 13-H ) :   0.8827
B(  4-C ,  5-C ) :   2.3406 B(  4-C , 14-H ) :  -0.1128 B(  5-C , 14-H ) :   1.1039

FINAL SINGLE POINT ENERGY      -250.083935607225

DIPOLE MOMENT
-------------
                                X             Y             Z
Electronic contribution:      4.95552       2.75747       0.09595
Nuclear contribution   :     -5.23436      -2.81117      -0.23083
                        -----------------------------------------
Total Dipole Moment    :     -0.27884      -0.05370      -0.13488
                        -----------------------------------------
Magnitude (a.u.)       :      0.31437
Magnitude (Debye)      :      0.79906

                             ****ORCA TERMINATED NORMALLY****
TOTAL RUN TIME: 0 days 0 hours 0 minutes 6 seconds 602 msec
