                         Program Version 3.0.3 - RELEASE   -
|  1> ! RI PBE def2-SVP def2-SVP/J NBO PAL2
|  2> % maxcore 2000
|  3> % output
|  4>     # printlevel mini
|  5>     print[ P_Basis ] 0
|  6>     print[ P_SCFInfo ] 1
|  7>     print[ P_SCFIterInfo ] 1
|  8>     print[ P_OrbEn ] 0
|  9>     print[ P_Cartesian ] 0
| 10> end
| 11> *xyz 0 1
| 12>  C        2.6468230000    -0.7402330000     1.1135110000
| 13>  N        2.3673760000     0.1470360000     0.0055930000
| 14>  C        2.8984460000     1.5116750000     0.0752230000
| 15>  C        2.4069550000     2.2241470000    -1.1795430000
| 16>  C        2.4232760000     2.2826280000     1.3112680000
| 17>  C        4.4231520000     1.4579560000     0.0565690000
| 18>  H        2.1410120000    -1.6915540000     0.9355610000
| 19>  H        2.3287760000    -0.3731560000     2.1016750000
| 20>  H        3.7164450000    -0.9547880000     1.1670500000
| 21>  H        1.3668510000     0.1981490000    -0.1422770000
| 22>  H        1.3132510000     2.2714270000    -1.1965140000
| 23>  H        2.7378860000     1.6904020000    -2.0726600000
| 24>  H        2.7838600000     3.2485010000    -1.2209440000
| 25>  H        1.3306070000     2.3326790000     1.3391340000
| 26>  H        2.8053660000     3.3067850000     1.3021050000
| 27>  H        2.7658350000     1.8134690000     2.2363090000
| 28>  H        4.7709700000     0.8778970000    -0.8009740000
| 29>  H        4.8250690000     1.0033070000     0.9649660000
| 30>  H        4.8371330000     2.4664620000    -0.0140520000
| 31> *
| 32>
| 33>                          ****END OF INPUT****
 Total Charge           Charge          ....    0
 Multiplicity           Mult            ....    1
 Number of Electrons    NEL             ....   50
 Basis Dimension        Dim             ....  149

MULLIKEN ATOMIC CHARGES
-----------------------
   0 C :    0.074374
   1 N :   -0.218290
   2 C :   -0.259916
   3 C :    0.060044
   4 C :    0.071040
   5 C :    0.067742
   6 H :    0.015062
   7 H :   -0.008046
   8 H :    0.018840
   9 H :    0.090836
  10 H :    0.006162
  11 H :    0.015607
  12 H :    0.007989
  13 H :    0.004859
  14 H :    0.005011
  15 H :    0.009759
  16 H :    0.018781
  17 H :    0.013208
  18 H :    0.006936
Sum of atomic charges:   -0.0000000

LOEWDIN ATOMIC CHARGES
----------------------
   0 C :   -0.007836
   1 N :   -0.094058
   2 C :   -0.025066
   3 C :   -0.053205
   4 C :   -0.064685
   5 C :   -0.052901
   6 H :    0.023631
   7 H :   -0.004541
   8 H :    0.019764
   9 H :    0.049330
  10 H :    0.020079
  11 H :    0.025536
  12 H :    0.024365
  13 H :    0.020529
  14 H :    0.024560
  15 H :    0.020734
  16 H :    0.027119
  17 H :    0.021423
  18 H :    0.025220

  Mayer bond orders larger than 0.1
B(  0-C ,  1-N ) :   1.0726 B(  0-C ,  6-H ) :   0.9691 B(  0-C ,  7-H ) :   0.9389
B(  0-C ,  8-H ) :   0.9654 B(  1-N ,  2-C ) :   1.0291 B(  1-N ,  9-H ) :   0.9434
B(  2-C ,  3-C ) :   1.0600 B(  2-C ,  4-C ) :   1.0394 B(  2-C ,  5-C ) :   1.0494
B(  3-C , 10-H ) :   0.9530 B(  3-C , 11-H ) :   0.9543 B(  3-C , 12-H ) :   0.9563
B(  4-C , 13-H ) :   0.9540 B(  4-C , 14-H ) :   0.9501 B(  4-C , 15-H ) :   0.9476
B(  5-C , 16-H ) :   0.9549 B(  5-C , 17-H ) :   0.9526 B(  5-C , 18-H ) :   0.9565

FINAL SINGLE POINT ENERGY      -252.561568219493

DIPOLE MOMENT
-------------
                                X             Y             Z
Electronic contribution:     -0.74845      -1.18723      -1.13070
Nuclear contribution   :      0.55765       1.29098       1.33985
                        -----------------------------------------
Total Dipole Moment    :     -0.19080       0.10375       0.20915
                        -----------------------------------------
Magnitude (a.u.)       :      0.30152
Magnitude (Debye)      :      0.76640

                             ****ORCA TERMINATED NORMALLY****
TOTAL RUN TIME: 0 days 0 hours 0 minutes 7 seconds 862 msec
