                         Program Version 3.0.3 - RELEASE   -
|  1> ! RI PBE def2-SVP def2-SVP/J NBO PAL2
|  2> % maxcore 2000
|  3> % output
|  4>     # printlevel mini
|  5>     print[ P_Basis ] 0
|  6>     print[ P_SCFInfo ] 1
|  7>     print[ P_SCFIterInfo ] 1
|  8>     print[ P_OrbEn ] 0
|  9>     print[ P_Cartesian ] 0
| 10> end
| 11> *xyz 0 1
| 12>  C        0.9512870000    -0.2239520000    -0.1013440000
| 13>  N        2.3631860000     0.0404180000     0.0771900000
| 14>  C        2.9015220000     1.0838560000    -0.7864720000
| 15>  C        2.3453390000     2.4484480000    -0.3966630000
| 16>  C        4.3933180000     1.0771990000    -0.6609770000
| 17>  C        5.2358970000     0.8803740000    -1.6645190000
| 18>  H        0.6802360000    -1.1208970000     0.4585090000
| 19>  H        0.6558810000    -0.3734860000    -1.1537950000
| 20>  H        0.3523280000     0.5971790000     0.2981670000
| 21>  H        2.8871610000    -0.8096170000    -0.0879660000
| 22>  H        2.6451040000     0.8996010000    -1.8465630000
| 23>  H        2.5799280000     2.6658500000     0.6482970000
| 24>  H        1.2612030000     2.4885680000    -0.5192420000
| 25>  H        2.7819560000     3.2271840000    -1.0245140000
| 26>  H        4.7730670000     1.2457350000     0.3453920000
| 27>  H        4.8801340000     0.7037850000    -2.6753160000
| 28>  H        6.3097530000     0.8943360000    -1.5169950000
| 29> *
| 30>
| 31>                          ****END OF INPUT****
 Total Charge           Charge          ....    0
 Multiplicity           Mult            ....    1
 Number of Electrons    NEL             ....   48
 Basis Dimension        Dim             ....  139

MULLIKEN ATOMIC CHARGES
-----------------------
   0 C :    0.064123
   1 N :   -0.247627
   2 C :    0.030981
   3 C :    0.019478
   4 C :   -0.060101
   5 C :   -0.032101
   6 H :    0.019228
   7 H :   -0.007894
   8 H :    0.026369
   9 H :    0.099194
  10 H :   -0.022422
  11 H :    0.018321
  12 H :    0.022727
  13 H :    0.021253
  14 H :    0.002054
  15 H :    0.018214
  16 H :    0.028203
Sum of atomic charges:    0.0000000

LOEWDIN ATOMIC CHARGES
----------------------
   0 C :   -0.007282
   1 N :   -0.100609
   2 C :    0.002461
   3 C :   -0.061134
   4 C :   -0.025059
   5 C :   -0.063499
   6 H :    0.024301
   7 H :   -0.001792
   8 H :    0.019863
   9 H :    0.054406
  10 H :    0.002186
  11 H :    0.027276
  12 H :    0.025082
  13 H :    0.030312
  14 H :    0.026290
  15 H :    0.021676
  16 H :    0.025521

  Mayer bond orders larger than 0.1
B(  0-C ,  1-N ) :   1.0636 B(  0-C ,  6-H ) :   0.9708 B(  0-C ,  7-H ) :   0.9419
B(  0-C ,  8-H ) :   0.9670 B(  1-N ,  2-C ) :   1.0125 B(  1-N ,  9-H ) :   0.9430
B(  2-C ,  3-C ) :   1.0651 B(  2-C ,  4-C ) :   1.0267 B(  2-C , 10-H ) :   0.9032
B(  3-C , 11-H ) :   0.9537 B(  3-C , 12-H ) :   0.9523 B(  3-C , 13-H ) :   0.9571
B(  4-C ,  5-C ) :   1.9961 B(  4-C , 14-H ) :   0.9547 B(  5-C , 15-H ) :   0.9453
B(  5-C , 16-H ) :   0.9425

FINAL SINGLE POINT ENERGY      -251.336448615801

DIPOLE MOMENT
-------------
                                X             Y             Z
Electronic contribution:      2.63780      -0.93879       0.42695
Nuclear contribution   :     -2.73242       0.76258      -0.64485
                        -----------------------------------------
Total Dipole Moment    :     -0.09462      -0.17621      -0.21791
                        -----------------------------------------
Magnitude (a.u.)       :      0.29578
Magnitude (Debye)      :      0.75181

                             ****ORCA TERMINATED NORMALLY****
TOTAL RUN TIME: 0 days 0 hours 0 minutes 6 seconds 632 msec
