                         Program Version 3.0.3 - RELEASE   -
|  1> ! RI PBE def2-SVP def2-SVP/J NBO PAL2
|  2> % maxcore 2000
|  3> % output
|  4>     # printlevel mini
|  5>     print[ P_Basis ] 0
|  6>     print[ P_SCFInfo ] 1
|  7>     print[ P_SCFIterInfo ] 1
|  8>     print[ P_OrbEn ] 0
|  9>     print[ P_Cartesian ] 0
| 10> end
| 11> *xyz 0 1
| 12>  C        2.6233500000    -1.1973430000     0.6977810000
| 13>  N        2.3004040000     0.0067130000    -0.0398660000
| 14>  C        2.8746920000     0.0647560000    -1.3747930000
| 15>  C        2.3701660000     1.3034440000    -2.1031980000
| 16>  C        4.3448500000     0.0167180000    -1.3827350000
| 17>  C        5.5459310000    -0.0071910000    -1.3480180000
| 18>  H        2.1711620000    -1.1423520000     1.6896240000
| 19>  H        3.7019060000    -1.3780690000     0.8141670000
| 20>  H        2.1909820000    -2.0617920000     0.1861070000
| 21>  H        2.6029130000     0.8221310000     0.4806810000
| 22>  H        2.5148560000    -0.8227190000    -1.9108780000
| 23>  H        2.7018810000     2.2092070000    -1.5896270000
| 24>  H        1.2796950000     1.2929290000    -2.1244180000
| 25>  H        2.7532050000     1.3370140000    -3.1239240000
| 26>  H        6.6098580000    -0.0307470000    -1.3251730000
| 27> *
| 28>
| 29>                          ****END OF INPUT****
 Total Charge           Charge          ....    0
 Multiplicity           Mult            ....    1
 Number of Electrons    NEL             ....   46
 Basis Dimension        Dim             ....  129

MULLIKEN ATOMIC CHARGES
-----------------------
   0 C :    0.073515
   1 N :   -0.243116
   2 C :    0.028344
   3 C :    0.030505
   4 C :    0.382621
   5 C :   -0.524004
   6 H :    0.020957
   7 H :    0.013445
   8 H :    0.013731
   9 H :    0.101367
  10 H :    0.025003
  11 H :    0.018772
  12 H :    0.033529
  13 H :    0.030570
  14 H :   -0.005239
Sum of atomic charges:   -0.0000000

LOEWDIN ATOMIC CHARGES
----------------------
   0 C :   -0.005676
   1 N :   -0.084782
   2 C :   -0.006256
   3 C :   -0.050453
   4 C :   -0.033042
   5 C :   -0.093740
   6 H :    0.024191
   7 H :    0.004848
   8 H :    0.021998
   9 H :    0.055563
  10 H :    0.041239
  11 H :    0.027669
  12 H :    0.031555
  13 H :    0.033644
  14 H :    0.033242

  Mayer bond orders larger than 0.1
B(  0-C ,  1-N ) :   1.0616 B(  0-C ,  6-H ) :   0.9713 B(  0-C ,  7-H ) :   0.9459
B(  0-C ,  8-H ) :   0.9639 B(  1-N ,  2-C ) :   1.0501 B(  1-N ,  9-H ) :   0.9446
B(  2-C ,  3-C ) :   1.0877 B(  2-C ,  4-C ) :   0.9526 B(  2-C , 10-H ) :   0.8826
B(  3-C , 11-H ) :   0.9552 B(  3-C , 12-H ) :   0.9551 B(  3-C , 13-H ) :   0.9584
B(  4-C ,  5-C ) :   2.3248 B(  4-C , 14-H ) :  -0.1228 B(  5-C , 14-H ) :   1.1130

FINAL SINGLE POINT ENERGY      -250.094496615384

DIPOLE MOMENT
-------------
                                X             Y             Z
Electronic contribution:      2.85156       0.10248      -0.89197
Nuclear contribution   :     -2.77160      -0.04117       1.01437
                        -----------------------------------------
Total Dipole Moment    :      0.07996       0.06131       0.12240
                        -----------------------------------------
Magnitude (a.u.)       :      0.15853
Magnitude (Debye)      :      0.40296

                             ****ORCA TERMINATED NORMALLY****
TOTAL RUN TIME: 0 days 0 hours 0 minutes 6 seconds 246 msec
