                         Program Version 3.0.3 - RELEASE   -
|  1> ! RI PBE def2-SVP def2-SVP/J NBO PAL2
|  2> % maxcore 2000
|  3> % output
|  4>     # printlevel mini
|  5>     print[ P_Basis ] 0
|  6>     print[ P_SCFInfo ] 1
|  7>     print[ P_SCFIterInfo ] 1
|  8>     print[ P_OrbEn ] 0
|  9>     print[ P_Cartesian ] 0
| 10> end
| 11> *xyz 0 1
| 12>  C        1.2198380000    -0.1909110000     0.2801820000
| 13>  N        2.6491140000     0.0228330000     0.2735610000
| 14>  C        3.2782850000    -0.3675320000    -0.9734080000
| 15>  C        4.7489260000    -0.1214340000    -0.9341610000
| 16>  C        5.6734100000    -1.0517900000    -1.1403690000
| 17>  C        7.1454360000    -0.8221720000    -1.1143550000
| 18>  H        0.8111680000     0.0664080000     1.2593470000
| 19>  H        0.9178540000    -1.2248660000     0.0408600000
| 20>  H        0.7488810000     0.4663710000    -0.4566130000
| 21>  H        3.0825650000    -0.4834370000     1.0357540000
| 22>  H        2.8262940000     0.2414030000    -1.7680670000
| 23>  H        3.0865950000    -1.4217200000    -1.2433780000
| 24>  H        5.0515900000     0.8993430000    -0.7059440000
| 25>  H        5.3452690000    -2.0688050000    -1.3546560000
| 26>  H        7.3832770000     0.2183500000    -0.8855030000
| 27>  H        7.6005290000    -1.0718670000    -2.0783200000
| 28>  H        7.6311700000    -1.4572950000    -0.3666210000
| 29> *
| 30>
| 31>                          ****END OF INPUT****
 Total Charge           Charge          ....    0
 Multiplicity           Mult            ....    1
 Number of Electrons    NEL             ....   48
 Basis Dimension        Dim             ....  139

MULLIKEN ATOMIC CHARGES
-----------------------
   0 C :    0.075714
   1 N :   -0.285968
   2 C :    0.180650
   3 C :   -0.084045
   4 C :   -0.101558
   5 C :    0.039510
   6 H :    0.019221
   7 H :   -0.011555
   8 H :    0.016480
   9 H :    0.099073
  10 H :    0.010389
  11 H :   -0.025455
  12 H :   -0.008512
  13 H :   -0.007574
  14 H :    0.019126
  15 H :    0.031756
  16 H :    0.032747
Sum of atomic charges:   -0.0000000

LOEWDIN ATOMIC CHARGES
----------------------
   0 C :   -0.006785
   1 N :   -0.107197
   2 C :    0.011508
   3 C :   -0.052707
   4 C :   -0.044809
   5 C :   -0.065279
   6 H :    0.022056
   7 H :   -0.003919
   8 H :    0.021007
   9 H :    0.053524
  10 H :    0.027254
  11 H :   -0.001063
  12 H :    0.022564
  13 H :    0.020110
  14 H :    0.030938
  15 H :    0.036543
  16 H :    0.036254

  Mayer bond orders larger than 0.1
B(  0-C ,  1-N ) :   1.0675 B(  0-C ,  6-H ) :   0.9732 B(  0-C ,  7-H ) :   0.9431
B(  0-C ,  8-H ) :   0.9682 B(  1-N ,  2-C ) :   1.0166 B(  1-N ,  9-H ) :   0.9491
B(  2-C ,  3-C ) :   1.0585 B(  2-C , 10-H ) :   0.9098 B(  2-C , 11-H ) :   0.9101
B(  3-C ,  4-C ) :   1.9103 B(  3-C , 12-H ) :   0.9576 B(  4-C ,  5-C ) :   1.0837
B(  4-C , 13-H ) :   0.9506 B(  5-C , 14-H ) :   0.9612 B(  5-C , 15-H ) :   0.9476
B(  5-C , 16-H ) :   0.9486

FINAL SINGLE POINT ENERGY      -251.341191812062

DIPOLE MOMENT
-------------
                                X             Y             Z
Electronic contribution:      0.39393       0.74216       0.17818
Nuclear contribution   :     -0.32598      -1.08100      -0.13146
                        -----------------------------------------
Total Dipole Moment    :      0.06796      -0.33884       0.04672
                        -----------------------------------------
Magnitude (a.u.)       :      0.34873
Magnitude (Debye)      :      0.88640

                             ****ORCA TERMINATED NORMALLY****
TOTAL RUN TIME: 0 days 0 hours 0 minutes 6 seconds 644 msec
