                         Program Version 3.0.3 - RELEASE   -
|  1> ! RI PBE def2-SVP def2-SVP/J NBO PAL2
|  2> % maxcore 2000
|  3> % output
|  4>     # printlevel mini
|  5>     print[ P_Basis ] 0
|  6>     print[ P_SCFInfo ] 1
|  7>     print[ P_SCFIterInfo ] 1
|  8>     print[ P_OrbEn ] 0
|  9>     print[ P_Cartesian ] 0
| 10> end
| 11> *xyz 0 1
| 12>  C        1.0499280000    -1.2522280000     1.9873950000
| 13>  N        2.4887100000    -1.3649480000     1.9129790000
| 14>  C        3.1388790000    -0.1282730000     1.5360030000
| 15>  C        4.6551570000    -0.2640010000     1.4748110000
| 16>  C        5.2779380000     1.0043690000     0.9107000000
| 17>  C        5.2420580000    -0.6105750000     2.8352610000
| 18>  H        0.6113650000    -2.2275390000     2.2083020000
| 19>  H        0.5812970000    -0.8635920000     1.0669360000
| 20>  H        0.7777730000    -0.5763520000     2.8031460000
| 21>  H        2.7408810000    -2.0895330000     1.2514140000
| 22>  H        2.8789140000     0.6306880000     2.2859140000
| 23>  H        2.7711100000     0.2586270000     0.5671030000
| 24>  H        4.8819580000    -1.0880310000     0.7825540000
| 25>  H        5.0662180000     1.8607430000     1.5590330000
| 26>  H        4.8900950000     1.2361360000    -0.0848740000
| 27>  H        6.3638950000     0.9099400000     0.8351450000
| 28>  H        5.0890380000     0.2155800000     3.5375680000
| 29>  H        6.3177850000    -0.7926250000     2.7668390000
| 30>  H        4.7632200000    -1.4968750000     3.2535820000
| 31> *
| 32>
| 33>                          ****END OF INPUT****
 Total Charge           Charge          ....    0
 Multiplicity           Mult            ....    1
 Number of Electrons    NEL             ....   50
 Basis Dimension        Dim             ....  149

MULLIKEN ATOMIC CHARGES
-----------------------
   0 C :    0.071658
   1 N :   -0.258900
   2 C :    0.125238
   3 C :   -0.168005
   4 C :    0.014625
   5 C :    0.027172
   6 H :    0.018767
   7 H :   -0.009056
   8 H :    0.018470
   9 H :    0.098727
  10 H :   -0.003718
  11 H :   -0.024608
  12 H :    0.003420
  13 H :    0.014815
  14 H :    0.012241
  15 H :    0.019979
  16 H :    0.008796
  17 H :    0.014066
  18 H :    0.016313
Sum of atomic charges:   -0.0000000

LOEWDIN ATOMIC CHARGES
----------------------
   0 C :   -0.006157
   1 N :   -0.101205
   2 C :    0.014631
   3 C :   -0.055698
   4 C :   -0.059178
   5 C :   -0.060751
   6 H :    0.021685
   7 H :   -0.003511
   8 H :    0.021301
   9 H :    0.052960
  10 H :    0.017697
  11 H :   -0.005302
  12 H :    0.020712
  13 H :    0.024322
  14 H :    0.022990
  15 H :    0.026288
  16 H :    0.023134
  17 H :    0.022665
  18 H :    0.023416

  Mayer bond orders larger than 0.1
B(  0-C ,  1-N ) :   1.0705 B(  0-C ,  6-H ) :   0.9722 B(  0-C ,  7-H ) :   0.9427
B(  0-C ,  8-H ) :   0.9688 B(  1-N ,  2-C ) :   1.0557 B(  1-N ,  9-H ) :   0.9440
B(  2-C ,  3-C ) :   1.0568 B(  2-C , 10-H ) :   0.9234 B(  2-C , 11-H ) :   0.9182
B(  3-C ,  4-C ) :   1.0870 B(  3-C ,  5-C ) :   1.0806 B(  3-C , 12-H ) :   0.9126
B(  4-C , 13-H ) :   0.9613 B(  4-C , 14-H ) :   0.9547 B(  4-C , 15-H ) :   0.9601
B(  5-C , 16-H ) :   0.9600 B(  5-C , 17-H ) :   0.9606 B(  5-C , 18-H ) :   0.9509

FINAL SINGLE POINT ENERGY      -252.561493322722

DIPOLE MOMENT
-------------
                                X             Y             Z
Electronic contribution:     -0.74048      -1.62172      -0.08857
Nuclear contribution   :      0.62366       1.56518      -0.24297
                        -----------------------------------------
Total Dipole Moment    :     -0.11682      -0.05654      -0.33154
                        -----------------------------------------
Magnitude (a.u.)       :      0.35604
Magnitude (Debye)      :      0.90498

                             ****ORCA TERMINATED NORMALLY****
TOTAL RUN TIME: 0 days 0 hours 0 minutes 7 seconds 370 msec
