                         Program Version 3.0.3 - RELEASE   -
|  1> ! RI PBE def2-SVP def2-SVP/J NBO PAL2
|  2> % maxcore 2000
|  3> % output
|  4>     # printlevel mini
|  5>     print[ P_Basis ] 0
|  6>     print[ P_SCFInfo ] 1
|  7>     print[ P_SCFIterInfo ] 1
|  8>     print[ P_OrbEn ] 0
|  9>     print[ P_Cartesian ] 0
| 10> end
| 11> *xyz 0 1
| 12>  C        1.3977140000     0.1323090000    -0.0986710000
| 13>  N        2.8270760000     0.3387710000    -0.0332390000
| 14>  C        3.5109750000    -0.6747560000     0.7484050000
| 15>  C        4.9972490000    -0.4569720000     0.7546080000
| 16>  C        5.6795420000    -0.5052220000    -0.5748320000
| 17>  C        5.6497030000    -0.2369670000     1.8918660000
| 18>  H        0.9295790000     0.9556800000    -0.6416460000
| 19>  H        0.9101520000     0.0472350000     0.8872000000
| 20>  H        1.1866280000    -0.7887430000    -0.6495500000
| 21>  H        3.0277530000     1.2492300000     0.3628720000
| 22>  H        3.2928290000    -1.6452430000     0.2821260000
| 23>  H        3.1433600000    -0.7344730000     1.7869220000
| 24>  H        5.5627300000    -1.4950320000    -1.0296420000
| 25>  H        6.7452590000    -0.2901150000    -0.4877130000
| 26>  H        5.2240080000     0.2087550000    -1.2650590000
| 27>  H        5.1302840000    -0.2088670000     2.8440420000
| 28>  H        6.7237480000    -0.0857000000     1.9103000000
| 29> *
| 30>
| 31>                          ****END OF INPUT****
 Total Charge           Charge          ....    0
 Multiplicity           Mult            ....    1
 Number of Electrons    NEL             ....   48
 Basis Dimension        Dim             ....  139

MULLIKEN ATOMIC CHARGES
-----------------------
   0 C :    0.067332
   1 N :   -0.276115
   2 C :    0.190260
   3 C :   -0.224948
   4 C :    0.081378
   5 C :   -0.028685
   6 H :    0.023850
   7 H :   -0.006261
   8 H :    0.018293
   9 H :    0.100280
  10 H :    0.000322
  11 H :   -0.024196
  12 H :    0.021391
  13 H :    0.011392
  14 H :    0.031818
  15 H :    0.005818
  16 H :    0.008071
Sum of atomic charges:    0.0000000

LOEWDIN ATOMIC CHARGES
----------------------
   0 C :   -0.007312
   1 N :   -0.102752
   2 C :    0.020588
   3 C :   -0.037849
   4 C :   -0.057298
   5 C :   -0.076938
   6 H :    0.023260
   7 H :   -0.001903
   8 H :    0.021525
   9 H :    0.055352
  10 H :    0.024446
  11 H :    0.000669
  12 H :    0.036457
  13 H :    0.028180
  14 H :    0.035890
  15 H :    0.018250
  16 H :    0.019434

  Mayer bond orders larger than 0.1
B(  0-C ,  1-N ) :   1.0681 B(  0-C ,  6-H ) :   0.9730 B(  0-C ,  7-H ) :   0.9438
B(  0-C ,  8-H ) :   0.9681 B(  1-N ,  2-C ) :   1.0296 B(  1-N ,  9-H ) :   0.9427
B(  2-C ,  3-C ) :   1.0517 B(  2-C , 10-H ) :   0.9107 B(  2-C , 11-H ) :   0.9053
B(  3-C ,  4-C ) :   1.0877 B(  3-C ,  5-C ) :   1.9785 B(  4-C , 12-H ) :   0.9385
B(  4-C , 13-H ) :   0.9496 B(  4-C , 14-H ) :   0.9349 B(  5-C , 15-H ) :   0.9342
B(  5-C , 16-H ) :   0.9339

FINAL SINGLE POINT ENERGY      -251.341623370619

DIPOLE MOMENT
-------------
                                X             Y             Z
Electronic contribution:      1.32349       0.41372       0.74317
Nuclear contribution   :     -1.54604      -0.31119      -0.64369
                        -----------------------------------------
Total Dipole Moment    :     -0.22255       0.10253       0.09949
                        -----------------------------------------
Magnitude (a.u.)       :      0.26446
Magnitude (Debye)      :      0.67220

                             ****ORCA TERMINATED NORMALLY****
TOTAL RUN TIME: 0 days 0 hours 0 minutes 6 seconds 874 msec
