                         Program Version 3.0.3 - RELEASE   -
|  1> ! RI PBE def2-SVP def2-SVP/J NBO PAL2
|  2> % maxcore 2000
|  3> % output
|  4>     # printlevel mini
|  5>     print[ P_Basis ] 0
|  6>     print[ P_SCFInfo ] 1
|  7>     print[ P_SCFIterInfo ] 1
|  8>     print[ P_OrbEn ] 0
|  9>     print[ P_Cartesian ] 0
| 10> end
| 11> *xyz 0 1
| 12>  C        0.9526840000    -0.0664100000     0.0008550000
| 13>  N        2.3940780000     0.0123630000     0.0673740000
| 14>  C        2.9277960000     1.0737760000    -0.7673970000
| 15>  C        4.3816460000     1.0470950000    -0.8249490000
| 16>  C        5.5814720000     1.0094460000    -0.8883360000
| 17>  C        7.0303270000     0.9718500000    -0.9532920000
| 18>  H        0.6034340000    -0.9115500000     0.5964470000
| 19>  H        0.5536820000    -0.1744760000    -1.0222810000
| 20>  H        0.5161920000     0.8407060000     0.4291550000
| 21>  H        2.8114890000    -0.8672890000    -0.2081150000
| 22>  H        2.5982790000     2.0338300000    -0.3510810000
| 23>  H        2.5327310000     1.0392170000    -1.7999640000
| 24>  H        7.3743950000     0.5445410000    -1.8985170000
| 25>  H        7.4405860000     0.3663950000    -0.1411560000
| 26>  H        7.4514580000     1.9765560000    -0.8653640000
| 27> *
| 28>
| 29>                          ****END OF INPUT****
 Total Charge           Charge          ....    0
 Multiplicity           Mult            ....    1
 Number of Electrons    NEL             ....   46
 Basis Dimension        Dim             ....  129

MULLIKEN ATOMIC CHARGES
-----------------------
   0 C :    0.072491
   1 N :   -0.278536
   2 C :    0.194652
   3 C :   -0.103513
   4 C :   -0.235756
   5 C :    0.052837
   6 H :    0.025147
   7 H :   -0.008161
   8 H :    0.016362
   9 H :    0.103666
  10 H :    0.017315
  11 H :    0.003746
  12 H :    0.044090
  13 H :    0.049561
  14 H :    0.046098
Sum of atomic charges:   -0.0000000

LOEWDIN ATOMIC CHARGES
----------------------
   0 C :   -0.007195
   1 N :   -0.101028
   2 C :    0.007542
   3 C :   -0.071939
   4 C :   -0.063637
   5 C :   -0.067896
   6 H :    0.024666
   7 H :   -0.003023
   8 H :    0.021391
   9 H :    0.056066
  10 H :    0.038294
  11 H :    0.016446
  12 H :    0.048290
  13 H :    0.051547
  14 H :    0.050474

  Mayer bond orders larger than 0.1
B(  0-C ,  1-N ) :   1.0674 B(  0-C ,  6-H ) :   0.9734 B(  0-C ,  7-H ) :   0.9426
B(  0-C ,  8-H ) :   0.9664 B(  1-N ,  2-C ) :   1.0253 B(  1-N ,  9-H ) :   0.9451
B(  2-C ,  3-C ) :   1.0459 B(  2-C , 10-H ) :   0.8871 B(  2-C , 11-H ) :   0.8928
B(  3-C ,  4-C ) :   2.6145 B(  4-C ,  5-C ) :   1.1328 B(  5-C , 12-H ) :   0.9336
B(  5-C , 13-H ) :   0.9321 B(  5-C , 14-H ) :   0.9342

FINAL SINGLE POINT ENERGY      -250.101265494658

DIPOLE MOMENT
-------------
                                X             Y             Z
Electronic contribution:      2.32215       0.72276       0.00764
Nuclear contribution   :     -2.23085      -0.89243      -0.30139
                        -----------------------------------------
Total Dipole Moment    :      0.09130      -0.16967      -0.29375
                        -----------------------------------------
Magnitude (a.u.)       :      0.35130
Magnitude (Debye)      :      0.89295

                             ****ORCA TERMINATED NORMALLY****
TOTAL RUN TIME: 0 days 0 hours 0 minutes 5 seconds 869 msec
