                         Program Version 3.0.3 - RELEASE   -
|  1> ! RI PBE def2-SVP def2-SVP/J NBO PAL2
|  2> % maxcore 2000
|  3> % output
|  4>     # printlevel mini
|  5>     print[ P_Basis ] 0
|  6>     print[ P_SCFInfo ] 1
|  7>     print[ P_SCFIterInfo ] 1
|  8>     print[ P_OrbEn ] 0
|  9>     print[ P_Cartesian ] 0
| 10> end
| 11> *xyz 0 1
| 12>  C        0.8942380000    -0.0600160000    -0.0607540000
| 13>  N        2.3386560000    -0.0490800000     0.0001090000
| 14>  C        2.8743490000     1.1710530000     0.5630400000
| 15>  C        4.3964600000     1.1514650000     0.5744090000
| 16>  C        4.9802770000     2.3458520000     1.2510020000
| 17>  C        5.7889310000     3.2295310000     0.6831860000
| 18>  H        0.5503940000    -0.9767330000    -0.5439730000
| 19>  H        0.4599410000     0.7988850000    -0.5998490000
| 20>  H        0.4863840000    -0.0498730000     0.9540950000
| 21>  H        2.7215530000    -0.1887560000    -0.9271410000
| 22>  H        2.5050630000     1.2571390000     1.5922760000
| 23>  H        2.5255280000     2.0763830000     0.0340780000
| 24>  H        4.7749220000     1.0899620000    -0.4522000000
| 25>  H        4.7148360000     0.2371220000     1.0887190000
| 26>  H        4.7005430000     2.4852940000     2.2945990000
| 27>  H        6.0948700000     3.1319520000    -0.3542490000
| 28>  H        6.1790650000     4.0785180000     1.2325640000
| 29> *
| 30>
| 31>                          ****END OF INPUT****
 Total Charge           Charge          ....    0
 Multiplicity           Mult            ....    1
 Number of Electrons    NEL             ....   48
 Basis Dimension        Dim             ....  139

MULLIKEN ATOMIC CHARGES
-----------------------
   0 C :    0.069718
   1 N :   -0.268690
   2 C :    0.078129
   3 C :    0.064180
   4 C :   -0.093898
   5 C :   -0.031958
   6 H :    0.020332
   7 H :   -0.006850
   8 H :    0.017495
   9 H :    0.098953
  10 H :    0.002665
  11 H :   -0.012181
  12 H :   -0.002928
  13 H :    0.022894
  14 H :    0.006123
  15 H :    0.013992
  16 H :    0.022024
Sum of atomic charges:   -0.0000000

LOEWDIN ATOMIC CHARGES
----------------------
   0 C :   -0.005972
   1 N :   -0.107312
   2 C :    0.014705
   3 C :   -0.046126
   4 C :   -0.027499
   5 C :   -0.067222
   6 H :    0.022425
   7 H :   -0.002449
   8 H :    0.020983
   9 H :    0.052755
  10 H :    0.018298
  11 H :   -0.002046
  12 H :    0.023720
  13 H :    0.035759
  14 H :    0.025643
  15 H :    0.020465
  16 H :    0.023873

  Mayer bond orders larger than 0.1
B(  0-C ,  1-N ) :   1.0653 B(  0-C ,  6-H ) :   0.9729 B(  0-C ,  7-H ) :   0.9450
B(  0-C ,  8-H ) :   0.9685 B(  1-N ,  2-C ) :   1.0477 B(  1-N ,  9-H ) :   0.9455
B(  2-C ,  3-C ) :   1.0682 B(  2-C , 10-H ) :   0.9331 B(  2-C , 11-H ) :   0.9190
B(  3-C ,  4-C ) :   1.0613 B(  3-C , 12-H ) :   0.9286 B(  3-C , 13-H ) :   0.9066
B(  4-C ,  5-C ) :   2.0181 B(  4-C , 14-H ) :   0.9522 B(  5-C , 15-H ) :   0.9463
B(  5-C , 16-H ) :   0.9431

FINAL SINGLE POINT ENERGY      -251.335530618521

DIPOLE MOMENT
-------------
                                X             Y             Z
Electronic contribution:      2.24170       0.02178       0.60745
Nuclear contribution   :     -2.39675       0.04158      -0.86147
                        -----------------------------------------
Total Dipole Moment    :     -0.15505       0.06336      -0.25402
                        -----------------------------------------
Magnitude (a.u.)       :      0.30427
Magnitude (Debye)      :      0.77339

                             ****ORCA TERMINATED NORMALLY****
TOTAL RUN TIME: 0 days 0 hours 0 minutes 6 seconds 707 msec
