                         Program Version 3.0.3 - RELEASE   -
|  1> ! RI PBE def2-SVP def2-SVP/J NBO PAL2
|  2> % maxcore 2000
|  3> % output
|  4>     # printlevel mini
|  5>     print[ P_Basis ] 0
|  6>     print[ P_SCFInfo ] 1
|  7>     print[ P_SCFIterInfo ] 1
|  8>     print[ P_OrbEn ] 0
|  9>     print[ P_Cartesian ] 0
| 10> end
| 11> *xyz 0 1
| 12>  C        1.1589960000     0.1254980000    -0.0513590000
| 13>  N        2.5928330000    -0.0462310000    -0.1372980000
| 14>  C        2.9807400000    -1.3896350000    -0.5019310000
| 15>  C        4.4987250000    -1.4928660000    -0.6149040000
| 16>  C        4.9440850000    -2.8196060000    -1.0019570000
| 17>  C        5.2916690000    -3.9226270000    -1.3242670000
| 18>  H        0.9280260000     1.1389610000     0.2820540000
| 19>  H        0.6618230000    -0.5847600000     0.6299180000
| 20>  H        0.7162290000    -0.0045490000    -1.0426910000
| 21>  H        3.0196660000     0.2020180000     0.7472750000
| 22>  H        2.5342950000    -1.6243770000    -1.4733860000
| 23>  H        2.6155380000    -2.1560330000     0.2030820000
| 24>  H        4.9567160000    -1.2287700000     0.3459710000
| 25>  H        4.8507530000    -0.7536190000    -1.3409170000
| 26>  H        5.6055160000    -4.8980760000    -1.6111910000
| 27> *
| 28>
| 29>                          ****END OF INPUT****
 Total Charge           Charge          ....    0
 Multiplicity           Mult            ....    1
 Number of Electrons    NEL             ....   46
 Basis Dimension        Dim             ....  129

MULLIKEN ATOMIC CHARGES
-----------------------
   0 C :    0.070279
   1 N :   -0.267735
   2 C :    0.070523
   3 C :    0.082211
   4 C :    0.324503
   5 C :   -0.498289
   6 H :    0.020767
   7 H :   -0.003046
   8 H :    0.021124
   9 H :    0.099783
  10 H :    0.014173
  11 H :    0.000133
  12 H :    0.027060
  13 H :    0.041679
  14 H :   -0.003164
Sum of atomic charges:   -0.0000000

LOEWDIN ATOMIC CHARGES
----------------------
   0 C :   -0.004447
   1 N :   -0.106928
   2 C :    0.022196
   3 C :   -0.051249
   4 C :   -0.021477
   5 C :   -0.092239
   6 H :    0.023304
   7 H :   -0.000668
   8 H :    0.022478
   9 H :    0.053364
  10 H :    0.024618
  11 H :    0.002453
  12 H :    0.044482
  13 H :    0.050412
  14 H :    0.033701

  Mayer bond orders larger than 0.1
B(  0-C ,  1-N ) :   1.0608 B(  0-C ,  6-H ) :   0.9724 B(  0-C ,  7-H ) :   0.9466
B(  0-C ,  8-H ) :   0.9692 B(  1-N ,  2-C ) :   1.0525 B(  1-N ,  9-H ) :   0.9416
B(  2-C ,  3-C ) :   1.0690 B(  2-C , 10-H ) :   0.9319 B(  2-C , 11-H ) :   0.9251
B(  3-C ,  4-C ) :   1.0570 B(  3-C , 12-H ) :   0.8934 B(  3-C , 13-H ) :   0.8915
B(  4-C ,  5-C ) :   2.3466 B(  4-C , 14-H ) :  -0.1087 B(  5-C , 14-H ) :   1.0994

FINAL SINGLE POINT ENERGY      -250.093061669873

DIPOLE MOMENT
-------------
                                X             Y             Z
Electronic contribution:      4.85236      -3.22622      -1.35696
Nuclear contribution   :     -5.08075       3.37989       1.73596
                        -----------------------------------------
Total Dipole Moment    :     -0.22839       0.15368       0.37900
                        -----------------------------------------
Magnitude (a.u.)       :      0.46842
Magnitude (Debye)      :      1.19063

                             ****ORCA TERMINATED NORMALLY****
TOTAL RUN TIME: 0 days 0 hours 0 minutes 6 seconds 12 msec
