                         Program Version 3.0.3 - RELEASE   -
|  1> ! RI PBE def2-SVP def2-SVP/J NBO PAL2
|  2> % maxcore 2000
|  3> % output
|  4>     # printlevel mini
|  5>     print[ P_Basis ] 0
|  6>     print[ P_SCFInfo ] 1
|  7>     print[ P_SCFIterInfo ] 1
|  8>     print[ P_OrbEn ] 0
|  9>     print[ P_Cartesian ] 0
| 10> end
| 11> *xyz 0 1
| 12>  C        1.0908820000    -0.0091610000    -0.0370260000
| 13>  N        2.5332220000    -0.0953010000    -0.0517100000
| 14>  C        3.0414430000    -1.2709560000     0.6215630000
| 15>  C        4.5570330000    -1.2866000000     0.6403880000
| 16>  C        5.1290090000    -2.5296790000     1.2940920000
| 17>  N        6.5822320000    -2.4644470000     1.3318720000
| 18>  H        0.7694810000     0.9229780000    -0.5060800000
| 19>  H        0.6474310000    -0.0588920000     0.9722470000
| 20>  H        0.6693780000    -0.8331810000    -0.6201100000
| 21>  H        2.9315860000     0.7331090000     0.3733770000
| 22>  H        2.6695610000    -2.1518300000     0.0835460000
| 23>  H        2.6599050000    -1.3610590000     1.6565920000
| 24>  H        4.9357730000    -0.4081920000     1.1753690000
| 25>  H        4.9210060000    -1.2071120000    -0.3903890000
| 26>  H        4.7395020000    -3.4194560000     0.7723590000
| 27>  H        4.7699150000    -2.5931790000     2.3269510000
| 28>  H        6.9558270000    -2.4455220000     0.3901750000
| 29>  H        6.9663230000    -3.2852220000     1.7827050000
| 30> *
| 31>
| 32>                          ****END OF INPUT****
 Total Charge           Charge          ....    0
 Multiplicity           Mult            ....    1
 Number of Electrons    NEL             ....   50
 Basis Dimension        Dim             ....  144

MULLIKEN ATOMIC CHARGES
-----------------------
   0 C :    0.070898
   1 N :   -0.267302
   2 C :    0.105953
   3 C :   -0.044280
   4 C :    0.057971
   5 N :   -0.202428
   6 H :    0.018382
   7 H :   -0.009632
   8 H :    0.016818
   9 H :    0.098304
  10 H :   -0.004008
  11 H :   -0.022651
  12 H :    0.009383
  13 H :    0.008706
  14 H :   -0.010686
  15 H :    0.003384
  16 H :    0.085606
  17 H :    0.085583
Sum of atomic charges:   -0.0000000

LOEWDIN ATOMIC CHARGES
----------------------
   0 C :   -0.007004
   1 N :   -0.106366
   2 C :    0.012095
   3 C :   -0.054102
   4 C :    0.006768
   5 N :   -0.113072
   6 H :    0.021695
   7 H :   -0.003875
   8 H :    0.020421
   9 H :    0.052649
  10 H :    0.016118
  11 H :   -0.005391
  12 H :    0.022210
  13 H :    0.021967
  14 H :   -0.002479
  15 H :    0.017981
  16 H :    0.048895
  17 H :    0.051489

  Mayer bond orders larger than 0.1
B(  0-C ,  1-N ) :   1.0667 B(  0-C ,  6-H ) :   0.9731 B(  0-C ,  7-H ) :   0.9435
B(  0-C ,  8-H ) :   0.9685 B(  1-N ,  2-C ) :   1.0514 B(  1-N ,  9-H ) :   0.9454
B(  2-C ,  3-C ) :   1.0795 B(  2-C , 10-H ) :   0.9253 B(  2-C , 11-H ) :   0.9155
B(  3-C ,  4-C ) :   1.0911 B(  3-C , 12-H ) :   0.9303 B(  3-C , 13-H ) :   0.9308
B(  4-C ,  5-N ) :   1.0980 B(  4-C , 14-H ) :   0.9311 B(  4-C , 15-H ) :   0.9309
B(  5-N , 16-H ) :   0.9691 B(  5-N , 17-H ) :   0.9636

FINAL SINGLE POINT ENERGY      -268.572289611891

DIPOLE MOMENT
-------------
                                X             Y             Z
Electronic contribution:      2.11974       0.33587      -0.26822
Nuclear contribution   :     -2.17356      -0.64170       0.33517
                        -----------------------------------------
Total Dipole Moment    :     -0.05382      -0.30583       0.06695
                        -----------------------------------------
Magnitude (a.u.)       :      0.31767
Magnitude (Debye)      :      0.80744

                             ****ORCA TERMINATED NORMALLY****
TOTAL RUN TIME: 0 days 0 hours 0 minutes 6 seconds 544 msec
