                         Program Version 3.0.3 - RELEASE   -
|  1> ! RI PBE def2-SVP def2-SVP/J NBO PAL2
|  2> % maxcore 2000
|  3> % output
|  4>     # printlevel mini
|  5>     print[ P_Basis ] 0
|  6>     print[ P_SCFInfo ] 1
|  7>     print[ P_SCFIterInfo ] 1
|  8>     print[ P_OrbEn ] 0
|  9>     print[ P_Cartesian ] 0
| 10> end
| 11> *xyz 0 1
| 12>  C        1.2399860000     0.3806170000    -0.0842030000
| 13>  N        2.6039120000    -0.0694500000     0.0303140000
| 14>  C        3.2483530000     0.0994440000     1.2366010000
| 15>  C        2.7290480000     0.6469450000     2.3363440000
| 16>  C        3.2197420000    -0.6526520000    -1.0641460000
| 17>  N        4.3867740000    -1.1210340000    -1.2059310000
| 18>  H        0.5953090000    -0.1396710000     0.6312130000
| 19>  H        0.8767290000     0.1789330000    -1.0906600000
| 20>  H        1.1661850000     1.4560680000     0.1056850000
| 21>  H        4.2705870000    -0.2587070000     1.2495380000
| 22>  H        1.7166560000     1.0241900000     2.3913840000
| 23>  H        3.3388300000     0.7243450000     3.2252670000
| 24>  H        2.5476110000    -0.6928520000    -1.9228150000
| 25>  H        4.9590660000    -1.0526960000    -0.3679020000
| 26> *
| 27>
| 28>                          ****END OF INPUT****
 Total Charge           Charge          ....    0
 Multiplicity           Mult            ....    1
 Number of Electrons    NEL             ....   46
 Basis Dimension        Dim             ....  124

MULLIKEN ATOMIC CHARGES
-----------------------
   0 C :    0.086656
   1 N :   -0.196161
   2 C :    0.070087
   3 C :   -0.095005
   4 C :    0.003974
   5 N :   -0.122610
   6 H :    0.044130
   7 H :    0.035509
   8 H :    0.044091
   9 H :   -0.004984
  10 H :    0.017954
  11 H :    0.025658
  12 H :    0.012642
  13 H :    0.078059
Sum of atomic charges:   -0.0000000

LOEWDIN ATOMIC CHARGES
----------------------
   0 C :    0.024835
   1 N :   -0.006112
   2 C :    0.007344
   3 C :   -0.120903
   4 C :    0.022149
   5 N :   -0.143794
   6 H :    0.028414
   7 H :    0.031617
   8 H :    0.028286
   9 H :    0.021096
  10 H :    0.021078
  11 H :    0.031053
  12 H :    0.015886
  13 H :    0.039050

  Mayer bond orders larger than 0.1
B(  0-C ,  1-N ) :   1.0079 B(  0-C ,  6-H ) :   0.9580 B(  0-C ,  7-H ) :   0.9553
B(  0-C ,  8-H ) :   0.9583 B(  1-N ,  2-C ) :   1.1084 B(  1-N ,  4-C ) :   1.0731
B(  2-C ,  3-C ) :   1.8942 B(  2-C ,  9-H ) :   0.9364 B(  3-C , 10-H ) :   0.9486
B(  3-C , 11-H ) :   0.9366 B(  4-C ,  5-N ) :   2.0265 B(  4-C , 12-H ) :   0.9380
B(  5-N , 13-H ) :   0.9568

FINAL SINGLE POINT ENERGY      -266.170065322484

DIPOLE MOMENT
-------------
                                X             Y             Z
Electronic contribution:      2.62721      -1.58763      -1.94844
Nuclear contribution   :     -3.39827       2.02564       2.44326
                        -----------------------------------------
Total Dipole Moment    :     -0.77106       0.43801       0.49482
                        -----------------------------------------
Magnitude (a.u.)       :      1.01550
Magnitude (Debye)      :      2.58120

                             ****ORCA TERMINATED NORMALLY****
TOTAL RUN TIME: 0 days 0 hours 0 minutes 6 seconds 92 msec
