                         Program Version 3.0.3 - RELEASE   -
|  1> ! RI PBE def2-SVP def2-SVP/J NBO PAL2
|  2> % maxcore 2000
|  3> % output
|  4>     # printlevel mini
|  5>     print[ P_Basis ] 0
|  6>     print[ P_SCFInfo ] 1
|  7>     print[ P_SCFIterInfo ] 1
|  8>     print[ P_OrbEn ] 0
|  9>     print[ P_Cartesian ] 0
| 10> end
| 11> *xyz 0 1
| 12>  C        0.9321210000     0.2829510000    -0.9907890000
| 13>  N        1.9545320000     0.1869700000     0.0252200000
| 14>  C        2.9524900000     1.2143120000    -0.1563240000
| 15>  C        1.4109450000     0.2193540000     1.3675250000
| 16>  C        0.5806200000    -1.0036250000     1.7183970000
| 17>  N        0.2174250000    -0.9546310000     3.1259880000
| 18>  H        1.3950590000     0.2458840000    -1.9793720000
| 19>  H        0.3489390000     1.2205070000    -0.9221530000
| 20>  H        0.2365420000    -0.5545290000    -0.9215670000
| 21>  H        3.3923730000     1.1324660000    -1.1531650000
| 22>  H        3.7523260000     1.0917480000     0.5776070000
| 23>  H        2.5445180000     2.2365660000    -0.0486310000
| 24>  H        0.8056150000     1.1267270000     1.5506790000
| 25>  H        2.2568290000     0.2652210000     2.0631310000
| 26>  H        1.1458970000    -1.9004590000     1.4229360000
| 27>  H       -0.3478050000    -1.0054300000     1.1407400000
| 28>  H        1.0349550000    -1.0906210000     3.7084540000
| 29>  H       -0.4329820000    -1.6946120000     3.3548360000
| 30> *
| 31>
| 32>                          ****END OF INPUT****
 Total Charge           Charge          ....    0
 Multiplicity           Mult            ....    1
 Number of Electrons    NEL             ....   50
 Basis Dimension        Dim             ....  144

MULLIKEN ATOMIC CHARGES
-----------------------
   0 C :    0.095798
   1 N :   -0.343264
   2 C :    0.098779
   3 C :    0.089438
   4 C :    0.064194
   5 N :   -0.217686
   6 H :    0.015746
   7 H :   -0.015297
   8 H :    0.030345
   9 H :    0.016210
  10 H :    0.020660
  11 H :   -0.014305
  12 H :   -0.014945
  13 H :   -0.006397
  14 H :   -0.002111
  15 H :    0.006586
  16 H :    0.088861
  17 H :    0.087388
Sum of atomic charges:    0.0000000

LOEWDIN ATOMIC CHARGES
----------------------
   0 C :    0.001829
   1 N :   -0.115721
   2 C :    0.002350
   3 C :    0.008683
   4 C :   -0.001322
   5 N :   -0.109768
   6 H :    0.021937
   7 H :   -0.002846
   8 H :    0.020754
   9 H :    0.020381
  10 H :    0.020913
  11 H :   -0.003315
  12 H :   -0.001306
  13 H :    0.017486
  14 H :   -0.000478
  15 H :    0.017973
  16 H :    0.049851
  17 H :    0.052600

  Mayer bond orders larger than 0.1
B(  0-C ,  1-N ) :   1.0299 B(  0-C ,  6-H ) :   0.9657 B(  0-C ,  7-H ) :   0.9344
B(  0-C ,  8-H ) :   0.9675 B(  1-N ,  2-C ) :   1.0402 B(  1-N ,  3-C ) :   1.0253
B(  2-C ,  9-H ) :   0.9670 B(  2-C , 10-H ) :   0.9668 B(  2-C , 11-H ) :   0.9368
B(  3-C ,  4-C ) :   1.0779 B(  3-C , 12-H ) :   0.9115 B(  3-C , 13-H ) :   0.9357
B(  4-C ,  5-N ) :   1.0874 B(  4-C , 14-H ) :   0.9294 B(  4-C , 15-H ) :   0.9252
B(  5-N , 16-H ) :   0.9695 B(  5-N , 17-H ) :   0.9652

FINAL SINGLE POINT ENERGY      -268.565317440667

DIPOLE MOMENT
-------------
                                X             Y             Z
Electronic contribution:     -0.07116      -1.46470       1.52124
Nuclear contribution   :      0.15665       1.14437      -1.48528
                        -----------------------------------------
Total Dipole Moment    :      0.08548      -0.32034       0.03596
                        -----------------------------------------
Magnitude (a.u.)       :      0.33349
Magnitude (Debye)      :      0.84767

                             ****ORCA TERMINATED NORMALLY****
TOTAL RUN TIME: 0 days 0 hours 0 minutes 6 seconds 764 msec
