                         Program Version 3.0.3 - RELEASE   -
|  1> ! RI PBE def2-SVP def2-SVP/J NBO PAL2
|  2> % maxcore 2000
|  3> % output
|  4>     # printlevel mini
|  5>     print[ P_Basis ] 0
|  6>     print[ P_SCFInfo ] 1
|  7>     print[ P_SCFIterInfo ] 1
|  8>     print[ P_OrbEn ] 0
|  9>     print[ P_Cartesian ] 0
| 10> end
| 11> *xyz 0 1
| 12>  C        1.1214250000     0.0663180000    -0.2707630000
| 13>  N        2.5319120000    -0.0819140000    -0.0237280000
| 14>  C        3.2888810000     1.0345560000     0.4933800000
| 15>  C        3.1184960000    -1.2942490000    -0.2914950000
| 16>  C        4.5904100000    -1.3975210000    -0.0170040000
| 17>  N        2.5194250000    -2.3284450000    -0.7496020000
| 18>  H        0.8099690000     1.0761630000    -0.0102960000
| 19>  H        0.5278490000    -0.6349320000     0.3287330000
| 20>  H        0.8736730000    -0.1014460000    -1.3262150000
| 21>  H        2.6210860000     1.8839730000     0.6275260000
| 22>  H        4.0865320000     1.3494020000    -0.1873630000
| 23>  H        3.7417770000     0.8172120000     1.4662200000
| 24>  H        4.8187400000    -1.2088400000     1.0352590000
| 25>  H        5.1627030000    -0.6791620000    -0.6098180000
| 26>  H        4.9089910000    -2.4042100000    -0.2745210000
| 27>  H        1.5285210000    -2.1623840000    -0.9032840000
| 28> *
| 29>
| 30>                          ****END OF INPUT****
 Total Charge           Charge          ....    0
 Multiplicity           Mult            ....    1
 Number of Electrons    NEL             ....   48
 Basis Dimension        Dim             ....  134

MULLIKEN ATOMIC CHARGES
-----------------------
   0 C :    0.085702
   1 N :   -0.273596
   2 C :    0.099982
   3 C :   -0.160587
   4 C :    0.065232
   5 N :   -0.122266
   6 H :    0.017769
   7 H :    0.034907
   8 H :    0.031462
   9 H :    0.027615
  10 H :    0.029796
  11 H :    0.026372
  12 H :    0.025071
  13 H :    0.026781
  14 H :    0.029076
  15 H :    0.056685
Sum of atomic charges:   -0.0000000

LOEWDIN ATOMIC CHARGES
----------------------
   0 C :    0.010608
   1 N :   -0.056934
   2 C :    0.015816
   3 C :    0.000906
   4 C :   -0.066445
   5 N :   -0.181822
   6 H :    0.026991
   7 H :    0.020673
   8 H :    0.019629
   9 H :    0.028959
  10 H :    0.021795
  11 H :    0.021643
  12 H :    0.033699
  13 H :    0.034080
  14 H :    0.041344
  15 H :    0.029058

  Mayer bond orders larger than 0.1
B(  0-C ,  1-N ) :   1.0196 B(  0-C ,  6-H ) :   0.9587 B(  0-C ,  7-H ) :   0.9567
B(  0-C ,  8-H ) :   0.9570 B(  1-N ,  2-C ) :   1.0209 B(  1-N ,  3-C ) :   1.1317
B(  2-C ,  9-H ) :   0.9622 B(  2-C , 10-H ) :   0.9606 B(  2-C , 11-H ) :   0.9591
B(  3-C ,  4-C ) :   1.0535 B(  3-C ,  5-N ) :   2.0130 B(  4-C , 12-H ) :   0.9423
B(  4-C , 13-H ) :   0.9429 B(  4-C , 14-H ) :   0.9406 B(  5-N , 15-H ) :   0.9424

FINAL SINGLE POINT ENERGY      -267.383896085744

DIPOLE MOMENT
-------------
                                X             Y             Z
Electronic contribution:     -0.71215      -2.69911      -1.01709
Nuclear contribution   :      0.52547       4.04215       1.41051
                        -----------------------------------------
Total Dipole Moment    :     -0.18668       1.34304       0.39342
                        -----------------------------------------
Magnitude (a.u.)       :      1.41187
Magnitude (Debye)      :      3.58870

                             ****ORCA TERMINATED NORMALLY****
TOTAL RUN TIME: 0 days 0 hours 0 minutes 6 seconds 713 msec
