                         Program Version 3.0.3 - RELEASE   -
|  1> ! RI PBE def2-SVP def2-SVP/J NBO PAL2
|  2> % maxcore 2000
|  3> % output
|  4>     # printlevel mini
|  5>     print[ P_Basis ] 0
|  6>     print[ P_SCFInfo ] 1
|  7>     print[ P_SCFIterInfo ] 1
|  8>     print[ P_OrbEn ] 0
|  9>     print[ P_Cartesian ] 0
| 10> end
| 11> *xyz 0 1
| 12>  C        0.8408590000     0.1286730000    -0.3047880000
| 13>  N        2.2567560000     0.0117160000    -0.0400530000
| 14>  C        2.5239460000    -0.2341930000     1.3606490000
| 15>  C        2.8496030000    -0.9918440000    -0.8926430000
| 16>  C        4.3083860000    -0.9992290000    -0.8082090000
| 17>  N        5.4551860000    -1.0246910000    -0.7430090000
| 18>  H        0.4243860000     0.9309800000     0.3063800000
| 19>  H        0.2817680000    -0.7973000000    -0.0787490000
| 20>  H        0.6752290000     0.3816370000    -1.3543900000
| 21>  H        2.1111960000     0.5826350000     1.9547060000
| 22>  H        3.6004720000    -0.2711310000     1.5359290000
| 23>  H        2.0798250000    -1.1802110000     1.7188470000
| 24>  H        2.5788700000    -0.7841470000    -1.9320570000
| 25>  H        2.4975160000    -2.0168820000    -0.6665030000
| 26> *
| 27>
| 28>                          ****END OF INPUT****
 Total Charge           Charge          ....    0
 Multiplicity           Mult            ....    1
 Number of Electrons    NEL             ....   46
 Basis Dimension        Dim             ....  124

MULLIKEN ATOMIC CHARGES
-----------------------
   0 C :    0.105348
   1 N :   -0.353429
   2 C :    0.084461
   3 C :    0.178285
   4 C :   -0.269628
   5 N :    0.058944
   6 H :    0.032695
   7 H :   -0.006431
   8 H :    0.024934
   9 H :    0.032125
  10 H :    0.050433
  11 H :   -0.008767
  12 H :    0.046519
  13 H :    0.024512
Sum of atomic charges:   -0.0000000

LOEWDIN ATOMIC CHARGES
----------------------
   0 C :    0.005022
   1 N :   -0.104667
   2 C :    0.004331
   3 C :    0.000480
   4 C :   -0.045072
   5 N :   -0.057196
   6 H :    0.028348
   7 H :    0.001388
   8 H :    0.025069
   9 H :    0.027942
  10 H :    0.031411
  11 H :    0.001382
  12 H :    0.053730
  13 H :    0.027834

  Mayer bond orders larger than 0.1
B(  0-C ,  1-N ) :   1.0339 B(  0-C ,  6-H ) :   0.9678 B(  0-C ,  7-H ) :   0.9378
B(  0-C ,  8-H ) :   0.9651 B(  1-N ,  2-C ) :   1.0220 B(  1-N ,  3-C ) :   1.0673
B(  2-C ,  9-H ) :   0.9680 B(  2-C , 10-H ) :   0.9614 B(  2-C , 11-H ) :   0.9362
B(  3-C ,  4-C ) :   1.1043 B(  3-C , 12-H ) :   0.8882 B(  3-C , 13-H ) :   0.8865
B(  4-C ,  5-N ) :   3.0575

FINAL SINGLE POINT ENERGY      -266.162700081285

DIPOLE MOMENT
-------------
                                X             Y             Z
Electronic contribution:      7.29377      -0.89840      -2.85231
Nuclear contribution   :     -8.81751       0.83698       2.92666
                        -----------------------------------------
Total Dipole Moment    :     -1.52374      -0.06142       0.07435
                        -----------------------------------------
Magnitude (a.u.)       :      1.52679
Magnitude (Debye)      :      3.88079

                             ****ORCA TERMINATED NORMALLY****
TOTAL RUN TIME: 0 days 0 hours 0 minutes 6 seconds 292 msec
