                         Program Version 3.0.3 - RELEASE   -
|  1> ! RI PBE def2-SVP def2-SVP/J NBO PAL2
|  2> % maxcore 2000
|  3> % output
|  4>     # printlevel mini
|  5>     print[ P_Basis ] 0
|  6>     print[ P_SCFInfo ] 1
|  7>     print[ P_SCFIterInfo ] 1
|  8>     print[ P_OrbEn ] 0
|  9>     print[ P_Cartesian ] 0
| 10> end
| 11> *xyz 0 1
| 12>  C        1.0879370000     0.2050400000    -0.0541020000
| 13>  N        2.5276640000     0.1754600000    -0.0303840000
| 14>  C        3.2304340000    -0.5821460000     0.8341400000
| 15>  C        4.5547830000    -0.4898720000     1.0857310000
| 16>  C        5.1922970000    -1.3815960000     1.9717940000
| 17>  N        5.7296040000    -2.1023540000     2.6977430000
| 18>  H        0.7358720000     0.4322510000    -1.0615150000
| 19>  H        0.6657940000     0.9433390000     0.6378410000
| 20>  H        0.7027270000    -0.7784000000     0.2188160000
| 21>  H        3.0085920000     0.9440790000    -0.4678730000
| 22>  H        2.6477210000    -1.3458410000     1.3410980000
| 23>  H        5.1720650000     0.2644370000     0.6098100000
| 24> *
| 25>
| 26>                          ****END OF INPUT****
 Total Charge           Charge          ....    0
 Multiplicity           Mult            ....    1
 Number of Electrons    NEL             ....   44
 Basis Dimension        Dim             ....  114

MULLIKEN ATOMIC CHARGES
-----------------------
   0 C :    0.069980
   1 N :   -0.143288
   2 C :    0.069608
   3 C :   -0.151708
   4 C :   -0.140599
   5 N :    0.005693
   6 H :    0.038223
   7 H :    0.043705
   8 H :    0.043875
   9 H :    0.120484
  10 H :    0.022582
  11 H :    0.021443
Sum of atomic charges:   -0.0000000

LOEWDIN ATOMIC CHARGES
----------------------
   0 C :    0.015565
   1 N :    0.017544
   2 C :    0.043187
   3 C :   -0.167610
   4 C :   -0.058211
   5 N :   -0.098547
   6 H :    0.031173
   7 H :    0.023102
   8 H :    0.035946
   9 H :    0.079899
  10 H :    0.037858
  11 H :    0.040093

  Mayer bond orders larger than 0.1
B(  0-C ,  1-N ) :   1.0220 B(  0-C ,  6-H ) :   0.9707 B(  0-C ,  7-H ) :   0.9636
B(  0-C ,  8-H ) :   0.9655 B(  1-N ,  2-C ) :   1.2800 B(  1-N ,  9-H ) :   0.9378
B(  2-C ,  3-C ) :   1.6494 B(  2-C , 10-H ) :   0.9488 B(  3-C ,  4-C ) :   1.1914
B(  3-C , 11-H ) :   0.9365 B(  4-C ,  5-N ) :   2.9364

FINAL SINGLE POINT ENERGY      -264.976630706930

DIPOLE MOMENT
-------------
                                X             Y             Z
Electronic contribution:      6.43967      -2.68385       3.14802
Nuclear contribution   :     -8.26668       4.09822      -4.60738
                        -----------------------------------------
Total Dipole Moment    :     -1.82702       1.41436      -1.45935
                        -----------------------------------------
Magnitude (a.u.)       :      2.73279
Magnitude (Debye)      :      6.94619

                             ****ORCA TERMINATED NORMALLY****
TOTAL RUN TIME: 0 days 0 hours 0 minutes 5 seconds 466 msec
