                         Program Version 3.0.3 - RELEASE   -
|  1> ! RI PBE def2-SVP def2-SVP/J NBO PAL2
|  2> % maxcore 2000
|  3> % output
|  4>     # printlevel mini
|  5>     print[ P_Basis ] 0
|  6>     print[ P_SCFInfo ] 1
|  7>     print[ P_SCFIterInfo ] 1
|  8>     print[ P_OrbEn ] 0
|  9>     print[ P_Cartesian ] 0
| 10> end
| 11> *xyz 0 1
| 12>  C        2.9415610000     0.2992010000     1.1498980000
| 13>  N        2.6957770000     0.2211950000    -0.2725170000
| 14>  C        3.1347540000    -1.0126150000    -0.9019540000
| 15>  C        2.4811710000    -1.1359400000    -2.2695450000
| 16>  C        4.6602080000    -1.1412100000    -0.9993810000
| 17>  N        5.2224980000    -0.0445930000    -1.7757810000
| 18>  H        2.5882290000     1.2619050000     1.5258310000
| 19>  H        3.9961130000     0.1923220000     1.4526920000
| 20>  H        2.3706810000    -0.4803990000     1.6631840000
| 21>  H        3.1670500000     0.9870460000    -0.7430310000
| 22>  H        2.7801910000    -1.8403220000    -0.2746010000
| 23>  H        2.7539240000    -0.2897710000    -2.9070300000
| 24>  H        1.3952490000    -1.1301020000    -2.1693960000
| 25>  H        2.7834790000    -2.0576830000    -2.7747220000
| 26>  H        4.9106530000    -2.1379390000    -1.3946010000
| 27>  H        5.0851880000    -1.0900140000     0.0068610000
| 28>  H        5.1037110000    -0.2019860000    -2.7681230000
| 29>  H        6.2148540000     0.0481050000    -1.6081550000
| 30> *
| 31>
| 32>                          ****END OF INPUT****
 Total Charge           Charge          ....    0
 Multiplicity           Mult            ....    1
 Number of Electrons    NEL             ....   50
 Basis Dimension        Dim             ....  144

MULLIKEN ATOMIC CHARGES
-----------------------
   0 C :    0.077984
   1 N :   -0.242584
   2 C :   -0.034493
   3 C :    0.014584
   4 C :    0.083329
   5 N :   -0.218156
   6 H :    0.014916
   7 H :   -0.010509
   8 H :    0.010902
   9 H :    0.094670
  10 H :   -0.006997
  11 H :    0.010619
  12 H :    0.029792
  13 H :    0.006056
  14 H :   -0.015810
  15 H :   -0.000174
  16 H :    0.091567
  17 H :    0.094304
Sum of atomic charges:   -0.0000000

LOEWDIN ATOMIC CHARGES
----------------------
   0 C :   -0.006774
   1 N :   -0.097277
   2 C :   -0.007438
   3 C :   -0.070631
   4 C :   -0.005813
   5 N :   -0.106105
   6 H :    0.021705
   7 H :   -0.007157
   8 H :    0.018944
   9 H :    0.045952
  10 H :    0.019221
  11 H :    0.021800
  12 H :    0.030535
  13 H :    0.021681
  14 H :   -0.001622
  15 H :    0.016861
  16 H :    0.051101
  17 H :    0.055018

  Mayer bond orders larger than 0.1
B(  0-C ,  1-N ) :   1.0714 B(  0-C ,  6-H ) :   0.9714 B(  0-C ,  7-H ) :   0.9385
B(  0-C ,  8-H ) :   0.9667 B(  1-N ,  2-C ) :   1.0529 B(  1-N ,  9-H ) :   0.9337
B(  2-C ,  3-C ) :   1.0832 B(  2-C ,  4-C ) :   1.0258 B(  2-C , 10-H ) :   0.9091
B(  3-C , 11-H ) :   0.9522 B(  3-C , 12-H ) :   0.9579 B(  3-C , 13-H ) :   0.9556
B(  4-C ,  5-N ) :   1.0957 B(  4-C , 14-H ) :   0.9241 B(  4-C , 15-H ) :   0.9297
B(  5-N , 16-H ) :   0.9686 B(  5-N , 17-H ) :   0.9676

FINAL SINGLE POINT ENERGY      -268.576251406266

DIPOLE MOMENT
-------------
                                X             Y             Z
Electronic contribution:      0.21224       0.92548      -0.40127
Nuclear contribution   :      0.49215      -1.17734       0.20886
                        -----------------------------------------
Total Dipole Moment    :      0.70439      -0.25186      -0.19242
                        -----------------------------------------
Magnitude (a.u.)       :      0.77241
Magnitude (Debye)      :      1.96332

                             ****ORCA TERMINATED NORMALLY****
TOTAL RUN TIME: 0 days 0 hours 0 minutes 6 seconds 853 msec
