                         Program Version 3.0.3 - RELEASE   -
|  1> ! RI PBE def2-SVP def2-SVP/J NBO PAL2
|  2> % maxcore 2000
|  3> % output
|  4>     # printlevel mini
|  5>     print[ P_Basis ] 0
|  6>     print[ P_SCFInfo ] 1
|  7>     print[ P_SCFIterInfo ] 1
|  8>     print[ P_OrbEn ] 0
|  9>     print[ P_Cartesian ] 0
| 10> end
| 11> *xyz 0 1
| 12>  C        2.6323050000     1.0668800000    -0.9019730000
| 13>  N        2.3034080000    -0.0216950000    -0.0026100000
| 14>  C        2.8636520000     0.0995090000     1.3242280000
| 15>  C        2.3963270000    -1.0401730000     2.2178050000
| 16>  C        4.3417810000     0.1684570000     1.3157650000
| 17>  N        5.4902670000     0.2046740000     1.2563520000
| 18>  H        2.1756920000     0.8762590000    -1.8740240000
| 19>  H        3.7115490000     1.2190890000    -1.0468310000
| 20>  H        2.2079610000     1.9968870000    -0.5144160000
| 21>  H        2.5776440000    -0.9098520000    -0.4053740000
| 22>  H        2.5132950000     1.0496930000     1.7444580000
| 23>  H        2.7366910000    -2.0007270000     1.8245880000
| 24>  H        1.3066840000    -1.0411960000     2.2504970000
| 25>  H        2.7892740000    -0.9305740000     3.2291560000
| 26> *
| 27>
| 28>                          ****END OF INPUT****
 Total Charge           Charge          ....    0
 Multiplicity           Mult            ....    1
 Number of Electrons    NEL             ....   46
 Basis Dimension        Dim             ....  124

MULLIKEN ATOMIC CHARGES
-----------------------
   0 C :    0.066154
   1 N :   -0.239393
   2 C :    0.017356
   3 C :    0.023172
   4 C :   -0.242530
   5 N :    0.032679
   6 H :    0.028960
   7 H :    0.026029
   8 H :    0.019690
   9 H :    0.108258
  10 H :    0.040629
  11 H :    0.031025
  12 H :    0.046219
  13 H :    0.041752
Sum of atomic charges:   -0.0000000

LOEWDIN ATOMIC CHARGES
----------------------
   0 C :   -0.003409
   1 N :   -0.076837
   2 C :   -0.017089
   3 C :   -0.046640
   4 C :   -0.063955
   5 N :   -0.070841
   6 H :    0.028393
   7 H :    0.009685
   8 H :    0.024814
   9 H :    0.059837
  10 H :    0.047998
  11 H :    0.032308
  12 H :    0.037076
  13 H :    0.038661

  Mayer bond orders larger than 0.1
B(  0-C ,  1-N ) :   1.0548 B(  0-C ,  6-H ) :   0.9716 B(  0-C ,  7-H ) :   0.9457
B(  0-C ,  8-H ) :   0.9649 B(  1-N ,  2-C ) :   1.0792 B(  1-N ,  9-H ) :   0.9431
B(  2-C ,  3-C ) :   1.0965 B(  2-C ,  4-C ) :   0.9681 B(  2-C , 10-H ) :   0.8868
B(  3-C , 11-H ) :   0.9554 B(  3-C , 12-H ) :   0.9578 B(  3-C , 13-H ) :   0.9565
B(  4-C ,  5-N ) :   3.0632

FINAL SINGLE POINT ENERGY      -266.174267910285

DIPOLE MOMENT
-------------
                                X             Y             Z
Electronic contribution:      4.72992       0.17003       1.25498
Nuclear contribution   :     -5.86269      -0.32409      -1.39060
                        -----------------------------------------
Total Dipole Moment    :     -1.13277      -0.15406      -0.13562
                        -----------------------------------------
Magnitude (a.u.)       :      1.15122
Magnitude (Debye)      :      2.92616

                             ****ORCA TERMINATED NORMALLY****
TOTAL RUN TIME: 0 days 0 hours 0 minutes 5 seconds 867 msec
