                         Program Version 3.0.3 - RELEASE   -
|  1> ! RI PBE def2-SVP def2-SVP/J NBO PAL2
|  2> % maxcore 2000
|  3> % output
|  4>     # printlevel mini
|  5>     print[ P_Basis ] 0
|  6>     print[ P_SCFInfo ] 1
|  7>     print[ P_SCFIterInfo ] 1
|  8>     print[ P_OrbEn ] 0
|  9>     print[ P_Cartesian ] 0
| 10> end
| 11> *xyz 0 1
| 12>  C        2.4751390000     0.8232600000     0.3808110000
| 13>  N        3.8300420000     0.3835530000     0.1299300000
| 14>  C        3.9016700000    -0.7671380000    -0.7478320000
| 15>  C        5.3392410000    -1.0532440000    -1.1732780000
| 16>  C        5.8441220000    -0.0295300000    -2.1826480000
| 17>  N        6.1738440000    -1.1560510000     0.0231870000
| 18>  H        2.4785970000     1.6360130000     1.1102190000
| 19>  H        1.8081110000     0.0286460000     0.7555900000
| 20>  H        2.0372110000     1.2113010000    -0.5431540000
| 21>  H        4.2659140000     0.1314840000     1.0090070000
| 22>  H        3.3009630000    -0.5546130000    -1.6388380000
| 23>  H        3.4786100000    -1.6724530000    -0.2811570000
| 24>  H        5.3387870000    -2.0429510000    -1.6431980000
| 25>  H        5.7799030000     0.9759790000    -1.7587970000
| 26>  H        5.2511170000    -0.0466270000    -3.1016750000
| 27>  H        6.8851810000    -0.2285370000    -2.4505140000
| 28>  H        6.4100870000    -0.2227850000     0.3438020000
| 29>  H        7.0522610000    -1.6064770000    -0.2011360000
| 30> *
| 31>
| 32>                          ****END OF INPUT****
 Total Charge           Charge          ....    0
 Multiplicity           Mult            ....    1
 Number of Electrons    NEL             ....   50
 Basis Dimension        Dim             ....  144

MULLIKEN ATOMIC CHARGES
-----------------------
   0 C :    0.067166
   1 N :   -0.280208
   2 C :    0.129753
   3 C :   -0.062041
   4 C :    0.027905
   5 N :   -0.193544
   6 H :    0.022060
   7 H :   -0.007225
   8 H :    0.017885
   9 H :    0.097577
  10 H :   -0.004467
  11 H :   -0.015006
  12 H :   -0.002562
  13 H :    0.019184
  14 H :    0.006891
  15 H :    0.001223
  16 H :    0.087628
  17 H :    0.087781
Sum of atomic charges:   -0.0000000

LOEWDIN ATOMIC CHARGES
----------------------
   0 C :   -0.007513
   1 N :   -0.106581
   2 C :    0.011040
   3 C :   -0.011680
   4 C :   -0.077842
   5 N :   -0.098342
   6 H :    0.021801
   7 H :   -0.001693
   8 H :    0.019941
   9 H :    0.050055
  10 H :    0.017653
  11 H :   -0.000576
  12 H :    0.020799
  13 H :    0.023106
  14 H :    0.023733
  15 H :    0.017437
  16 H :    0.047036
  17 H :    0.051625

  Mayer bond orders larger than 0.1
B(  0-C ,  1-N ) :   1.0710 B(  0-C ,  6-H ) :   0.9724 B(  0-C ,  7-H ) :   0.9411
B(  0-C ,  8-H ) :   0.9695 B(  1-N ,  2-C ) :   1.0406 B(  1-N ,  9-H ) :   0.9318
B(  2-C ,  3-C ) :   1.0395 B(  2-C , 10-H ) :   0.9325 B(  2-C , 11-H ) :   0.9132
B(  3-C ,  4-C ) :   1.0748 B(  3-C ,  5-N ) :   1.0925 B(  3-C , 12-H ) :   0.9140
B(  4-C , 13-H ) :   0.9511 B(  4-C , 14-H ) :   0.9474 B(  4-C , 15-H ) :   0.9581
B(  5-N , 16-H ) :   0.9618 B(  5-N , 17-H ) :   0.9672

FINAL SINGLE POINT ENERGY      -268.577298207860

DIPOLE MOMENT
-------------
                                X             Y             Z
Electronic contribution:      1.23551      -1.02547       1.30614
Nuclear contribution   :     -1.04649       1.02021      -1.35519
                        -----------------------------------------
Total Dipole Moment    :      0.18903      -0.00526      -0.04906
                        -----------------------------------------
Magnitude (a.u.)       :      0.19536
Magnitude (Debye)      :      0.49656

                             ****ORCA TERMINATED NORMALLY****
TOTAL RUN TIME: 0 days 0 hours 0 minutes 6 seconds 782 msec
