                         Program Version 3.0.3 - RELEASE   -
|  1> ! RI PBE def2-SVP def2-SVP/J NBO PAL2
|  2> % maxcore 2000
|  3> % output
|  4>     # printlevel mini
|  5>     print[ P_Basis ] 0
|  6>     print[ P_SCFInfo ] 1
|  7>     print[ P_SCFIterInfo ] 1
|  8>     print[ P_OrbEn ] 0
|  9>     print[ P_Cartesian ] 0
| 10> end
| 11> *xyz 0 1
| 12>  C        1.3731930000    -0.2386050000    -0.2953080000
| 13>  N        2.8020030000    -0.0596350000    -0.1423930000
| 14>  C        3.1541660000     1.2236430000     0.4159150000
| 15>  C        4.6629870000     1.2949280000     0.6376220000
| 16>  C        5.0750160000     2.5575830000     1.2264640000
| 17>  N        5.3822900000     3.5619250000     1.6938410000
| 18>  H        1.1735070000    -1.2017340000    -0.7678310000
| 19>  H        0.8844010000     0.5481420000    -0.8920530000
| 20>  H        0.9001240000    -0.2497680000     0.6901090000
| 21>  H        3.2583590000    -0.1801680000    -1.0388160000
| 22>  H        2.6470810000     1.3303920000     1.3795790000
| 23>  H        2.8345470000     2.0787230000    -0.2031520000
| 24>  H        5.1932490000     1.1716720000    -0.3125090000
| 25>  H        4.9762880000     0.4751130000     1.2892410000
| 26> *
| 27>
| 28>                          ****END OF INPUT****
 Total Charge           Charge          ....    0
 Multiplicity           Mult            ....    1
 Number of Electrons    NEL             ....   46
 Basis Dimension        Dim             ....  124

MULLIKEN ATOMIC CHARGES
-----------------------
   0 C :    0.066505
   1 N :   -0.266860
   2 C :    0.058490
   3 C :    0.078658
   4 C :   -0.288080
   5 N :    0.052143
   6 H :    0.026435
   7 H :    0.002569
   8 H :    0.025812
   9 H :    0.104250
  10 H :    0.027851
  11 H :    0.011232
  12 H :    0.044886
  13 H :    0.056108
Sum of atomic charges:   -0.0000000

LOEWDIN ATOMIC CHARGES
----------------------
   0 C :   -0.002950
   1 N :   -0.105084
   2 C :    0.024591
   3 C :   -0.062014
   4 C :   -0.045613
   5 N :   -0.066884
   6 H :    0.025836
   7 H :    0.001979
   8 H :    0.024548
   9 H :    0.055688
  10 H :    0.029526
  11 H :    0.006580
  12 H :    0.054412
  13 H :    0.059384

  Mayer bond orders larger than 0.1
B(  0-C ,  1-N ) :   1.0565 B(  0-C ,  6-H ) :   0.9725 B(  0-C ,  7-H ) :   0.9485
B(  0-C ,  8-H ) :   0.9690 B(  1-N ,  2-C ) :   1.0652 B(  1-N ,  9-H ) :   0.9420
B(  2-C ,  3-C ) :   1.0818 B(  2-C , 10-H ) :   0.9319 B(  2-C , 11-H ) :   0.9247
B(  3-C ,  4-C ) :   1.1085 B(  3-C , 12-H ) :   0.8863 B(  3-C , 13-H ) :   0.8840
B(  4-C ,  5-N ) :   3.0567

FINAL SINGLE POINT ENERGY      -266.172555325504

DIPOLE MOMENT
-------------
                                X             Y             Z
Electronic contribution:      6.32681       5.05360       3.03875
Nuclear contribution   :     -6.96145      -6.18664      -3.94053
                        -----------------------------------------
Total Dipole Moment    :     -0.63464      -1.13305      -0.90178
                        -----------------------------------------
Magnitude (a.u.)       :      1.58107
Magnitude (Debye)      :      4.01875

                             ****ORCA TERMINATED NORMALLY****
TOTAL RUN TIME: 0 days 0 hours 0 minutes 5 seconds 766 msec
