                         Program Version 3.0.3 - RELEASE   -
|  1> ! RI PBE def2-SVP def2-SVP/J NBO PAL2
|  2> % maxcore 2000
|  3> % output
|  4>     # printlevel mini
|  5>     print[ P_Basis ] 0
|  6>     print[ P_SCFInfo ] 1
|  7>     print[ P_SCFIterInfo ] 1
|  8>     print[ P_OrbEn ] 0
|  9>     print[ P_Cartesian ] 0
| 10> end
| 11> *xyz 0 1
| 12>  C        0.9950390000    -0.0142400000     0.1812520000
| 13>  N        2.4375260000     0.0338860000     0.0999370000
| 14>  C        2.9204930000     0.4177040000    -1.2084560000
| 15>  C        4.4350320000     0.4607900000    -1.2414780000
| 16>  N        4.9179450000     0.8452160000    -2.5497140000
| 17>  C        6.3604490000     0.8922910000    -2.6314010000
| 18>  H        0.6908320000    -0.3677470000     1.1684960000
| 19>  H        0.5228440000    -0.6603400000    -0.5780120000
| 20>  H        0.5882730000     0.9930210000     0.0528440000
| 21>  H        2.8230340000    -0.8691910000     0.3482470000
| 22>  H        2.5258750000     1.4181600000    -1.4296060000
| 23>  H        2.5637520000    -0.2431930000    -2.0171520000
| 24>  H        4.8296800000    -0.5397630000    -1.0208320000
| 25>  H        4.7917800000     1.1213100000    -0.4324730000
| 26>  H        4.5330870000     1.7487930000    -2.7972080000
| 27>  H        6.7664680000    -0.1153990000    -2.5040040000
| 28>  H        6.8333760000     1.5373680000    -1.8717240000
| 29>  H        6.6646330000     1.2464340000    -3.6184240000
| 30> *
| 31>
| 32>                          ****END OF INPUT****
 Total Charge           Charge          ....    0
 Multiplicity           Mult            ....    1
 Number of Electrons    NEL             ....   50
 Basis Dimension        Dim             ....  144

MULLIKEN ATOMIC CHARGES
-----------------------
   0 C :    0.075415
   1 N :   -0.278105
   2 C :    0.094559
   3 C :    0.094445
   4 N :   -0.278115
   5 C :    0.075441
   6 H :    0.017632
   7 H :   -0.007252
   8 H :    0.015896
   9 H :    0.099061
  10 H :   -0.008680
  11 H :   -0.008489
  12 H :   -0.008661
  13 H :   -0.008476
  14 H :    0.099065
  15 H :    0.015898
  16 H :   -0.007261
  17 H :    0.017627
Sum of atomic charges:   -0.0000000

LOEWDIN ATOMIC CHARGES
----------------------
   0 C :   -0.005351
   1 N :   -0.106716
   2 C :    0.005684
   3 C :    0.005680
   4 N :   -0.106705
   5 C :   -0.005346
   6 H :    0.021638
   7 H :   -0.002500
   8 H :    0.020248
   9 H :    0.052939
  10 H :    0.014977
  11 H :   -0.000924
  12 H :    0.014982
  13 H :   -0.000928
  14 H :    0.052942
  15 H :    0.020244
  16 H :   -0.002501
  17 H :    0.021639

  Mayer bond orders larger than 0.1
B(  0-C ,  1-N ) :   1.0651 B(  0-C ,  6-H ) :   0.9729 B(  0-C ,  7-H ) :   0.9448
B(  0-C ,  8-H ) :   0.9688 B(  1-N ,  2-C ) :   1.0402 B(  1-N ,  9-H ) :   0.9449
B(  2-C ,  3-C ) :   1.0755 B(  2-C , 10-H ) :   0.9275 B(  2-C , 11-H ) :   0.9167
B(  3-C ,  4-N ) :   1.0402 B(  3-C , 12-H ) :   0.9275 B(  3-C , 13-H ) :   0.9167
B(  4-N ,  5-C ) :   1.0651 B(  4-N , 14-H ) :   0.9449 B(  5-C , 15-H ) :   0.9688
B(  5-C , 16-H ) :   0.9448 B(  5-C , 17-H ) :   0.9729

FINAL SINGLE POINT ENERGY      -268.565264868172

DIPOLE MOMENT
-------------
                                X             Y             Z
Electronic contribution:     -0.00019       0.00149       0.00031
Nuclear contribution   :      0.00054      -0.00163      -0.00015
                        -----------------------------------------
Total Dipole Moment    :      0.00036      -0.00014       0.00016
                        -----------------------------------------
Magnitude (a.u.)       :      0.00042
Magnitude (Debye)      :      0.00106

                             ****ORCA TERMINATED NORMALLY****
TOTAL RUN TIME: 0 days 0 hours 0 minutes 6 seconds 537 msec
