                         Program Version 3.0.3 - RELEASE   -
|  1> ! RI PBE def2-SVP def2-SVP/J NBO PAL2
|  2> % maxcore 2000
|  3> % output
|  4>     # printlevel mini
|  5>     print[ P_Basis ] 0
|  6>     print[ P_SCFInfo ] 1
|  7>     print[ P_SCFIterInfo ] 1
|  8>     print[ P_OrbEn ] 0
|  9>     print[ P_Cartesian ] 0
| 10> end
| 11> *xyz 0 1
| 12>  C        2.7893830000    -1.0188860000    -0.4472840000
| 13>  N        2.2875560000     0.1081650000     0.2880160000
| 14>  C        3.1174210000     0.9517160000     0.9614320000
| 15>  C        2.4374960000     2.0831870000     1.6816820000
| 16>  N        4.3749800000     0.7372180000     0.9402390000
| 17>  C        5.2359080000     1.6396030000     1.6580300000
| 18>  H        1.9509650000    -1.5473260000    -0.9017650000
| 19>  H        3.3349210000    -1.7050610000     0.2067830000
| 20>  H        3.4819310000    -0.7009950000    -1.2318670000
| 21>  H        1.3025250000     0.2836710000     0.3099030000
| 22>  H        1.3537620000     2.0651610000     1.5583900000
| 23>  H        2.8090010000     3.0425190000     1.3138540000
| 24>  H        2.6622910000     2.0401880000     2.7499750000
| 25>  H        6.2719930000     1.3178130000     1.5390290000
| 26>  H        5.0274140000     1.6663760000     2.7374550000
| 27>  H        5.1747440000     2.6750510000     1.2927170000
| 28> *
| 29>
| 30>                          ****END OF INPUT****
 Total Charge           Charge          ....    0
 Multiplicity           Mult            ....    1
 Number of Electrons    NEL             ....   48
 Basis Dimension        Dim             ....  134

MULLIKEN ATOMIC CHARGES
-----------------------
   0 C :    0.108022
   1 N :   -0.135389
   2 C :   -0.128329
   3 C :    0.041227
   4 N :   -0.236901
   5 C :    0.074286
   6 H :    0.009660
   7 H :    0.027064
   8 H :    0.027727
   9 H :    0.100778
  10 H :    0.004391
  11 H :    0.039751
  12 H :    0.048863
  13 H :    0.021319
  14 H :    0.000861
  15 H :   -0.003330
Sum of atomic charges:   -0.0000000

LOEWDIN ATOMIC CHARGES
----------------------
   0 C :    0.009297
   1 N :   -0.007645
   2 C :   -0.002354
   3 C :   -0.080362
   4 N :   -0.187010
   5 C :   -0.017557
   6 H :    0.021561
   7 H :    0.024172
   8 H :    0.024002
   9 H :    0.065829
  10 H :    0.025981
  11 H :    0.042609
  12 H :    0.044033
  13 H :    0.018983
  14 H :    0.009639
  15 H :    0.008824

  Mayer bond orders larger than 0.1
B(  0-C ,  1-N ) :   1.0330 B(  0-C ,  6-H ) :   0.9656 B(  0-C ,  7-H ) :   0.9614
B(  0-C ,  8-H ) :   0.9617 B(  1-N ,  2-C ) :   1.2321 B(  1-N ,  9-H ) :   0.9315
B(  2-C ,  3-C ) :   1.0526 B(  2-C ,  4-N ) :   1.8291 B(  3-C , 10-H ) :   0.9375
B(  3-C , 11-H ) :   0.9413 B(  3-C , 12-H ) :   0.9436 B(  4-N ,  5-C ) :   1.0648
B(  5-C , 13-H ) :   0.9751 B(  5-C , 14-H ) :   0.9461 B(  5-C , 15-H ) :   0.9453

FINAL SINGLE POINT ENERGY      -267.388519346838

DIPOLE MOMENT
-------------
                                X             Y             Z
Electronic contribution:     -0.69928      -1.27412      -0.95976
Nuclear contribution   :     -0.28706       1.49375       1.01345
                        -----------------------------------------
Total Dipole Moment    :     -0.98634       0.21963       0.05369
                        -----------------------------------------
Magnitude (a.u.)       :      1.01192
Magnitude (Debye)      :      2.57210

                             ****ORCA TERMINATED NORMALLY****
TOTAL RUN TIME: 0 days 0 hours 0 minutes 6 seconds 716 msec
