                         Program Version 3.0.3 - RELEASE   -
|  1> ! RI PBE def2-SVP def2-SVP/J NBO PAL2
|  2> % maxcore 2000
|  3> % output
|  4>     # printlevel mini
|  5>     print[ P_Basis ] 0
|  6>     print[ P_SCFInfo ] 1
|  7>     print[ P_SCFIterInfo ] 1
|  8>     print[ P_OrbEn ] 0
|  9>     print[ P_Cartesian ] 0
| 10> end
| 11> *xyz 0 1
| 12>  C        1.2839640000     0.1692780000     0.2068890000
| 13>  N        2.6345770000    -0.0391430000     0.6534000000
| 14>  C        3.2255600000    -1.0724660000     0.2632980000
| 15>  N        4.5496160000    -1.3557490000     0.6520950000
| 16>  C        4.8309780000    -2.7833480000     0.8048710000
| 17>  C        5.3311350000    -2.0553280000    -0.3678640000
| 18>  H        1.2240070000     1.1230330000    -0.3242260000
| 19>  H        0.6264770000     0.2517840000     1.0765110000
| 20>  H        0.9023480000    -0.6261190000    -0.4506130000
| 21>  H        2.7453500000    -1.8169970000    -0.4043110000
| 22>  H        4.0087600000    -3.4774040000     0.6488930000
| 23>  H        5.4892060000    -3.0251510000     1.6308100000
| 24>  H        4.8493490000    -2.2538520000    -1.3220990000
| 25>  H        6.3677950000    -1.7463380000    -0.4292540000
| 26> *
| 27>
| 28>                          ****END OF INPUT****
 Total Charge           Charge          ....    0
 Multiplicity           Mult            ....    1
 Number of Electrons    NEL             ....   46
 Basis Dimension        Dim             ....  124

MULLIKEN ATOMIC CHARGES
-----------------------
   0 C :    0.064785
   1 N :   -0.122214
   2 C :   -0.000070
   3 N :   -0.205719
   4 C :    0.023969
   5 C :    0.018020
   6 H :    0.038184
   7 H :    0.040486
   8 H :   -0.000905
   9 H :   -0.034645
  10 H :    0.037079
  11 H :    0.051307
  12 H :    0.037081
  13 H :    0.052642
Sum of atomic charges:   -0.0000000

LOEWDIN ATOMIC CHARGES
----------------------
   0 C :   -0.008434
   1 N :   -0.078383
   2 C :    0.024554
   3 N :   -0.095292
   4 C :    0.016049
   5 C :    0.016079
   6 H :    0.031928
   7 H :    0.032392
   8 H :    0.001741
   9 H :   -0.028623
  10 H :    0.015702
  11 H :    0.028185
  12 H :    0.015593
  13 H :    0.028510

  Mayer bond orders larger than 0.1
B(  0-C ,  1-N ) :   1.0389 B(  0-C ,  6-H ) :   0.9597 B(  0-C ,  7-H ) :   0.9596
B(  0-C ,  8-H ) :   0.9397 B(  1-N ,  2-C ) :   1.9648 B(  2-C ,  3-N ) :   1.0647
B(  2-C ,  9-H ) :   0.8952 B(  3-N ,  4-C ) :   0.9306 B(  3-N ,  5-C ) :   0.9309
B(  4-C ,  5-C ) :   1.0820 B(  4-C , 10-H ) :   0.9411 B(  4-C , 11-H ) :   0.9495
B(  5-C , 12-H ) :   0.9431 B(  5-C , 13-H ) :   0.9501

FINAL SINGLE POINT ENERGY      -266.133366416032

DIPOLE MOMENT
-------------
                                X             Y             Z
Electronic contribution:      2.26899       1.14533       1.67811
Nuclear contribution   :     -2.46564      -1.91326      -2.23925
                        -----------------------------------------
Total Dipole Moment    :     -0.19664      -0.76793      -0.56114
                        -----------------------------------------
Magnitude (a.u.)       :      0.97122
Magnitude (Debye)      :      2.46865

                             ****ORCA TERMINATED NORMALLY****
TOTAL RUN TIME: 0 days 0 hours 0 minutes 5 seconds 938 msec
