                         Program Version 3.0.3 - RELEASE   -
|  1> ! RI PBE def2-SVP def2-SVP/J NBO PAL2
|  2> % maxcore 2000
|  3> % output
|  4>     # printlevel mini
|  5>     print[ P_Basis ] 0
|  6>     print[ P_SCFInfo ] 1
|  7>     print[ P_SCFIterInfo ] 1
|  8>     print[ P_OrbEn ] 0
|  9>     print[ P_Cartesian ] 0
| 10> end
| 11> *xyz 0 1
| 12>  C        0.8940330000     1.5611520000     0.3144870000
| 13>  N        2.3046100000     1.8064160000     0.5067920000
| 14>  C        3.0952550000     0.8466180000     0.2500360000
| 15>  N        4.4395470000     0.9460470000     0.3884810000
| 16>  C        5.3144390000    -0.1515450000     0.0920490000
| 17>  C        4.9965900000     2.1928250000     0.8465180000
| 18>  H        0.3306960000     2.4606280000     0.5683790000
| 19>  H        0.5168340000     0.7510740000     0.9526500000
| 20>  H        0.6488000000     1.3073340000    -0.7253220000
| 21>  H        2.7656560000    -0.1410640000    -0.1042080000
| 22>  H        4.7248410000    -1.0077800000    -0.2386620000
| 23>  H        5.8914100000    -0.4594700000     0.9721160000
| 24>  H        6.0227160000     0.0985520000    -0.7067220000
| 25>  H        4.6061230000     2.4568580000     1.8337820000
| 26>  H        4.7364790000     3.0106020000     0.1679520000
| 27>  H        6.0813690000     2.1000630000     0.9005720000
| 28> *
| 29>
| 30>                          ****END OF INPUT****
 Total Charge           Charge          ....    0
 Multiplicity           Mult            ....    1
 Number of Electrons    NEL             ....   48
 Basis Dimension        Dim             ....  134

MULLIKEN ATOMIC CHARGES
-----------------------
   0 C :    0.082029
   1 N :   -0.261966
   2 C :    0.066759
   3 N :   -0.255954
   4 C :    0.091195
   5 C :    0.117328
   6 H :    0.020812
   7 H :    0.005642
   8 H :    0.001519
   9 H :   -0.033156
  10 H :    0.028443
  11 H :    0.028694
  12 H :    0.031438
  13 H :    0.028276
  14 H :    0.032541
  15 H :    0.016399
Sum of atomic charges:   -0.0000000

LOEWDIN ATOMIC CHARGES
----------------------
   0 C :   -0.014557
   1 N :   -0.183428
   2 C :    0.017438
   3 N :   -0.030646
   4 C :    0.016678
   5 C :    0.018186
   6 H :    0.019310
   7 H :    0.012185
   8 H :    0.011299
   9 H :   -0.013466
  10 H :    0.028262
  11 H :    0.019881
  12 H :    0.020230
  13 H :    0.027743
  14 H :    0.028011
  15 H :    0.022873

  Mayer bond orders larger than 0.1
B(  0-C ,  1-N ) :   1.0333 B(  0-C ,  6-H ) :   0.9787 B(  0-C ,  7-H ) :   0.9545
B(  0-C ,  8-H ) :   0.9533 B(  1-N ,  2-C ) :   1.7932 B(  2-C ,  3-N ) :   1.1957
B(  2-C ,  9-H ) :   0.9207 B(  3-N ,  4-C ) :   1.0256 B(  3-N ,  5-C ) :   1.0110
B(  4-C , 10-H ) :   0.9595 B(  4-C , 11-H ) :   0.9603 B(  4-C , 12-H ) :   0.9611
B(  5-C , 13-H ) :   0.9577 B(  5-C , 14-H ) :   0.9593 B(  5-C , 15-H ) :   0.9630

FINAL SINGLE POINT ENERGY      -267.376319549217

DIPOLE MOMENT
-------------
                                X             Y             Z
Electronic contribution:     -0.44629       0.61565       0.17189
Nuclear contribution   :      1.09341      -1.25554      -0.33236
                        -----------------------------------------
Total Dipole Moment    :      0.64712      -0.63989      -0.16048
                        -----------------------------------------
Magnitude (a.u.)       :      0.92411
Magnitude (Debye)      :      2.34890

                             ****ORCA TERMINATED NORMALLY****
TOTAL RUN TIME: 0 days 0 hours 0 minutes 6 seconds 450 msec
