                         Program Version 3.0.3 - RELEASE   -
|  1> ! RI PBE def2-SVP def2-SVP/J NBO PAL2
|  2> % maxcore 2000
|  3> % output
|  4>     # printlevel mini
|  5>     print[ P_Basis ] 0
|  6>     print[ P_SCFInfo ] 1
|  7>     print[ P_SCFIterInfo ] 1
|  8>     print[ P_OrbEn ] 0
|  9>     print[ P_Cartesian ] 0
| 10> end
| 11> *xyz 0 1
| 12>  C        0.9481680000     0.0457380000    -0.0259700000
| 13>  N        2.3705770000     0.1614160000     0.1390850000
| 14>  C        2.9435610000    -0.6702730000     0.8961710000
| 15>  N        4.2915800000    -0.6445200000     1.1191170000
| 16>  C        4.9681020000    -1.5238380000     1.9312000000
| 17>  C        6.2793660000    -1.5209950000     2.1631690000
| 18>  H        0.7067210000    -0.0997540000    -1.0832790000
| 19>  H        0.4609130000     0.9755270000     0.2830270000
| 20>  H        0.5025530000    -0.7827170000     0.5456150000
| 21>  H        2.4223360000    -1.4740550000     1.4341120000
| 22>  H        4.8034050000     0.0809030000     0.6401450000
| 23>  H        4.3253370000    -2.2638180000     2.3983950000
| 24>  H        6.9442350000    -0.7943640000     1.7104780000
| 25>  H        6.7122570000    -2.2596500000     2.8215360000
| 26> *
| 27>
| 28>                          ****END OF INPUT****
 Total Charge           Charge          ....    0
 Multiplicity           Mult            ....    1
 Number of Electrons    NEL             ....   46
 Basis Dimension        Dim             ....  124

MULLIKEN ATOMIC CHARGES
-----------------------
   0 C :    0.076054
   1 N :   -0.205732
   2 C :    0.019382
   3 N :   -0.035235
   4 C :    0.024303
   5 C :   -0.082147
   6 H :    0.029250
   7 H :    0.030138
   8 H :   -0.006760
   9 H :   -0.016823
  10 H :    0.115324
  11 H :    0.012767
  12 H :    0.013332
  13 H :    0.026146
Sum of atomic charges:   -0.0000000

LOEWDIN ATOMIC CHARGES
----------------------
   0 C :   -0.006480
   1 N :   -0.148996
   2 C :    0.023660
   3 N :    0.051507
   4 C :    0.005434
   5 C :   -0.135062
   6 H :    0.025380
   7 H :    0.025563
   8 H :    0.001608
   9 H :   -0.007671
  10 H :    0.085516
  11 H :    0.028513
  12 H :    0.021242
  13 H :    0.029786

  Mayer bond orders larger than 0.1
B(  0-C ,  1-N ) :   1.0537 B(  0-C ,  6-H ) :   0.9618 B(  0-C ,  7-H ) :   0.9625
B(  0-C ,  8-H ) :   0.9429 B(  1-N ,  2-C ) :   1.8520 B(  2-C ,  3-N ) :   1.1536
B(  2-C ,  9-H ) :   0.9226 B(  3-N ,  4-C ) :   1.1540 B(  3-N , 10-H ) :   0.9214
B(  4-C ,  5-C ) :   1.8860 B(  4-C , 11-H ) :   0.9493 B(  5-C , 12-H ) :   0.9521
B(  5-C , 13-H ) :   0.9407

FINAL SINGLE POINT ENERGY      -266.176260607504

DIPOLE MOMENT
-------------
                                X             Y             Z
Electronic contribution:      1.65461       0.78578      -0.32200
Nuclear contribution   :     -1.75341      -1.07280       0.52524
                        -----------------------------------------
Total Dipole Moment    :     -0.09879      -0.28702       0.20324
                        -----------------------------------------
Magnitude (a.u.)       :      0.36530
Magnitude (Debye)      :      0.92853

                             ****ORCA TERMINATED NORMALLY****
TOTAL RUN TIME: 0 days 0 hours 0 minutes 5 seconds 849 msec
