                         Program Version 3.0.3 - RELEASE   -
|  1> ! RI PBE def2-SVP def2-SVP/J NBO PAL2
|  2> % maxcore 2000
|  3> % output
|  4>     # printlevel mini
|  5>     print[ P_Basis ] 0
|  6>     print[ P_SCFInfo ] 1
|  7>     print[ P_SCFIterInfo ] 1
|  8>     print[ P_OrbEn ] 0
|  9>     print[ P_Cartesian ] 0
| 10> end
| 11> *xyz 0 1
| 12>  C        1.0694650000    -0.6361730000     0.2720540000
| 13>  N        2.4982190000    -0.5825800000     0.1663280000
| 14>  C        3.1626910000    -0.8794050000    -0.9844210000
| 15>  N        2.6285200000    -1.2354910000    -2.0944940000
| 16>  C        4.6355010000    -0.7858570000    -0.9629230000
| 17>  C        5.4088650000    -0.4391250000     0.0585280000
| 18>  H        0.7756910000    -0.3583460000     1.2836520000
| 19>  H        0.6841960000    -1.6430260000     0.0725140000
| 20>  H        0.5837300000     0.0579380000    -0.4238270000
| 21>  H        3.0286240000    -0.3165230000     0.9733580000
| 22>  H        1.6134310000    -1.2767940000    -2.0300050000
| 23>  H        5.0741920000    -1.0417740000    -1.9208590000
| 24>  H        5.0273090000    -0.1726310000     1.0392990000
| 25>  H        6.4862460000    -0.4068020000    -0.0488050000
| 26> *
| 27>
| 28>                          ****END OF INPUT****
 Total Charge           Charge          ....    0
 Multiplicity           Mult            ....    1
 Number of Electrons    NEL             ....   46
 Basis Dimension        Dim             ....  124

MULLIKEN ATOMIC CHARGES
-----------------------
   0 C :    0.065740
   1 N :   -0.117909
   2 C :   -0.170438
   3 N :   -0.100254
   4 C :    0.069436
   5 C :   -0.047869
   6 H :    0.022195
   7 H :    0.035011
   8 H :    0.037491
   9 H :    0.101083
  10 H :    0.062192
  11 H :   -0.001116
  12 H :    0.006330
  13 H :    0.038109
Sum of atomic charges:   -0.0000000

LOEWDIN ATOMIC CHARGES
----------------------
   0 C :    0.003990
   1 N :   -0.017587
   2 C :   -0.006386
   3 N :   -0.163193
   4 C :   -0.022393
   5 C :   -0.057605
   6 H :    0.031360
   7 H :    0.021141
   8 H :    0.021844
   9 H :    0.067014
  10 H :    0.033820
  11 H :    0.040842
  12 H :    0.014916
  13 H :    0.032235

  Mayer bond orders larger than 0.1
B(  0-C ,  1-N ) :   1.0340 B(  0-C ,  6-H ) :   0.9646 B(  0-C ,  7-H ) :   0.9592
B(  0-C ,  8-H ) :   0.9590 B(  1-N ,  2-C ) :   1.2253 B(  1-N ,  3-N ) :   0.1006
B(  1-N ,  9-H ) :   0.9144 B(  2-C ,  3-N ) :   1.9415 B(  2-C ,  4-C ) :   1.0353
B(  3-N , 10-H ) :   0.9383 B(  4-C ,  5-C ) :   1.9193 B(  4-C , 11-H ) :   0.9413
B(  5-C , 12-H ) :   0.9399 B(  5-C , 13-H ) :   0.9369

FINAL SINGLE POINT ENERGY      -266.172910760275

DIPOLE MOMENT
-------------
                                X             Y             Z
Electronic contribution:      1.61203      -0.48830      -1.99912
Nuclear contribution   :     -1.97127       0.83204       3.24320
                        -----------------------------------------
Total Dipole Moment    :     -0.35923       0.34374       1.24409
                        -----------------------------------------
Magnitude (a.u.)       :      1.33976
Magnitude (Debye)      :      3.40540

                             ****ORCA TERMINATED NORMALLY****
TOTAL RUN TIME: 0 days 0 hours 0 minutes 6 seconds 419 msec
