                         Program Version 3.0.3 - RELEASE   -
|  1> ! RI PBE def2-SVP def2-SVP/J NBO PAL2
|  2> % maxcore 2000
|  3> % output
|  4>     # printlevel mini
|  5>     print[ P_Basis ] 0
|  6>     print[ P_SCFInfo ] 1
|  7>     print[ P_SCFIterInfo ] 1
|  8>     print[ P_OrbEn ] 0
|  9>     print[ P_Cartesian ] 0
| 10> end
| 11> *xyz 0 1
| 12>  C        1.0587270000    -0.0075990000    -0.0445790000
| 13>  N        2.4910290000     0.1330250000     0.0598920000
| 14>  C        3.1879500000     0.2061930000     1.2391950000
| 15>  N        4.3983220000     0.5855070000     1.3957310000
| 16>  C        2.4692680000    -0.2370050000     2.4099850000
| 17>  C        1.8776110000    -0.5983890000     3.3893890000
| 18>  H        0.8091790000    -0.3762620000    -1.0405410000
| 19>  H        0.5203690000     0.9324630000     0.1257890000
| 20>  H        0.7075260000    -0.7385360000     0.6826450000
| 21>  H        2.9568380000     0.5602850000    -0.7237360000
| 22>  H        4.8079980000     0.8817020000     0.5097490000
| 23>  H        1.3707840000    -0.9149760000     4.2705820000
| 24> *
| 25>
| 26>                          ****END OF INPUT****
 Total Charge           Charge          ....    0
 Multiplicity           Mult            ....    1
 Number of Electrons    NEL             ....   44
 Basis Dimension        Dim             ....  114

MULLIKEN ATOMIC CHARGES
-----------------------
   0 C :    0.076998
   1 N :   -0.153445
   2 C :   -0.094126
   3 N :   -0.097422
   4 C :    0.385946
   5 C :   -0.423197
   6 H :    0.027517
   7 H :    0.032272
   8 H :    0.052804
   9 H :    0.109143
  10 H :    0.074492
  11 H :    0.009020
Sum of atomic charges:    0.0000000

LOEWDIN ATOMIC CHARGES
----------------------
   0 C :    0.009868
   1 N :   -0.018003
   2 C :   -0.016554
   3 N :   -0.147337
   4 C :   -0.011260
   5 C :   -0.046493
   6 H :    0.027967
   7 H :    0.018918
   8 H :    0.036819
   9 H :    0.068714
  10 H :    0.038623
  11 H :    0.038737

  Mayer bond orders larger than 0.1
B(  0-C ,  1-N ) :   1.0221 B(  0-C ,  6-H ) :   0.9686 B(  0-C ,  7-H ) :   0.9626
B(  0-C ,  8-H ) :   0.9554 B(  1-N ,  2-C ) :   1.1799 B(  1-N ,  3-N ) :   0.1154
B(  1-N ,  9-H ) :   0.9262 B(  2-C ,  3-N ) :   1.9605 B(  2-C ,  4-C ) :   0.9242
B(  3-N , 10-H ) :   0.9195 B(  4-C ,  5-C ) :   2.3422 B(  4-C , 11-H ) :  -0.1003
B(  5-C , 11-H ) :   1.0903

FINAL SINGLE POINT ENERGY      -264.920941379284

DIPOLE MOMENT
-------------
                                X             Y             Z
Electronic contribution:      3.00341      -0.12216       2.87310
Nuclear contribution   :     -3.97275       0.13750      -3.83983
                        -----------------------------------------
Total Dipole Moment    :     -0.96934       0.01534      -0.96673
                        -----------------------------------------
Magnitude (a.u.)       :      1.36910
Magnitude (Debye)      :      3.47997

                             ****ORCA TERMINATED NORMALLY****
TOTAL RUN TIME: 0 days 0 hours 0 minutes 5 seconds 199 msec
