                         Program Version 3.0.3 - RELEASE   -
|  1> ! RI PBE def2-SVP def2-SVP/J NBO PAL2
|  2> % maxcore 2000
|  3> % output
|  4>     # printlevel mini
|  5>     print[ P_Basis ] 0
|  6>     print[ P_SCFInfo ] 1
|  7>     print[ P_SCFIterInfo ] 1
|  8>     print[ P_OrbEn ] 0
|  9>     print[ P_Cartesian ] 0
| 10> end
| 11> *xyz 0 1
| 12>  C        1.0170950000    -0.1683340000     0.5983760000
| 13>  N        2.2869410000    -0.0792330000     0.6479190000
| 14>  N        3.0177680000    -1.1926530000     0.6499990000
| 15>  C        4.3127860000    -1.2433340000     1.3194280000
| 16>  C        4.0747900000    -2.7495760000     1.5433670000
| 17>  C        2.6043420000    -2.5001110000     1.1665750000
| 18>  H        0.4510900000     0.7544080000     0.5600510000
| 19>  H        0.4781600000    -1.1174430000     0.5696510000
| 20>  H        4.3247710000    -0.6669120000     2.2515880000
| 21>  H        5.1615220000    -0.9477700000     0.6987600000
| 22>  H        4.2580040000    -3.1220730000     2.5489200000
| 23>  H        4.5962520000    -3.3761350000     0.8212540000
| 24>  H        1.9377010000    -2.4041370000     2.0362570000
| 25>  H        2.1432790000    -3.1691680000     0.4358560000
| 26> *
| 27>
| 28>                          ****END OF INPUT****
 Total Charge           Charge          ....    0
 Multiplicity           Mult            ....    1
 Number of Electrons    NEL             ....   46
 Basis Dimension        Dim             ....  124

MULLIKEN ATOMIC CHARGES
-----------------------
   0 C :   -0.074412
   1 N :   -0.061550
   2 N :   -0.273771
   3 C :    0.175136
   4 C :   -0.081991
   5 C :    0.128263
   6 H :    0.037857
   7 H :    0.015148
   8 H :    0.009065
   9 H :    0.023993
  10 H :    0.027156
  11 H :    0.034465
  12 H :    0.009796
  13 H :    0.030844
Sum of atomic charges:   -0.0000000

LOEWDIN ATOMIC CHARGES
----------------------
   0 C :   -0.084722
   1 N :   -0.034341
   2 N :   -0.033224
   3 C :    0.041091
   4 C :   -0.037747
   5 C :    0.021441
   6 H :    0.016834
   7 H :   -0.006841
   8 H :    0.013588
   9 H :    0.017326
  10 H :    0.025410
  11 H :    0.030935
  12 H :    0.013019
  13 H :    0.017229

  Mayer bond orders larger than 0.1
B(  0-C ,  1-N ) :   1.8667 B(  0-C ,  2-N ) :   0.1354 B(  0-C ,  6-H ) :   0.9567
B(  0-C ,  7-H ) :   0.9256 B(  1-N ,  2-N ) :   1.1053 B(  2-N ,  3-C ) :   0.9948
B(  2-N ,  5-C ) :   0.9747 B(  3-C ,  4-C ) :   1.1023 B(  3-C ,  8-H ) :   0.9283
B(  3-C ,  9-H ) :   0.9437 B(  4-C ,  5-C ) :   1.1034 B(  4-C , 10-H ) :   0.9449
B(  4-C , 11-H ) :   0.9280 B(  5-C , 12-H ) :   0.9102 B(  5-C , 13-H ) :   0.9428

FINAL SINGLE POINT ENERGY      -266.130214705488

DIPOLE MOMENT
-------------
                                X             Y             Z
Electronic contribution:     -0.19702       2.43685      -1.51036
Nuclear contribution   :      0.30608      -3.18150       1.83148
                        -----------------------------------------
Total Dipole Moment    :      0.10906      -0.74465       0.32111
                        -----------------------------------------
Magnitude (a.u.)       :      0.81824
Magnitude (Debye)      :      2.07979

                             ****ORCA TERMINATED NORMALLY****
TOTAL RUN TIME: 0 days 0 hours 0 minutes 6 seconds 146 msec
