                         Program Version 3.0.3 - RELEASE   -
|  1> ! RI PBE def2-SVP def2-SVP/J NBO PAL2
|  2> % maxcore 2000
|  3> % output
|  4>     # printlevel mini
|  5>     print[ P_Basis ] 0
|  6>     print[ P_SCFInfo ] 1
|  7>     print[ P_SCFIterInfo ] 1
|  8>     print[ P_OrbEn ] 0
|  9>     print[ P_Cartesian ] 0
| 10> end
| 11> *xyz 0 1
| 12>  C        2.1538180000     0.6351410000    -0.2360890000
| 13>  N        3.4094370000     0.4860740000    -0.3434510000
| 14>  N        3.9094630000    -0.7587920000    -0.4672330000
| 15>  C        5.2688030000    -0.9263100000    -0.0766350000
| 16>  C        6.0506600000    -1.9754760000    -0.8016680000
| 17>  C        6.3236880000    -0.5245480000    -1.0529540000
| 18>  H        1.7635630000     1.6444300000    -0.1886370000
| 19>  H        1.4512090000    -0.2047500000    -0.2021460000
| 20>  H        3.2883420000    -1.5065300000    -0.1676150000
| 21>  H        5.4940000000    -0.7782640000     0.9785000000
| 22>  H        5.5294870000    -2.5245810000    -1.5758630000
| 23>  H        6.7711640000    -2.5521670000    -0.2360650000
| 24>  H        5.9777500000    -0.1021580000    -1.9868950000
| 25>  H        7.2347150000    -0.0924600000    -0.6598410000
| 26> *
| 27>
| 28>                          ****END OF INPUT****
 Total Charge           Charge          ....    0
 Multiplicity           Mult            ....    1
 Number of Electrons    NEL             ....   46
 Basis Dimension        Dim             ....  124

MULLIKEN ATOMIC CHARGES
-----------------------
   0 C :   -0.051774
   1 N :   -0.076034
   2 N :   -0.096283
   3 C :   -0.027474
   4 C :   -0.045186
   5 C :   -0.002111
   6 H :    0.039522
   7 H :   -0.003826
   8 H :    0.093627
   9 H :    0.022263
  10 H :    0.035593
  11 H :    0.038731
  12 H :    0.038485
  13 H :    0.034467
Sum of atomic charges:   -0.0000000

LOEWDIN ATOMIC CHARGES
----------------------
   0 C :   -0.077236
   1 N :   -0.023728
   2 N :    0.014156
   3 C :   -0.009318
   4 C :   -0.050224
   5 C :   -0.036710
   6 H :    0.017995
   7 H :   -0.011838
   8 H :    0.044703
   9 H :    0.012432
  10 H :    0.029108
  11 H :    0.028622
  12 H :    0.033028
  13 H :    0.029007

  Mayer bond orders larger than 0.1
B(  0-C ,  1-N ) :   1.8887 B(  0-C ,  2-N ) :   0.1440 B(  0-C ,  6-H ) :   0.9578
B(  0-C ,  7-H ) :   0.9265 B(  1-N ,  2-N ) :   1.0800 B(  2-N ,  3-C ) :   1.0488
B(  2-N ,  8-H ) :   0.9144 B(  3-C ,  4-C ) :   0.9897 B(  3-C ,  5-C ) :   1.0028
B(  3-C ,  9-H ) :   0.9357 B(  4-C ,  5-C ) :   1.0544 B(  4-C , 10-H ) :   0.9459
B(  4-C , 11-H ) :   0.9450 B(  5-C , 12-H ) :   0.9399 B(  5-C , 13-H ) :   0.9500

FINAL SINGLE POINT ENERGY      -266.126860965581

DIPOLE MOMENT
-------------
                                X             Y             Z
Electronic contribution:     -1.52830       1.24406       0.32002
Nuclear contribution   :      1.44705      -1.85212      -0.08900
                        -----------------------------------------
Total Dipole Moment    :     -0.08125      -0.60806       0.23101
                        -----------------------------------------
Magnitude (a.u.)       :      0.65552
Magnitude (Debye)      :      1.66620

                             ****ORCA TERMINATED NORMALLY****
TOTAL RUN TIME: 0 days 0 hours 0 minutes 6 seconds 19 msec
