                         Program Version 3.0.3 - RELEASE   -
|  1> ! RI PBE def2-SVP def2-SVP/J NBO PAL2
|  2> % maxcore 2000
|  3> % output
|  4>     # printlevel mini
|  5>     print[ P_Basis ] 0
|  6>     print[ P_SCFInfo ] 1
|  7>     print[ P_SCFIterInfo ] 1
|  8>     print[ P_OrbEn ] 0
|  9>     print[ P_Cartesian ] 0
| 10> end
| 11> *xyz 0 1
| 12>  C        1.4045910000     0.6650280000     0.1695380000
| 13>  N        2.6336990000     0.3771910000     0.0466260000
| 14>  N        3.0286560000    -0.6087280000     0.9416180000
| 15>  C        4.2683360000    -0.8849850000     0.8044910000
| 16>  C        4.8964530000    -1.8644740000     1.6127380000
| 17>  C        5.4922230000    -2.6817260000     2.2625900000
| 18>  H        0.9942560000     1.4268670000    -0.4859780000
| 19>  H        0.7653540000     0.1731870000     0.9043720000
| 20>  H        4.8733690000    -0.3678430000     0.0559450000
| 21>  H        6.0021630000    -3.4098080000     2.8487700000
| 22> *
| 23>
| 24>                          ****END OF INPUT****
 Total Charge           Charge          ....    0
 Multiplicity           Mult            ....    1
 Number of Electrons    NEL             ....   42
 Basis Dimension        Dim             ....  104

MULLIKEN ATOMIC CHARGES
-----------------------
   0 C :    0.034466
   1 N :   -0.109136
   2 N :   -0.088661
   3 C :   -0.033649
   4 C :    0.423991
   5 C :   -0.368641
   6 H :    0.052461
   7 H :    0.034266
   8 H :    0.033942
   9 H :    0.020961
Sum of atomic charges:    0.0000000

LOEWDIN ATOMIC CHARGES
----------------------
   0 C :    0.023725
   1 N :   -0.043362
   2 N :   -0.032421
   3 C :    0.002182
   4 C :   -0.022408
   5 C :   -0.018693
   6 H :    0.023505
   7 H :    0.004897
   8 H :    0.020269
   9 H :    0.042306

  Mayer bond orders larger than 0.1
B(  0-C ,  1-N ) :   1.9026 B(  0-C ,  3-C ) :   0.1072 B(  0-C ,  6-H ) :   0.9517
B(  0-C ,  7-H ) :   0.9265 B(  1-N ,  2-N ) :   0.9976 B(  2-N ,  3-C ) :   1.7974
B(  2-N ,  5-C ) :   0.1012 B(  3-C ,  4-C ) :   0.9717 B(  3-C ,  8-H ) :   0.9424
B(  4-C ,  5-C ) :   2.2996 B(  5-C ,  9-H ) :   1.0792

FINAL SINGLE POINT ENERGY      -263.674508810519

DIPOLE MOMENT
-------------
                                X             Y             Z
Electronic contribution:      1.55045      -0.97042       0.47820
Nuclear contribution   :     -1.50635       0.90152      -0.42198
                        -----------------------------------------
Total Dipole Moment    :      0.04410      -0.06889       0.05622
                        -----------------------------------------
Magnitude (a.u.)       :      0.09925
Magnitude (Debye)      :      0.25228

                             ****ORCA TERMINATED NORMALLY****
TOTAL RUN TIME: 0 days 0 hours 0 minutes 4 seconds 710 msec
