                         Program Version 3.0.3 - RELEASE   -
|  1> ! RI PBE def2-SVP def2-SVP/J NBO PAL2
|  2> % maxcore 2000
|  3> % output
|  4>     # printlevel mini
|  5>     print[ P_Basis ] 0
|  6>     print[ P_SCFInfo ] 1
|  7>     print[ P_SCFIterInfo ] 1
|  8>     print[ P_OrbEn ] 0
|  9>     print[ P_Cartesian ] 0
| 10> end
| 11> *xyz 0 1
| 12>  C        1.3241230000    -0.7365240000    -0.2046070000
| 13>  N        2.5918020000    -0.6791330000    -0.1989980000
| 14>  N        3.2056230000     0.3243610000    -0.8511100000
| 15>  C        4.5703600000     0.0246750000    -1.2358870000
| 16>  C        5.2067350000     1.1866030000    -1.8352930000
| 17>  C        5.7255160000     2.1368360000    -2.3515310000
| 18>  H        0.8498430000    -1.5202180000     0.3732620000
| 19>  H        0.6944140000    -0.0267510000    -0.7505810000
| 20>  H        2.6618660000     0.7818740000    -1.5786000000
| 21>  H        4.6302280000    -0.8186740000    -1.9400360000
| 22>  H        5.1098970000    -0.2761160000    -0.3337610000
| 23>  H        6.1914920000     2.9818660000    -2.8007590000
| 24> *
| 25>
| 26>                          ****END OF INPUT****
 Total Charge           Charge          ....    0
 Multiplicity           Mult            ....    1
 Number of Electrons    NEL             ....   44
 Basis Dimension        Dim             ....  114

MULLIKEN ATOMIC CHARGES
-----------------------
   0 C :   -0.055445
   1 N :   -0.082014
   2 N :   -0.154510
   3 C :    0.241824
   4 C :    0.286353
   5 C :   -0.468553
   6 H :    0.044148
   7 H :    0.005012
   8 H :    0.099528
   9 H :    0.034946
  10 H :    0.042694
  11 H :    0.006016
Sum of atomic charges:    0.0000000

LOEWDIN ATOMIC CHARGES
----------------------
   0 C :   -0.072496
   1 N :   -0.027836
   2 N :    0.007454
   3 C :    0.011535
   4 C :   -0.033121
   5 C :   -0.068255
   6 H :    0.019772
   7 H :   -0.008056
   8 H :    0.047947
   9 H :    0.033700
  10 H :    0.052002
  11 H :    0.037353

  Mayer bond orders larger than 0.1
B(  0-C ,  1-N ) :   1.8855 B(  0-C ,  2-N ) :   0.1486 B(  0-C ,  6-H ) :   0.9577
B(  0-C ,  7-H ) :   0.9300 B(  1-N ,  2-N ) :   1.0989 B(  2-N ,  3-C ) :   0.9849
B(  2-N ,  8-H ) :   0.9173 B(  3-C ,  4-C ) :   1.0367 B(  3-C ,  9-H ) :   0.9037
B(  3-C , 10-H ) :   0.8868 B(  4-C ,  5-C ) :   2.3774 B(  4-C , 11-H ) :  -0.1036
B(  5-C , 11-H ) :   1.0945

FINAL SINGLE POINT ENERGY      -264.881473567777

DIPOLE MOMENT
-------------
                                X             Y             Z
Electronic contribution:      1.78538       1.02713      -0.07429
Nuclear contribution   :     -1.93102      -0.84041      -0.46150
                        -----------------------------------------
Total Dipole Moment    :     -0.14564       0.18672      -0.53579
                        -----------------------------------------
Magnitude (a.u.)       :      0.58579
Magnitude (Debye)      :      1.48896

                             ****ORCA TERMINATED NORMALLY****
TOTAL RUN TIME: 0 days 0 hours 0 minutes 5 seconds 96 msec
