                         Program Version 3.0.3 - RELEASE   -
|  1> ! RI PBE def2-SVP def2-SVP/J NBO PAL2
|  2> % maxcore 2000
|  3> % output
|  4>     # printlevel mini
|  5>     print[ P_Basis ] 0
|  6>     print[ P_SCFInfo ] 1
|  7>     print[ P_SCFIterInfo ] 1
|  8>     print[ P_OrbEn ] 0
|  9>     print[ P_Cartesian ] 0
| 10> end
| 11> *xyz 0 1
| 12>  C        1.4017160000     0.9496600000    -0.0144940000
| 13>  N        2.7974790000     0.6422870000     0.0473690000
| 14>  N        3.2473900000    -0.0648170000     1.0845320000
| 15>  C        4.4907780000    -0.3551530000     1.1672830000
| 16>  C        5.4955980000     0.0655890000     0.1381510000
| 17>  C        4.9484630000    -1.1485570000     2.3456250000
| 18>  H        1.2137310000     1.5279390000    -0.9204690000
| 19>  H        1.0771430000     1.5462980000     0.8452280000
| 20>  H        0.7861160000     0.0441270000    -0.0532170000
| 21>  H        3.4193670000     0.9562920000    -0.6792460000
| 22>  H        5.2473220000    -0.3362990000    -0.8525410000
| 23>  H        6.4961140000    -0.2818530000     0.3946080000
| 24>  H        5.5371440000     1.1580820000     0.0413690000
| 25>  H        4.1028560000    -1.3731260000     2.9950680000
| 26>  H        5.7016150000    -0.6022830000     2.9249730000
| 27>  H        5.4131690000    -2.0912060000     2.0345510000
| 28> *
| 29>
| 30>                          ****END OF INPUT****
 Total Charge           Charge          ....    0
 Multiplicity           Mult            ....    1
 Number of Electrons    NEL             ....   48
 Basis Dimension        Dim             ....  134

MULLIKEN ATOMIC CHARGES
-----------------------
   0 C :    0.107226
   1 N :   -0.163005
   2 N :   -0.039153
   3 C :   -0.286713
   4 C :    0.024252
   5 C :    0.071410
   6 H :    0.011444
   7 H :    0.025395
   8 H :    0.025642
   9 H :    0.088862
  10 H :    0.029122
  11 H :    0.013533
  12 H :    0.032969
  13 H :    0.018554
  14 H :    0.021652
  15 H :    0.018809
Sum of atomic charges:   -0.0000000

LOEWDIN ATOMIC CHARGES
----------------------
   0 C :    0.000039
   1 N :    0.003128
   2 N :   -0.050017
   3 C :   -0.089328
   4 C :   -0.085799
   5 C :   -0.067558
   6 H :    0.024570
   7 H :    0.018507
   8 H :    0.018945
   9 H :    0.038846
  10 H :    0.031611
  11 H :    0.034540
  12 H :    0.031988
  13 H :    0.032964
  14 H :    0.028911
  15 H :    0.028654

  Mayer bond orders larger than 0.1
B(  0-C ,  1-N ) :   1.0416 B(  0-C ,  6-H ) :   0.9660 B(  0-C ,  7-H ) :   0.9631
B(  0-C ,  8-H ) :   0.9623 B(  1-N ,  2-N ) :   1.0793 B(  1-N ,  3-C ) :   0.1313
B(  1-N ,  9-H ) :   0.9273 B(  2-N ,  3-C ) :   1.8712 B(  3-C ,  4-C ) :   1.0688
B(  3-C ,  5-C ) :   1.1040 B(  4-C , 10-H ) :   0.9362 B(  4-C , 11-H ) :   0.9460
B(  4-C , 12-H ) :   0.9373 B(  5-C , 13-H ) :   0.9473 B(  5-C , 14-H ) :   0.9431
B(  5-C , 15-H ) :   0.9413

FINAL SINGLE POINT ENERGY      -267.362516255473

DIPOLE MOMENT
-------------
                                X             Y             Z
Electronic contribution:     -1.47892       0.12313       0.26783
Nuclear contribution   :      1.70190       0.21478      -0.91102
                        -----------------------------------------
Total Dipole Moment    :      0.22298       0.33791      -0.64318
                        -----------------------------------------
Magnitude (a.u.)       :      0.75999
Magnitude (Debye)      :      1.93175

                             ****ORCA TERMINATED NORMALLY****
TOTAL RUN TIME: 0 days 0 hours 0 minutes 6 seconds 408 msec
