                         Program Version 3.0.3 - RELEASE   -
|  1> ! RI PBE def2-SVP def2-SVP/J NBO PAL2
|  2> % maxcore 2000
|  3> % output
|  4>     # printlevel mini
|  5>     print[ P_Basis ] 0
|  6>     print[ P_SCFInfo ] 1
|  7>     print[ P_SCFIterInfo ] 1
|  8>     print[ P_OrbEn ] 0
|  9>     print[ P_Cartesian ] 0
| 10> end
| 11> *xyz 0 1
| 12>  C        3.3189770000     1.0364670000    -1.1497250000
| 13>  N        4.2677670000     0.2014610000    -0.4764620000
| 14>  N        4.0064490000    -0.2209590000     0.7451360000
| 15>  C        4.8522280000    -0.9697250000     1.3541440000
| 16>  C        4.5841040000    -1.4401560000     2.6876840000
| 17>  C        5.4076440000    -2.2204030000     3.3912540000
| 18>  H        3.7122220000     1.2777900000    -2.1378730000
| 19>  H        3.1499100000     1.9732900000    -0.6087850000
| 20>  H        2.3555250000     0.5320490000    -1.2768890000
| 21>  H        5.1306580000    -0.0641080000    -0.9308650000
| 22>  H        5.7944440000    -1.2675560000     0.8761930000
| 23>  H        3.6380110000    -1.1153740000     3.1122310000
| 24>  H        6.3566640000    -2.5549050000     2.9842100000
| 25>  H        5.1587870000    -2.5474900000     4.3926470000
| 26> *
| 27>
| 28>                          ****END OF INPUT****
 Total Charge           Charge          ....    0
 Multiplicity           Mult            ....    1
 Number of Electrons    NEL             ....   46
 Basis Dimension        Dim             ....  124

MULLIKEN ATOMIC CHARGES
-----------------------
   0 C :    0.107339
   1 N :   -0.132001
   2 N :   -0.060082
   3 C :   -0.040583
   4 C :    0.011969
   5 C :   -0.045458
   6 H :    0.017467
   7 H :    0.033382
   8 H :    0.033939
   9 H :    0.094933
  10 H :   -0.044056
  11 H :   -0.006548
  12 H :    0.008634
  13 H :    0.021064
Sum of atomic charges:   -0.0000000

LOEWDIN ATOMIC CHARGES
----------------------
   0 C :    0.002947
   1 N :    0.028514
   2 N :   -0.029020
   3 C :   -0.067717
   4 C :   -0.041832
   5 C :   -0.077616
   6 H :    0.028275
   7 H :    0.023713
   8 H :    0.023715
   9 H :    0.044759
  10 H :   -0.007941
  11 H :    0.031133
  12 H :    0.018004
  13 H :    0.023065

  Mayer bond orders larger than 0.1
B(  0-C ,  1-N ) :   1.0339 B(  0-C ,  6-H ) :   0.9641 B(  0-C ,  7-H ) :   0.9623
B(  0-C ,  8-H ) :   0.9624 B(  1-N ,  2-N ) :   1.1252 B(  1-N ,  3-C ) :   0.1322
B(  1-N ,  9-H ) :   0.9256 B(  2-N ,  3-C ) :   1.7056 B(  2-N ,  5-C ) :   0.1021
B(  3-C ,  4-C ) :   1.1572 B(  3-C , 10-H ) :   0.9333 B(  4-C ,  5-C ) :   1.8527
B(  4-C , 11-H ) :   0.9583 B(  5-C , 12-H ) :   0.9476 B(  5-C , 13-H ) :   0.9427

FINAL SINGLE POINT ENERGY      -266.144190094888

DIPOLE MOMENT
-------------
                                X             Y             Z
Electronic contribution:      0.12491      -0.38877       0.69601
Nuclear contribution   :      0.13259       0.68694      -1.64096
                        -----------------------------------------
Total Dipole Moment    :      0.25751       0.29817      -0.94494
                        -----------------------------------------
Magnitude (a.u.)       :      1.02378
Magnitude (Debye)      :      2.60225

                             ****ORCA TERMINATED NORMALLY****
TOTAL RUN TIME: 0 days 0 hours 0 minutes 5 seconds 997 msec
