                         Program Version 3.0.3 - RELEASE   -
|  1> ! RI PBE def2-SVP def2-SVP/J NBO PAL2
|  2> % maxcore 2000
|  3> % output
|  4>     # printlevel mini
|  5>     print[ P_Basis ] 0
|  6>     print[ P_SCFInfo ] 1
|  7>     print[ P_SCFIterInfo ] 1
|  8>     print[ P_OrbEn ] 0
|  9>     print[ P_Cartesian ] 0
| 10> end
| 11> *xyz 0 1
| 12>  C        0.9233130000     0.0246580000     0.0098160000
| 13>  N        2.2963040000     0.4307380000     0.1649940000
| 14>  N        2.8584500000     0.1772050000     1.3417520000
| 15>  C        4.1381820000     0.1533870000     1.4223000000
| 16>  C        4.7936120000    -0.0451180000     2.6592590000
| 17>  C        5.4168660000    -0.2129130000     3.6753820000
| 18>  H        0.5178480000     0.4878140000    -0.8909800000
| 19>  H        0.3559160000     0.3785730000     0.8702210000
| 20>  H        0.8013420000    -1.0635210000    -0.0637170000
| 21>  H        2.8887410000     0.3291870000    -0.6539010000
| 22>  H        4.7700740000     0.2949760000     0.5380990000
| 23>  H        5.9494600000    -0.3618870000     4.5843750000
| 24> *
| 25>
| 26>                          ****END OF INPUT****
 Total Charge           Charge          ....    0
 Multiplicity           Mult            ....    1
 Number of Electrons    NEL             ....   44
 Basis Dimension        Dim             ....  114

MULLIKEN ATOMIC CHARGES
-----------------------
   0 C :    0.089824
   1 N :   -0.119441
   2 N :   -0.061763
   3 C :   -0.105871
   4 C :    0.406635
   5 C :   -0.410300
   6 H :    0.024929
   7 H :    0.046468
   8 H :    0.029823
   9 H :    0.095320
  10 H :    0.000271
  11 H :    0.004105
Sum of atomic charges:    0.0000000

LOEWDIN ATOMIC CHARGES
----------------------
   0 C :    0.000227
   1 N :    0.026904
   2 N :   -0.012144
   3 C :   -0.081165
   4 C :   -0.028818
   5 C :   -0.071396
   6 H :    0.026810
   7 H :    0.036180
   8 H :    0.016492
   9 H :    0.045879
  10 H :    0.006639
  11 H :    0.034392

  Mayer bond orders larger than 0.1
B(  0-C ,  1-N ) :   1.0262 B(  0-C ,  6-H ) :   0.9669 B(  0-C ,  7-H ) :   0.9647
B(  0-C ,  8-H ) :   0.9609 B(  1-N ,  2-N ) :   1.1353 B(  1-N ,  3-C ) :   0.1388
B(  1-N ,  9-H ) :   0.9154 B(  2-N ,  3-C ) :   1.7383 B(  3-C ,  4-C ) :   1.0568
B(  3-C , 10-H ) :   0.9221 B(  4-C ,  5-C ) :   2.2813 B(  5-C , 11-H ) :   1.0828

FINAL SINGLE POINT ENERGY      -264.894835928890

DIPOLE MOMENT
-------------
                                X             Y             Z
Electronic contribution:      3.98741       0.37336       3.06433
Nuclear contribution   :     -4.25154      -0.45900      -4.04006
                        -----------------------------------------
Total Dipole Moment    :     -0.26413      -0.08565      -0.97572
                        -----------------------------------------
Magnitude (a.u.)       :      1.01446
Magnitude (Debye)      :      2.57856

                             ****ORCA TERMINATED NORMALLY****
TOTAL RUN TIME: 0 days 0 hours 0 minutes 5 seconds 289 msec
