                         Program Version 3.0.3 - RELEASE   -
|  1> ! RI PBE def2-SVP def2-SVP/J NBO PAL2
|  2> % maxcore 2000
|  3> % output
|  4>     # printlevel mini
|  5>     print[ P_Basis ] 0
|  6>     print[ P_SCFInfo ] 1
|  7>     print[ P_SCFIterInfo ] 1
|  8>     print[ P_OrbEn ] 0
|  9>     print[ P_Cartesian ] 0
| 10> end
| 11> *xyz 0 1
| 12>  N        1.0856570000    -0.1323040000     0.2221850000
| 13>  C        2.4760230000    -0.0809010000    -0.1187790000
| 14>  C        3.0418850000    -0.5924880000    -1.4158250000
| 15>  C        2.9497250000     0.8866130000    -1.1602900000
| 16>  C        4.1363230000     1.7326010000    -0.9239950000
| 17>  C        5.3932300000     1.4102420000    -1.1997750000
| 18>  H        0.8193810000    -1.0710480000     0.4959770000
| 19>  H        0.5107040000     0.1212640000    -0.5717700000
| 20>  H        3.1254690000    -0.1773070000     0.7455600000
| 21>  H        2.3468960000    -1.0148630000    -2.1323130000
| 22>  H        4.0190410000    -1.0600680000    -1.4057560000
| 23>  H        2.1400490000     1.3980080000    -1.6774990000
| 24>  H        3.9300240000     2.7007060000    -0.4706750000
| 25>  H        5.6521200000     0.4649830000    -1.6648910000
| 26>  H        6.2092750000     2.0857620000    -0.9723430000
| 27> *
| 28>
| 29>                          ****END OF INPUT****
 Total Charge           Charge          ....    0
 Multiplicity           Mult            ....    1
 Number of Electrons    NEL             ....   46
 Basis Dimension        Dim             ....  129

MULLIKEN ATOMIC CHARGES
-----------------------
   0 N :   -0.119531
   1 C :   -0.067668
   2 C :    0.016083
   3 C :   -0.079067
   4 C :   -0.008117
   5 C :   -0.040530
   6 H :    0.094771
   7 H :    0.077769
   8 H :    0.026853
   9 H :    0.010149
  10 H :    0.028200
  11 H :    0.022165
  12 H :    0.002746
  13 H :    0.012762
  14 H :    0.023417
Sum of atomic charges:   -0.0000000

LOEWDIN ATOMIC CHARGES
----------------------
   0 N :   -0.084032
   1 C :    0.007249
   2 C :   -0.064758
   3 C :   -0.049390
   4 C :   -0.023458
   5 C :   -0.070852
   6 H :    0.056790
   7 H :    0.051096
   8 H :    0.024613
   9 H :    0.022783
  10 H :    0.025321
  11 H :    0.031984
  12 H :    0.029019
  13 H :    0.019106
  14 H :    0.024530

  Mayer bond orders larger than 0.1
B(  0-N ,  1-C ) :   1.1479 B(  0-N ,  6-H ) :   0.9660 B(  0-N ,  7-H ) :   0.9569
B(  1-C ,  2-C ) :   0.9668 B(  1-C ,  3-C ) :   0.9333 B(  1-C ,  8-H ) :   0.9400
B(  2-C ,  3-C ) :   0.9893 B(  2-C ,  9-H ) :   0.9251 B(  2-C , 10-H ) :   0.9272
B(  3-C ,  4-C ) :   1.0817 B(  3-C , 11-H ) :   0.9194 B(  4-C ,  5-C ) :   1.9920
B(  4-C , 12-H ) :   0.9540 B(  5-C , 13-H ) :   0.9361 B(  5-C , 14-H ) :   0.9427

FINAL SINGLE POINT ENERGY      -250.119354595464

DIPOLE MOMENT
-------------
                                X             Y             Z
Electronic contribution:     -0.78484       0.66691       0.59193
Nuclear contribution   :      0.52097      -1.02802      -0.82935
                        -----------------------------------------
Total Dipole Moment    :     -0.26387      -0.36112      -0.23742
                        -----------------------------------------
Magnitude (a.u.)       :      0.50636
Magnitude (Debye)      :      1.28707

                             ****ORCA TERMINATED NORMALLY****
TOTAL RUN TIME: 0 days 0 hours 0 minutes 6 seconds 220 msec
