                         Program Version 3.0.3 - RELEASE   -
|  1> ! RI PBE def2-SVP def2-SVP/J NBO PAL2
|  2> % maxcore 2000
|  3> % output
|  4>     # printlevel mini
|  5>     print[ P_Basis ] 0
|  6>     print[ P_SCFInfo ] 1
|  7>     print[ P_SCFIterInfo ] 1
|  8>     print[ P_OrbEn ] 0
|  9>     print[ P_Cartesian ] 0
| 10> end
| 11> *xyz 0 1
| 12>  N        1.0111610000    -0.0301570000     0.1119350000
| 13>  C        2.4378340000    -0.1300380000     0.0674830000
| 14>  C        3.1898770000    -0.8865860000    -0.9829840000
| 15>  C        3.1832230000     0.6315940000    -0.9906470000
| 16>  C        4.3688980000     1.3627250000    -0.6676650000
| 17>  C        5.3694070000     1.9698920000    -0.3942410000
| 18>  H        0.6039940000    -0.8894390000     0.4619450000
| 19>  H        0.6265580000     0.1315170000    -0.8104900000
| 20>  H        2.8945410000    -0.1046700000     1.0508760000
| 21>  H        2.6169170000    -1.3743580000    -1.7628360000
| 22>  H        4.1193890000    -1.3727880000    -0.7149800000
| 23>  H        2.5617100000     1.0924710000    -1.7532410000
| 24>  H        6.2521990000     2.5114480000    -0.1506560000
| 25> *
| 26>
| 27>                          ****END OF INPUT****
 Total Charge           Charge          ....    0
 Multiplicity           Mult            ....    1
 Number of Electrons    NEL             ....   44
 Basis Dimension        Dim             ....  119

MULLIKEN ATOMIC CHARGES
-----------------------
   0 N :   -0.116772
   1 C :   -0.061628
   2 C :    0.047595
   3 C :   -0.160281
   4 C :    0.449416
   5 C :   -0.473828
   6 H :    0.098662
   7 H :    0.079813
   8 H :    0.035748
   9 H :    0.018841
  10 H :    0.037102
  11 H :    0.047960
  12 H :   -0.002627
Sum of atomic charges:    0.0000000

LOEWDIN ATOMIC CHARGES
----------------------
   0 N :   -0.080076
   1 C :    0.013430
   2 C :   -0.045860
   3 C :   -0.056554
   4 C :   -0.015673
   5 C :   -0.092033
   6 H :    0.058884
   7 H :    0.052626
   8 H :    0.030303
   9 H :    0.025334
  10 H :    0.032557
  11 H :    0.043854
  12 H :    0.033210

  Mayer bond orders larger than 0.1
B(  0-N ,  1-C ) :   1.1517 B(  0-N ,  6-H ) :   0.9642 B(  0-N ,  7-H ) :   0.9553
B(  1-C ,  2-C ) :   0.9587 B(  1-C ,  3-C ) :   0.9210 B(  1-C ,  8-H ) :   0.9423
B(  2-C ,  3-C ) :   0.9521 B(  2-C ,  9-H ) :   0.9304 B(  2-C , 10-H ) :   0.9355
B(  3-C ,  4-C ) :   1.0563 B(  3-C , 11-H ) :   0.9144 B(  4-C ,  5-C ) :   2.2717
B(  4-C , 12-H ) :  -0.1054 B(  5-C , 12-H ) :   1.0960

FINAL SINGLE POINT ENERGY      -248.876803751871

DIPOLE MOMENT
-------------
                                X             Y             Z
Electronic contribution:      1.99872       2.23496       0.13426
Nuclear contribution   :     -2.34250      -2.83956      -0.38927
                        -----------------------------------------
Total Dipole Moment    :     -0.34379      -0.60460      -0.25501
                        -----------------------------------------
Magnitude (a.u.)       :      0.74078
Magnitude (Debye)      :      1.88291

                             ****ORCA TERMINATED NORMALLY****
TOTAL RUN TIME: 0 days 0 hours 0 minutes 5 seconds 553 msec
