                         Program Version 3.0.3 - RELEASE   -
|  1> ! RI PBE def2-SVP def2-SVP/J NBO PAL2
|  2> % maxcore 2000
|  3> % output
|  4>     # printlevel mini
|  5>     print[ P_Basis ] 0
|  6>     print[ P_SCFInfo ] 1
|  7>     print[ P_SCFIterInfo ] 1
|  8>     print[ P_OrbEn ] 0
|  9>     print[ P_Cartesian ] 0
| 10> end
| 11> *xyz 0 1
| 12>  N        0.9673610000     0.0098410000    -0.1613320000
| 13>  C        2.3947730000     0.1235650000    -0.0191250000
| 14>  C        3.0958660000     1.1466170000     0.9085820000
| 15>  C        4.1508680000     0.0639320000     1.2044340000
| 16>  C        3.1240210000    -0.9897710000     0.7623090000
| 17>  N        3.5992730000    -2.2023160000     0.1534440000
| 18>  H        0.5853950000     0.7581460000    -0.7260250000
| 19>  H        0.5132030000     0.0540240000     0.7433910000
| 20>  H        2.8366720000     0.1872330000    -1.0203660000
| 21>  H        2.4812610000     1.3537550000     1.7895480000
| 22>  H        3.4284810000     2.0930160000     0.4797210000
| 23>  H        4.5586790000    -0.0113090000     2.2122880000
| 24>  H        4.9803350000     0.1137600000     0.4930810000
| 25>  H        2.5014220000    -1.2617740000     1.6239850000
| 26>  H        4.1356040000    -1.9926810000    -0.6806040000
| 27>  H        2.8220760000    -2.7867490000    -0.1304320000
| 28> *
| 29>
| 30>                          ****END OF INPUT****
 Total Charge           Charge          ....    0
 Multiplicity           Mult            ....    1
 Number of Electrons    NEL             ....   48
 Basis Dimension        Dim             ....  134

MULLIKEN ATOMIC CHARGES
-----------------------
   0 N :   -0.133754
   1 C :   -0.066360
   2 C :    0.050302
   3 C :    0.050962
   4 C :   -0.081875
   5 N :   -0.134859
   6 H :    0.090117
   7 H :    0.080559
   8 H :   -0.021311
   9 H :   -0.009999
  10 H :    0.000838
  11 H :    0.008760
  12 H :    0.001990
  13 H :   -0.010168
  14 H :    0.080846
  15 H :    0.093952
Sum of atomic charges:   -0.0000000

LOEWDIN ATOMIC CHARGES
----------------------
   0 N :   -0.094837
   1 C :   -0.023166
   2 C :   -0.054639
   3 C :   -0.035100
   4 C :   -0.007734
   5 N :   -0.093463
   6 H :    0.052895
   7 H :    0.048027
   8 H :    0.014708
   9 H :    0.017218
  10 H :    0.012431
  11 H :    0.017475
  12 H :    0.022207
  13 H :    0.019571
  14 H :    0.047986
  15 H :    0.056421

  Mayer bond orders larger than 0.1
B(  0-N ,  1-C ) :   1.1545 B(  0-N ,  6-H ) :   0.9639 B(  0-N ,  7-H ) :   0.9577
B(  1-C ,  2-C ) :   1.0448 B(  1-C ,  4-C ) :   0.9904 B(  1-C ,  8-H ) :   0.8798
B(  2-C ,  3-C ) :   1.1175 B(  2-C ,  9-H ) :   0.9084 B(  2-C , 10-H ) :   0.9265
B(  3-C ,  4-C ) :   1.0661 B(  3-C , 11-H ) :   0.9257 B(  3-C , 12-H ) :   0.9187
B(  4-C ,  5-N ) :   1.1671 B(  4-C , 13-H ) :   0.8913 B(  5-N , 14-H ) :   0.9580
B(  5-N , 15-H ) :   0.9639

FINAL SINGLE POINT ENERGY      -267.368437492688

DIPOLE MOMENT
-------------
                                X             Y             Z
Electronic contribution:     -0.55988      -1.17316      -0.46819
Nuclear contribution   :      0.22057       1.64941       0.23407
                        -----------------------------------------
Total Dipole Moment    :     -0.33931       0.47625      -0.23412
                        -----------------------------------------
Magnitude (a.u.)       :      0.62989
Magnitude (Debye)      :      1.60104

                             ****ORCA TERMINATED NORMALLY****
TOTAL RUN TIME: 0 days 0 hours 0 minutes 6 seconds 210 msec
