                         Program Version 3.0.3 - RELEASE   -
|  1> ! RI PBE def2-SVP def2-SVP/J NBO PAL2
|  2> % maxcore 2000
|  3> % output
|  4>     # printlevel mini
|  5>     print[ P_Basis ] 0
|  6>     print[ P_SCFInfo ] 1
|  7>     print[ P_SCFIterInfo ] 1
|  8>     print[ P_OrbEn ] 0
|  9>     print[ P_Cartesian ] 0
| 10> end
| 11> *xyz 0 1
| 12>  N        1.0688000000     0.0083940000    -0.0910970000
| 13>  C        2.4959520000     0.0488460000     0.1582140000
| 14>  C        3.0469650000     1.1722700000     1.0400880000
| 15>  C        4.4632870000     0.7089910000     1.3646830000
| 16>  C        4.3709960000    -0.8329630000     1.4472040000
| 17>  C        2.9931690000    -1.2038450000     0.8756590000
| 18>  H        0.7624460000     0.8506050000    -0.5628940000
| 19>  H        0.5640180000    -0.0380500000     0.7875760000
| 20>  H        2.9921750000     0.1106370000    -0.8195290000
| 21>  H        2.4394840000     1.2283600000     1.9523990000
| 22>  H        3.0095980000     2.1536520000     0.5596210000
| 23>  H        4.8574080000     1.1559130000     2.2793910000
| 24>  H        5.1401960000     1.0012300000     0.5566980000
| 25>  H        4.4762710000    -1.1839070000     2.4757470000
| 26>  H        5.1773260000    -1.3002720000     0.8780420000
| 27>  H        2.2914010000    -1.4338750000     1.6860650000
| 28>  H        3.0123870000    -2.0751060000     0.2192350000
| 29> *
| 30>
| 31>                          ****END OF INPUT****
 Total Charge           Charge          ....    0
 Multiplicity           Mult            ....    1
 Number of Electrons    NEL             ....   48
 Basis Dimension        Dim             ....  139

MULLIKEN ATOMIC CHARGES
-----------------------
   0 N :   -0.149811
   1 C :   -0.103382
   2 C :    0.037912
   3 C :   -0.008301
   4 C :    0.009852
   5 C :    0.026374
   6 H :    0.085245
   7 H :    0.080880
   8 H :    0.004535
   9 H :   -0.010760
  10 H :    0.001145
  11 H :    0.004553
  12 H :    0.007015
  13 H :    0.002102
  14 H :    0.005195
  15 H :   -0.006461
  16 H :    0.013905
Sum of atomic charges:    0.0000000

LOEWDIN ATOMIC CHARGES
----------------------
   0 N :   -0.094043
   1 C :   -0.008503
   2 C :   -0.059193
   3 C :   -0.043773
   4 C :   -0.042646
   5 C :   -0.042283
   6 H :    0.050883
   7 H :    0.046654
   8 H :    0.020465
   9 H :    0.015259
  10 H :    0.017223
  11 H :    0.022685
  12 H :    0.023605
  13 H :    0.023229
  14 H :    0.024539
  15 H :    0.020065
  16 H :    0.025839

  Mayer bond orders larger than 0.1
B(  0-N ,  1-C ) :   1.1253 B(  0-N ,  6-H ) :   0.9661 B(  0-N ,  7-H ) :   0.9627
B(  1-C ,  2-C ) :   1.0220 B(  1-C ,  5-C ) :   1.0799 B(  1-C ,  8-H ) :   0.9088
B(  2-C ,  3-C ) :   1.1083 B(  2-C ,  9-H ) :   0.9186 B(  2-C , 10-H ) :   0.9315
B(  3-C ,  4-C ) :   1.1145 B(  3-C , 11-H ) :   0.9316 B(  3-C , 12-H ) :   0.9275
B(  4-C ,  5-C ) :   1.1249 B(  4-C , 13-H ) :   0.9323 B(  4-C , 14-H ) :   0.9280
B(  5-C , 15-H ) :   0.9192 B(  5-C , 16-H ) :   0.9317

FINAL SINGLE POINT ENERGY      -251.373541589611

DIPOLE MOMENT
-------------
                                X             Y             Z
Electronic contribution:     -1.20525      -0.14468      -0.98983
Nuclear contribution   :      1.22279       0.52403       1.20763
                        -----------------------------------------
Total Dipole Moment    :      0.01753       0.37935       0.21779
                        -----------------------------------------
Magnitude (a.u.)       :      0.43778
Magnitude (Debye)      :      1.11274

                             ****ORCA TERMINATED NORMALLY****
TOTAL RUN TIME: 0 days 0 hours 0 minutes 7 seconds 174 msec
