                         Program Version 3.0.3 - RELEASE   -
|  1> ! RI PBE def2-SVP def2-SVP/J NBO PAL2
|  2> % maxcore 2000
|  3> % output
|  4>     # printlevel mini
|  5>     print[ P_Basis ] 0
|  6>     print[ P_SCFInfo ] 1
|  7>     print[ P_SCFIterInfo ] 1
|  8>     print[ P_OrbEn ] 0
|  9>     print[ P_Cartesian ] 0
| 10> end
| 11> *xyz 0 1
| 12>  N        0.8414840000     0.0357090000     0.2268010000
| 13>  C        2.2930280000     0.0346500000     0.1152160000
| 14>  C        2.8506330000     1.2052450000    -0.6402130000
| 15>  C        3.6696220000     0.7639190000    -1.6023080000
| 16>  C        3.6686840000    -0.7002680000    -1.6006520000
| 17>  C        2.8491310000    -1.1383670000    -0.6375640000
| 18>  H        0.5328340000     0.8496730000     0.7448570000
| 19>  H        0.5317960000    -0.7765850000     0.7468530000
| 20>  H        2.8063570000     0.0354350000     1.1007940000
| 21>  H        2.6315890000     2.2354920000    -0.3923790000
| 22>  H        4.2482450000     1.3767410000    -2.2817750000
| 23>  H        4.2465170000    -1.3153650000    -2.2787350000
| 24>  H        2.6287600000    -2.1677680000    -0.3874050000
| 25> *
| 26>
| 27>                          ****END OF INPUT****
 Total Charge           Charge          ....    0
 Multiplicity           Mult            ....    1
 Number of Electrons    NEL             ....   44
 Basis Dimension        Dim             ....  119

MULLIKEN ATOMIC CHARGES
-----------------------
   0 N :   -0.182059
   1 C :    0.072167
   2 C :   -0.027562
   3 C :    0.002936
   4 C :    0.002971
   5 C :   -0.027468
   6 H :    0.088746
   7 H :    0.088752
   8 H :    0.028037
   9 H :   -0.009493
  10 H :   -0.013735
  11 H :   -0.013746
  12 H :   -0.009545
Sum of atomic charges:   -0.0000000

LOEWDIN ATOMIC CHARGES
----------------------
   0 N :   -0.094127
   1 C :    0.002619
   2 C :   -0.033528
   3 C :   -0.032583
   4 C :   -0.032574
   5 C :   -0.033508
   6 H :    0.052290
   7 H :    0.052293
   8 H :    0.033680
   9 H :    0.020158
  10 H :    0.022565
  11 H :    0.022564
  12 H :    0.020151

  Mayer bond orders larger than 0.1
B(  0-N ,  1-C ) :   1.0217 B(  0-N ,  6-H ) :   0.9617 B(  0-N ,  7-H ) :   0.9617
B(  1-C ,  2-C ) :   1.0181 B(  1-C ,  5-C ) :   1.0181 B(  1-C ,  8-H ) :   0.8365
B(  2-C ,  3-C ) :   1.7569 B(  2-C ,  9-H ) :   0.9871 B(  3-C ,  4-C ) :   1.0855
B(  3-C , 10-H ) :   0.9952 B(  4-C ,  5-C ) :   1.7569 B(  4-C , 11-H ) :   0.9952
B(  5-C , 12-H ) :   0.9871

FINAL SINGLE POINT ENERGY      -248.934196882212

DIPOLE MOMENT
-------------
                                X             Y             Z
Electronic contribution:      0.78637      -0.00179      -1.03516
Nuclear contribution   :     -0.77407       0.00244       1.63894
                        -----------------------------------------
Total Dipole Moment    :      0.01230       0.00065       0.60379
                        -----------------------------------------
Magnitude (a.u.)       :      0.60391
Magnitude (Debye)      :      1.53502

                             ****ORCA TERMINATED NORMALLY****
TOTAL RUN TIME: 0 days 0 hours 0 minutes 5 seconds 649 msec
