                         Program Version 3.0.3 - RELEASE   -
|  1> ! RI PBE def2-SVP def2-SVP/J NBO PAL2
|  2> % maxcore 2000
|  3> % output
|  4>     # printlevel mini
|  5>     print[ P_Basis ] 0
|  6>     print[ P_SCFInfo ] 1
|  7>     print[ P_SCFIterInfo ] 1
|  8>     print[ P_OrbEn ] 0
|  9>     print[ P_Cartesian ] 0
| 10> end
| 11> *xyz 0 1
| 12>  N        1.0871650000    -0.0213150000     0.0130440000
| 13>  C        2.5416120000    -0.0790150000    -0.0319700000
| 14>  C        3.1092500000    -1.2917700000    -0.8090830000
| 15>  C        3.3551310000    -0.7396070000    -2.1815680000
| 16>  C        3.3341780000     0.5894220000    -2.1816730000
| 17>  C        3.0657650000     1.1401890000    -0.8123450000
| 18>  H        0.7156070000    -0.8513280000     0.4604680000
| 19>  H        0.7182820000    -0.0104350000    -0.9326050000
| 20>  H        2.8964150000    -0.0724270000     1.0014440000
| 21>  H        2.4139230000    -2.1376720000    -0.7944300000
| 22>  H        4.0481580000    -1.6510050000    -0.3670990000
| 23>  H        3.5551400000    -1.3592350000    -3.0483020000
| 24>  H        3.5206560000     1.2147400000    -3.0472910000
| 25>  H        2.3333940000     1.9520360000    -0.7959530000
| 26>  H        3.9876240000     1.5373300000    -0.3701370000
| 27> *
| 28>
| 29>                          ****END OF INPUT****
 Total Charge           Charge          ....    0
 Multiplicity           Mult            ....    1
 Number of Electrons    NEL             ....   46
 Basis Dimension        Dim             ....  129

MULLIKEN ATOMIC CHARGES
-----------------------
   0 N :   -0.157126
   1 C :   -0.098101
   2 C :    0.102350
   3 C :   -0.073573
   4 C :   -0.070425
   5 C :    0.092650
   6 H :    0.084058
   7 H :    0.083448
   8 H :   -0.002445
   9 H :   -0.001261
  10 H :    0.017248
  11 H :   -0.010614
  12 H :   -0.010232
  13 H :    0.020462
  14 H :    0.023562
Sum of atomic charges:    0.0000000

LOEWDIN ATOMIC CHARGES
----------------------
   0 N :   -0.093332
   1 C :    0.011909
   2 C :   -0.057982
   3 C :   -0.045597
   4 C :   -0.042910
   5 C :   -0.042527
   6 H :    0.048293
   7 H :    0.049708
   8 H :    0.017834
   9 H :    0.019583
  10 H :    0.031343
  11 H :    0.019653
  12 H :    0.020795
  13 H :    0.028689
  14 H :    0.034542

  Mayer bond orders larger than 0.1
B(  0-N ,  1-C ) :   1.1131 B(  0-N ,  6-H ) :   0.9667 B(  0-N ,  7-H ) :   0.9670
B(  1-C ,  2-C ) :   1.0287 B(  1-C ,  5-C ) :   1.0610 B(  1-C ,  8-H ) :   0.9168
B(  2-C ,  3-C ) :   1.0154 B(  2-C ,  9-H ) :   0.9253 B(  2-C , 10-H ) :   0.9005
B(  3-C ,  4-C ) :   1.8589 B(  3-C , 11-H ) :   0.9820 B(  4-C ,  5-C ) :   1.0277
B(  4-C , 12-H ) :   0.9844 B(  5-C , 13-H ) :   0.9238 B(  5-C , 14-H ) :   0.9106

FINAL SINGLE POINT ENERGY      -250.156128508462

DIPOLE MOMENT
-------------
                                X             Y             Z
Electronic contribution:      0.20904       0.27730      -0.86774
Nuclear contribution   :     -0.13209      -0.65659       0.72886
                        -----------------------------------------
Total Dipole Moment    :      0.07694      -0.37929      -0.13888
                        -----------------------------------------
Magnitude (a.u.)       :      0.41118
Magnitude (Debye)      :      1.04514

                             ****ORCA TERMINATED NORMALLY****
TOTAL RUN TIME: 0 days 0 hours 0 minutes 6 seconds 433 msec
