                         Program Version 3.0.3 - RELEASE   -
|  1> ! RI PBE def2-SVP def2-SVP/J NBO PAL2
|  2> % maxcore 2000
|  3> % output
|  4>     # printlevel mini
|  5>     print[ P_Basis ] 0
|  6>     print[ P_SCFInfo ] 1
|  7>     print[ P_SCFIterInfo ] 1
|  8>     print[ P_OrbEn ] 0
|  9>     print[ P_Cartesian ] 0
| 10> end
| 11> *xyz 0 1
| 12>  N        1.0904450000     0.0181470000    -0.0286430000
| 13>  C        2.5564810000     0.0053030000    -0.0276600000
| 14>  C        3.0942030000    -1.2655440000     0.6513130000
| 15>  C        3.3894590000    -0.8725820000     2.1065890000
| 16>  C        3.5073990000     0.6197600000     2.0309540000
| 17>  C        3.0742640000     1.0958610000     0.8705200000
| 18>  H        0.7364320000    -0.5958220000    -0.7535370000
| 19>  H        0.7461300000     0.9475080000    -0.2397180000
| 20>  H        2.9681890000     0.1035150000    -1.0436990000
| 21>  H        4.0231060000    -1.5687390000     0.1614760000
| 22>  H        2.3860970000    -2.0920370000     0.5668340000
| 23>  H        4.2954360000    -1.3501820000     2.4907740000
| 24>  H        2.5763860000    -1.1534100000     2.7859090000
| 25>  H        3.8739350000     1.2261390000     2.8520080000
| 26>  H        3.0294290000     2.1457710000     0.6011810000
| 27> *
| 28>
| 29>                          ****END OF INPUT****
 Total Charge           Charge          ....    0
 Multiplicity           Mult            ....    1
 Number of Electrons    NEL             ....   46
 Basis Dimension        Dim             ....  129

MULLIKEN ATOMIC CHARGES
-----------------------
   0 N :   -0.179662
   1 C :   -0.014279
   2 C :    0.043828
   3 C :    0.057494
   4 C :   -0.069246
   5 C :   -0.028534
   6 H :    0.084116
   7 H :    0.080751
   8 H :   -0.010382
   9 H :    0.008406
  10 H :   -0.001095
  11 H :    0.016184
  12 H :    0.032702
  13 H :   -0.008345
  14 H :   -0.011938
Sum of atomic charges:    0.0000000

LOEWDIN ATOMIC CHARGES
----------------------
   0 N :   -0.109141
   1 C :    0.001922
   2 C :   -0.035616
   3 C :   -0.038949
   4 C :   -0.020893
   5 C :   -0.046571
   6 H :    0.048923
   7 H :    0.048151
   8 H :    0.000922
   9 H :    0.025284
  10 H :    0.022994
  11 H :    0.027155
  12 H :    0.036550
  13 H :    0.020962
  14 H :    0.018306

  Mayer bond orders larger than 0.1
B(  0-N ,  1-C ) :   1.0410 B(  0-N ,  6-H ) :   0.9619 B(  0-N ,  7-H ) :   0.9619
B(  1-C ,  2-C ) :   1.0706 B(  1-C ,  5-C ) :   1.0083 B(  1-C ,  8-H ) :   0.9076
B(  2-C ,  3-C ) :   1.0930 B(  2-C ,  9-H ) :   0.9293 B(  2-C , 10-H ) :   0.9247
B(  3-C ,  4-C ) :   1.0421 B(  3-C , 11-H ) :   0.9335 B(  3-C , 12-H ) :   0.9102
B(  4-C ,  5-C ) :   1.8770 B(  4-C , 13-H ) :   0.9809 B(  5-C , 14-H ) :   0.9852

FINAL SINGLE POINT ENERGY      -250.152729855722

DIPOLE MOMENT
-------------
                                X             Y             Z
Electronic contribution:      0.04860       1.55112       0.26357
Nuclear contribution   :     -0.02757      -1.46977      -0.63189
                        -----------------------------------------
Total Dipole Moment    :      0.02102       0.08135      -0.36833
                        -----------------------------------------
Magnitude (a.u.)       :      0.37779
Magnitude (Debye)      :      0.96026

                             ****ORCA TERMINATED NORMALLY****
TOTAL RUN TIME: 0 days 0 hours 0 minutes 6 seconds 139 msec
