                         Program Version 3.0.3 - RELEASE   -
|  1> ! RI PBE def2-SVP def2-SVP/J NBO PAL2
|  2> % maxcore 2000
|  3> % output
|  4>     # printlevel mini
|  5>     print[ P_Basis ] 0
|  6>     print[ P_SCFInfo ] 1
|  7>     print[ P_SCFIterInfo ] 1
|  8>     print[ P_OrbEn ] 0
|  9>     print[ P_Cartesian ] 0
| 10> end
| 11> *xyz 0 1
| 12>  N        1.1147160000    -0.1997310000     0.2528890000
| 13>  C        2.3209160000    -0.0389770000    -0.1169840000
| 14>  C        3.1769190000     1.2126500000    -0.1576160000
| 15>  C        4.4225410000     0.7925540000    -0.9355430000
| 16>  C        4.5029830000    -0.7132910000    -0.6809740000
| 17>  N        3.1105450000    -1.0670490000    -0.5501570000
| 18>  H        0.7004480000     0.6914250000     0.5067430000
| 19>  H        3.4233790000     1.4878110000     0.8730890000
| 20>  H        2.6395670000     2.0508860000    -0.6023040000
| 21>  H        5.3276510000     1.3169870000    -0.6281870000
| 22>  H        4.2735370000     0.9711990000    -2.0028890000
| 23>  H        5.0746480000    -0.9282650000     0.2337570000
| 24>  H        4.9765700000    -1.2520550000    -1.5050960000
| 25>  H        2.8038910000    -2.0115430000    -0.3891080000
| 26> *
| 27>
| 28>                          ****END OF INPUT****
 Total Charge           Charge          ....    0
 Multiplicity           Mult            ....    1
 Number of Electrons    NEL             ....   46
 Basis Dimension        Dim             ....  124

MULLIKEN ATOMIC CHARGES
-----------------------
   0 N :   -0.106428
   1 C :   -0.170825
   2 C :    0.028174
   3 C :   -0.041193
   4 C :    0.127526
   5 N :   -0.159845
   6 H :    0.077289
   7 H :    0.034333
   8 H :    0.025829
   9 H :    0.013488
  10 H :    0.032991
  11 H :    0.015414
  12 H :    0.017230
  13 H :    0.106017
Sum of atomic charges:   -0.0000000

LOEWDIN ATOMIC CHARGES
----------------------
   0 N :   -0.193011
   1 C :   -0.005301
   2 C :   -0.059211
   3 C :   -0.040028
   4 C :    0.027722
   5 N :   -0.008204
   6 H :    0.043824
   7 H :    0.039850
   8 H :    0.034400
   9 H :    0.026710
  10 H :    0.031642
  11 H :    0.010403
  12 H :    0.020769
  13 H :    0.070433

  Mayer bond orders larger than 0.1
B(  0-N ,  1-C ) :   1.9852 B(  0-N ,  6-H ) :   0.9260 B(  1-C ,  2-C ) :   0.9721
B(  1-C ,  5-N ) :   1.1904 B(  2-C ,  3-C ) :   1.1077 B(  2-C ,  7-H ) :   0.9123
B(  2-C ,  8-H ) :   0.9276 B(  3-C ,  4-C ) :   1.0861 B(  3-C ,  9-H ) :   0.9338
B(  3-C , 10-H ) :   0.9374 B(  4-C ,  5-N ) :   1.0091 B(  4-C , 11-H ) :   0.9351
B(  4-C , 12-H ) :   0.9422 B(  5-N , 13-H ) :   0.9300

FINAL SINGLE POINT ENERGY      -266.207571595554

DIPOLE MOMENT
-------------
                                X             Y             Z
Electronic contribution:     -2.99877      -1.88968       0.46096
Nuclear contribution   :      4.03752       2.20689      -0.58030
                        -----------------------------------------
Total Dipole Moment    :      1.03875       0.31721      -0.11934
                        -----------------------------------------
Magnitude (a.u.)       :      1.09264
Magnitude (Debye)      :      2.77726

                             ****ORCA TERMINATED NORMALLY****
TOTAL RUN TIME: 0 days 0 hours 0 minutes 6 seconds 18 msec
