                         Program Version 3.0.3 - RELEASE   -
|  1> ! RI PBE def2-SVP def2-SVP/J NBO PAL2
|  2> % maxcore 2000
|  3> % output
|  4>     # printlevel mini
|  5>     print[ P_Basis ] 0
|  6>     print[ P_SCFInfo ] 1
|  7>     print[ P_SCFIterInfo ] 1
|  8>     print[ P_OrbEn ] 0
|  9>     print[ P_Cartesian ] 0
| 10> end
| 11> *xyz 0 1
| 12>  N        0.9140920000    -0.1036410000     0.0929780000
| 13>  C        2.1750170000     0.0024640000     0.0897230000
| 14>  C        3.0304040000     1.2174440000     0.0897690000
| 15>  C        4.2921650000     0.7822970000     0.0854510000
| 16>  C        4.2067760000    -0.6959290000     0.0827700000
| 17>  N        3.0092210000    -1.1490230000     0.0851640000
| 18>  H        0.4866910000     0.8230370000     0.0959790000
| 19>  H        2.6636070000     2.2338510000     0.0927780000
| 20>  H        5.2039630000     1.3631750000     0.0840930000
| 21>  H        5.0633640000    -1.3633750000     0.0791040000
| 22> *
| 23>
| 24>                          ****END OF INPUT****
 Total Charge           Charge          ....    0
 Multiplicity           Mult            ....    1
 Number of Electrons    NEL             ....   42
 Basis Dimension        Dim             ....  104

MULLIKEN ATOMIC CHARGES
-----------------------
   0 N :    0.037783
   1 C :   -0.131969
   2 C :    0.027500
   3 C :   -0.005443
   4 C :    0.064673
   5 N :   -0.098982
   6 H :    0.102844
   7 H :   -0.010191
   8 H :    0.002395
   9 H :    0.011390
Sum of atomic charges:    0.0000000

LOEWDIN ATOMIC CHARGES
----------------------
   0 N :   -0.018461
   1 C :    0.002765
   2 C :   -0.046122
   3 C :   -0.033808
   4 C :    0.039382
   5 N :   -0.086101
   6 H :    0.060616
   7 H :    0.030318
   8 H :    0.030006
   9 H :    0.021405

  Mayer bond orders larger than 0.1
B(  0-N ,  1-C ) :   1.9837 B(  0-N ,  4-C ) :   0.1098 B(  0-N ,  6-H ) :   0.9183
B(  1-C ,  2-C ) :   0.9544 B(  1-C ,  5-N ) :   1.1276 B(  2-C ,  3-C ) :   1.6912
B(  2-C ,  7-H ) :   1.0022 B(  3-C ,  4-C ) :   0.9974 B(  3-C ,  8-H ) :   0.9878
B(  4-C ,  5-N ) :   1.8310 B(  4-C ,  9-H ) :   0.9800

FINAL SINGLE POINT ENERGY      -263.763117953690

DIPOLE MOMENT
-------------
                                X             Y             Z
Electronic contribution:     -0.96118      -1.50904      -0.00035
Nuclear contribution   :      1.65634       2.80326       0.00098
                        -----------------------------------------
Total Dipole Moment    :      0.69516       1.29422       0.00063
                        -----------------------------------------
Magnitude (a.u.)       :      1.46910
Magnitude (Debye)      :      3.73415

                             ****ORCA TERMINATED NORMALLY****
TOTAL RUN TIME: 0 days 0 hours 0 minutes 4 seconds 784 msec
