                         Program Version 3.0.3 - RELEASE   -
|  1> ! RI PBE def2-SVP def2-SVP/J NBO PAL2
|  2> % maxcore 2000
|  3> % output
|  4>     # printlevel mini
|  5>     print[ P_Basis ] 0
|  6>     print[ P_SCFInfo ] 1
|  7>     print[ P_SCFIterInfo ] 1
|  8>     print[ P_OrbEn ] 0
|  9>     print[ P_Cartesian ] 0
| 10> end
| 11> *xyz 0 1
| 12>  N        1.0997290000     0.2277370000     0.3657870000
| 13>  C        2.3263800000     0.0813600000     0.0728430000
| 14>  C        3.1918670000    -1.1622540000    -0.0986790000
| 15>  C        4.5434620000    -0.6074790000    -0.4439800000
| 16>  C        4.4517430000     0.7229800000    -0.4629850000
| 17>  N        3.1656080000     1.1467910000    -0.1638530000
| 18>  H        0.6542080000    -0.6744170000     0.5016980000
| 19>  H        2.7766510000    -1.8025800000    -0.8836390000
| 20>  H        3.1915860000    -1.7493690000     0.8253930000
| 21>  H        5.4312340000    -1.1865880000    -0.6415260000
| 22>  H        5.2209570000     1.4524450000    -0.6723580000
| 23>  H        2.8499850000     2.0984740000    -0.1169320000
| 24> *
| 25>
| 26>                          ****END OF INPUT****
 Total Charge           Charge          ....    0
 Multiplicity           Mult            ....    1
 Number of Electrons    NEL             ....   44
 Basis Dimension        Dim             ....  114

MULLIKEN ATOMIC CHARGES
-----------------------
   0 N :   -0.087011
   1 C :   -0.188119
   2 C :    0.115406
   3 C :   -0.154177
   4 C :    0.110682
   5 N :   -0.085454
   6 H :    0.083768
   7 H :    0.052263
   8 H :    0.050916
   9 H :   -0.007221
  10 H :    0.000191
  11 H :    0.108755
Sum of atomic charges:   -0.0000000

LOEWDIN ATOMIC CHARGES
----------------------
   0 N :   -0.175419
   1 C :    0.010279
   2 C :   -0.054064
   3 C :   -0.103969
   4 C :    0.012635
   5 N :    0.037151
   6 H :    0.048529
   7 H :    0.049200
   8 H :    0.049148
   9 H :    0.023258
  10 H :    0.024749
  11 H :    0.078503

  Mayer bond orders larger than 0.1
B(  0-N ,  1-C ) :   1.9983 B(  0-N ,  6-H ) :   0.9264 B(  1-C ,  2-C ) :   0.9697
B(  1-C ,  5-N ) :   1.1486 B(  2-C ,  3-C ) :   1.0491 B(  2-C ,  7-H ) :   0.9026
B(  2-C ,  8-H ) :   0.9017 B(  3-C ,  4-C ) :   1.7340 B(  3-C ,  9-H ) :   0.9895
B(  4-C ,  5-N ) :   1.0985 B(  4-C , 10-H ) :   0.9839 B(  5-N , 11-H ) :   0.9315

FINAL SINGLE POINT ENERGY      -264.994039472916

DIPOLE MOMENT
-------------
                                X             Y             Z
Electronic contribution:     -0.76365       1.98835       0.12075
Nuclear contribution   :      1.43189      -2.13644      -0.28152
                        -----------------------------------------
Total Dipole Moment    :      0.66824      -0.14809      -0.16076
                        -----------------------------------------
Magnitude (a.u.)       :      0.70308
Magnitude (Debye)      :      1.78708

                             ****ORCA TERMINATED NORMALLY****
TOTAL RUN TIME: 0 days 0 hours 0 minutes 5 seconds 577 msec
