                         Program Version 3.0.3 - RELEASE   -
|  1> ! RI PBE def2-SVP def2-SVP/J NBO PAL2
|  2> % maxcore 2000
|  3> % output
|  4>     # printlevel mini
|  5>     print[ P_Basis ] 0
|  6>     print[ P_SCFInfo ] 1
|  7>     print[ P_SCFIterInfo ] 1
|  8>     print[ P_OrbEn ] 0
|  9>     print[ P_Cartesian ] 0
| 10> end
| 11> *xyz 0 1
| 12>  N        0.9782170000    -0.1595000000    -0.1942090000
| 13>  C        2.3691730000     0.0330510000    -0.1160310000
| 14>  C        3.1694380000     1.1436770000     0.0113020000
| 15>  C        4.5157150000     0.6990980000    -0.0051100000
| 16>  C        4.4963060000    -0.6654340000    -0.1344470000
| 17>  N        3.1901360000    -1.0532440000    -0.2051250000
| 18>  H        0.5342220000     0.5686410000    -0.7352210000
| 19>  H        0.5392940000    -0.1888510000     0.7177120000
| 20>  H        2.8206760000     2.1598020000     0.1156170000
| 21>  H        5.4002380000     1.3114240000     0.0762230000
| 22>  H        5.2996040000    -1.3825570000    -0.1800800000
| 23>  H        2.8498800000    -1.9857080000    -0.3577320000
| 24> *
| 25>
| 26>                          ****END OF INPUT****
 Total Charge           Charge          ....    0
 Multiplicity           Mult            ....    1
 Number of Electrons    NEL             ....   44
 Basis Dimension        Dim             ....  114

MULLIKEN ATOMIC CHARGES
-----------------------
   0 N :   -0.107952
   1 C :   -0.037340
   2 C :   -0.074269
   3 C :   -0.020654
   4 C :    0.039351
   5 N :   -0.032516
   6 H :    0.109523
   7 H :    0.113553
   8 H :   -0.050774
   9 H :   -0.025827
  10 H :   -0.014991
  11 H :    0.101895
Sum of atomic charges:   -0.0000000

LOEWDIN ATOMIC CHARGES
----------------------
   0 N :   -0.076677
   1 C :   -0.034946
   2 C :   -0.115110
   3 C :   -0.086666
   4 C :   -0.047871
   5 N :    0.096906
   6 H :    0.067298
   7 H :    0.065594
   8 H :    0.017483
   9 H :    0.020601
  10 H :    0.015353
  11 H :    0.078035

  Mayer bond orders larger than 0.1
B(  0-N ,  1-C ) :   1.1910 B(  0-N ,  6-H ) :   0.9608 B(  0-N ,  7-H ) :   0.9562
B(  1-C ,  2-C ) :   1.4502 B(  1-C ,  4-C ) :   0.1090 B(  1-C ,  5-N ) :   1.2264
B(  2-C ,  3-C ) :   1.2745 B(  2-C ,  8-H ) :   1.0268 B(  3-C ,  4-C ) :   1.4775
B(  3-C ,  9-H ) :   0.9993 B(  4-C ,  5-N ) :   1.2092 B(  4-C , 10-H ) :   0.9891
B(  5-N , 11-H ) :   0.9326

FINAL SINGLE POINT ENERGY      -265.006626715826

DIPOLE MOMENT
-------------
                                X             Y             Z
Electronic contribution:      0.31195      -0.90788      -0.14317
Nuclear contribution   :     -0.83536       0.58102       0.26774
                        -----------------------------------------
Total Dipole Moment    :     -0.52341      -0.32686       0.12457
                        -----------------------------------------
Magnitude (a.u.)       :      0.62953
Magnitude (Debye)      :      1.60015

                             ****ORCA TERMINATED NORMALLY****
TOTAL RUN TIME: 0 days 0 hours 0 minutes 5 seconds 392 msec
