                         Program Version 3.0.3 - RELEASE   -
|  1> ! RI PBE def2-SVP def2-SVP/J NBO PAL2
|  2> % maxcore 2000
|  3> % output
|  4>     # printlevel mini
|  5>     print[ P_Basis ] 0
|  6>     print[ P_SCFInfo ] 1
|  7>     print[ P_SCFIterInfo ] 1
|  8>     print[ P_OrbEn ] 0
|  9>     print[ P_Cartesian ] 0
| 10> end
| 11> *xyz 0 1
| 12>  N        0.9980920000    -0.0148580000     0.2948690000
| 13>  C        2.4323240000     0.0500050000     0.0876290000
| 14>  C        3.1984350000     1.2758530000     0.6594020000
| 15>  C        4.2465150000     0.6783690000     1.5975350000
| 16>  N        4.4610160000    -0.6417320000     1.0264140000
| 17>  C        3.1308490000    -1.1424930000     0.7454700000
| 18>  H        0.5289820000     0.7345990000    -0.1979600000
| 19>  H        0.7758140000     0.0897750000     1.2785460000
| 20>  H        2.5979400000     0.0016170000    -0.9913770000
| 21>  H        2.5194210000     1.9565840000     1.1776850000
| 22>  H        3.6792790000     1.8366960000    -0.1445870000
| 23>  H        3.8467060000     0.6333830000     2.6258820000
| 24>  H        5.1764720000     1.2507330000     1.6280640000
| 25>  H        4.9875220000    -1.2514860000     1.6377150000
| 26>  H        2.5675180000    -1.4113900000     1.6585360000
| 27>  H        3.1575160000    -2.0226540000     0.1004760000
| 28> *
| 29>
| 30>                          ****END OF INPUT****
 Total Charge           Charge          ....    0
 Multiplicity           Mult            ....    1
 Number of Electrons    NEL             ....   48
 Basis Dimension        Dim             ....  134

MULLIKEN ATOMIC CHARGES
-----------------------
   0 N :   -0.165342
   1 C :   -0.132659
   2 C :    0.075505
   3 C :    0.095130
   4 N :   -0.273733
   5 C :    0.173660
   6 H :    0.088841
   7 H :    0.079984
   8 H :    0.009995
   9 H :   -0.022008
  10 H :    0.007028
  11 H :   -0.021856
  12 H :    0.006806
  13 H :    0.097332
  14 H :   -0.029889
  15 H :    0.011207
Sum of atomic charges:   -0.0000000

LOEWDIN ATOMIC CHARGES
----------------------
   0 N :   -0.091881
   1 C :   -0.004773
   2 C :   -0.062351
   3 C :    0.011716
   4 N :   -0.105407
   5 C :    0.011050
   6 H :    0.050794
   7 H :    0.043916
   8 H :    0.024926
   9 H :    0.015425
  10 H :    0.026010
  11 H :   -0.005014
  12 H :    0.016969
  13 H :    0.053135
  14 H :   -0.004910
  15 H :    0.020395

  Mayer bond orders larger than 0.1
B(  0-N ,  1-C ) :   1.1128 B(  0-N ,  6-H ) :   0.9676 B(  0-N ,  7-H ) :   0.9637
B(  1-C ,  2-C ) :   1.0671 B(  1-C ,  5-C ) :   1.0880 B(  1-C ,  8-H ) :   0.8935
B(  2-C ,  3-C ) :   1.1416 B(  2-C ,  9-H ) :   0.9155 B(  2-C , 10-H ) :   0.9095
B(  3-C ,  4-N ) :   1.0555 B(  3-C , 11-H ) :   0.9023 B(  3-C , 12-H ) :   0.9360
B(  4-N ,  5-C ) :   1.0612 B(  4-N , 13-H ) :   0.9422 B(  5-C , 14-H ) :   0.9041
B(  5-C , 15-H ) :   0.9298

FINAL SINGLE POINT ENERGY      -267.381991878789

DIPOLE MOMENT
-------------
                                X             Y             Z
Electronic contribution:      0.58609      -1.04437      -0.78656
Nuclear contribution   :     -0.63206       1.37627       1.20842
                        -----------------------------------------
Total Dipole Moment    :     -0.04597       0.33190       0.42186
                        -----------------------------------------
Magnitude (a.u.)       :      0.53873
Magnitude (Debye)      :      1.36935

                             ****ORCA TERMINATED NORMALLY****
TOTAL RUN TIME: 0 days 0 hours 0 minutes 6 seconds 749 msec
