                         Program Version 3.0.3 - RELEASE   -
|  1> ! RI PBE def2-SVP def2-SVP/J NBO PAL2
|  2> % maxcore 2000
|  3> % output
|  4>     # printlevel mini
|  5>     print[ P_Basis ] 0
|  6>     print[ P_SCFInfo ] 1
|  7>     print[ P_SCFIterInfo ] 1
|  8>     print[ P_OrbEn ] 0
|  9>     print[ P_Cartesian ] 0
| 10> end
| 11> *xyz 0 1
| 12>  N        1.0064160000    -0.0711570000    -0.0029910000
| 13>  C        2.4450570000    -0.0257420000     0.0077800000
| 14>  C        3.2482880000     1.0397640000     0.8000970000
| 15>  C        4.2507910000    -0.0589830000     1.2021620000
| 16>  N        5.4588920000    -0.0199960000     0.4017660000
| 17>  C        3.1698640000    -1.1072910000     0.8246730000
| 18>  H        0.6177650000     0.6917370000    -0.5436970000
| 19>  H        0.6392370000     0.0085600000     0.9383520000
| 20>  H        2.7814540000    -0.0487400000    -1.0333760000
| 21>  H        2.6752810000     1.3961310000     1.6601940000
| 22>  H        3.6549410000     1.8995230000     0.2626090000
| 23>  H        4.5495870000    -0.0614720000     2.2524450000
| 24>  H        5.2365010000     0.0165610000    -0.5865030000
| 25>  H        6.0071040000    -0.8598580000     0.5470200000
| 26>  H        2.5702080000    -1.3938120000     1.6944040000
| 27>  H        3.4952170000    -2.0138240000     0.3094640000
| 28> *
| 29>
| 30>                          ****END OF INPUT****
 Total Charge           Charge          ....    0
 Multiplicity           Mult            ....    1
 Number of Electrons    NEL             ....   48
 Basis Dimension        Dim             ....  134

MULLIKEN ATOMIC CHARGES
-----------------------
   0 N :   -0.129439
   1 C :   -0.174667
   2 C :    0.150100
   3 C :   -0.164134
   4 N :   -0.133295
   5 C :    0.151863
   6 H :    0.090046
   7 H :    0.078693
   8 H :    0.001535
   9 H :   -0.018475
  10 H :    0.002211
  11 H :    0.000213
  12 H :    0.075530
  13 H :    0.089680
  14 H :   -0.013761
  15 H :   -0.006098
Sum of atomic charges:    0.0000000

LOEWDIN ATOMIC CHARGES
----------------------
   0 N :   -0.091955
   1 C :   -0.004899
   2 C :   -0.055598
   3 C :    0.003091
   4 N :   -0.092798
   5 C :   -0.053978
   6 H :    0.053039
   7 H :    0.046900
   8 H :    0.017419
   9 H :    0.020324
  10 H :    0.014379
  11 H :    0.011765
  12 H :    0.047039
  13 H :    0.051756
  14 H :    0.021707
  15 H :    0.011810

  Mayer bond orders larger than 0.1
B(  0-N ,  1-C ) :   1.1602 B(  0-N ,  6-H ) :   0.9652 B(  0-N ,  7-H ) :   0.9561
B(  1-C ,  2-C ) :   1.0423 B(  1-C ,  5-C ) :   1.0603 B(  1-C ,  8-H ) :   0.9064
B(  2-C ,  3-C ) :   1.0850 B(  2-C ,  9-H ) :   0.8908 B(  2-C , 10-H ) :   0.9198
B(  3-C ,  4-N ) :   1.1196 B(  3-C ,  5-C ) :   1.0355 B(  3-C , 11-H ) :   0.9145
B(  4-N , 12-H ) :   0.9668 B(  4-N , 13-H ) :   0.9654 B(  5-C , 14-H ) :   0.8934
B(  5-C , 15-H ) :   0.9175

FINAL SINGLE POINT ENERGY      -267.363390314304

DIPOLE MOMENT
-------------
                                X             Y             Z
Electronic contribution:      0.13341      -0.00730      -0.25907
Nuclear contribution   :     -0.32238       0.03565       0.23663
                        -----------------------------------------
Total Dipole Moment    :     -0.18897       0.02835      -0.02244
                        -----------------------------------------
Magnitude (a.u.)       :      0.19240
Magnitude (Debye)      :      0.48903

                             ****ORCA TERMINATED NORMALLY****
TOTAL RUN TIME: 0 days 0 hours 0 minutes 6 seconds 239 msec
