                         Program Version 3.0.3 - RELEASE   -
|  1> ! RI PBE def2-SVP def2-SVP/J NBO PAL2
|  2> % maxcore 2000
|  3> % output
|  4>     # printlevel mini
|  5>     print[ P_Basis ] 0
|  6>     print[ P_SCFInfo ] 1
|  7>     print[ P_SCFIterInfo ] 1
|  8>     print[ P_OrbEn ] 0
|  9>     print[ P_Cartesian ] 0
| 10> end
| 11> *xyz 0 1
| 12>  N        0.8614420000     0.0151120000     0.0184470000
| 13>  C        2.2379380000     0.0051400000     0.0237840000
| 14>  C        3.0823790000     1.0938060000     0.0273310000
| 15>  N        4.3733910000     0.6162870000     0.0321370000
| 16>  C        4.3658480000    -0.7367160000     0.0317330000
| 17>  C        3.0570580000    -1.1556640000     0.0265990000
| 18>  H        0.3492880000     0.8729460000     0.0172960000
| 19>  H        0.3484580000    -0.8418070000     0.0168450000
| 20>  H        2.8712890000     2.1505330000     0.0268090000
| 21>  H        5.1945140000     1.1902170000     0.0354350000
| 22>  H        5.2809400000    -1.3066310000     0.0350770000
| 23>  H        2.7202550000    -2.1812420000     0.0250090000
| 24> *
| 25>
| 26>                          ****END OF INPUT****
 Total Charge           Charge          ....    0
 Multiplicity           Mult            ....    1
 Number of Electrons    NEL             ....   44
 Basis Dimension        Dim             ....  114

MULLIKEN ATOMIC CHARGES
-----------------------
   0 N :   -0.080823
   1 C :    0.041443
   2 C :   -0.065401
   3 N :   -0.048137
   4 C :    0.041060
   5 C :   -0.083383
   6 H :    0.096129
   7 H :    0.098198
   8 H :   -0.038405
   9 H :    0.107868
  10 H :   -0.018128
  11 H :   -0.050422
Sum of atomic charges:   -0.0000000

LOEWDIN ATOMIC CHARGES
----------------------
   0 N :   -0.030214
   1 C :   -0.032127
   2 C :   -0.110170
   3 N :    0.095453
   4 C :   -0.042338
   5 C :   -0.126255
   6 H :    0.063307
   7 H :    0.064288
   8 H :    0.008198
   9 H :    0.078975
  10 H :    0.014396
  11 H :    0.016487

  Mayer bond orders larger than 0.1
B(  0-N ,  1-C ) :   1.2087 B(  0-N ,  6-H ) :   0.9575 B(  0-N ,  7-H ) :   0.9574
B(  1-C ,  2-C ) :   1.4115 B(  1-C ,  5-C ) :   1.3020 B(  2-C ,  3-N ) :   1.1594
B(  2-C ,  4-C ) :   0.1073 B(  2-C ,  8-H ) :   0.9979 B(  3-N ,  4-C ) :   1.2664
B(  3-N ,  9-H ) :   0.9448 B(  4-C ,  5-C ) :   1.4202 B(  4-C , 10-H ) :   0.9799
B(  5-C , 11-H ) :   1.0127

FINAL SINGLE POINT ENERGY      -265.001176439652

DIPOLE MOMENT
-------------
                                X             Y             Z
Electronic contribution:      0.95039       0.42983       0.00355
Nuclear contribution   :     -0.95455      -0.05019      -0.00273
                        -----------------------------------------
Total Dipole Moment    :     -0.00416       0.37964       0.00081
                        -----------------------------------------
Magnitude (a.u.)       :      0.37967
Magnitude (Debye)      :      0.96504

                             ****ORCA TERMINATED NORMALLY****
TOTAL RUN TIME: 0 days 0 hours 0 minutes 5 seconds 372 msec
