                         Program Version 3.0.3 - RELEASE   -
|  1> ! RI PBE def2-SVP def2-SVP/J NBO PAL2
|  2> % maxcore 2000
|  3> % output
|  4>     # printlevel mini
|  5>     print[ P_Basis ] 0
|  6>     print[ P_SCFInfo ] 1
|  7>     print[ P_SCFIterInfo ] 1
|  8>     print[ P_OrbEn ] 0
|  9>     print[ P_Cartesian ] 0
| 10> end
| 11> *xyz 0 1
| 12>  N        1.0591870000     0.0607070000    -0.3966980000
| 13>  C        2.3011330000     0.0373800000    -0.1078940000
| 14>  N        3.1440730000    -1.0194680000     0.1467800000
| 15>  C        4.4916660000    -0.6118570000     0.4357780000
| 16>  C        4.3922970000     0.8764520000     0.3288950000
| 17>  C        3.1489240000     1.2345070000     0.0209390000
| 18>  H        0.6642390000    -0.8772960000    -0.4352830000
| 19>  H        2.8447260000    -1.9761680000     0.1314070000
| 20>  H        5.2179010000    -1.0187600000    -0.2820200000
| 21>  H        4.8196970000    -0.9217840000     1.4380630000
| 22>  H        5.2392370000     1.5297510000     0.4881360000
| 23>  H        2.7582120000     2.2304360000    -0.1255840000
| 24> *
| 25>
| 26>                          ****END OF INPUT****
 Total Charge           Charge          ....    0
 Multiplicity           Mult            ....    1
 Number of Electrons    NEL             ....   44
 Basis Dimension        Dim             ....  114

MULLIKEN ATOMIC CHARGES
-----------------------
   0 N :   -0.090953
   1 C :   -0.075492
   2 N :   -0.207131
   3 C :    0.211499
   4 C :   -0.096743
   5 C :    0.030881
   6 H :    0.070235
   7 H :    0.100404
   8 H :    0.035498
   9 H :    0.030762
  10 H :    0.006067
  11 H :   -0.015027
Sum of atomic charges:   -0.0000000

LOEWDIN ATOMIC CHARGES
----------------------
   0 N :   -0.183096
   1 C :   -0.004511
   2 N :   -0.024729
   3 C :    0.033539
   4 C :   -0.026385
   5 C :   -0.022591
   6 H :    0.038197
   7 H :    0.065468
   8 H :    0.031140
   9 H :    0.030101
  10 H :    0.027997
  11 H :    0.034870

  Mayer bond orders larger than 0.1
B(  0-N ,  1-C ) :   1.9715 B(  0-N ,  6-H ) :   0.9272 B(  1-C ,  2-N ) :   1.1324
B(  1-C ,  5-C ) :   0.9959 B(  2-N ,  3-C ) :   1.0239 B(  2-N ,  7-H ) :   0.9406
B(  3-C ,  4-C ) :   1.0266 B(  3-C ,  8-H ) :   0.9129 B(  3-C ,  9-H ) :   0.9118
B(  4-C ,  5-C ) :   1.7782 B(  4-C , 10-H ) :   0.9832 B(  5-C , 11-H ) :   1.0135

FINAL SINGLE POINT ENERGY      -264.990509267731

DIPOLE MOMENT
-------------
                                X             Y             Z
Electronic contribution:     -1.75147       0.40838      -0.42893
Nuclear contribution   :      2.87268      -1.24880       0.73544
                        -----------------------------------------
Total Dipole Moment    :      1.12121      -0.84043       0.30651
                        -----------------------------------------
Magnitude (a.u.)       :      1.43435
Magnitude (Debye)      :      3.64584

                             ****ORCA TERMINATED NORMALLY****
TOTAL RUN TIME: 0 days 0 hours 0 minutes 5 seconds 547 msec
