                         Program Version 3.0.3 - RELEASE   -
|  1> ! RI PBE def2-SVP def2-SVP/J NBO PAL2
|  2> % maxcore 2000
|  3> % output
|  4>     # printlevel mini
|  5>     print[ P_Basis ] 0
|  6>     print[ P_SCFInfo ] 1
|  7>     print[ P_SCFIterInfo ] 1
|  8>     print[ P_OrbEn ] 0
|  9>     print[ P_Cartesian ] 0
| 10> end
| 11> *xyz 0 1
| 12>  N        3.3884410000    -0.0526170000     0.9235160000
| 13>  C        2.3347770000     0.0504060000    -0.0755450000
| 14>  C        2.8645400000     0.6581320000    -1.3396630000
| 15>  C        1.9234240000     1.3140340000    -2.3109100000
| 16>  C        2.8695080000     2.1545500000    -1.5228430000
| 17>  N        3.9111790000     2.8707270000    -2.1988130000
| 18>  H        3.0401210000    -0.4818840000     1.7715290000
| 19>  H        3.7217680000     0.8710520000     1.1726700000
| 20>  H        1.4620900000     0.6397820000     0.2537950000
| 21>  H        1.9653830000    -0.9607520000    -0.2793340000
| 22>  H        3.7123410000     0.1347520000    -1.7723880000
| 23>  H        0.8689560000     1.3510820000    -2.0632470000
| 24>  H        2.1256110000     1.1926560000    -3.3692840000
| 25>  H        2.4201230000     2.7250790000    -0.7129250000
| 26>  H        4.0781370000     2.4854820000    -3.1189210000
| 27>  H        4.7827900000     2.8196080000    -1.6856590000
| 28> *
| 29>
| 30>                          ****END OF INPUT****
 Total Charge           Charge          ....    0
 Multiplicity           Mult            ....    1
 Number of Electrons    NEL             ....   48
 Basis Dimension        Dim             ....  134

MULLIKEN ATOMIC CHARGES
-----------------------
   0 N :   -0.210139
   1 C :    0.165388
   2 C :   -0.145529
   3 C :   -0.003314
   4 C :   -0.087528
   5 N :   -0.118703
   6 H :    0.085824
   7 H :    0.083466
   8 H :   -0.024298
   9 H :    0.003777
  10 H :    0.008307
  11 H :    0.030478
  12 H :    0.026827
  13 H :    0.013904
  14 H :    0.079586
  15 H :    0.091956
Sum of atomic charges:    0.0000000

LOEWDIN ATOMIC CHARGES
----------------------
   0 N :   -0.113438
   1 C :    0.012651
   2 C :   -0.070084
   3 C :   -0.049637
   4 C :   -0.011314
   5 N :   -0.085614
   6 H :    0.051003
   7 H :    0.048309
   8 H :   -0.001350
   9 H :    0.021775
  10 H :    0.021861
  11 H :    0.026712
  12 H :    0.026017
  13 H :    0.016697
  14 H :    0.051820
  15 H :    0.054591

  Mayer bond orders larger than 0.1
B(  0-N ,  1-C ) :   1.0938 B(  0-N ,  6-H ) :   0.9622 B(  0-N ,  7-H ) :   0.9698
B(  1-C ,  2-C ) :   1.0763 B(  1-C ,  8-H ) :   0.9098 B(  1-C ,  9-H ) :   0.9179
B(  2-C ,  3-C ) :   0.9617 B(  2-C ,  4-C ) :   0.9129 B(  2-C , 10-H ) :   0.9377
B(  3-C ,  4-C ) :   1.0169 B(  3-C , 11-H ) :   0.9363 B(  3-C , 12-H ) :   0.9373
B(  4-C ,  5-N ) :   1.1649 B(  4-C , 13-H ) :   0.9357 B(  5-N , 14-H ) :   0.9600
B(  5-N , 15-H ) :   0.9715

FINAL SINGLE POINT ENERGY      -267.356025124399

DIPOLE MOMENT
-------------
                                X             Y             Z
Electronic contribution:      0.82653       0.68845      -0.44334
Nuclear contribution   :     -0.85791      -0.83359       0.69542
                        -----------------------------------------
Total Dipole Moment    :     -0.03138      -0.14514       0.25208
                        -----------------------------------------
Magnitude (a.u.)       :      0.29257
Magnitude (Debye)      :      0.74365

                             ****ORCA TERMINATED NORMALLY****
TOTAL RUN TIME: 0 days 0 hours 0 minutes 6 seconds 129 msec
