                         Program Version 3.0.3 - RELEASE   -
|  1> ! RI PBE def2-SVP def2-SVP/J NBO PAL2
|  2> % maxcore 2000
|  3> % output
|  4>     # printlevel mini
|  5>     print[ P_Basis ] 0
|  6>     print[ P_SCFInfo ] 1
|  7>     print[ P_SCFIterInfo ] 1
|  8>     print[ P_OrbEn ] 0
|  9>     print[ P_Cartesian ] 0
| 10> end
| 11> *xyz 0 1
| 12>  N        3.4196980000    -0.0445770000    -1.0505860000
| 13>  C        2.4873470000     0.0609320000     0.0618970000
| 14>  C        2.9551600000    -0.7713810000     1.2296690000
| 15>  C        2.0593280000    -0.8731300000     2.4793390000
| 16>  C        2.4706460000    -2.3520760000     2.6044990000
| 17>  C        2.8950000000    -2.3121620000     1.1244450000
| 18>  H        3.1104120000     0.5166980000    -1.8340550000
| 19>  H        3.4643100000    -1.0028710000    -1.3770140000
| 20>  H        1.4566680000    -0.2423040000    -0.1917260000
| 21>  H        2.4388840000     1.1125590000     0.3663010000
| 22>  H        3.9666080000    -0.4596600000     1.5086410000
| 23>  H        1.0031080000    -0.7768090000     2.2106550000
| 24>  H        2.2685870000    -0.2051390000     3.3166670000
| 25>  H        1.7068540000    -3.0736280000     2.8984410000
| 26>  H        3.3335750000    -2.4717350000     3.2631420000
| 27>  H        2.0745510000    -2.6254380000     0.4703620000
| 28>  H        3.8006760000    -2.8476700000     0.8343230000
| 29> *
| 30>
| 31>                          ****END OF INPUT****
 Total Charge           Charge          ....    0
 Multiplicity           Mult            ....    1
 Number of Electrons    NEL             ....   48
 Basis Dimension        Dim             ....  139

MULLIKEN ATOMIC CHARGES
-----------------------
   0 N :   -0.209892
   1 C :    0.152803
   2 C :   -0.214469
   3 C :    0.048764
   4 C :   -0.028176
   5 C :    0.030101
   6 H :    0.087965
   7 H :    0.084722
   8 H :   -0.027831
   9 H :    0.005471
  10 H :    0.003980
  11 H :    0.003021
  12 H :    0.015336
  13 H :    0.010919
  14 H :    0.020157
  15 H :    0.003366
  16 H :    0.013763
Sum of atomic charges:   -0.0000000

LOEWDIN ATOMIC CHARGES
----------------------
   0 N :   -0.111939
   1 C :    0.003937
   2 C :   -0.042447
   3 C :   -0.031926
   4 C :   -0.034924
   5 C :   -0.037871
   6 H :    0.051996
   7 H :    0.049317
   8 H :   -0.006224
   9 H :    0.021405
  10 H :    0.025256
  11 H :    0.021091
  12 H :    0.016151
  13 H :    0.015687
  14 H :    0.025345
  15 H :    0.020234
  16 H :    0.014912

  Mayer bond orders larger than 0.1
B(  0-N ,  1-C ) :   1.0982 B(  0-N ,  6-H ) :   0.9630 B(  0-N ,  7-H ) :   0.9698
B(  1-C ,  2-C ) :   1.0727 B(  1-C ,  8-H ) :   0.9065 B(  1-C ,  9-H ) :   0.9248
B(  2-C ,  3-C ) :   1.0655 B(  2-C ,  5-C ) :   1.0723 B(  2-C , 10-H ) :   0.9044
B(  3-C ,  4-C ) :   1.1234 B(  3-C , 11-H ) :   0.9150 B(  3-C , 12-H ) :   0.9351
B(  4-C ,  5-C ) :   1.1260 B(  4-C , 13-H ) :   0.9343 B(  4-C , 14-H ) :   0.9340
B(  5-C , 15-H ) :   0.9192 B(  5-C , 16-H ) :   0.9335

FINAL SINGLE POINT ENERGY      -251.343359304600

DIPOLE MOMENT
-------------
                                X             Y             Z
Electronic contribution:      0.83404       0.55942      -0.45914
Nuclear contribution   :     -1.17497      -0.67808       0.21070
                        -----------------------------------------
Total Dipole Moment    :     -0.34093      -0.11866      -0.24843
                        -----------------------------------------
Magnitude (a.u.)       :      0.43821
Magnitude (Debye)      :      1.11384

                             ****ORCA TERMINATED NORMALLY****
TOTAL RUN TIME: 0 days 0 hours 0 minutes 6 seconds 519 msec
