                         Program Version 3.0.3 - RELEASE   -
|  1> ! RI PBE def2-SVP def2-SVP/J NBO PAL2
|  2> % maxcore 2000
|  3> % output
|  4>     # printlevel mini
|  5>     print[ P_Basis ] 0
|  6>     print[ P_SCFInfo ] 1
|  7>     print[ P_SCFIterInfo ] 1
|  8>     print[ P_OrbEn ] 0
|  9>     print[ P_Cartesian ] 0
| 10> end
| 11> *xyz 0 1
| 12>  N        0.8925210000     0.0324490000    -0.0921170000
| 13>  C        2.0431390000     0.0330430000    -0.0739320000
| 14>  C        3.4888930000     0.0337540000    -0.0165770000
| 15>  C        4.1981940000     1.1088570000     0.8436280000
| 16>  C        5.2189040000     0.0326740000     1.2562040000
| 17>  C        4.1994520000    -1.0433410000     0.8400900000
| 18>  H        3.8829360000     0.0356600000    -1.0359650000
| 19>  H        3.5669670000     1.4096290000     1.6807760000
| 20>  H        4.5544860000     1.9990080000     0.3260060000
| 21>  H        5.5590310000     0.0311650000     2.2912540000
| 22>  H        6.0919010000     0.0342620000     0.6004320000
| 23>  H        3.5685900000    -1.3475920000     1.6762570000
| 24>  H        4.5567780000    -1.9313690000     0.3195450000
| 25> *
| 26>
| 27>                          ****END OF INPUT****
 Total Charge           Charge          ....    0
 Multiplicity           Mult            ....    1
 Number of Electrons    NEL             ....   44
 Basis Dimension        Dim             ....  119

MULLIKEN ATOMIC CHARGES
-----------------------
   0 N :    0.080588
   1 C :   -0.150954
   2 C :   -0.259383
   3 C :    0.062280
   4 C :   -0.016656
   5 C :    0.062131
   6 H :    0.052126
   7 H :    0.028675
   8 H :    0.032323
   9 H :    0.024045
  10 H :    0.023743
  11 H :    0.028693
  12 H :    0.032389
Sum of atomic charges:    0.0000000

LOEWDIN ATOMIC CHARGES
----------------------
   0 N :   -0.069163
   1 C :   -0.046217
   2 C :   -0.061945
   3 C :   -0.007776
   4 C :   -0.032627
   5 C :   -0.007797
   6 H :    0.054923
   7 H :    0.034371
   8 H :    0.024540
   9 H :    0.023597
  10 H :    0.029163
  11 H :    0.034379
  12 H :    0.024550

  Mayer bond orders larger than 0.1
B(  0-N ,  1-C ) :   3.0595 B(  1-C ,  2-C ) :   1.1251 B(  2-C ,  3-C ) :   1.0933
B(  2-C ,  5-C ) :   1.0934 B(  2-C ,  6-H ) :   0.8488 B(  3-C ,  4-C ) :   1.1305
B(  3-C ,  7-H ) :   0.9187 B(  3-C ,  8-H ) :   0.9330 B(  4-C ,  5-C ) :   1.1305
B(  4-C ,  9-H ) :   0.9394 B(  4-C , 10-H ) :   0.9270 B(  5-C , 11-H ) :   0.9187
B(  5-C , 12-H ) :   0.9330

FINAL SINGLE POINT ENERGY      -248.943519419532

DIPOLE MOMENT
-------------
                                X             Y             Z
Electronic contribution:     -6.02548       0.00011      -2.17281
Nuclear contribution   :      7.57648       0.00043       2.34860
                        -----------------------------------------
Total Dipole Moment    :      1.55100       0.00054       0.17578
                        -----------------------------------------
Magnitude (a.u.)       :      1.56093
Magnitude (Debye)      :      3.96756

                             ****ORCA TERMINATED NORMALLY****
TOTAL RUN TIME: 0 days 0 hours 0 minutes 5 seconds 456 msec
