                         Program Version 3.0.3 - RELEASE   -
|  1> ! RI PBE def2-SVP def2-SVP/J NBO PAL2
|  2> % maxcore 2000
|  3> % output
|  4>     # printlevel mini
|  5>     print[ P_Basis ] 0
|  6>     print[ P_SCFInfo ] 1
|  7>     print[ P_SCFIterInfo ] 1
|  8>     print[ P_OrbEn ] 0
|  9>     print[ P_Cartesian ] 0
| 10> end
| 11> *xyz 0 1
| 12>  N        3.1002730000    -1.0298890000     0.5497930000
| 13>  C        2.3231800000     0.0732590000     0.0109230000
| 14>  C        3.1410880000     1.3377090000    -0.0098600000
| 15>  C        2.4675210000     2.6239210000    -0.5124970000
| 16>  C        2.9830480000     3.2800660000     0.7772850000
| 17>  N        3.4122000000     1.9644610000     1.3165410000
| 18>  H        2.5290830000    -1.8559560000     0.6707810000
| 19>  H        3.4795860000    -0.7882400000     1.4573220000
| 20>  H        1.3864920000     0.2782060000     0.5603160000
| 21>  H        2.0373710000    -0.1711610000    -1.0188590000
| 22>  H        4.0906660000     1.1294830000    -0.5149830000
| 23>  H        1.3779530000     2.5391600000    -0.5408420000
| 24>  H        2.8169420000     3.0322860000    -1.4617200000
| 25>  H        2.2485050000     3.8136260000     1.3847850000
| 26>  H        3.8425030000     3.9386720000     0.6244660000
| 27>  H        2.7341300000     1.6346980000     1.9962390000
| 28> *
| 29>
| 30>                          ****END OF INPUT****
 Total Charge           Charge          ....    0
 Multiplicity           Mult            ....    1
 Number of Electrons    NEL             ....   48
 Basis Dimension        Dim             ....  134

MULLIKEN ATOMIC CHARGES
-----------------------
   0 N :   -0.208843
   1 C :    0.152074
   2 C :   -0.094394
   3 C :    0.025483
   4 C :    0.087260
   5 N :   -0.247971
   6 H :    0.087539
   7 H :    0.090594
   8 H :   -0.033279
   9 H :    0.004550
  10 H :    0.014470
  11 H :   -0.003565
  12 H :    0.009840
  13 H :    0.011589
  14 H :    0.020806
  15 H :    0.083847
Sum of atomic charges:   -0.0000000

LOEWDIN ATOMIC CHARGES
----------------------
   0 N :   -0.110406
   1 C :   -0.001783
   2 C :    0.009396
   3 C :   -0.045387
   4 C :    0.026554
   5 N :   -0.126423
   6 H :    0.052709
   7 H :    0.051847
   8 H :   -0.009182
   9 H :    0.024432
  10 H :    0.019932
  11 H :    0.021733
  12 H :    0.018046
  13 H :    0.011210
  14 H :    0.016339
  15 H :    0.040984

  Mayer bond orders larger than 0.1
B(  0-N ,  1-C ) :   1.0992 B(  0-N ,  6-H ) :   0.9640 B(  0-N ,  7-H ) :   0.9661
B(  1-C ,  2-C ) :   1.0778 B(  1-C ,  8-H ) :   0.8907 B(  1-C ,  9-H ) :   0.9192
B(  2-C ,  3-C ) :   1.0779 B(  2-C ,  5-N ) :   1.0637 B(  2-C , 10-H ) :   0.9002
B(  3-C ,  4-C ) :   1.1284 B(  3-C , 11-H ) :   0.8941 B(  3-C , 12-H ) :   0.9315
B(  4-C ,  5-N ) :   1.0703 B(  4-C , 13-H ) :   0.9399 B(  4-C , 14-H ) :   0.9336
B(  5-N , 15-H ) :   0.9336

FINAL SINGLE POINT ENERGY      -267.350113676717

DIPOLE MOMENT
-------------
                                X             Y             Z
Electronic contribution:      1.39987      -0.26002       0.74576
Nuclear contribution   :     -2.22176       0.22074      -0.57326
                        -----------------------------------------
Total Dipole Moment    :     -0.82189      -0.03928       0.17250
                        -----------------------------------------
Magnitude (a.u.)       :      0.84072
Magnitude (Debye)      :      2.13693

                             ****ORCA TERMINATED NORMALLY****
TOTAL RUN TIME: 0 days 0 hours 0 minutes 6 seconds 185 msec
