                         Program Version 3.0.3 - RELEASE   -
|  1> ! RI PBE def2-SVP def2-SVP/J NBO PAL2
|  2> % maxcore 2000
|  3> % output
|  4>     # printlevel mini
|  5>     print[ P_Basis ] 0
|  6>     print[ P_SCFInfo ] 1
|  7>     print[ P_SCFIterInfo ] 1
|  8>     print[ P_OrbEn ] 0
|  9>     print[ P_Cartesian ] 0
| 10> end
| 11> *xyz 0 1
| 12>  N        1.0802820000    -0.2374340000     0.8414630000
| 13>  C        2.1368000000    -0.0660500000     0.4187260000
| 14>  C        3.4909210000     0.1115010000    -0.1037770000
| 15>  C        4.2979920000     1.1957590000     0.6502960000
| 16>  C        4.9361520000     0.0309850000     1.4230770000
| 17>  N        4.4629830000    -0.8844290000     0.3688380000
| 18>  H        3.4303050000     0.2039960000    -1.1918300000
| 19>  H        3.7284140000     1.9303500000     1.2142140000
| 20>  H        4.9976040000     1.6952930000    -0.0178610000
| 21>  H        4.4613970000    -0.1248330000     2.3985570000
| 22>  H        6.0201720000     0.0454780000     1.5497700000
| 23>  H        4.0762890000    -1.7689160000     0.6724270000
| 24> *
| 25>
| 26>                          ****END OF INPUT****
 Total Charge           Charge          ....    0
 Multiplicity           Mult            ....    1
 Number of Electrons    NEL             ....   44
 Basis Dimension        Dim             ....  114

MULLIKEN ATOMIC CHARGES
-----------------------
   0 N :    0.058796
   1 C :   -0.152663
   2 C :   -0.109444
   3 C :   -0.001534
   4 C :    0.112326
   5 N :   -0.214297
   6 H :    0.058966
   7 H :    0.042552
   8 H :    0.040480
   9 H :    0.025046
  10 H :    0.030011
  11 H :    0.109761
Sum of atomic charges:   -0.0000000

LOEWDIN ATOMIC CHARGES
----------------------
   0 N :   -0.063269
   1 C :   -0.062289
   2 C :   -0.005402
   3 C :   -0.015844
   4 C :    0.031978
   5 N :   -0.082398
   6 H :    0.041378
   7 H :    0.031733
   8 H :    0.036987
   9 H :    0.014259
  10 H :    0.017689
  11 H :    0.055179

  Mayer bond orders larger than 0.1
B(  0-N ,  1-C ) :   3.0627 B(  1-C ,  2-C ) :   1.0037 B(  2-C ,  3-C ) :   1.0996
B(  2-C ,  5-N ) :   1.1236 B(  2-C ,  6-H ) :   0.8863 B(  3-C ,  4-C ) :   1.0981
B(  3-C ,  7-H ) :   0.9440 B(  3-C ,  8-H ) :   0.9181 B(  4-C ,  5-N ) :   1.0391
B(  4-C ,  9-H ) :   0.9338 B(  4-C , 10-H ) :   0.9432 B(  5-N , 11-H ) :   0.9416

FINAL SINGLE POINT ENERGY      -264.950199040001

DIPOLE MOMENT
-------------
                                X             Y             Z
Electronic contribution:     -4.55313      -1.48502      -0.94351
Nuclear contribution   :      5.64777       1.74529       0.89068
                        -----------------------------------------
Total Dipole Moment    :      1.09463       0.26027      -0.05284
                        -----------------------------------------
Magnitude (a.u.)       :      1.12639
Magnitude (Debye)      :      2.86306

                             ****ORCA TERMINATED NORMALLY****
TOTAL RUN TIME: 0 days 0 hours 0 minutes 5 seconds 368 msec
