                         Program Version 3.0.3 - RELEASE   -
|  1> ! RI PBE def2-SVP def2-SVP/J NBO PAL2
|  2> % maxcore 2000
|  3> % output
|  4>     # printlevel mini
|  5>     print[ P_Basis ] 0
|  6>     print[ P_SCFInfo ] 1
|  7>     print[ P_SCFIterInfo ] 1
|  8>     print[ P_OrbEn ] 0
|  9>     print[ P_Cartesian ] 0
| 10> end
| 11> *xyz 0 1
| 12>  N        2.4908540000    -1.3738570000     0.0277850000
| 13>  C        2.2905440000     0.0674690000     0.0132730000
| 14>  C        2.8193420000     0.6901880000     1.2795230000
| 15>  C        2.6020490000     2.1950020000     1.5108890000
| 16>  N        2.3057520000     1.9060680000     2.9225430000
| 17>  C        2.0331040000     0.4994450000     2.5922430000
| 18>  H        2.1574440000    -1.7913870000    -0.8317600000
| 19>  H        1.9604500000    -1.7946470000     0.7816950000
| 20>  H        1.2371640000     0.3690600000    -0.1158600000
| 21>  H        2.8405770000     0.4757440000    -0.8419350000
| 22>  H        3.8674010000     0.4155980000     1.4159550000
| 23>  H        1.7407860000     2.5672730000     0.9370130000
| 24>  H        3.4505390000     2.8649150000     1.3477700000
| 25>  H        1.5348710000     2.4217060000     3.3264420000
| 26>  H        0.9723300000     0.2826150000     2.3923120000
| 27>  H        2.4114050000    -0.2230020000     3.3206230000
| 28> *
| 29>
| 30>                          ****END OF INPUT****
 Total Charge           Charge          ....    0
 Multiplicity           Mult            ....    1
 Number of Electrons    NEL             ....   48
 Basis Dimension        Dim             ....  134

MULLIKEN ATOMIC CHARGES
-----------------------
   0 N :   -0.212311
   1 C :    0.154128
   2 C :   -0.267290
   3 C :    0.177903
   4 N :   -0.275774
   5 C :    0.155459
   6 H :    0.088020
   7 H :    0.087514
   8 H :   -0.024739
   9 H :    0.005256
  10 H :    0.021947
  11 H :   -0.013451
  12 H :    0.013508
  13 H :    0.092212
  14 H :   -0.016473
  15 H :    0.014089
Sum of atomic charges:   -0.0000000

LOEWDIN ATOMIC CHARGES
----------------------
   0 N :   -0.111195
   1 C :    0.006007
   2 C :   -0.048253
   3 C :    0.029736
   4 N :   -0.113068
   5 C :    0.022795
   6 H :    0.052552
   7 H :    0.049963
   8 H :   -0.006724
   9 H :    0.022466
  10 H :    0.030622
  11 H :    0.001106
  12 H :    0.010398
  13 H :    0.044835
  14 H :   -0.000786
  15 H :    0.009548

  Mayer bond orders larger than 0.1
B(  0-N ,  1-C ) :   1.0908 B(  0-N ,  6-H ) :   0.9629 B(  0-N ,  7-H ) :   0.9710
B(  1-C ,  2-C ) :   1.0636 B(  1-C ,  8-H ) :   0.9066 B(  1-C ,  9-H ) :   0.9248
B(  2-C ,  3-C ) :   1.0555 B(  2-C ,  5-C ) :   1.0669 B(  2-C , 10-H ) :   0.8966
B(  3-C ,  4-N ) :   1.0509 B(  3-C , 11-H ) :   0.9188 B(  3-C , 12-H ) :   0.9359
B(  4-N ,  5-C ) :   1.0591 B(  4-N , 13-H ) :   0.9422 B(  5-C , 14-H ) :   0.9171
B(  5-C , 15-H ) :   0.9360

FINAL SINGLE POINT ENERGY      -267.351015309856

DIPOLE MOMENT
-------------
                                X             Y             Z
Electronic contribution:      0.90020       0.62812       1.50073
Nuclear contribution   :     -1.69805      -0.70302      -1.83979
                        -----------------------------------------
Total Dipole Moment    :     -0.79785      -0.07491      -0.33906
                        -----------------------------------------
Magnitude (a.u.)       :      0.87014
Magnitude (Debye)      :      2.21171

                             ****ORCA TERMINATED NORMALLY****
TOTAL RUN TIME: 0 days 0 hours 0 minutes 6 seconds 635 msec
