                         Program Version 3.0.3 - RELEASE   -
|  1> ! RI PBE def2-SVP def2-SVP/J NBO PAL2
|  2> % maxcore 2000
|  3> % output
|  4>     # printlevel mini
|  5>     print[ P_Basis ] 0
|  6>     print[ P_SCFInfo ] 1
|  7>     print[ P_SCFIterInfo ] 1
|  8>     print[ P_OrbEn ] 0
|  9>     print[ P_Cartesian ] 0
| 10> end
| 11> *xyz 0 1
| 12>  N        0.9288920000     0.0758940000    -0.0218950000
| 13>  C        2.0793190000     0.0772160000    -0.0257050000
| 14>  C        3.5230310000     0.0787940000    -0.0108560000
| 15>  C        4.2539520000     1.1242020000     0.8617630000
| 16>  N        5.2173640000     0.0770670000     1.2258520000
| 17>  C        4.2563030000    -0.9700740000     0.8556180000
| 18>  H        3.9032190000     0.0822210000    -1.0334330000
| 19>  H        3.6151910000     1.4652560000     1.6852060000
| 20>  H        4.6765800000     1.9881440000     0.3456320000
| 21>  H        5.5204760000     0.0745770000     2.1906400000
| 22>  H        3.6183150000    -1.3173880000     1.6770400000
| 23>  H        4.6808660000    -1.8300210000     0.3344280000
| 24> *
| 25>
| 26>                          ****END OF INPUT****
 Total Charge           Charge          ....    0
 Multiplicity           Mult            ....    1
 Number of Electrons    NEL             ....   44
 Basis Dimension        Dim             ....  114

MULLIKEN ATOMIC CHARGES
-----------------------
   0 N :    0.067922
   1 C :   -0.136477
   2 C :   -0.308747
   3 C :    0.196097
   4 N :   -0.278491
   5 C :    0.195968
   6 H :    0.066246
   7 H :    0.015963
   8 H :    0.031314
   9 H :    0.102851
  10 H :    0.015982
  11 H :    0.031372
Sum of atomic charges:   -0.0000000

LOEWDIN ATOMIC CHARGES
----------------------
   0 N :   -0.064859
   1 C :   -0.046139
   2 C :   -0.066255
   3 C :    0.052730
   4 N :   -0.108086
   5 C :    0.052711
   6 H :    0.059349
   7 H :    0.014667
   8 H :    0.019069
   9 H :    0.053060
  10 H :    0.014677
  11 H :    0.019077

  Mayer bond orders larger than 0.1
B(  0-N ,  1-C ) :   3.0569 B(  1-C ,  2-C ) :   1.0796 B(  2-C ,  3-C ) :   1.0690
B(  2-C ,  5-C ) :   1.0692 B(  2-C ,  6-H ) :   0.8553 B(  3-C ,  4-N ) :   1.0490
B(  3-C ,  7-H ) :   0.9273 B(  3-C ,  8-H ) :   0.9367 B(  4-N ,  5-C ) :   1.0490
B(  4-N ,  9-H ) :   0.9425 B(  5-C , 10-H ) :   0.9273 B(  5-C , 11-H ) :   0.9367

FINAL SINGLE POINT ENERGY      -264.950568078738

DIPOLE MOMENT
-------------
                                X             Y             Z
Electronic contribution:     -3.88654       0.00016      -1.54641
Nuclear contribution   :      5.08124      -0.00008       1.97946
                        -----------------------------------------
Total Dipole Moment    :      1.19471       0.00007       0.43305
                        -----------------------------------------
Magnitude (a.u.)       :      1.27077
Magnitude (Debye)      :      3.23004

                             ****ORCA TERMINATED NORMALLY****
TOTAL RUN TIME: 0 days 0 hours 0 minutes 5 seconds 328 msec
