                         Program Version 3.0.3 - RELEASE   -
|  1> ! RI PBE def2-SVP def2-SVP/J NBO PAL2
|  2> % maxcore 2000
|  3> % output
|  4>     # printlevel mini
|  5>     print[ P_Basis ] 0
|  6>     print[ P_SCFInfo ] 1
|  7>     print[ P_SCFIterInfo ] 1
|  8>     print[ P_OrbEn ] 0
|  9>     print[ P_Cartesian ] 0
| 10> end
| 11> *xyz 0 1
| 12>  N        2.7950960000    -0.8054810000    -1.3019700000
| 13>  C        2.4041790000    -0.0371000000    -0.1328560000
| 14>  C        2.9079920000    -0.6198530000     1.1740350000
| 15>  N        2.4694960000     0.0592900000     2.3622970000
| 16>  C        3.0897790000    -2.0994530000     1.3169850000
| 17>  C        4.2853980000    -1.1930270000     1.2360570000
| 18>  H        2.7163460000    -0.2475070000    -2.1410100000
| 19>  H        2.1937210000    -1.6098000000    -1.4235540000
| 20>  H        1.3126760000     0.0952900000    -0.0399270000
| 21>  H        2.8273390000     0.9692970000    -0.2346270000
| 22>  H        1.4571590000     0.0724690000     2.4179150000
| 23>  H        2.7861200000     1.0224730000     2.3626540000
| 24>  H        2.8949240000    -2.7365340000     0.4632920000
| 25>  H        2.8418620000    -2.5235840000     2.2813470000
| 26>  H        4.8504240000    -1.2130100000     0.3128430000
| 27>  H        4.8464690000    -1.0185380000     2.1449370000
| 28> *
| 29>
| 30>                          ****END OF INPUT****
 Total Charge           Charge          ....    0
 Multiplicity           Mult            ....    1
 Number of Electrons    NEL             ....   48
 Basis Dimension        Dim             ....  134

MULLIKEN ATOMIC CHARGES
-----------------------
   0 N :   -0.204513
   1 C :    0.166519
   2 C :   -0.252041
   3 N :   -0.134489
   4 C :   -0.005145
   5 C :    0.014805
   6 H :    0.089439
   7 H :    0.091797
   8 H :   -0.020951
   9 H :   -0.011086
  10 H :    0.086069
  11 H :    0.086213
  12 H :    0.017778
  13 H :    0.022503
  14 H :    0.028935
  15 H :    0.024165
Sum of atomic charges:    0.0000000

LOEWDIN ATOMIC CHARGES
----------------------
   0 N :   -0.102438
   1 C :    0.000444
   2 C :   -0.047039
   3 N :   -0.073906
   4 C :   -0.047097
   5 C :   -0.044005
   6 H :    0.054855
   7 H :    0.051481
   8 H :   -0.003964
   9 H :    0.017875
  10 H :    0.048957
  11 H :    0.050886
  12 H :    0.019169
  13 H :    0.025747
  14 H :    0.024162
  15 H :    0.024872

  Mayer bond orders larger than 0.1
B(  0-N ,  1-C ) :   1.0974 B(  0-N ,  6-H ) :   0.9622 B(  0-N ,  7-H ) :   0.9645
B(  1-C ,  2-C ) :   0.9956 B(  1-C ,  8-H ) :   0.9223 B(  1-C ,  9-H ) :   0.9182
B(  2-C ,  3-N ) :   1.1391 B(  2-C ,  4-C ) :   0.9928 B(  2-C ,  5-C ) :   0.9776
B(  3-N , 10-H ) :   0.9687 B(  3-N , 11-H ) :   0.9701 B(  4-C ,  5-C ) :   1.0397
B(  4-C , 12-H ) :   0.9377 B(  4-C , 13-H ) :   0.9350 B(  5-C , 14-H ) :   0.9317
B(  5-C , 15-H ) :   0.9377

FINAL SINGLE POINT ENERGY      -267.360679158946

DIPOLE MOMENT
-------------
                                X             Y             Z
Electronic contribution:      0.16788       0.07687       0.69303
Nuclear contribution   :     -0.83539       0.35352      -1.23237
                        -----------------------------------------
Total Dipole Moment    :     -0.66750       0.43039      -0.53934
                        -----------------------------------------
Magnitude (a.u.)       :      0.96004
Magnitude (Debye)      :      2.44023

                             ****ORCA TERMINATED NORMALLY****
TOTAL RUN TIME: 0 days 0 hours 0 minutes 6 seconds 454 msec
