                         Program Version 3.0.3 - RELEASE   -
|  1> ! RI PBE def2-SVP def2-SVP/J NBO PAL2
|  2> % maxcore 2000
|  3> % output
|  4>     # printlevel mini
|  5>     print[ P_Basis ] 0
|  6>     print[ P_SCFInfo ] 1
|  7>     print[ P_SCFIterInfo ] 1
|  8>     print[ P_OrbEn ] 0
|  9>     print[ P_Cartesian ] 0
| 10> end
| 11> *xyz 0 1
| 12>  N        0.7502800000    -0.0048740000     0.1367090000
| 13>  C        2.1589990000    -0.0159120000    -0.2294900000
| 14>  C        3.0087450000    -0.5202660000     0.9237630000
| 15>  C        4.4706570000    -0.6029060000     0.5836740000
| 16>  C        5.3444100000     0.6092880000     0.7041840000
| 17>  C        5.5046210000    -0.5324040000     1.6632500000
| 18>  H        0.1801330000     0.3011080000    -0.6416090000
| 19>  H        0.5895870000     0.6515320000     0.8918180000
| 20>  H        2.5441370000     0.9641840000    -0.5527580000
| 21>  H        2.2784580000    -0.6934440000    -1.0818580000
| 22>  H        2.6313830000    -1.5004660000     1.2336870000
| 23>  H        2.8808190000     0.1475310000     1.7859870000
| 24>  H        4.7032370000    -1.2669910000    -0.2444750000
| 25>  H        4.8885400000     1.5196840000     1.0769000000
| 26>  H        6.1181450000     0.7695650000    -0.0363580000
| 27>  H        5.1575110000    -0.3905210000     2.6802010000
| 28>  H        6.3868270000    -1.1543070000     1.5759860000
| 29> *
| 30>
| 31>                          ****END OF INPUT****
 Total Charge           Charge          ....    0
 Multiplicity           Mult            ....    1
 Number of Electrons    NEL             ....   48
 Basis Dimension        Dim             ....  139

MULLIKEN ATOMIC CHARGES
-----------------------
   0 N :   -0.206354
   1 C :    0.060695
   2 C :    0.075580
   3 C :   -0.165455
   4 C :   -0.036260
   5 C :   -0.029842
   6 H :    0.087356
   7 H :    0.084676
   8 H :   -0.012955
   9 H :    0.004411
  10 H :    0.012435
  11 H :   -0.015874
  12 H :    0.020335
  13 H :    0.026292
  14 H :    0.033299
  15 H :    0.029682
  16 H :    0.031981
Sum of atomic charges:    0.0000000

LOEWDIN ATOMIC CHARGES
----------------------
   0 N :   -0.114669
   1 C :    0.005066
   2 C :   -0.039334
   3 C :   -0.044342
   4 C :   -0.050359
   5 C :   -0.048092
   6 H :    0.052046
   7 H :    0.048282
   8 H :   -0.002274
   9 H :    0.019482
  10 H :    0.027870
  11 H :    0.019669
  12 H :    0.025805
  13 H :    0.023010
  14 H :    0.026281
  15 H :    0.025098
  16 H :    0.026461

  Mayer bond orders larger than 0.1
B(  0-N ,  1-C ) :   1.0921 B(  0-N ,  6-H ) :   0.9637 B(  0-N ,  7-H ) :   0.9704
B(  1-C ,  2-C ) :   1.0956 B(  1-C ,  8-H ) :   0.9316 B(  1-C ,  9-H ) :   0.9303
B(  2-C ,  3-C ) :   1.0776 B(  2-C , 10-H ) :   0.9208 B(  2-C , 11-H ) :   0.9162
B(  3-C ,  4-C ) :   0.9940 B(  3-C ,  5-C ) :   0.9906 B(  3-C , 12-H ) :   0.9426
B(  4-C ,  5-C ) :   1.0464 B(  4-C , 13-H ) :   0.9486 B(  4-C , 14-H ) :   0.9483
B(  5-C , 15-H ) :   0.9487 B(  5-C , 16-H ) :   0.9445

FINAL SINGLE POINT ENERGY      -251.339443443918

DIPOLE MOMENT
-------------
                                X             Y             Z
Electronic contribution:     -0.19168      -0.58940      -0.07216
Nuclear contribution   :      0.18894       1.02322      -0.08421
                        -----------------------------------------
Total Dipole Moment    :     -0.00274       0.43382      -0.15637
                        -----------------------------------------
Magnitude (a.u.)       :      0.46115
Magnitude (Debye)      :      1.17214

                             ****ORCA TERMINATED NORMALLY****
TOTAL RUN TIME: 0 days 0 hours 0 minutes 6 seconds 635 msec
