                         Program Version 3.0.3 - RELEASE   -
|  1> ! RI PBE def2-SVP def2-SVP/J NBO PAL2
|  2> % maxcore 2000
|  3> % output
|  4>     # printlevel mini
|  5>     print[ P_Basis ] 0
|  6>     print[ P_SCFInfo ] 1
|  7>     print[ P_SCFIterInfo ] 1
|  8>     print[ P_OrbEn ] 0
|  9>     print[ P_Cartesian ] 0
| 10> end
| 11> *xyz 0 1
| 12>  N        3.9671970000     1.5854120000    -2.0057300000
| 13>  C        3.8919460000     0.8922430000    -1.0917640000
| 14>  C        3.8101470000     0.0046880000     0.0612420000
| 15>  C        4.4579030000    -1.3356540000    -0.1898680000
| 16>  C        3.9956840000    -2.5222410000     0.5951300000
| 17>  C        3.6818390000    -2.4188010000    -0.8671980000
| 18>  H        2.7533780000    -0.1292690000     0.3133150000
| 19>  H        4.2772680000     0.5091860000     0.9132450000
| 20>  H        5.5165990000    -1.2824060000    -0.4178470000
| 21>  H        3.1838420000    -2.3773590000     1.2985100000
| 22>  H        4.7377340000    -3.2431600000     0.9135220000
| 23>  H        2.6589090000    -2.2024230000    -1.1521160000
| 24>  H        4.2076440000    -3.0687160000    -1.5545200000
| 25> *
| 26>
| 27>                          ****END OF INPUT****
 Total Charge           Charge          ....    0
 Multiplicity           Mult            ....    1
 Number of Electrons    NEL             ....   44
 Basis Dimension        Dim             ....  119

MULLIKEN ATOMIC CHARGES
-----------------------
   0 N :    0.050970
   1 C :   -0.270838
   2 C :    0.144132
   3 C :   -0.182262
   4 C :   -0.031027
   5 C :   -0.012184
   6 H :    0.034602
   7 H :    0.055839
   8 H :    0.045959
   9 H :    0.036543
  10 H :    0.044832
  11 H :    0.038169
  12 H :    0.045266
Sum of atomic charges:   -0.0000000

LOEWDIN ATOMIC CHARGES
----------------------
   0 N :   -0.067568
   1 C :   -0.043198
   2 C :   -0.048681
   3 C :   -0.036028
   4 C :   -0.043346
   5 C :   -0.037916
   6 H :    0.057417
   7 H :    0.060082
   8 H :    0.035293
   9 H :    0.028379
  10 H :    0.032247
  11 H :    0.029779
  12 H :    0.033539

  Mayer bond orders larger than 0.1
B(  0-N ,  1-C ) :   3.0602 B(  1-C ,  2-C ) :   1.1156 B(  2-C ,  3-C ) :   1.0815
B(  2-C ,  6-H ) :   0.8794 B(  2-C ,  7-H ) :   0.8847 B(  3-C ,  4-C ) :   0.9970
B(  3-C ,  5-C ) :   0.9925 B(  3-C ,  8-H ) :   0.9454 B(  4-C ,  5-C ) :   1.0497
B(  4-C ,  9-H ) :   0.9430 B(  4-C , 10-H ) :   0.9449 B(  5-C , 11-H ) :   0.9472
B(  5-C , 12-H ) :   0.9495

FINAL SINGLE POINT ENERGY      -248.938854594547

DIPOLE MOMENT
-------------
                                X             Y             Z
Electronic contribution:      0.32473       5.64760      -2.88860
Nuclear contribution   :     -0.37408      -6.65666       3.98686
                        -----------------------------------------
Total Dipole Moment    :     -0.04934      -1.00906       1.09826
                        -----------------------------------------
Magnitude (a.u.)       :      1.49225
Magnitude (Debye)      :      3.79301

                             ****ORCA TERMINATED NORMALLY****
TOTAL RUN TIME: 0 days 0 hours 0 minutes 5 seconds 617 msec
