                         Program Version 3.0.3 - RELEASE   -
|  1> ! RI PBE def2-SVP def2-SVP/J NBO PAL2
|  2> % maxcore 2000
|  3> % output
|  4>     # printlevel mini
|  5>     print[ P_Basis ] 0
|  6>     print[ P_SCFInfo ] 1
|  7>     print[ P_SCFIterInfo ] 1
|  8>     print[ P_OrbEn ] 0
|  9>     print[ P_Cartesian ] 0
| 10> end
| 11> *xyz 0 1
| 12>  N        0.9197780000     0.0397640000     0.0698150000
| 13>  C        2.3142080000    -0.2087840000    -0.2614550000
| 14>  C        3.1865870000    -0.0855880000     0.9763950000
| 15>  C        4.6287100000    -0.4069300000     0.7083840000
| 16>  C        5.5800800000     0.6563250000     0.3322000000
| 17>  N        5.6663550000     0.0136100000     1.6423380000
| 18>  H        0.3293080000    -0.0939240000    -0.7411760000
| 19>  H        0.7937180000     0.9997380000     0.3684410000
| 20>  H        2.7125810000     0.4535500000    -1.0462420000
| 21>  H        2.3895820000    -1.2305310000    -0.6480010000
| 22>  H        2.7881580000    -0.7504180000     1.7502520000
| 23>  H        3.1174130000     0.9371940000     1.3714220000
| 24>  H        4.8046270000    -1.4019830000     0.3046090000
| 25>  H        5.1963840000     1.6713230000     0.2757930000
| 26>  H        6.4066570000     0.4454950000    -0.3376720000
| 27>  H        5.2636430000     0.6171670000     2.3522870000
| 28> *
| 29>
| 30>                          ****END OF INPUT****
 Total Charge           Charge          ....    0
 Multiplicity           Mult            ....    1
 Number of Electrons    NEL             ....   48
 Basis Dimension        Dim             ....  134

MULLIKEN ATOMIC CHARGES
-----------------------
   0 N :   -0.207367
   1 C :    0.061079
   2 C :    0.072757
   3 C :   -0.130771
   4 C :    0.036062
   5 N :   -0.184980
   6 H :    0.088993
   7 H :    0.085592
   8 H :   -0.006792
   9 H :    0.006895
  10 H :    0.025229
  11 H :   -0.027049
  12 H :    0.020082
  13 H :    0.022086
  14 H :    0.035703
  15 H :    0.102481
Sum of atomic charges:    0.0000000

LOEWDIN ATOMIC CHARGES
----------------------
   0 N :   -0.113256
   1 C :    0.007450
   2 C :   -0.052094
   3 C :   -0.008595
   4 C :   -0.004559
   5 N :   -0.101908
   6 H :    0.053345
   7 H :    0.048910
   8 H :   -0.001027
   9 H :    0.020990
  10 H :    0.031169
  11 H :    0.016805
  12 H :    0.020758
  13 H :    0.011785
  14 H :    0.020274
  15 H :    0.049954

  Mayer bond orders larger than 0.1
B(  0-N ,  1-C ) :   1.0852 B(  0-N ,  6-H ) :   0.9641 B(  0-N ,  7-H ) :   0.9701
B(  1-C ,  2-C ) :   1.0872 B(  1-C ,  8-H ) :   0.9322 B(  1-C ,  9-H ) :   0.9315
B(  2-C ,  3-C ) :   1.0615 B(  2-C , 10-H ) :   0.9203 B(  2-C , 11-H ) :   0.9042
B(  3-C ,  4-C ) :   1.0466 B(  3-C ,  5-N ) :   0.9931 B(  3-C , 12-H ) :   0.9297
B(  4-C ,  5-N ) :   1.0148 B(  4-C , 13-H ) :   0.9392 B(  4-C , 14-H ) :   0.9427
B(  5-N , 15-H ) :   0.9491

FINAL SINGLE POINT ENERGY      -267.349345759506

DIPOLE MOMENT
-------------
                                X             Y             Z
Electronic contribution:      2.05418      -0.69376       1.37508
Nuclear contribution   :     -2.60143       1.34233      -1.88199
                        -----------------------------------------
Total Dipole Moment    :     -0.54724       0.64857      -0.50692
                        -----------------------------------------
Magnitude (a.u.)       :      0.98847
Magnitude (Debye)      :      2.51250

                             ****ORCA TERMINATED NORMALLY****
TOTAL RUN TIME: 0 days 0 hours 0 minutes 6 seconds 500 msec
