                         Program Version 3.0.3 - RELEASE   -
|  1> ! RI PBE def2-SVP def2-SVP/J NBO PAL2
|  2> % maxcore 2000
|  3> % output
|  4>     # printlevel mini
|  5>     print[ P_Basis ] 0
|  6>     print[ P_SCFInfo ] 1
|  7>     print[ P_SCFIterInfo ] 1
|  8>     print[ P_OrbEn ] 0
|  9>     print[ P_Cartesian ] 0
| 10> end
| 11> *xyz 0 1
| 12>  N        2.0796960000    -0.6679750000     1.9529520000
| 13>  C        2.7623550000    -0.3980270000     1.0686980000
| 14>  C        3.6289090000    -0.0503290000    -0.0504290000
| 15>  C        4.3078380000     1.2866850000     0.1268220000
| 16>  C        4.6120740000     2.0964400000    -1.0667930000
| 17>  N        3.5824220000     2.5190200000    -0.1226130000
| 18>  H        3.0268330000    -0.0507550000    -0.9651310000
| 19>  H        4.3767180000    -0.8422970000    -0.1613060000
| 20>  H        4.9768790000     1.3388750000     0.9807660000
| 21>  H        4.3078370000     1.7010860000    -2.0318310000
| 22>  H        5.4997740000     2.7183310000    -1.0896090000
| 23>  H        2.6537660000     2.3291440000    -0.4854360000
| 24> *
| 25>
| 26>                          ****END OF INPUT****
 Total Charge           Charge          ....    0
 Multiplicity           Mult            ....    1
 Number of Electrons    NEL             ....   44
 Basis Dimension        Dim             ....  114

MULLIKEN ATOMIC CHARGES
-----------------------
   0 N :    0.054402
   1 C :   -0.254569
   2 C :    0.117147
   3 C :   -0.126795
   4 C :    0.038568
   5 N :   -0.171990
   6 H :    0.034941
   7 H :    0.066522
   8 H :    0.050418
   9 H :    0.031457
  10 H :    0.047919
  11 H :    0.111981
Sum of atomic charges:    0.0000000

LOEWDIN ATOMIC CHARGES
----------------------
   0 N :   -0.058819
   1 C :   -0.047114
   2 C :   -0.062254
   3 C :    0.000587
   4 C :    0.005918
   5 N :   -0.090154
   6 H :    0.055605
   7 H :    0.066460
   8 H :    0.031159
   9 H :    0.016038
  10 H :    0.026553
  11 H :    0.056023

  Mayer bond orders larger than 0.1
B(  0-N ,  1-C ) :   3.0627 B(  1-C ,  2-C ) :   1.0942 B(  2-C ,  3-C ) :   1.0615
B(  2-C ,  6-H ) :   0.8895 B(  2-C ,  7-H ) :   0.8830 B(  3-C ,  4-C ) :   1.0487
B(  3-C ,  5-N ) :   0.9998 B(  3-C ,  8-H ) :   0.9316 B(  4-C ,  5-N ) :   1.0141
B(  4-C ,  9-H ) :   0.9418 B(  4-C , 10-H ) :   0.9392 B(  5-N , 11-H ) :   0.9442

FINAL SINGLE POINT ENERGY      -264.946865874345

DIPOLE MOMENT
-------------
                                X             Y             Z
Electronic contribution:     -2.76411      -2.11761       3.64458
Nuclear contribution   :      3.53638       2.05923      -5.07635
                        -----------------------------------------
Total Dipole Moment    :      0.77227      -0.05838      -1.43177
                        -----------------------------------------
Magnitude (a.u.)       :      1.62782
Magnitude (Debye)      :      4.13758

                             ****ORCA TERMINATED NORMALLY****
TOTAL RUN TIME: 0 days 0 hours 0 minutes 5 seconds 100 msec
