                         Program Version 3.0.3 - RELEASE   -
|  1> ! RI PBE def2-SVP def2-SVP/J NBO PAL2
|  2> % maxcore 2000
|  3> % output
|  4>     # printlevel mini
|  5>     print[ P_Basis ] 0
|  6>     print[ P_SCFInfo ] 1
|  7>     print[ P_SCFIterInfo ] 1
|  8>     print[ P_OrbEn ] 0
|  9>     print[ P_Cartesian ] 0
| 10> end
| 11> *xyz 0 1
| 12>  N        1.1288360000     0.3428100000    -0.3418780000
| 13>  C        2.2335020000    -0.2976510000     0.3511360000
| 14>  C        2.2967060000    -0.1211450000     1.8435140000
| 15>  C        1.3902830000     0.4886210000     2.5928080000
| 16>  C        2.2689900000    -1.7421940000    -0.0725400000
| 17>  C        2.1404500000    -2.7925830000     0.7248990000
| 18>  H        1.0998780000     1.3334400000    -0.1331510000
| 19>  H        0.2480690000    -0.0616900000    -0.0464370000
| 20>  H        3.1525170000     0.1571090000    -0.0515250000
| 21>  H        3.1887580000    -0.5273710000     2.3166470000
| 22>  H        0.4862430000     0.9116920000     2.1667920000
| 23>  H        1.5191210000     0.5896960000     3.6639170000
| 24>  H        2.3782120000    -1.8835440000    -1.1447650000
| 25>  H        2.0079500000    -2.6856440000     1.7962640000
| 26>  H        2.1593040000    -3.8013560000     0.3288190000
| 27> *
| 28>
| 29>                          ****END OF INPUT****
 Total Charge           Charge          ....    0
 Multiplicity           Mult            ....    1
 Number of Electrons    NEL             ....   46
 Basis Dimension        Dim             ....  129

MULLIKEN ATOMIC CHARGES
-----------------------
   0 N :   -0.187820
   1 C :    0.124836
   2 C :   -0.071138
   3 C :   -0.038289
   4 C :   -0.095286
   5 C :   -0.018312
   6 H :    0.096145
   7 H :    0.093139
   8 H :    0.015820
   9 H :    0.003599
  10 H :   -0.011633
  11 H :    0.029624
  12 H :    0.010314
  13 H :    0.027579
  14 H :    0.021422
Sum of atomic charges:   -0.0000000

LOEWDIN ATOMIC CHARGES
----------------------
   0 N :   -0.081624
   1 C :   -0.005649
   2 C :   -0.038634
   3 C :   -0.072487
   4 C :   -0.026267
   5 C :   -0.063155
   6 H :    0.052555
   7 H :    0.051658
   8 H :    0.042282
   9 H :    0.027555
  10 H :    0.008968
  11 H :    0.026945
  12 H :    0.028398
  13 H :    0.023539
  14 H :    0.025917

  Mayer bond orders larger than 0.1
B(  0-N ,  1-C ) :   1.1115 B(  0-N ,  6-H ) :   0.9638 B(  0-N ,  7-H ) :   0.9667
B(  1-C ,  2-C ) :   0.9841 B(  1-C ,  4-C ) :   1.0057 B(  1-C ,  8-H ) :   0.8687
B(  2-C ,  3-C ) :   2.0035 B(  2-C ,  9-H ) :   0.9393 B(  3-C , 10-H ) :   0.9275
B(  3-C , 11-H ) :   0.9423 B(  4-C ,  5-C ) :   2.0057 B(  4-C , 12-H ) :   0.9591
B(  5-C , 13-H ) :   0.9252 B(  5-C , 14-H ) :   0.9439

FINAL SINGLE POINT ENERGY      -250.120455534579

DIPOLE MOMENT
-------------
                                X             Y             Z
Electronic contribution:      0.59002       0.18698      -1.00657
Nuclear contribution   :     -0.63823      -0.02310       1.27952
                        -----------------------------------------
Total Dipole Moment    :     -0.04821       0.16388       0.27295
                        -----------------------------------------
Magnitude (a.u.)       :      0.32200
Magnitude (Debye)      :      0.81846

                             ****ORCA TERMINATED NORMALLY****
TOTAL RUN TIME: 0 days 0 hours 0 minutes 6 seconds 237 msec
