                         Program Version 3.0.3 - RELEASE   -
|  1> ! RI PBE def2-SVP def2-SVP/J NBO PAL2
|  2> % maxcore 2000
|  3> % output
|  4>     # printlevel mini
|  5>     print[ P_Basis ] 0
|  6>     print[ P_SCFInfo ] 1
|  7>     print[ P_SCFIterInfo ] 1
|  8>     print[ P_OrbEn ] 0
|  9>     print[ P_Cartesian ] 0
| 10> end
| 11> *xyz 0 1
| 12>  N        0.9570050000     0.2849740000    -0.3042660000
| 13>  C        2.3705320000     0.0469700000     0.0004520000
| 14>  C        2.6346990000    -0.1392720000     1.4762960000
| 15>  C        3.1790430000    -1.1979750000     2.0551810000
| 16>  C        2.8666640000    -1.0632060000    -0.8069660000
| 17>  C        3.2722230000    -1.9838060000    -1.4604580000
| 18>  H        0.6308480000     1.0908370000     0.2171280000
| 19>  H        0.4110110000    -0.5107880000     0.0069230000
| 20>  H        2.9107300000     0.9469060000    -0.3237220000
| 21>  H        2.3036830000     0.7002900000     2.0854720000
| 22>  H        3.5224030000    -2.0447240000     1.4706020000
| 23>  H        3.3002080000    -1.2472790000     3.1310160000
| 24>  H        3.6291600000    -2.7926360000    -2.0531560000
| 25> *
| 26>
| 27>                          ****END OF INPUT****
 Total Charge           Charge          ....    0
 Multiplicity           Mult            ....    1
 Number of Electrons    NEL             ....   44
 Basis Dimension        Dim             ....  119

MULLIKEN ATOMIC CHARGES
-----------------------
   0 N :   -0.178297
   1 C :    0.162902
   2 C :   -0.112707
   3 C :   -0.001533
   4 C :    0.367013
   5 C :   -0.508458
   6 H :    0.089234
   7 H :    0.096703
   8 H :    0.032027
   9 H :    0.000276
  10 H :    0.029391
  11 H :    0.023456
  12 H :   -0.000008
Sum of atomic charges:    0.0000000

LOEWDIN ATOMIC CHARGES
----------------------
   0 N :   -0.076850
   1 C :   -0.008099
   2 C :   -0.048826
   3 C :   -0.053452
   4 C :   -0.008933
   5 C :   -0.077570
   6 H :    0.052264
   7 H :    0.055811
   8 H :    0.051519
   9 H :    0.022783
  10 H :    0.028877
  11 H :    0.026917
  12 H :    0.035558

  Mayer bond orders larger than 0.1
B(  0-N ,  1-C ) :   1.0686 B(  0-N ,  6-H ) :   0.9638 B(  0-N ,  7-H ) :   0.9658
B(  1-C ,  2-C ) :   0.9744 B(  1-C ,  4-C ) :   0.9956 B(  1-C ,  8-H ) :   0.8501
B(  2-C ,  3-C ) :   2.0183 B(  2-C ,  9-H ) :   0.9513 B(  3-C , 10-H ) :   0.9173
B(  3-C , 11-H ) :   0.9407 B(  4-C ,  5-C ) :   2.3355 B(  4-C , 12-H ) :  -0.1143
B(  5-C , 12-H ) :   1.1042

FINAL SINGLE POINT ENERGY      -248.872592640487

DIPOLE MOMENT
-------------
                                X             Y             Z
Electronic contribution:      0.59016      -0.48936      -2.49137
Nuclear contribution   :     -0.70992       0.59539       2.99662
                        -----------------------------------------
Total Dipole Moment    :     -0.11976       0.10603       0.50525
                        -----------------------------------------
Magnitude (a.u.)       :      0.52996
Magnitude (Debye)      :      1.34706

                             ****ORCA TERMINATED NORMALLY****
TOTAL RUN TIME: 0 days 0 hours 0 minutes 5 seconds 727 msec
