                         Program Version 3.0.3 - RELEASE   -
|  1> ! RI PBE def2-SVP def2-SVP/J NBO PAL2
|  2> % maxcore 2000
|  3> % output
|  4>     # printlevel mini
|  5>     print[ P_Basis ] 0
|  6>     print[ P_SCFInfo ] 1
|  7>     print[ P_SCFIterInfo ] 1
|  8>     print[ P_OrbEn ] 0
|  9>     print[ P_Cartesian ] 0
| 10> end
| 11> *xyz 0 1
| 12>  N        0.9965700000     0.0597200000     0.1214740000
| 13>  C        2.4547660000     0.0316590000     0.0364880000
| 14>  C        2.9961970000    -1.1366590000    -0.6747640000
| 15>  C        3.3933840000    -2.1192760000    -1.2376530000
| 16>  C        2.9500460000     1.2719670000    -0.5624770000
| 17>  C        3.3539360000     2.2859720000    -1.0572550000
| 18>  H        0.6722230000    -0.8177500000     0.5117430000
| 19>  H        0.6089200000     0.1304550000    -0.8124680000
| 20>  H        2.8348680000    -0.0066250000     1.0657040000
| 21>  H        3.7522240000    -2.9845330000    -1.7433580000
| 22>  H        3.7118570000     3.1880700000    -1.4943350000
| 23> *
| 24>
| 25>                          ****END OF INPUT****
 Total Charge           Charge          ....    0
 Multiplicity           Mult            ....    1
 Number of Electrons    NEL             ....   42
 Basis Dimension        Dim             ....  109

MULLIKEN ATOMIC CHARGES
-----------------------
   0 N :   -0.163294
   1 C :    0.139857
   2 C :    0.355081
   3 C :   -0.490186
   4 C :    0.380273
   5 C :   -0.481624
   6 H :    0.098308
   7 H :    0.102698
   8 H :    0.051937
   9 H :    0.003001
  10 H :    0.003949
Sum of atomic charges:   -0.0000000

LOEWDIN ATOMIC CHARGES
----------------------
   0 N :   -0.069803
   1 C :   -0.008667
   2 C :   -0.035004
   3 C :   -0.072087
   4 C :   -0.011847
   5 C :   -0.060081
   6 H :    0.058751
   7 H :    0.059311
   8 H :    0.064705
   9 H :    0.036895
  10 H :    0.037826

  Mayer bond orders larger than 0.1
B(  0-N ,  1-C ) :   1.0964 B(  0-N ,  6-H ) :   0.9649 B(  0-N ,  7-H ) :   0.9636
B(  1-C ,  2-C ) :   0.9340 B(  1-C ,  4-C ) :   0.9878 B(  1-C ,  8-H ) :   0.8504
B(  2-C ,  3-C ) :   2.3740 B(  2-C ,  9-H ) :  -0.1140 B(  3-C ,  9-H ) :   1.1035
B(  4-C ,  5-C ) :   2.3682 B(  4-C , 10-H ) :  -0.1118 B(  5-C , 10-H ) :   1.1018

FINAL SINGLE POINT ENERGY      -247.625149517493

DIPOLE MOMENT
-------------
                                X             Y             Z
Electronic contribution:      1.36926       0.33659      -0.35788
Nuclear contribution   :     -1.45454      -0.71799       0.22058
                        -----------------------------------------
Total Dipole Moment    :     -0.08527      -0.38140      -0.13730
                        -----------------------------------------
Magnitude (a.u.)       :      0.41424
Magnitude (Debye)      :      1.05290

                             ****ORCA TERMINATED NORMALLY****
TOTAL RUN TIME: 0 days 0 hours 0 minutes 5 seconds 49 msec
