                         Program Version 3.0.3 - RELEASE   -
|  1> ! RI PBE def2-SVP def2-SVP/J NBO PAL2
|  2> % maxcore 2000
|  3> % output
|  4>     # printlevel mini
|  5>     print[ P_Basis ] 0
|  6>     print[ P_SCFInfo ] 1
|  7>     print[ P_SCFIterInfo ] 1
|  8>     print[ P_OrbEn ] 0
|  9>     print[ P_Cartesian ] 0
| 10> end
| 11> *xyz 0 1
| 12>  N        1.5586990000    -0.1034090000     0.8661090000
| 13>  C        2.7858940000     0.2474070000     0.1638180000
| 14>  C        2.9527910000    -0.6073620000    -1.0451640000
| 15>  C        4.0419520000    -1.3276780000    -1.3214200000
| 16>  C        4.1960420000    -2.1479460000    -2.5046010000
| 17>  C        5.2849800000    -2.8628550000    -2.7867160000
| 18>  H        1.3939450000     0.5280840000     1.6395270000
| 19>  H        1.6283700000    -1.0390920000     1.2468410000
| 20>  H        3.6970350000     0.1862810000     0.7786610000
| 21>  H        2.6896470000     1.2935430000    -0.1529410000
| 22>  H        2.1026170000    -0.6336270000    -1.7243660000
| 23>  H        4.8812890000    -1.3084280000    -0.6271990000
| 24>  H        3.3532570000    -2.1655510000    -3.1925430000
| 25>  H        6.1441000000    -2.8669220000    -2.1233500000
| 26>  H        5.3531930000    -3.4637660000    -3.6851670000
| 27> *
| 28>
| 29>                          ****END OF INPUT****
 Total Charge           Charge          ....    0
 Multiplicity           Mult            ....    1
 Number of Electrons    NEL             ....   46
 Basis Dimension        Dim             ....  129

MULLIKEN ATOMIC CHARGES
-----------------------
   0 N :   -0.228824
   1 C :    0.147380
   2 C :   -0.100830
   3 C :    0.013034
   4 C :   -0.009689
   5 C :   -0.037646
   6 H :    0.090533
   7 H :    0.089594
   8 H :   -0.009612
   9 H :    0.018695
  10 H :    0.002427
  11 H :   -0.014958
  12 H :   -0.003745
  13 H :    0.018222
  14 H :    0.025421
Sum of atomic charges:    0.0000000

LOEWDIN ATOMIC CHARGES
----------------------
   0 N :   -0.110529
   1 C :    0.005219
   2 C :   -0.030600
   3 C :   -0.044920
   4 C :   -0.031465
   5 C :   -0.057120
   6 H :    0.052449
   7 H :    0.051456
   8 H :    0.003382
   9 H :    0.032745
  10 H :    0.026421
  11 H :    0.025033
  12 H :    0.030072
  13 H :    0.022477
  14 H :    0.025381

  Mayer bond orders larger than 0.1
B(  0-N ,  1-C ) :   1.0633 B(  0-N ,  6-H ) :   0.9652 B(  0-N ,  7-H ) :   0.9729
B(  1-C ,  2-C ) :   1.0610 B(  1-C ,  8-H ) :   0.9240 B(  1-C ,  9-H ) :   0.9081
B(  2-C ,  3-C ) :   1.7708 B(  2-C ,  5-C ) :   0.1360 B(  2-C , 10-H ) :   0.9623
B(  3-C ,  4-C ) :   1.1368 B(  3-C , 11-H ) :   0.9567 B(  4-C ,  5-C ) :   1.8878
B(  4-C , 12-H ) :   0.9624 B(  5-C , 13-H ) :   0.9478 B(  5-C , 14-H ) :   0.9421

FINAL SINGLE POINT ENERGY      -250.131804703218

DIPOLE MOMENT
-------------
                                X             Y             Z
Electronic contribution:     -0.23588      -0.31154      -0.87928
Nuclear contribution   :      0.38800       0.40951       1.36729
                        -----------------------------------------
Total Dipole Moment    :      0.15212       0.09798       0.48801
                        -----------------------------------------
Magnitude (a.u.)       :      0.52048
Magnitude (Debye)      :      1.32295

                             ****ORCA TERMINATED NORMALLY****
TOTAL RUN TIME: 0 days 0 hours 0 minutes 5 seconds 986 msec
