                         Program Version 3.0.3 - RELEASE   -
|  1> ! RI PBE def2-SVP def2-SVP/J NBO PAL2
|  2> % maxcore 2000
|  3> % output
|  4>     # printlevel mini
|  5>     print[ P_Basis ] 0
|  6>     print[ P_SCFInfo ] 1
|  7>     print[ P_SCFIterInfo ] 1
|  8>     print[ P_OrbEn ] 0
|  9>     print[ P_Cartesian ] 0
| 10> end
| 11> *xyz 0 1
| 12>  N        2.1696920000     0.6312420000     1.2904300000
| 13>  C        2.6764620000    -0.0178710000     0.0857300000
| 14>  C        3.1569820000     0.9905830000    -0.8999830000
| 15>  C        4.3817970000     1.0035870000    -1.4276740000
| 16>  C        4.8249240000     1.9431380000    -2.3916250000
| 17>  C        5.2324340000     2.7253140000    -3.2105640000
| 18>  H        1.7947080000    -0.0608000000     1.9276870000
| 19>  H        1.4063580000     1.2559270000     1.0578150000
| 20>  H        1.9247210000    -0.6527460000    -0.4149560000
| 21>  H        3.5053540000    -0.6734440000     0.3673500000
| 22>  H        2.4427240000     1.7499340000    -1.2124140000
| 23>  H        5.1067540000     0.2543200000    -1.1165620000
| 24>  H        5.5853010000     3.4221070000    -3.9332240000
| 25> *
| 26>
| 27>                          ****END OF INPUT****
 Total Charge           Charge          ....    0
 Multiplicity           Mult            ....    1
 Number of Electrons    NEL             ....   44
 Basis Dimension        Dim             ....  119

MULLIKEN ATOMIC CHARGES
-----------------------
   0 N :   -0.224375
   1 C :    0.136034
   2 C :   -0.052351
   3 C :   -0.066229
   4 C :    0.378209
   5 C :   -0.410220
   6 H :    0.090271
   7 H :    0.089377
   8 H :    0.012624
   9 H :    0.006668
  10 H :    0.008926
  11 H :    0.026019
  12 H :    0.005045
Sum of atomic charges:    0.0000000

LOEWDIN ATOMIC CHARGES
----------------------
   0 N :   -0.112737
   1 C :    0.006655
   2 C :   -0.000442
   3 C :   -0.054256
   4 C :   -0.018654
   5 C :   -0.068900
   6 H :    0.053568
   7 H :    0.050241
   8 H :    0.012442
   9 H :    0.025133
  10 H :    0.029093
  11 H :    0.042615
  12 H :    0.035243

  Mayer bond orders larger than 0.1
B(  0-N ,  1-C ) :   1.0504 B(  0-N ,  6-H ) :   0.9631 B(  0-N ,  7-H ) :   0.9694
B(  1-C ,  2-C ) :   1.0469 B(  1-C ,  8-H ) :   0.9042 B(  1-C ,  9-H ) :   0.9293
B(  2-C ,  3-C ) :   1.8495 B(  2-C ,  5-C ) :   0.1320 B(  2-C , 10-H ) :   0.9543
B(  3-C ,  4-C ) :   1.0503 B(  3-C , 11-H ) :   0.9355 B(  4-C ,  5-C ) :   2.2834
B(  5-C , 12-H ) :   1.0866

FINAL SINGLE POINT ENERGY      -248.881875460523

DIPOLE MOMENT
-------------
                                X             Y             Z
Electronic contribution:      2.92830       2.26324      -3.24945
Nuclear contribution   :     -3.53758      -2.64429       3.32928
                        -----------------------------------------
Total Dipole Moment    :     -0.60927      -0.38104       0.07982
                        -----------------------------------------
Magnitude (a.u.)       :      0.72303
Magnitude (Debye)      :      1.83781

                             ****ORCA TERMINATED NORMALLY****
TOTAL RUN TIME: 0 days 0 hours 0 minutes 5 seconds 578 msec
