                         Program Version 3.0.3 - RELEASE   -
|  1> ! RI PBE def2-SVP def2-SVP/J NBO PAL2
|  2> % maxcore 2000
|  3> % output
|  4>     # printlevel mini
|  5>     print[ P_Basis ] 0
|  6>     print[ P_SCFInfo ] 1
|  7>     print[ P_SCFIterInfo ] 1
|  8>     print[ P_OrbEn ] 0
|  9>     print[ P_Cartesian ] 0
| 10> end
| 11> *xyz 0 1
| 12>  N        2.1248830000    -1.0991850000     0.8949830000
| 13>  C        2.3822930000    -0.0346380000    -0.0703040000
| 14>  C        2.7715380000    -0.6020000000    -1.4070240000
| 15>  C        1.9297910000    -0.5769400000    -2.4428020000
| 16>  C        4.0985110000    -1.1917580000    -1.5638410000
| 17>  C        5.0781090000    -1.1797610000    -0.6602340000
| 18>  H        1.9763110000    -0.7100000000     1.8177560000
| 19>  H        2.9220450000    -1.7201810000     0.9556140000
| 20>  H        3.1651790000     0.6719180000     0.2505540000
| 21>  H        1.4638520000     0.5450130000    -0.1900750000
| 22>  H        0.9406940000    -0.1421510000    -2.3583050000
| 23>  H        2.2080180000    -0.9934350000    -3.4051660000
| 24>  H        4.2816860000    -1.6713890000    -2.5227310000
| 25>  H        4.9654600000    -0.7099180000     0.3110110000
| 26>  H        6.0383270000    -1.6343780000    -0.8711260000
| 27> *
| 28>
| 29>                          ****END OF INPUT****
 Total Charge           Charge          ....    0
 Multiplicity           Mult            ....    1
 Number of Electrons    NEL             ....   46
 Basis Dimension        Dim             ....  129

MULLIKEN ATOMIC CHARGES
-----------------------
   0 N :   -0.207591
   1 C :    0.140792
   2 C :   -0.101026
   3 C :   -0.023692
   4 C :    0.000524
   5 C :   -0.042816
   6 H :    0.087329
   7 H :    0.084956
   8 H :    0.001868
   9 H :   -0.006481
  10 H :    0.018053
  11 H :    0.013377
  12 H :   -0.012235
  13 H :    0.018984
  14 H :    0.027958
Sum of atomic charges:   -0.0000000

LOEWDIN ATOMIC CHARGES
----------------------
   0 N :   -0.108738
   1 C :    0.015522
   2 C :   -0.037625
   3 C :   -0.034331
   4 C :   -0.021873
   5 C :   -0.062378
   6 H :    0.052146
   7 H :    0.046815
   8 H :    0.004436
   9 H :    0.023070
  10 H :    0.024347
  11 H :    0.021693
  12 H :    0.030506
  13 H :    0.018809
  14 H :    0.027599

  Mayer bond orders larger than 0.1
B(  0-N ,  1-C ) :   1.0996 B(  0-N ,  6-H ) :   0.9637 B(  0-N ,  7-H ) :   0.9711
B(  1-C ,  2-C ) :   1.0560 B(  1-C ,  8-H ) :   0.8959 B(  1-C ,  9-H ) :   0.9120
B(  2-C ,  3-C ) :   1.9091 B(  2-C ,  4-C ) :   1.1152 B(  3-C ,  5-C ) :   0.1389
B(  3-C , 10-H ) :   0.9288 B(  3-C , 11-H ) :   0.9391 B(  4-C ,  5-C ) :   1.8993
B(  4-C , 12-H ) :   0.9518 B(  5-C , 13-H ) :   0.9296 B(  5-C , 14-H ) :   0.9409

FINAL SINGLE POINT ENERGY      -250.125765640642

DIPOLE MOMENT
-------------
                                X             Y             Z
Electronic contribution:     -0.18272      -0.41887      -0.99150
Nuclear contribution   :      0.50620       0.61602       1.20632
                        -----------------------------------------
Total Dipole Moment    :      0.32347       0.19716       0.21482
                        -----------------------------------------
Magnitude (a.u.)       :      0.43549
Magnitude (Debye)      :      1.10693

                             ****ORCA TERMINATED NORMALLY****
TOTAL RUN TIME: 0 days 0 hours 0 minutes 6 seconds 227 msec
