                         Program Version 3.0.3 - RELEASE   -
|  1> ! RI PBE def2-SVP def2-SVP/J NBO PAL2
|  2> % maxcore 2000
|  3> % output
|  4>     # printlevel mini
|  5>     print[ P_Basis ] 0
|  6>     print[ P_SCFInfo ] 1
|  7>     print[ P_SCFIterInfo ] 1
|  8>     print[ P_OrbEn ] 0
|  9>     print[ P_Cartesian ] 0
| 10> end
| 11> *xyz 0 1
| 12>  N        2.6476160000    -0.8135490000     1.1595230000
| 13>  C        2.3253980000    -0.1670280000    -0.1041070000
| 14>  C        2.8621770000    -0.9588460000    -1.2679140000
| 15>  C        2.0844720000    -1.4295120000    -2.2435520000
| 16>  C        4.2729850000    -1.1640920000    -1.2800700000
| 17>  C        5.4668220000    -1.3110850000    -1.2361820000
| 18>  H        2.3674440000    -0.2237040000     1.9331950000
| 19>  H        3.6509980000    -0.9407930000     1.2325010000
| 20>  H        2.7216540000     0.8582520000    -0.1879510000
| 21>  H        1.2388370000    -0.1051110000    -0.2017950000
| 22>  H        1.0121920000    -1.2743650000    -2.2186170000
| 23>  H        2.4975770000    -1.9748690000    -3.0828150000
| 24>  H        6.5217180000    -1.4517970000    -1.2196050000
| 25> *
| 26>
| 27>                          ****END OF INPUT****
 Total Charge           Charge          ....    0
 Multiplicity           Mult            ....    1
 Number of Electrons    NEL             ....   44
 Basis Dimension        Dim             ....  119

MULLIKEN ATOMIC CHARGES
-----------------------
   0 N :   -0.216994
   1 C :    0.173523
   2 C :   -0.177862
   3 C :    0.012839
   4 C :    0.413429
   5 C :   -0.452280
   6 H :    0.090372
   7 H :    0.094092
   8 H :    0.011061
   9 H :   -0.001778
  10 H :    0.023696
  11 H :    0.024136
  12 H :    0.005767
Sum of atomic charges:    0.0000000

LOEWDIN ATOMIC CHARGES
----------------------
   0 N :   -0.109475
   1 C :    0.023843
   2 C :   -0.050649
   3 C :   -0.021330
   4 C :   -0.009886
   5 C :   -0.068695
   6 H :    0.053598
   7 H :    0.052102
   8 H :    0.012182
   9 H :    0.024511
  10 H :    0.027082
  11 H :    0.030176
  12 H :    0.036540

  Mayer bond orders larger than 0.1
B(  0-N ,  1-C ) :   1.0898 B(  0-N ,  6-H ) :   0.9628 B(  0-N ,  7-H ) :   0.9661
B(  1-C ,  2-C ) :   1.0384 B(  1-C ,  8-H ) :   0.9040 B(  1-C ,  9-H ) :   0.9103
B(  2-C ,  3-C ) :   1.9318 B(  2-C ,  4-C ) :   1.0050 B(  3-C ,  5-C ) :   0.1268
B(  3-C , 10-H ) :   0.9281 B(  3-C , 11-H ) :   0.9379 B(  4-C ,  5-C ) :   2.2603
B(  4-C , 12-H ) :  -0.1059 B(  5-C , 12-H ) :   1.0965

FINAL SINGLE POINT ENERGY      -248.881350083710

DIPOLE MOMENT
-------------
                                X             Y             Z
Electronic contribution:      2.53198      -0.98349      -1.31780
Nuclear contribution   :     -2.40755       1.43590       1.45030
                        -----------------------------------------
Total Dipole Moment    :      0.12443       0.45241       0.13250
                        -----------------------------------------
Magnitude (a.u.)       :      0.48756
Magnitude (Debye)      :      1.23929

                             ****ORCA TERMINATED NORMALLY****
TOTAL RUN TIME: 0 days 0 hours 0 minutes 5 seconds 679 msec
