                         Program Version 3.0.3 - RELEASE   -
|  1> ! RI PBE def2-SVP def2-SVP/J NBO PAL2
|  2> % maxcore 2000
|  3> % output
|  4>     # printlevel mini
|  5>     print[ P_Basis ] 0
|  6>     print[ P_SCFInfo ] 1
|  7>     print[ P_SCFIterInfo ] 1
|  8>     print[ P_OrbEn ] 0
|  9>     print[ P_Cartesian ] 0
| 10> end
| 11> *xyz 0 1
| 12>  N        1.0451960000    -0.0101880000    -0.3136280000
| 13>  C        2.4435480000     0.0670280000     0.0924260000
| 14>  C        2.9464760000     1.4295840000     0.0222290000
| 15>  C        3.3625650000     2.5581630000    -0.0606350000
| 16>  C        3.8868700000     3.8719980000    -0.1486980000
| 17>  C        3.1488660000     4.9776890000    -0.2463820000
| 18>  H        0.7424140000    -0.9764620000    -0.3178160000
| 19>  H        0.9396970000     0.3442910000    -1.2561720000
| 20>  H        3.1195600000    -0.5737590000    -0.4964860000
| 21>  H        2.5177130000    -0.2804490000     1.1292920000
| 22>  H        4.9713520000     3.9531030000    -0.1361970000
| 23>  H        2.0663560000     4.9359140000    -0.2606130000
| 24>  H        3.6176870000     5.9514870000    -0.3145200000
| 25> *
| 26>
| 27>                          ****END OF INPUT****
 Total Charge           Charge          ....    0
 Multiplicity           Mult            ....    1
 Number of Electrons    NEL             ....   44
 Basis Dimension        Dim             ....  119

MULLIKEN ATOMIC CHARGES
-----------------------
   0 N :   -0.216925
   1 C :    0.166637
   2 C :   -0.099440
   3 C :   -0.067655
   4 C :   -0.099624
   5 C :   -0.014043
   6 H :    0.089143
   7 H :    0.095972
   8 H :    0.020902
   9 H :    0.027310
  10 H :    0.034045
  11 H :    0.035395
  12 H :    0.028283
Sum of atomic charges:    0.0000000

LOEWDIN ATOMIC CHARGES
----------------------
   0 N :   -0.105923
   1 C :    0.002078
   2 C :   -0.041955
   3 C :   -0.052147
   4 C :   -0.048178
   5 C :   -0.030447
   6 H :    0.053521
   7 H :    0.054290
   8 H :    0.023951
   9 H :    0.044548
  10 H :    0.043634
  11 H :    0.030007
  12 H :    0.026620

  Mayer bond orders larger than 0.1
B(  0-N ,  1-C ) :   1.0795 B(  0-N ,  6-H ) :   0.9623 B(  0-N ,  7-H ) :   0.9686
B(  1-C ,  2-C ) :   1.0686 B(  1-C ,  8-H ) :   0.9010 B(  1-C ,  9-H ) :   0.8873
B(  2-C ,  3-C ) :   2.4918 B(  2-C ,  5-C ) :   0.1293 B(  3-C ,  4-C ) :   1.0602
B(  4-C ,  5-C ) :   1.9113 B(  4-C , 10-H ) :   0.9492 B(  5-C , 11-H ) :   0.9549
B(  5-C , 12-H ) :   0.9439

FINAL SINGLE POINT ENERGY      -248.887054889937

DIPOLE MOMENT
-------------
                                X             Y             Z
Electronic contribution:      1.28409       0.63475       0.38041
Nuclear contribution   :     -1.15049      -1.10948      -0.72923
                        -----------------------------------------
Total Dipole Moment    :      0.13360      -0.47472      -0.34882
                        -----------------------------------------
Magnitude (a.u.)       :      0.60406
Magnitude (Debye)      :      1.53539

                             ****ORCA TERMINATED NORMALLY****
TOTAL RUN TIME: 0 days 0 hours 0 minutes 5 seconds 448 msec
