                         Program Version 3.0.3 - RELEASE   -
|  1> ! RI PBE def2-SVP def2-SVP/J NBO PAL2
|  2> % maxcore 2000
|  3> % output
|  4>     # printlevel mini
|  5>     print[ P_Basis ] 0
|  6>     print[ P_SCFInfo ] 1
|  7>     print[ P_SCFIterInfo ] 1
|  8>     print[ P_OrbEn ] 0
|  9>     print[ P_Cartesian ] 0
| 10> end
| 11> *xyz 0 1
| 12>  N        1.0986260000    -0.0051290000    -0.0648930000
| 13>  C        2.5544080000    -0.0178090000    -0.0077360000
| 14>  C        3.0398630000    -0.9075870000     1.0325620000
| 15>  C        3.4489030000    -1.6224420000     1.9156500000
| 16>  C        3.9115660000    -2.4359550000     2.9070020000
| 17>  C        4.3209620000    -3.1539140000     3.7846470000
| 18>  H        0.7900160000     0.6485720000    -0.7737790000
| 19>  H        0.7174150000     0.3039020000     0.8206850000
| 20>  H        3.0120690000     0.9708910000     0.1592080000
| 21>  H        2.9332890000    -0.3739430000    -0.9723480000
| 22>  H        4.6818820000    -3.7894850000     4.5580040000
| 23> *
| 24>
| 25>                          ****END OF INPUT****
 Total Charge           Charge          ....    0
 Multiplicity           Mult            ....    1
 Number of Electrons    NEL             ....   42
 Basis Dimension        Dim             ....  109

MULLIKEN ATOMIC CHARGES
-----------------------
   0 N :   -0.212209
   1 C :    0.163736
   2 C :   -0.120541
   3 C :   -0.023758
   4 C :    0.357419
   5 C :   -0.430290
   6 H :    0.093610
   7 H :    0.099087
   8 H :    0.027557
   9 H :    0.032678
  10 H :    0.012710
Sum of atomic charges:   -0.0000000

LOEWDIN ATOMIC CHARGES
----------------------
   0 N :   -0.101986
   1 C :    0.002830
   2 C :   -0.002096
   3 C :   -0.063055
   4 C :   -0.029550
   5 C :   -0.033695
   6 H :    0.055905
   7 H :    0.056126
   8 H :    0.027620
   9 H :    0.048455
  10 H :    0.039446

  Mayer bond orders larger than 0.1
B(  0-N ,  1-C ) :   1.0908 B(  0-N ,  6-H ) :   0.9626 B(  0-N ,  7-H ) :   0.9665
B(  1-C ,  2-C ) :   1.0690 B(  1-C ,  8-H ) :   0.9009 B(  1-C ,  9-H ) :   0.8836
B(  2-C ,  3-C ) :   2.3886 B(  2-C ,  5-C ) :   0.2627 B(  3-C ,  4-C ) :   0.9454
B(  4-C ,  5-C ) :   2.1471 B(  4-C , 10-H ) :  -0.1050 B(  5-C , 10-H ) :   1.0940

FINAL SINGLE POINT ENERGY      -247.648891600023

DIPOLE MOMENT
-------------
                                X             Y             Z
Electronic contribution:      2.48760      -3.10641       3.29098
Nuclear contribution   :     -2.56879       3.83979      -3.48472
                        -----------------------------------------
Total Dipole Moment    :     -0.08119       0.73338      -0.19373
                        -----------------------------------------
Magnitude (a.u.)       :      0.76287
Magnitude (Debye)      :      1.93906

                             ****ORCA TERMINATED NORMALLY****
TOTAL RUN TIME: 0 days 0 hours 0 minutes 4 seconds 880 msec
