                         Program Version 3.0.3 - RELEASE   -
|  1> ! RI PBE def2-SVP def2-SVP/J NBO PAL2
|  2> % maxcore 2000
|  3> % output
|  4>     # printlevel mini
|  5>     print[ P_Basis ] 0
|  6>     print[ P_SCFInfo ] 1
|  7>     print[ P_SCFIterInfo ] 1
|  8>     print[ P_OrbEn ] 0
|  9>     print[ P_Cartesian ] 0
| 10> end
| 11> *xyz 0 1
| 12>  N        1.0900430000    -0.1830920000     0.3013260000
| 13>  C        2.5426580000    -0.1061940000     0.3128960000
| 14>  C        3.0484790000     0.6566550000    -0.8966520000
| 15>  C        4.5669080000     0.8030580000    -0.9122160000
| 16>  C        5.0591880000     1.5897010000    -2.0808740000
| 17>  C        5.9039720000     1.1470620000    -3.0016330000
| 18>  H        0.7493430000    -0.6650580000     1.1235620000
| 19>  H        0.7729150000    -0.7134070000    -0.5017050000
| 20>  H        3.0390130000    -1.0902610000     0.3481940000
| 21>  H        2.8436240000     0.4254090000     1.2223130000
| 22>  H        2.5731260000     1.6427660000    -0.9127270000
| 23>  H        2.7283420000     0.1441860000    -1.8120530000
| 24>  H        5.0409170000    -0.1841390000    -0.9090220000
| 25>  H        4.8787390000     1.3038460000     0.0141460000
| 26>  H        4.6693570000     2.6031730000    -2.1688680000
| 27>  H        6.3161180000     0.1432370000    -2.9561050000
| 28>  H        6.2176570000     1.7694570000    -3.8317630000
| 29> *
| 30>
| 31>                          ****END OF INPUT****
 Total Charge           Charge          ....    0
 Multiplicity           Mult            ....    1
 Number of Electrons    NEL             ....   48
 Basis Dimension        Dim             ....  139

MULLIKEN ATOMIC CHARGES
-----------------------
   0 N :   -0.202343
   1 C :    0.074315
   2 C :   -0.061615
   3 C :    0.066663
   4 C :   -0.078425
   5 C :   -0.036445
   6 H :    0.086367
   7 H :    0.085604
   8 H :   -0.012501
   9 H :    0.000531
  10 H :    0.016220
  11 H :    0.009175
  12 H :   -0.001810
  13 H :    0.015656
  14 H :    0.003233
  15 H :    0.013514
  16 H :    0.021861
Sum of atomic charges:   -0.0000000

LOEWDIN ATOMIC CHARGES
----------------------
   0 N :   -0.111982
   1 C :    0.004833
   2 C :   -0.044971
   3 C :   -0.040354
   4 C :   -0.026228
   5 C :   -0.070622
   6 H :    0.051644
   7 H :    0.048838
   8 H :   -0.002772
   9 H :    0.018369
  10 H :    0.025434
  11 H :    0.021486
  12 H :    0.024965
  13 H :    0.032820
  14 H :    0.024975
  15 H :    0.020109
  16 H :    0.023455

  Mayer bond orders larger than 0.1
B(  0-N ,  1-C ) :   1.0985 B(  0-N ,  6-H ) :   0.9640 B(  0-N ,  7-H ) :   0.9698
B(  1-C ,  2-C ) :   1.0903 B(  1-C ,  8-H ) :   0.9274 B(  1-C ,  9-H ) :   0.9317
B(  2-C ,  3-C ) :   1.0680 B(  2-C , 10-H ) :   0.9316 B(  2-C , 11-H ) :   0.9400
B(  3-C ,  4-C ) :   1.0650 B(  3-C , 12-H ) :   0.9260 B(  3-C , 13-H ) :   0.9119
B(  4-C ,  5-C ) :   2.0186 B(  4-C , 14-H ) :   0.9520 B(  5-C , 15-H ) :   0.9456
B(  5-C , 16-H ) :   0.9432

FINAL SINGLE POINT ENERGY      -251.341946789898

DIPOLE MOMENT
-------------
                                X             Y             Z
Electronic contribution:      0.06194       0.78368      -0.43741
Nuclear contribution   :     -0.10961      -1.25829       0.59846
                        -----------------------------------------
Total Dipole Moment    :     -0.04766      -0.47460       0.16105
                        -----------------------------------------
Magnitude (a.u.)       :      0.50344
Magnitude (Debye)      :      1.27965

                             ****ORCA TERMINATED NORMALLY****
TOTAL RUN TIME: 0 days 0 hours 0 minutes 6 seconds 733 msec
