                         Program Version 3.0.3 - RELEASE   -
|  1> ! RI PBE def2-SVP def2-SVP/J NBO PAL2
|  2> % maxcore 2000
|  3> % output
|  4>     # printlevel mini
|  5>     print[ P_Basis ] 0
|  6>     print[ P_SCFInfo ] 1
|  7>     print[ P_SCFIterInfo ] 1
|  8>     print[ P_OrbEn ] 0
|  9>     print[ P_Cartesian ] 0
| 10> end
| 11> *xyz 0 1
| 12>  N        1.0319750000    -0.2995010000    -0.0156180000
| 13>  C        2.4744890000    -0.1461930000     0.1059070000
| 14>  C        3.0116570000     0.6878630000    -1.0409030000
| 15>  C        4.5237700000     0.9089610000    -0.9728080000
| 16>  C        5.3025300000    -0.3105410000    -1.1233520000
| 17>  C        5.9382010000    -1.3203570000    -1.2598190000
| 18>  H        0.6602690000    -0.8079560000     0.7767630000
| 19>  H        0.8074120000    -0.8436940000    -0.8405410000
| 20>  H        3.0236480000    -1.0987140000     0.1442620000
| 21>  H        2.6788050000     0.3726520000     1.0491110000
| 22>  H        2.5078610000     1.6583420000    -1.0385720000
| 23>  H        2.7653020000     0.2033080000    -1.9921300000
| 24>  H        4.7845570000     1.3814720000    -0.0186160000
| 25>  H        4.8251220000     1.6132780000    -1.7547030000
| 26>  H        6.5056230000    -2.2127200000    -1.3783820000
| 27> *
| 28>
| 29>                          ****END OF INPUT****
 Total Charge           Charge          ....    0
 Multiplicity           Mult            ....    1
 Number of Electrons    NEL             ....   46
 Basis Dimension        Dim             ....  129

MULLIKEN ATOMIC CHARGES
-----------------------
   0 N :   -0.209583
   1 C :    0.061669
   2 C :   -0.028226
   3 C :    0.067229
   4 C :    0.318773
   5 C :   -0.490470
   6 H :    0.087686
   7 H :    0.086360
   8 H :    0.007457
   9 H :   -0.000476
  10 H :    0.016032
  11 H :    0.014753
  12 H :    0.033439
  13 H :    0.040614
  14 H :   -0.005258
Sum of atomic charges:    0.0000000

LOEWDIN ATOMIC CHARGES
----------------------
   0 N :   -0.112258
   1 C :    0.004503
   2 C :   -0.036484
   3 C :   -0.046775
   4 C :   -0.022163
   5 C :   -0.097982
   6 H :    0.052574
   7 H :    0.049518
   8 H :    0.005044
   9 H :    0.018934
  10 H :    0.028244
  11 H :    0.024795
  12 H :    0.047705
  13 H :    0.051483
  14 H :    0.032861

  Mayer bond orders larger than 0.1
B(  0-N ,  1-C ) :   1.0907 B(  0-N ,  6-H ) :   0.9649 B(  0-N ,  7-H ) :   0.9707
B(  1-C ,  2-C ) :   1.0881 B(  1-C ,  8-H ) :   0.9340 B(  1-C ,  9-H ) :   0.9322
B(  2-C ,  3-C ) :   1.0777 B(  2-C , 10-H ) :   0.9225 B(  2-C , 11-H ) :   0.9387
B(  3-C ,  4-C ) :   1.0714 B(  3-C , 12-H ) :   0.8976 B(  3-C , 13-H ) :   0.8970
B(  4-C ,  5-C ) :   2.3347 B(  4-C , 14-H ) :  -0.1123 B(  5-C , 14-H ) :   1.1036

FINAL SINGLE POINT ENERGY      -250.099517066940

DIPOLE MOMENT
-------------
                                X             Y             Z
Electronic contribution:      3.42941      -1.11988      -0.96657
Nuclear contribution   :     -3.53686       0.86704       1.03737
                        -----------------------------------------
Total Dipole Moment    :     -0.10744      -0.25284       0.07081
                        -----------------------------------------
Magnitude (a.u.)       :      0.28369
Magnitude (Debye)      :      0.72110

                             ****ORCA TERMINATED NORMALLY****
TOTAL RUN TIME: 0 days 0 hours 0 minutes 5 seconds 980 msec
