                         Program Version 3.0.3 - RELEASE   -
|  1> ! RI PBE def2-SVP def2-SVP/J NBO PAL2
|  2> % maxcore 2000
|  3> % output
|  4>     # printlevel mini
|  5>     print[ P_Basis ] 0
|  6>     print[ P_SCFInfo ] 1
|  7>     print[ P_SCFIterInfo ] 1
|  8>     print[ P_OrbEn ] 0
|  9>     print[ P_Cartesian ] 0
| 10> end
| 11> *xyz 0 1
| 12>  N        0.9613710000     0.0554630000    -0.0831570000
| 13>  C        2.4165360000     0.0399090000    -0.0539310000
| 14>  C        2.9615800000    -1.0287280000    -0.9821270000
| 15>  C        4.4794920000    -1.0654640000    -1.0223190000
| 16>  C        5.0245250000    -2.1339680000    -1.9506730000
| 17>  N        6.4796860000    -2.1496370000    -1.9213160000
| 18>  H        0.5988840000     0.7858960000     0.5165170000
| 19>  H        0.5953130000    -0.8208040000     0.2704230000
| 20>  H        2.8379170000    -0.1128930000     0.9532350000
| 21>  H        2.7689700000     1.0205090000    -0.3918000000
| 22>  H        2.5552370000    -0.8577250000    -1.9846750000
| 23>  H        2.5829500000    -2.0080790000    -0.6603620000
| 24>  H        4.8858370000    -1.2366190000    -0.0197980000
| 25>  H        4.8581170000    -0.0860610000    -1.3439430000
| 26>  H        4.6032410000    -1.9809320000    -2.9578430000
| 27>  H        4.6719720000    -3.1146000000    -1.6130140000
| 28>  H        6.8458100000    -1.2731300000    -2.2742390000
| 29>  H        6.8421920000    -2.8796470000    -2.5214970000
| 30> *
| 31>
| 32>                          ****END OF INPUT****
 Total Charge           Charge          ....    0
 Multiplicity           Mult            ....    1
 Number of Electrons    NEL             ....   50
 Basis Dimension        Dim             ....  144

MULLIKEN ATOMIC CHARGES
-----------------------
   0 N :   -0.202553
   1 C :    0.073585
   2 C :   -0.034988
   3 C :   -0.035028
   4 C :    0.073613
   5 N :   -0.202552
   6 H :    0.085385
   7 H :    0.084158
   8 H :   -0.012317
   9 H :   -0.001047
  10 H :    0.009835
  11 H :   -0.002051
  12 H :    0.009839
  13 H :   -0.002050
  14 H :   -0.012317
  15 H :   -0.001044
  16 H :    0.084151
  17 H :    0.085382
Sum of atomic charges:   -0.0000000

LOEWDIN ATOMIC CHARGES
----------------------
   0 N :   -0.113413
   1 C :    0.005856
   2 C :   -0.047715
   3 C :   -0.047714
   4 C :    0.005857
   5 N :   -0.113419
   6 H :    0.051173
   7 H :    0.047963
   8 H :   -0.002899
   9 H :    0.017660
  10 H :    0.023000
  11 H :    0.018381
  12 H :    0.022999
  13 H :    0.018378
  14 H :   -0.002899
  15 H :    0.017659
  16 H :    0.047960
  17 H :    0.051174

  Mayer bond orders larger than 0.1
B(  0-N ,  1-C ) :   1.0979 B(  0-N ,  6-H ) :   0.9649 B(  0-N ,  7-H ) :   0.9692
B(  1-C ,  2-C ) :   1.0921 B(  1-C ,  8-H ) :   0.9292 B(  1-C ,  9-H ) :   0.9310
B(  2-C ,  3-C ) :   1.0831 B(  2-C , 10-H ) :   0.9277 B(  2-C , 11-H ) :   0.9347
B(  3-C ,  4-C ) :   1.0921 B(  3-C , 12-H ) :   0.9277 B(  3-C , 13-H ) :   0.9347
B(  4-C ,  5-N ) :   1.0979 B(  4-C , 14-H ) :   0.9292 B(  4-C , 15-H ) :   0.9310
B(  5-N , 16-H ) :   0.9692 B(  5-N , 17-H ) :   0.9649

FINAL SINGLE POINT ENERGY      -268.578839723091

DIPOLE MOMENT
-------------
                                X             Y             Z
Electronic contribution:     -0.00007      -0.00026       0.00002
Nuclear contribution   :      0.00005       0.00063       0.00003
                        -----------------------------------------
Total Dipole Moment    :     -0.00002       0.00037       0.00005
                        -----------------------------------------
Magnitude (a.u.)       :      0.00037
Magnitude (Debye)      :      0.00094

                             ****ORCA TERMINATED NORMALLY****
TOTAL RUN TIME: 0 days 0 hours 0 minutes 6 seconds 553 msec
