                         Program Version 3.0.3 - RELEASE   -
|  1> ! RI PBE def2-SVP def2-SVP/J NBO PAL2
|  2> % maxcore 2000
|  3> % output
|  4>     # printlevel mini
|  5>     print[ P_Basis ] 0
|  6>     print[ P_SCFInfo ] 1
|  7>     print[ P_SCFIterInfo ] 1
|  8>     print[ P_OrbEn ] 0
|  9>     print[ P_Cartesian ] 0
| 10> end
| 11> *xyz 0 1
| 12>  N        1.0280120000    -0.0082850000     0.0067730000
| 13>  C        2.1794800000    -0.0375170000     0.0130040000
| 14>  C        3.5980890000    -0.0433540000     0.0142020000
| 15>  C        4.3026210000    -1.1557840000     0.2479100000
| 16>  C        5.7212840000    -1.1617020000     0.2491420000
| 17>  N        6.8727070000    -1.1922760000     0.2555540000
| 18>  H        4.0909720000     0.9021480000    -0.1844480000
| 19>  H        3.8097340000    -2.1012790000     0.4465630000
| 20> *
| 21>
| 22>                          ****END OF INPUT****
 Total Charge           Charge          ....    0
 Multiplicity           Mult            ....    1
 Number of Electrons    NEL             ....   40
 Basis Dimension        Dim             ....   94

MULLIKEN ATOMIC CHARGES
-----------------------
   0 N :    0.079777
   1 C :   -0.084045
   2 C :   -0.073569
   3 C :   -0.073585
   4 C :   -0.083998
   5 N :    0.079777
   6 H :    0.077803
   7 H :    0.077840
Sum of atomic charges:   -0.0000000

LOEWDIN ATOMIC CHARGES
----------------------
   0 N :   -0.018362
   1 C :   -0.037468
   2 C :   -0.010531
   3 C :   -0.010500
   4 C :   -0.037473
   5 N :   -0.018352
   6 H :    0.066334
   7 H :    0.066350

  Mayer bond orders larger than 0.1
B(  0-N ,  1-C ) :   2.9546 B(  0-N ,  3-C ) :   0.1018 B(  1-C ,  2-C ) :   1.1449
B(  2-C ,  3-C ) :   1.8011 B(  2-C ,  5-N ) :   0.1018 B(  2-C ,  6-H ) :   0.9379
B(  3-C ,  4-C ) :   1.1449 B(  3-C ,  7-H ) :   0.9380 B(  4-C ,  5-N ) :   2.9546

FINAL SINGLE POINT ENERGY      -262.555472941090

DIPOLE MOMENT
-------------
                                X             Y             Z
Electronic contribution:      0.00003       0.00016      -0.00001
Nuclear contribution   :     -0.00002       0.00050      -0.00008
                        -----------------------------------------
Total Dipole Moment    :      0.00001       0.00066      -0.00009
                        -----------------------------------------
Magnitude (a.u.)       :      0.00067
Magnitude (Debye)      :      0.00169

                             ****ORCA TERMINATED NORMALLY****
TOTAL RUN TIME: 0 days 0 hours 0 minutes 4 seconds 145 msec
