                         Program Version 3.0.3 - RELEASE   -
|  1> ! RI PBE def2-SVP def2-SVP/J NBO PAL2
|  2> % maxcore 2000
|  3> % output
|  4>     # printlevel mini
|  5>     print[ P_Basis ] 0
|  6>     print[ P_SCFInfo ] 1
|  7>     print[ P_SCFIterInfo ] 1
|  8>     print[ P_OrbEn ] 0
|  9>     print[ P_Cartesian ] 0
| 10> end
| 11> *xyz 0 1
| 12>  N        1.0035440000     0.0770000000    -0.0628000000
| 13>  C        2.1586780000     0.0770000000    -0.0628000000
| 14>  C        3.5222480000     0.0770000000    -0.0628000000
| 15>  C        4.7293520000     0.0770000000    -0.0628000000
| 16>  C        6.0929220000     0.0770000000    -0.0628000000
| 17>  N        7.2480560000     0.0770000000    -0.0628000000
| 18> *
| 19>
| 20>                          ****END OF INPUT****
 Total Charge           Charge          ....    0
 Multiplicity           Mult            ....    1
 Number of Electrons    NEL             ....   38
 Basis Dimension        Dim             ....   84

MULLIKEN ATOMIC CHARGES
-----------------------
   0 N :    0.188881
   1 C :   -0.250032
   2 C :    0.061151
   3 C :    0.061152
   4 C :   -0.250032
   5 N :    0.188880
Sum of atomic charges:   -0.0000000

LOEWDIN ATOMIC CHARGES
----------------------
   0 N :    0.025297
   1 C :   -0.037164
   2 C :    0.011867
   3 C :    0.011867
   4 C :   -0.037164
   5 N :    0.025297

  Mayer bond orders larger than 0.1
B(  0-N ,  1-C ) :   2.8388 B(  0-N ,  2-C ) :   0.1526 B(  0-N ,  3-C ) :   0.1791
B(  1-C ,  2-C ) :   1.1340 B(  1-C ,  3-C ) :  -0.1046 B(  2-C ,  3-C ) :   2.0150
B(  2-C ,  4-C ) :  -0.1046 B(  2-C ,  5-N ) :   0.1791 B(  3-C ,  4-C ) :   1.1340
B(  3-C ,  5-N ) :   0.1526 B(  4-C ,  5-N ) :   2.8388

FINAL SINGLE POINT ENERGY      -261.314352688993

DIPOLE MOMENT
-------------
                                X             Y             Z
Electronic contribution:     -0.00000      -0.00000      -0.00000
Nuclear contribution   :     -0.00000      -0.00000       0.00000
                        -----------------------------------------
Total Dipole Moment    :     -0.00000      -0.00000      -0.00000
                        -----------------------------------------
Magnitude (a.u.)       :      0.00000
Magnitude (Debye)      :      0.00000

                             ****ORCA TERMINATED NORMALLY****
TOTAL RUN TIME: 0 days 0 hours 0 minutes 3 seconds 599 msec
