                         Program Version 3.0.3 - RELEASE   -
|  1> ! RI PBE def2-SVP def2-SVP/J NBO PAL2
|  2> % maxcore 2000
|  3> % output
|  4>     # printlevel mini
|  5>     print[ P_Basis ] 0
|  6>     print[ P_SCFInfo ] 1
|  7>     print[ P_SCFIterInfo ] 1
|  8>     print[ P_OrbEn ] 0
|  9>     print[ P_Cartesian ] 0
| 10> end
| 11> *xyz 0 1
| 12>  N        0.9075380000     0.0490040000     0.0717010000
| 13>  C        2.0564400000     0.0417790000     0.0839090000
| 14>  C        3.5098300000     0.0476950000     0.0750900000
| 15>  C        4.0546130000     0.8114680000    -1.1412160000
| 16>  C        5.5079800000     0.8172360000    -1.1503100000
| 17>  N        6.6568730000     0.8095540000    -1.1381100000
| 18>  H        3.8680790000    -0.9844920000     0.0653970000
| 19>  H        3.8677220000     0.5050620000     1.0006000000
| 20>  H        3.6965070000     1.8437030000    -1.1314280000
| 21>  H        3.6965560000     0.3542200000    -2.0667220000
| 22> *
| 23>
| 24>                          ****END OF INPUT****
 Total Charge           Charge          ....    0
 Multiplicity           Mult            ....    1
 Number of Electrons    NEL             ....   42
 Basis Dimension        Dim             ....  104

MULLIKEN ATOMIC CHARGES
-----------------------
   0 N :    0.084333
   1 C :   -0.263045
   2 C :    0.026767
   3 C :    0.026724
   4 C :   -0.263066
   5 N :    0.084335
   6 H :    0.076850
   7 H :    0.075134
   8 H :    0.076832
   9 H :    0.075135
Sum of atomic charges:   -0.0000000

LOEWDIN ATOMIC CHARGES
----------------------
   0 N :   -0.048035
   1 C :   -0.046675
   2 C :   -0.040248
   3 C :   -0.040265
   4 C :   -0.046679
   5 N :   -0.048039
   6 H :    0.067719
   7 H :    0.067251
   8 H :    0.067715
   9 H :    0.067255

  Mayer bond orders larger than 0.1
B(  0-N ,  1-C ) :   3.0592 B(  1-C ,  2-C ) :   1.1617 B(  2-C ,  3-C ) :   1.1411
B(  2-C ,  6-H ) :   0.8845 B(  2-C ,  7-H ) :   0.8867 B(  3-C ,  4-C ) :   1.1617
B(  3-C ,  8-H ) :   0.8845 B(  3-C ,  9-H ) :   0.8867 B(  4-C ,  5-N ) :   3.0592

FINAL SINGLE POINT ENERGY      -263.774050652379

DIPOLE MOMENT
-------------
                                X             Y             Z
Electronic contribution:     -0.00003      -0.00032      -0.00028
Nuclear contribution   :      0.00001       0.00063       0.00043
                        -----------------------------------------
Total Dipole Moment    :     -0.00001       0.00031       0.00015
                        -----------------------------------------
Magnitude (a.u.)       :      0.00034
Magnitude (Debye)      :      0.00087

                             ****ORCA TERMINATED NORMALLY****
TOTAL RUN TIME: 0 days 0 hours 0 minutes 4 seconds 662 msec
