                         Program Version 3.0.3 - RELEASE   -
|  1> ! RI PBE def2-SVP def2-SVP/J NBO PAL2
|  2> % maxcore 2000
|  3> % output
|  4>     # printlevel mini
|  5>     print[ P_Basis ] 0
|  6>     print[ P_SCFInfo ] 1
|  7>     print[ P_SCFIterInfo ] 1
|  8>     print[ P_OrbEn ] 0
|  9>     print[ P_Cartesian ] 0
| 10> end
| 11> *xyz 0 1
| 12>  N        1.3164410000    -0.6970150000     0.1057010000
| 13>  C        2.6442760000    -0.0992000000     0.1700480000
| 14>  C        3.0280060000     0.4518600000    -1.1627790000
| 15>  C        4.1283710000     0.1230090000    -1.8287100000
| 16>  C        4.5121030000     0.6740890000    -3.1615270000
| 17>  N        5.8398390000     1.2721230000    -3.0970710000
| 18>  H        1.0194680000    -1.0103750000     1.0211380000
| 19>  H        1.3288200000    -1.5072040000    -0.5018320000
| 20>  H        3.4339370000    -0.7819750000     0.5185610000
| 21>  H        2.5945260000     0.7230520000     0.8940950000
| 22>  H        2.3211340000     1.1557720000    -1.6000120000
| 23>  H        4.8352340000    -0.5809140000    -1.3914810000
| 24>  H        3.7223650000     1.3567380000    -3.5101100000
| 25>  H        4.5620490000    -0.1481650000    -3.8855580000
| 26>  H        5.8272920000     2.0822130000    -2.4894070000
| 27>  H        6.1367480000     1.5857010000    -4.0124560000
| 28> *
| 29>
| 30>                          ****END OF INPUT****
 Total Charge           Charge          ....    0
 Multiplicity           Mult            ....    1
 Number of Electrons    NEL             ....   48
 Basis Dimension        Dim             ....  134

MULLIKEN ATOMIC CHARGES
-----------------------
   0 N :   -0.228565
   1 C :    0.145124
   2 C :   -0.091038
   3 C :   -0.091048
   4 C :    0.145132
   5 N :   -0.228567
   6 H :    0.086670
   7 H :    0.088865
   8 H :   -0.013172
   9 H :    0.015870
  10 H :   -0.003747
  11 H :   -0.003747
  12 H :   -0.013173
  13 H :    0.015867
  14 H :    0.088865
  15 H :    0.086666
Sum of atomic charges:   -0.0000000

LOEWDIN ATOMIC CHARGES
----------------------
   0 N :   -0.112674
   1 C :    0.004944
   2 C :   -0.048716
   3 C :   -0.048716
   4 C :    0.004946
   5 N :   -0.112677
   6 H :    0.051092
   7 H :    0.050718
   8 H :    0.002384
   9 H :    0.029598
  10 H :    0.022659
  11 H :    0.022658
  12 H :    0.002382
  13 H :    0.029595
  14 H :    0.050716
  15 H :    0.051091

  Mayer bond orders larger than 0.1
B(  0-N ,  1-C ) :   1.0614 B(  0-N ,  6-H ) :   0.9641 B(  0-N ,  7-H ) :   0.9723
B(  1-C ,  2-C ) :   1.0643 B(  1-C ,  8-H ) :   0.9234 B(  1-C ,  9-H ) :   0.9136
B(  2-C ,  3-C ) :   1.8810 B(  2-C , 10-H ) :   0.9549 B(  3-C ,  4-C ) :   1.0643
B(  3-C , 11-H ) :   0.9549 B(  4-C ,  5-N ) :   1.0614 B(  4-C , 12-H ) :   0.9234
B(  4-C , 13-H ) :   0.9136 B(  5-N , 14-H ) :   0.9723 B(  5-N , 15-H ) :   0.9641

FINAL SINGLE POINT ENERGY      -267.359362425387

DIPOLE MOMENT
-------------
                                X             Y             Z
Electronic contribution:     -0.00000      -0.00004      -0.00002
Nuclear contribution   :     -0.00011       0.00002       0.00012
                        -----------------------------------------
Total Dipole Moment    :     -0.00011      -0.00001       0.00010
                        -----------------------------------------
Magnitude (a.u.)       :      0.00015
Magnitude (Debye)      :      0.00039

                             ****ORCA TERMINATED NORMALLY****
TOTAL RUN TIME: 0 days 0 hours 0 minutes 5 seconds 900 msec
