                         Program Version 3.0.3 - RELEASE   -
|  1> ! RI PBE def2-SVP def2-SVP/J NBO PAL2
|  2> % maxcore 2000
|  3> % output
|  4>     # printlevel mini
|  5>     print[ P_Basis ] 0
|  6>     print[ P_SCFInfo ] 1
|  7>     print[ P_SCFIterInfo ] 1
|  8>     print[ P_OrbEn ] 0
|  9>     print[ P_Cartesian ] 0
| 10> end
| 11> *xyz 0 1
| 12>  N        1.7308010000    -0.4257150000    -0.6073230000
| 13>  C        3.0640620000    -0.0251510000    -0.2038870000
| 14>  C        3.3080620000     1.4531470000    -0.3240400000
| 15>  C        2.3548300000     2.3198720000    -0.6420360000
| 16>  C        4.7280730000     1.8620010000    -0.0486930000
| 17>  N        4.9860030000     3.2647680000    -0.3065880000
| 18>  H        1.5888890000    -1.4107600000    -0.4282270000
| 19>  H        1.6060050000    -0.2787990000    -1.6016230000
| 20>  H        3.8675200000    -0.5451560000    -0.7540410000
| 21>  H        3.1987240000    -0.3107310000     0.8476600000
| 22>  H        1.3383800000     1.9859320000    -0.8089740000
| 23>  H        2.5680690000     3.3802090000    -0.6946910000
| 24>  H        5.3901510000     1.1800440000    -0.6101160000
| 25>  H        4.9413570000     1.6687610000     1.0108400000
| 26>  H        4.9056300000     3.4600580000    -1.2971380000
| 27>  H        5.9268450000     3.5079180000    -0.0269130000
| 28> *
| 29>
| 30>                          ****END OF INPUT****
 Total Charge           Charge          ....    0
 Multiplicity           Mult            ....    1
 Number of Electrons    NEL             ....   48
 Basis Dimension        Dim             ....  134

MULLIKEN ATOMIC CHARGES
-----------------------
   0 N :   -0.203024
   1 C :    0.147052
   2 C :   -0.259082
   3 C :   -0.009530
   4 C :    0.145412
   5 N :   -0.198761
   6 H :    0.089256
   7 H :    0.093317
   8 H :   -0.010942
   9 H :    0.012264
  10 H :    0.004396
  11 H :    0.008466
  12 H :   -0.010465
  13 H :    0.012015
  14 H :    0.091411
  15 H :    0.088214
Sum of atomic charges:   -0.0000000

LOEWDIN ATOMIC CHARGES
----------------------
   0 N :   -0.100146
   1 C :    0.009750
   2 C :   -0.057834
   3 C :   -0.078792
   4 C :    0.009477
   5 N :   -0.099775
   6 H :    0.054208
   7 H :    0.052407
   8 H :    0.003516
   9 H :    0.030565
  10 H :    0.017936
  11 H :    0.018386
  12 H :    0.003669
  13 H :    0.030541
  14 H :    0.052005
  15 H :    0.054086

  Mayer bond orders larger than 0.1
B(  0-N ,  1-C ) :   1.1205 B(  0-N ,  6-H ) :   0.9625 B(  0-N ,  7-H ) :   0.9641
B(  1-C ,  2-C ) :   1.0124 B(  1-C ,  8-H ) :   0.9125 B(  1-C ,  9-H ) :   0.9136
B(  2-C ,  3-C ) :   2.0306 B(  2-C ,  4-C ) :   1.0126 B(  3-C , 10-H ) :   0.9076
B(  3-C , 11-H ) :   0.9101 B(  4-C ,  5-N ) :   1.1207 B(  4-C , 12-H ) :   0.9131
B(  4-C , 13-H ) :   0.9126 B(  5-N , 14-H ) :   0.9638 B(  5-N , 15-H ) :   0.9613

FINAL SINGLE POINT ENERGY      -267.359688660572

DIPOLE MOMENT
-------------
                                X             Y             Z
Electronic contribution:     -0.69180       0.59152       0.16934
Nuclear contribution   :      1.41937      -1.20088      -0.62694
                        -----------------------------------------
Total Dipole Moment    :      0.72757      -0.60936      -0.45760
                        -----------------------------------------
Magnitude (a.u.)       :      1.05360
Magnitude (Debye)      :      2.67805

                             ****ORCA TERMINATED NORMALLY****
TOTAL RUN TIME: 0 days 0 hours 0 minutes 6 seconds 493 msec
