                         Program Version 3.0.3 - RELEASE   -
|  1> ! RI PBE def2-SVP def2-SVP/J NBO PAL2
|  2> % maxcore 2000
|  3> % output
|  4>     # printlevel mini
|  5>     print[ P_Basis ] 0
|  6>     print[ P_SCFInfo ] 1
|  7>     print[ P_SCFIterInfo ] 1
|  8>     print[ P_OrbEn ] 0
|  9>     print[ P_Cartesian ] 0
| 10> end
| 11> *xyz 0 1
| 12>  N        1.1096390000     0.4993390000    -0.2515220000
| 13>  C        2.3123090000    -0.1641040000     0.2401020000
| 14>  C        2.7464430000    -1.2186960000    -0.6640850000
| 15>  C        3.0725700000    -2.1086300000    -1.4037640000
| 16>  C        3.5002400000    -3.1774300000    -2.2940300000
| 17>  N        3.0673850000    -4.4851980000    -1.8125080000
| 18>  H        0.7748530000     1.1597170000     0.4394640000
| 19>  H        0.3768630000    -0.1841220000    -0.3974870000
| 20>  H        2.2018330000    -0.6063310000     1.2431970000
| 21>  H        3.1078550000     0.5849220000     0.3195750000
| 22>  H        4.5897860000    -3.0887680000    -2.4306360000
| 23>  H        3.0521710000    -3.0112120000    -3.2796750000
| 24>  H        3.4327750000    -4.6464650000    -0.8819940000
| 25>  H        3.4399780000    -5.2113210000    -2.4122460000
| 26> *
| 27>
| 28>                          ****END OF INPUT****
 Total Charge           Charge          ....    0
 Multiplicity           Mult            ....    1
 Number of Electrons    NEL             ....   46
 Basis Dimension        Dim             ....  124

MULLIKEN ATOMIC CHARGES
-----------------------
   0 N :   -0.219729
   1 C :    0.158975
   2 C :   -0.166808
   3 C :   -0.162286
   4 C :    0.158737
   5 N :   -0.220693
   6 H :    0.087572
   7 H :    0.095993
   8 H :    0.015569
   9 H :    0.025728
  10 H :    0.020007
  11 H :    0.025129
  12 H :    0.092650
  13 H :    0.089157
Sum of atomic charges:   -0.0000000

LOEWDIN ATOMIC CHARGES
----------------------
   0 N :   -0.108516
   1 C :    0.000582
   2 C :   -0.061619
   3 C :   -0.061850
   4 C :    0.000613
   5 N :   -0.109659
   6 H :    0.052167
   7 H :    0.054299
   8 H :    0.021825
   9 H :    0.041370
  10 H :    0.022341
  11 H :    0.043214
  12 H :    0.052603
  13 H :    0.052631

  Mayer bond orders larger than 0.1
B(  0-N ,  1-C ) :   1.0774 B(  0-N ,  6-H ) :   0.9629 B(  0-N ,  7-H ) :   0.9678
B(  1-C ,  2-C ) :   1.0758 B(  1-C ,  8-H ) :   0.9017 B(  1-C ,  9-H ) :   0.8907
B(  2-C ,  3-C ) :   2.6492 B(  3-C ,  4-C ) :   1.0784 B(  4-C ,  5-N ) :   1.0770
B(  4-C , 10-H ) :   0.9045 B(  4-C , 11-H ) :   0.8838 B(  5-N , 12-H ) :   0.9681
B(  5-N , 13-H ) :   0.9634

FINAL SINGLE POINT ENERGY      -266.115423458974

DIPOLE MOMENT
-------------
                                X             Y             Z
Electronic contribution:      0.20246       0.33399      -0.29066
Nuclear contribution   :      0.10232      -0.60113       0.71951
                        -----------------------------------------
Total Dipole Moment    :      0.30478      -0.26714       0.42885
                        -----------------------------------------
Magnitude (a.u.)       :      0.59006
Magnitude (Debye)      :      1.49981

                             ****ORCA TERMINATED NORMALLY****
TOTAL RUN TIME: 0 days 0 hours 0 minutes 5 seconds 1 msec
