                         Program Version 3.0.3 - RELEASE   -
|  1> ! RI PBE def2-SVP def2-SVP/J NBO PAL2
|  2> % maxcore 2000
|  3> % output
|  4>     # printlevel mini
|  5>     print[ P_Basis ] 0
|  6>     print[ P_SCFInfo ] 1
|  7>     print[ P_SCFIterInfo ] 1
|  8>     print[ P_OrbEn ] 0
|  9>     print[ P_Cartesian ] 0
| 10> end
| 11> *xyz 0 1
| 12>  N        0.9973390000    -0.1057110000     0.2181280000
| 13>  C        2.4495640000    -0.0365640000     0.1644980000
| 14>  C        2.9439300000     1.1254040000     1.0039020000
| 15>  N        4.3868220000     1.2293790000     0.9461250000
| 16>  C        5.0112250000     1.9424230000     2.0381360000
| 17>  C        5.1106420000     0.4693380000     1.9448770000
| 18>  H        0.6624010000    -0.9392090000    -0.2470850000
| 19>  H        0.5886870000     0.6835910000    -0.2680270000
| 20>  H        2.8646450000     0.0646200000    -0.8487820000
| 21>  H        2.8504480000    -0.9671540000     0.5787000000
| 22>  H        2.5720890000     1.0061170000     2.0352330000
| 23>  H        2.5235500000     2.0609560000     0.6160850000
| 24>  H        4.3635230000     2.3443770000     2.8140650000
| 25>  H        5.8570700000     2.5683300000     1.7748780000
| 26>  H        4.5269490000    -0.1100020000     2.6572080000
| 27>  H        6.0303280000    -0.0001050000     1.6132590000
| 28> *
| 29>
| 30>                          ****END OF INPUT****
 Total Charge           Charge          ....    0
 Multiplicity           Mult            ....    1
 Number of Electrons    NEL             ....   48
 Basis Dimension        Dim             ....  134

MULLIKEN ATOMIC CHARGES
-----------------------
   0 N :   -0.214552
   1 C :    0.077783
   2 C :    0.079930
   3 N :   -0.287522
   4 C :    0.025792
   5 C :    0.026259
   6 H :    0.088961
   7 H :    0.087953
   8 H :    0.000504
   9 H :   -0.001827
  10 H :   -0.010981
  11 H :    0.002795
  12 H :    0.024273
  13 H :    0.036540
  14 H :    0.028563
  15 H :    0.035531
Sum of atomic charges:   -0.0000000

LOEWDIN ATOMIC CHARGES
----------------------
   0 N :   -0.111231
   1 C :    0.001265
   2 C :    0.005499
   3 N :   -0.108599
   4 C :    0.002460
   5 C :    0.000022
   6 H :    0.053046
   7 H :    0.049886
   8 H :    0.002204
   9 H :    0.018455
  10 H :    0.002049
  11 H :    0.018289
  12 H :    0.013090
  13 H :    0.020186
  14 H :    0.013189
  15 H :    0.020189

  Mayer bond orders larger than 0.1
B(  0-N ,  1-C ) :   1.0930 B(  0-N ,  6-H ) :   0.9659 B(  0-N ,  7-H ) :   0.9702
B(  1-C ,  2-C ) :   1.0863 B(  1-C ,  8-H ) :   0.9247 B(  1-C ,  9-H ) :   0.9316
B(  2-C ,  3-N ) :   1.0160 B(  2-C , 10-H ) :   0.9045 B(  2-C , 11-H ) :   0.9355
B(  3-N ,  4-C ) :   0.9717 B(  3-N ,  5-C ) :   0.9600 B(  4-C ,  5-C ) :   1.0916
B(  4-C , 12-H ) :   0.9324 B(  4-C , 13-H ) :   0.9506 B(  5-C , 14-H ) :   0.9303
B(  5-C , 15-H ) :   0.9511

FINAL SINGLE POINT ENERGY      -267.342251389427

DIPOLE MOMENT
-------------
                                X             Y             Z
Electronic contribution:      1.16928       0.65740      -0.47080
Nuclear contribution   :     -1.31491      -0.73599       0.36480
                        -----------------------------------------
Total Dipole Moment    :     -0.14563      -0.07858      -0.10600
                        -----------------------------------------
Magnitude (a.u.)       :      0.19652
Magnitude (Debye)      :      0.49951

                             ****ORCA TERMINATED NORMALLY****
TOTAL RUN TIME: 0 days 0 hours 0 minutes 6 seconds 490 msec
