                         Program Version 3.0.3 - RELEASE   -
|  1> ! RI PBE def2-SVP def2-SVP/J NBO PAL2
|  2> % maxcore 2000
|  3> % output
|  4>     # printlevel mini
|  5>     print[ P_Basis ] 0
|  6>     print[ P_SCFInfo ] 1
|  7>     print[ P_SCFIterInfo ] 1
|  8>     print[ P_OrbEn ] 0
|  9>     print[ P_Cartesian ] 0
| 10> end
| 11> *xyz 0 1
| 12>  N        3.2764500000     1.8823610000    -1.5574960000
| 13>  C        3.4807490000     1.0426150000    -0.8007770000
| 14>  C        3.7137110000    -0.0239530000     0.1696780000
| 15>  N        4.4589060000    -1.1138850000    -0.4207360000
| 16>  C        4.2545880000    -2.4043730000     0.2082120000
| 17>  C        3.6672170000    -2.1098210000    -1.1167970000
| 18>  H        2.7328150000    -0.3340680000     0.5679460000
| 19>  H        4.2881380000     0.3906110000     1.0036470000
| 20>  H        3.5721380000    -2.4546320000     1.0533400000
| 21>  H        5.1383490000    -3.0258730000     0.2936470000
| 22>  H        2.5913680000    -1.9604630000    -1.1625510000
| 23>  H        4.1140800000    -2.5111270000    -2.0185230000
| 24> *
| 25>
| 26>                          ****END OF INPUT****
 Total Charge           Charge          ....    0
 Multiplicity           Mult            ....    1
 Number of Electrons    NEL             ....   44
 Basis Dimension        Dim             ....  114

MULLIKEN ATOMIC CHARGES
-----------------------
   0 N :    0.063340
   1 C :   -0.265631
   2 C :    0.184419
   3 N :   -0.297692
   4 C :    0.020707
   5 C :    0.043290
   6 H :    0.024393
   7 H :    0.053430
   8 H :    0.031975
   9 H :    0.053854
  10 H :    0.039109
  11 H :    0.048806
Sum of atomic charges:   -0.0000000

LOEWDIN ATOMIC CHARGES
----------------------
   0 N :   -0.052429
   1 C :   -0.045104
   2 C :   -0.001102
   3 N :   -0.101200
   4 C :    0.008303
   5 C :    0.011688
   6 H :    0.031457
   7 H :    0.055795
   8 H :    0.016541
   9 H :    0.027910
  10 H :    0.019263
  11 H :    0.028879

  Mayer bond orders larger than 0.1
B(  0-N ,  1-C ) :   3.0691 B(  1-C ,  2-C ) :   1.1197 B(  2-C ,  3-N ) :   1.0441
B(  2-C ,  6-H ) :   0.8799 B(  2-C ,  7-H ) :   0.8842 B(  3-N ,  4-C ) :   0.9619
B(  3-N ,  5-C ) :   0.9444 B(  4-C ,  5-C ) :   1.1002 B(  4-C ,  8-H ) :   0.9294
B(  4-C ,  9-H ) :   0.9505 B(  5-C , 10-H ) :   0.9316 B(  5-C , 11-H ) :   0.9512

FINAL SINGLE POINT ENERGY      -264.935984414749

DIPOLE MOMENT
-------------
                                X             Y             Z
Electronic contribution:      0.20793       5.18388      -1.92909
Nuclear contribution   :     -0.37592      -6.44972       2.93477
                        -----------------------------------------
Total Dipole Moment    :     -0.16799      -1.26583       1.00568
                        -----------------------------------------
Magnitude (a.u.)       :      1.62540
Magnitude (Debye)      :      4.13145

                             ****ORCA TERMINATED NORMALLY****
TOTAL RUN TIME: 0 days 0 hours 0 minutes 5 seconds 274 msec
