                         Program Version 3.0.3 - RELEASE   -
|  1> ! RI PBE def2-SVP def2-SVP/J NBO PAL2
|  2> % maxcore 2000
|  3> % output
|  4>     # printlevel mini
|  5>     print[ P_Basis ] 0
|  6>     print[ P_SCFInfo ] 1
|  7>     print[ P_SCFIterInfo ] 1
|  8>     print[ P_OrbEn ] 0
|  9>     print[ P_Cartesian ] 0
| 10> end
| 11> *xyz 0 1
| 12>  N        1.3886010000    -0.7908280000    -0.2397450000
| 13>  C        2.6389060000    -0.1819040000     0.1864340000
| 14>  C        3.0561210000     0.9098960000    -0.8077520000
| 15>  N        2.0551970000     1.9407260000    -0.9864860000
| 16>  C        4.3905170000     1.4726160000    -0.4323830000
| 17>  C        4.7041590000     2.7599660000    -0.3967530000
| 18>  H        0.9745970000    -1.3366940000     0.5036840000
| 19>  H        1.5435930000    -1.4185640000    -1.0195030000
| 20>  H        3.4644370000    -0.9011180000     0.3047100000
| 21>  H        2.4781150000     0.2856030000     1.1636360000
| 22>  H        3.1810730000     0.4091840000    -1.7824530000
| 23>  H        1.9969720000     2.4985180000    -0.1399680000
| 24>  H        1.1557730000     1.4818330000    -1.0908000000
| 25>  H        5.1449270000     0.7340910000    -0.1676320000
| 26>  H        3.9888500000     3.5241340000    -0.6790310000
| 27>  H        5.6961730000     3.0864210000    -0.1071580000
| 28> *
| 29>
| 30>                          ****END OF INPUT****
 Total Charge           Charge          ....    0
 Multiplicity           Mult            ....    1
 Number of Electrons    NEL             ....   48
 Basis Dimension        Dim             ....  134

MULLIKEN ATOMIC CHARGES
-----------------------
   0 N :   -0.200354
   1 C :    0.046629
   2 C :    0.038428
   3 N :   -0.161487
   4 C :   -0.074347
   5 C :   -0.029411
   6 H :    0.094749
   7 H :    0.090670
   8 H :   -0.009057
   9 H :    0.001031
  10 H :    0.008990
  11 H :    0.082714
  12 H :    0.079856
  13 H :   -0.007682
  14 H :    0.022712
  15 H :    0.016560
Sum of atomic charges:   -0.0000000

LOEWDIN ATOMIC CHARGES
----------------------
   0 N :   -0.104799
   1 C :   -0.006620
   2 C :   -0.014362
   3 N :   -0.090278
   4 C :   -0.034807
   5 C :   -0.066268
   6 H :    0.055464
   7 H :    0.052874
   8 H :   -0.000706
   9 H :    0.017733
  10 H :    0.030213
  11 H :    0.047865
  12 H :    0.045150
  13 H :    0.023182
  14 H :    0.022505
  15 H :    0.022854

  Mayer bond orders larger than 0.1
B(  0-N ,  1-C ) :   1.1018 B(  0-N ,  6-H ) :   0.9652 B(  0-N ,  7-H ) :   0.9680
B(  1-C ,  2-C ) :   1.0109 B(  1-C ,  8-H ) :   0.9212 B(  1-C ,  9-H ) :   0.9296
B(  2-C ,  3-N ) :   1.1388 B(  2-C ,  4-C ) :   1.0115 B(  2-C , 10-H ) :   0.8775
B(  3-N , 11-H ) :   0.9553 B(  3-N , 12-H ) :   0.9495 B(  4-C ,  5-C ) :   2.0158
B(  4-C , 13-H ) :   0.9501 B(  5-C , 14-H ) :   0.9293 B(  5-C , 15-H ) :   0.9389

FINAL SINGLE POINT ENERGY      -267.361884526668

DIPOLE MOMENT
-------------
                                X             Y             Z
Electronic contribution:     -0.05532       0.47317      -0.79130
Nuclear contribution   :     -0.07454      -1.31987       1.26904
                        -----------------------------------------
Total Dipole Moment    :     -0.12986      -0.84669       0.47774
                        -----------------------------------------
Magnitude (a.u.)       :      0.98081
Magnitude (Debye)      :      2.49302

                             ****ORCA TERMINATED NORMALLY****
TOTAL RUN TIME: 0 days 0 hours 0 minutes 6 seconds 531 msec
