                         Program Version 3.0.3 - RELEASE   -
|  1> ! RI PBE def2-SVP def2-SVP/J NBO PAL2
|  2> % maxcore 2000
|  3> % output
|  4>     # printlevel mini
|  5>     print[ P_Basis ] 0
|  6>     print[ P_SCFInfo ] 1
|  7>     print[ P_SCFIterInfo ] 1
|  8>     print[ P_OrbEn ] 0
|  9>     print[ P_Cartesian ] 0
| 10> end
| 11> *xyz 0 1
| 12>  N        2.8239430000    -0.5454500000     1.3778380000
| 13>  C        2.4200390000     0.0182870000     0.1064160000
| 14>  C        2.9407240000    -0.8326650000    -1.0603780000
| 15>  N        2.4728220000    -0.4067290000    -2.3715180000
| 16>  C        4.4014410000    -0.8594190000    -1.0421260000
| 17>  C        5.6009040000    -0.8407100000    -0.9909430000
| 18>  H        2.4323920000    -0.0204420000     2.1485170000
| 19>  H        3.8329230000    -0.5126190000     1.4678420000
| 20>  H        2.7466220000     1.0576280000    -0.0628480000
| 21>  H        1.3263530000     0.0082100000     0.0539890000
| 22>  H        2.5903790000    -1.8581820000    -0.8928840000
| 23>  H        2.8204120000     0.5207630000    -2.5845780000
| 24>  H        1.4606200000    -0.3652210000    -2.3786760000
| 25>  H        6.6649970000    -0.8429800000    -0.9657510000
| 26> *
| 27>
| 28>                          ****END OF INPUT****
 Total Charge           Charge          ....    0
 Multiplicity           Mult            ....    1
 Number of Electrons    NEL             ....   46
 Basis Dimension        Dim             ....  124

MULLIKEN ATOMIC CHARGES
-----------------------
   0 N :   -0.208971
   1 C :    0.082567
   2 C :    0.046034
   3 N :   -0.166532
   4 C :    0.371659
   5 C :   -0.503936
   6 H :    0.091368
   7 H :    0.094658
   8 H :   -0.014795
   9 H :    0.002261
  10 H :    0.024528
  11 H :    0.093082
  12 H :    0.089863
  13 H :   -0.001786
Sum of atomic charges:    0.0000000

LOEWDIN ATOMIC CHARGES
----------------------
   0 N :   -0.109278
   1 C :   -0.002213
   2 C :   -0.014877
   3 N :   -0.080233
   4 C :   -0.013167
   5 C :   -0.085622
   6 H :    0.054569
   7 H :    0.053098
   8 H :   -0.004338
   9 H :    0.017356
  10 H :    0.044695
  11 H :    0.052747
  12 H :    0.052703
  13 H :    0.034560

  Mayer bond orders larger than 0.1
B(  0-N ,  1-C ) :   1.0871 B(  0-N ,  6-H ) :   0.9598 B(  0-N ,  7-H ) :   0.9640
B(  1-C ,  2-C ) :   1.0188 B(  1-C ,  8-H ) :   0.9100 B(  1-C ,  9-H ) :   0.9278
B(  2-C ,  3-N ) :   1.0948 B(  2-C ,  4-C ) :   1.0184 B(  2-C , 10-H ) :   0.8524
B(  3-N , 11-H ) :   0.9643 B(  3-N , 12-H ) :   0.9667 B(  4-C ,  5-C ) :   2.3334
B(  4-C , 13-H ) :  -0.1172 B(  5-C , 13-H ) :   1.1080

FINAL SINGLE POINT ENERGY      -266.113205979107

DIPOLE MOMENT
-------------
                                X             Y             Z
Electronic contribution:      2.61925      -1.41746      -1.33797
Nuclear contribution   :     -2.83930       2.17791       1.71769
                        -----------------------------------------
Total Dipole Moment    :     -0.22005       0.76045       0.37972
                        -----------------------------------------
Magnitude (a.u.)       :      0.87801
Magnitude (Debye)      :      2.23172

                             ****ORCA TERMINATED NORMALLY****
TOTAL RUN TIME: 0 days 0 hours 0 minutes 5 seconds 641 msec
