                         Program Version 3.0.3 - RELEASE   -
|  1> ! RI PBE def2-SVP def2-SVP/J NBO PAL2
|  2> % maxcore 2000
|  3> % output
|  4>     # printlevel mini
|  5>     print[ P_Basis ] 0
|  6>     print[ P_SCFInfo ] 1
|  7>     print[ P_SCFIterInfo ] 1
|  8>     print[ P_OrbEn ] 0
|  9>     print[ P_Cartesian ] 0
| 10> end
| 11> *xyz 0 1
| 12>  N        1.1412750000    -0.7331400000    -0.1251990000
| 13>  C        2.0062920000     0.0489230000     0.3938960000
| 14>  N        2.8761180000    -0.3709140000     1.3276010000
| 15>  C        3.9378840000     0.2779220000     2.0707390000
| 16>  C        4.2012400000    -1.0753410000     2.7723050000
| 17>  C        3.0509330000    -1.6755400000     1.9313620000
| 18>  H        0.5789760000    -0.2347770000    -0.8059320000
| 19>  H        2.1322590000     1.1112370000     0.1461160000
| 20>  H        3.6019070000     1.0853800000     2.7304250000
| 21>  H        4.7628700000     0.6487820000     1.4527320000
| 22>  H        4.0245510000    -1.0687650000     3.8462920000
| 23>  H        5.1820100000    -1.5034890000     2.5736100000
| 24>  H        2.1773540000    -2.0213920000     2.4918370000
| 25>  H        3.3348100000    -2.4554660000     1.2185960000
| 26> *
| 27>
| 28>                          ****END OF INPUT****
 Total Charge           Charge          ....    0
 Multiplicity           Mult            ....    1
 Number of Electrons    NEL             ....   46
 Basis Dimension        Dim             ....  124

MULLIKEN ATOMIC CHARGES
-----------------------
   0 N :   -0.188944
   1 C :    0.020030
   2 N :   -0.290697
   3 C :    0.174168
   4 C :   -0.122392
   5 C :    0.190313
   6 H :    0.087432
   7 H :   -0.021663
   8 H :    0.020103
   9 H :    0.019544
  10 H :    0.035706
  11 H :    0.028167
  12 H :    0.023044
  13 H :    0.025190
Sum of atomic charges:   -0.0000000

LOEWDIN ATOMIC CHARGES
----------------------
   0 N :   -0.196635
   1 C :    0.007694
   2 N :   -0.040148
   3 C :    0.046906
   4 C :   -0.037846
   5 C :    0.054350
   6 H :    0.046186
   7 H :   -0.008526
   8 H :    0.015422
   9 H :    0.015415
  10 H :    0.028885
  11 H :    0.027347
  12 H :    0.020172
  13 H :    0.020778

  Mayer bond orders larger than 0.1
B(  0-N ,  1-C ) :   1.8720 B(  0-N ,  6-H ) :   0.9377 B(  1-C ,  2-N ) :   1.1835
B(  1-C ,  7-H ) :   0.9366 B(  2-N ,  3-C ) :   1.0144 B(  2-N ,  5-C ) :   1.0077
B(  3-C ,  4-C ) :   1.1180 B(  3-C ,  8-H ) :   0.9335 B(  3-C ,  9-H ) :   0.9343
B(  4-C ,  5-C ) :   1.1086 B(  4-C , 10-H ) :   0.9308 B(  4-C , 11-H ) :   0.9319
B(  5-C , 12-H ) :   0.9372 B(  5-C , 13-H ) :   0.9374

FINAL SINGLE POINT ENERGY      -266.165022329285

DIPOLE MOMENT
-------------
                                X             Y             Z
Electronic contribution:     -1.98135       0.34809      -1.92397
Nuclear contribution   :      2.70862       0.21284       2.38856
                        -----------------------------------------
Total Dipole Moment    :      0.72727       0.56093       0.46458
                        -----------------------------------------
Magnitude (a.u.)       :      1.02927
Magnitude (Debye)      :      2.61619

                             ****ORCA TERMINATED NORMALLY****
TOTAL RUN TIME: 0 days 0 hours 0 minutes 5 seconds 818 msec
