                         Program Version 3.0.3 - RELEASE   -
|  1> ! RI PBE def2-SVP def2-SVP/J NBO PAL2
|  2> % maxcore 2000
|  3> % output
|  4>     # printlevel mini
|  5>     print[ P_Basis ] 0
|  6>     print[ P_SCFInfo ] 1
|  7>     print[ P_SCFIterInfo ] 1
|  8>     print[ P_OrbEn ] 0
|  9>     print[ P_Cartesian ] 0
| 10> end
| 11> *xyz 0 1
| 12>  N        1.0680660000    -2.5560200000    -0.0609410000
| 13>  C        2.3368310000    -2.5274510000     0.0046960000
| 14>  N        3.0469530000    -1.3800590000    -0.1851050000
| 15>  C        4.3925210000    -1.2390220000     0.2516910000
| 16>  C        5.4635550000    -1.9880170000    -0.4822080000
| 17>  C        5.3449550000    -0.5045300000    -0.6373820000
| 18>  H        0.7279450000    -3.5040830000     0.0565750000
| 19>  H        2.9801400000    -3.3958360000     0.1879890000
| 20>  H        2.4831390000    -0.5445550000    -0.2438570000
| 21>  H        4.5435860000    -1.1136430000     1.3227940000
| 22>  H        5.1491490000    -2.6014480000    -1.3167330000
| 23>  H        6.2884210000    -2.3857560000     0.0948120000
| 24>  H        4.9486010000    -0.1337220000    -1.5741480000
| 25>  H        6.0882280000     0.1283430000    -0.1700640000
| 26> *
| 27>
| 28>                          ****END OF INPUT****
 Total Charge           Charge          ....    0
 Multiplicity           Mult            ....    1
 Number of Electrons    NEL             ....   46
 Basis Dimension        Dim             ....  124

MULLIKEN ATOMIC CHARGES
-----------------------
   0 N :   -0.161904
   1 C :   -0.015439
   2 N :   -0.088255
   3 C :   -0.064848
   4 C :   -0.037724
   5 C :   -0.022482
   6 H :    0.090028
   7 H :   -0.009455
   8 H :    0.111550
   9 H :    0.033464
  10 H :    0.046202
  11 H :    0.041458
  12 H :    0.038987
  13 H :    0.038419
Sum of atomic charges:    0.0000000

LOEWDIN ATOMIC CHARGES
----------------------
   0 N :   -0.183646
   1 C :    0.020668
   2 N :    0.000243
   3 C :   -0.001348
   4 C :   -0.045297
   5 C :   -0.045356
   6 H :    0.048153
   7 H :   -0.005401
   8 H :    0.073029
   9 H :    0.016371
  10 H :    0.032197
  11 H :    0.029737
  12 H :    0.030850
  13 H :    0.029801

  Mayer bond orders larger than 0.1
B(  0-N ,  1-C ) :   1.9156 B(  0-N ,  6-H ) :   0.9350 B(  1-C ,  2-N ) :   1.1766
B(  1-C ,  7-H ) :   0.9348 B(  2-N ,  3-C ) :   1.0582 B(  2-N ,  8-H ) :   0.9232
B(  3-C ,  4-C ) :   0.9950 B(  3-C ,  5-C ) :   0.9952 B(  3-C ,  9-H ) :   0.9366
B(  4-C ,  5-C ) :   1.0432 B(  4-C , 10-H ) :   0.9479 B(  4-C , 11-H ) :   0.9499
B(  5-C , 12-H ) :   0.9498 B(  5-C , 13-H ) :   0.9455

FINAL SINGLE POINT ENERGY      -266.166529634994

DIPOLE MOMENT
-------------
                                X             Y             Z
Electronic contribution:     -3.30183      -0.16706       0.34125
Nuclear contribution   :      4.21595       0.12921      -0.16016
                        -----------------------------------------
Total Dipole Moment    :      0.91412      -0.03785       0.18109
                        -----------------------------------------
Magnitude (a.u.)       :      0.93265
Magnitude (Debye)      :      2.37062

                             ****ORCA TERMINATED NORMALLY****
TOTAL RUN TIME: 0 days 0 hours 0 minutes 6 seconds 31 msec
