                         Program Version 3.0.3 - RELEASE   -
|  1> ! RI PBE def2-SVP def2-SVP/J NBO PAL2
|  2> % maxcore 2000
|  3> % output
|  4>     # printlevel mini
|  5>     print[ P_Basis ] 0
|  6>     print[ P_SCFInfo ] 1
|  7>     print[ P_SCFIterInfo ] 1
|  8>     print[ P_OrbEn ] 0
|  9>     print[ P_Cartesian ] 0
| 10> end
| 11> *xyz 0 1
| 12>  N        3.0150130000     0.2615880000     1.2008750000
| 13>  C        2.2890960000    -0.0475190000     0.0744750000
| 14>  N        1.0349490000     0.1146960000    -0.0805160000
| 15>  C        3.1107010000    -0.5762540000    -1.0451900000
| 16>  C        2.5292650000    -1.6709100000    -1.9016120000
| 17>  C        2.6685340000    -0.2991890000    -2.4545080000
| 18>  H        2.5064000000     0.4238950000     2.0534540000
| 19>  H        3.9172180000    -0.1663870000     1.3159050000
| 20>  H        0.5883480000     0.4705110000     0.7613380000
| 21>  H        4.1797480000    -0.6085940000    -0.8670750000
| 22>  H        1.5326750000    -1.9936420000    -1.6287990000
| 23>  H        3.2025230000    -2.4455140000    -2.2473160000
| 24>  H        1.7647810000     0.2893240000    -2.5453590000
| 25>  H        3.4406680000    -0.1088960000    -3.1893520000
| 26> *
| 27>
| 28>                          ****END OF INPUT****
 Total Charge           Charge          ....    0
 Multiplicity           Mult            ....    1
 Number of Electrons    NEL             ....   46
 Basis Dimension        Dim             ....  124

MULLIKEN ATOMIC CHARGES
-----------------------
   0 N :   -0.045063
   1 C :   -0.144281
   2 N :   -0.115100
   3 C :   -0.092883
   4 C :   -0.011797
   5 C :   -0.011314
   6 H :    0.097837
   7 H :    0.103135
   8 H :    0.069505
   9 H :   -0.012547
  10 H :    0.045169
  11 H :    0.032341
  12 H :    0.051471
  13 H :    0.033526
Sum of atomic charges:   -0.0000000

LOEWDIN ATOMIC CHARGES
----------------------
   0 N :   -0.013439
   1 C :    0.010402
   2 N :   -0.188760
   3 C :   -0.062240
   4 C :   -0.025750
   5 C :   -0.025994
   6 H :    0.063530
   7 H :    0.067043
   8 H :    0.036963
   9 H :    0.021636
  10 H :    0.031688
  11 H :    0.025026
  12 H :    0.033777
  13 H :    0.026117

  Mayer bond orders larger than 0.1
B(  0-N ,  1-C ) :   1.2270 B(  0-N ,  6-H ) :   0.9443 B(  0-N ,  7-H ) :   0.9356
B(  1-C ,  2-N ) :   1.9906 B(  1-C ,  3-C ) :   0.9994 B(  2-N ,  8-H ) :   0.9272
B(  3-C ,  4-C ) :   0.9729 B(  3-C ,  5-C ) :   0.9905 B(  3-C ,  9-H ) :   0.9308
B(  4-C ,  5-C ) :   1.0583 B(  4-C , 10-H ) :   0.9403 B(  4-C , 11-H ) :   0.9481
B(  5-C , 12-H ) :   0.9347 B(  5-C , 13-H ) :   0.9460

FINAL SINGLE POINT ENERGY      -266.178827070910

DIPOLE MOMENT
-------------
                                X             Y             Z
Electronic contribution:     -0.65394       1.05913       1.95701
Nuclear contribution   :      1.50281      -1.19570      -1.06238
                        -----------------------------------------
Total Dipole Moment    :      0.84887      -0.13657       0.89463
                        -----------------------------------------
Magnitude (a.u.)       :      1.24081
Magnitude (Debye)      :      3.15388

                             ****ORCA TERMINATED NORMALLY****
TOTAL RUN TIME: 0 days 0 hours 0 minutes 5 seconds 721 msec
