                         Program Version 3.0.3 - RELEASE   -
|  1> ! RI PBE def2-SVP def2-SVP/J NBO PAL2
|  2> % maxcore 2000
|  3> % output
|  4>     # printlevel mini
|  5>     print[ P_Basis ] 0
|  6>     print[ P_SCFInfo ] 1
|  7>     print[ P_SCFIterInfo ] 1
|  8>     print[ P_OrbEn ] 0
|  9>     print[ P_Cartesian ] 0
| 10> end
| 11> *xyz 0 1
| 12>  N        2.6601970000    -0.7271470000     1.4365910000
| 13>  C        2.3895000000     0.1366090000     0.4048880000
| 14>  N        1.5072680000     1.0537500000     0.3847250000
| 15>  C        3.2114570000    -0.1225590000    -0.8378060000
| 16>  C        4.6835600000    -0.1221660000    -0.5781130000
| 17>  C        5.4838500000    -1.1667980000    -0.7473530000
| 18>  H        2.2939450000    -0.5049320000     2.3465880000
| 19>  H        3.5579390000    -1.1838960000     1.4306340000
| 20>  H        1.0090340000     1.1127140000     1.2729640000
| 21>  H        2.9412370000     0.6577740000    -1.5510600000
| 22>  H        2.9113670000    -1.0881550000    -1.2583600000
| 23>  H        5.1025940000     0.8154880000    -0.2172680000
| 24>  H        5.1043750000    -2.1164060000    -1.1133890000
| 25>  H        6.5468860000    -1.1069650000    -0.5440410000
| 26> *
| 27>
| 28>                          ****END OF INPUT****
 Total Charge           Charge          ....    0
 Multiplicity           Mult            ....    1
 Number of Electrons    NEL             ....   46
 Basis Dimension        Dim             ....  124

MULLIKEN ATOMIC CHARGES
-----------------------
   0 N :   -0.042521
   1 C :   -0.265375
   2 N :   -0.088561
   3 C :    0.167728
   4 C :   -0.118029
   5 C :   -0.034966
   6 H :    0.101282
   7 H :    0.104878
   8 H :    0.066487
   9 H :    0.022963
  10 H :    0.025123
  11 H :    0.007416
  12 H :    0.022337
  13 H :    0.031238
Sum of atomic charges:   -0.0000000

LOEWDIN ATOMIC CHARGES
----------------------
   0 N :   -0.014951
   1 C :    0.000384
   2 N :   -0.175514
   3 C :   -0.043836
   4 C :   -0.029523
   5 C :   -0.069467
   6 H :    0.063837
   7 H :    0.065569
   8 H :    0.035763
   9 H :    0.048640
  10 H :    0.040221
  11 H :    0.029530
  12 H :    0.022776
  13 H :    0.026571

  Mayer bond orders larger than 0.1
B(  0-N ,  1-C ) :   1.2210 B(  0-N ,  6-H ) :   0.9499 B(  0-N ,  7-H ) :   0.9271
B(  1-C ,  2-N ) :   2.0431 B(  1-C ,  3-C ) :   0.9696 B(  2-N ,  8-H ) :   0.9313
B(  3-C ,  4-C ) :   1.0641 B(  3-C ,  9-H ) :   0.8884 B(  3-C , 10-H ) :   0.9194
B(  4-C ,  5-C ) :   1.9700 B(  4-C , 11-H ) :   0.9593 B(  5-C , 12-H ) :   0.9484
B(  5-C , 13-H ) :   0.9437

FINAL SINGLE POINT ENERGY      -266.179697396676

DIPOLE MOMENT
-------------
                                X             Y             Z
Electronic contribution:     -2.26982       1.29807       0.87125
Nuclear contribution   :      2.87614      -1.93449      -0.07187
                        -----------------------------------------
Total Dipole Moment    :      0.60631      -0.63642       0.79938
                        -----------------------------------------
Magnitude (a.u.)       :      1.18813
Magnitude (Debye)      :      3.02000

                             ****ORCA TERMINATED NORMALLY****
TOTAL RUN TIME: 0 days 0 hours 0 minutes 6 seconds 424 msec
