                         Program Version 3.0.3 - RELEASE   -
|  1> ! RI PBE def2-SVP def2-SVP/J NBO PAL2
|  2> % maxcore 2000
|  3> % output
|  4>     # printlevel mini
|  5>     print[ P_Basis ] 0
|  6>     print[ P_SCFInfo ] 1
|  7>     print[ P_SCFIterInfo ] 1
|  8>     print[ P_OrbEn ] 0
|  9>     print[ P_Cartesian ] 0
| 10> end
| 11> *xyz 0 1
| 12>  N        1.1192170000     0.0073580000     0.3636110000
| 13>  C        2.3661110000    -0.1599600000    -0.1719810000
| 14>  N        2.7591010000    -1.0731220000    -0.9640130000
| 15>  C        3.3492100000     0.9502280000     0.1563090000
| 16>  C        3.2042810000     1.5264630000     1.4811720000
| 17>  C        3.0583040000     1.9967090000     2.5764840000
| 18>  H        0.4786910000    -0.7661130000     0.3110560000
| 19>  H        1.0428230000     0.5851910000     1.1856460000
| 20>  H        2.0178450000    -1.7434060000    -1.1636640000
| 21>  H        3.2191950000     1.7388830000    -0.5936640000
| 22>  H        4.3512080000     0.5425260000     0.0163790000
| 23>  H        2.9505930000     2.4183340000     3.5479840000
| 24> *
| 25>
| 26>                          ****END OF INPUT****
 Total Charge           Charge          ....    0
 Multiplicity           Mult            ....    1
 Number of Electrons    NEL             ....   44
 Basis Dimension        Dim             ....  114

MULLIKEN ATOMIC CHARGES
-----------------------
   0 N :   -0.035566
   1 C :   -0.248914
   2 N :   -0.103258
   3 C :    0.194678
   4 C :    0.261497
   5 C :   -0.477461
   6 H :    0.105549
   7 H :    0.111789
   8 H :    0.070639
   9 H :    0.069828
  10 H :    0.048075
  11 H :    0.003144
Sum of atomic charges:   -0.0000000

LOEWDIN ATOMIC CHARGES
----------------------
   0 N :   -0.008178
   1 C :    0.004497
   2 N :   -0.176100
   3 C :   -0.048327
   4 C :   -0.027049
   5 C :   -0.090259
   6 H :    0.066986
   7 H :    0.070585
   8 H :    0.038857
   9 H :    0.068632
  10 H :    0.064039
  11 H :    0.036317

  Mayer bond orders larger than 0.1
B(  0-N ,  1-C ) :   1.2409 B(  0-N ,  2-N ) :   0.1099 B(  0-N ,  6-H ) :   0.9479
B(  0-N ,  7-H ) :   0.9209 B(  1-C ,  2-N ) :   2.0231 B(  1-C ,  3-C ) :   0.9414
B(  2-N ,  8-H ) :   0.9306 B(  3-C ,  4-C ) :   1.0326 B(  3-C ,  9-H ) :   0.8875
B(  3-C , 10-H ) :   0.8872 B(  4-C ,  5-C ) :   2.3620 B(  4-C , 11-H ) :  -0.1091
B(  5-C , 11-H ) :   1.1002

FINAL SINGLE POINT ENERGY      -264.936001541031

DIPOLE MOMENT
-------------
                                X             Y             Z
Electronic contribution:      0.46444       0.28867       0.50193
Nuclear contribution   :     -1.37531      -0.12764       0.11021
                        -----------------------------------------
Total Dipole Moment    :     -0.91088       0.16103       0.61214
                        -----------------------------------------
Magnitude (a.u.)       :      1.10921
Magnitude (Debye)      :      2.81939

                             ****ORCA TERMINATED NORMALLY****
TOTAL RUN TIME: 0 days 0 hours 0 minutes 5 seconds 424 msec
