                         Program Version 3.0.3 - RELEASE   -
|  1> ! RI PBE def2-SVP def2-SVP/J NBO PAL2
|  2> % maxcore 2000
|  3> % output
|  4>     # printlevel mini
|  5>     print[ P_Basis ] 0
|  6>     print[ P_SCFInfo ] 1
|  7>     print[ P_SCFIterInfo ] 1
|  8>     print[ P_OrbEn ] 0
|  9>     print[ P_Cartesian ] 0
| 10> end
| 11> *xyz 0 1
| 12>  N        1.0129500000     0.1345030000    -0.0909060000
| 13>  N        2.3942070000     0.0050150000    -0.0614260000
| 14>  C        3.2375260000     1.0646600000    -0.2057520000
| 15>  C        4.5220910000     0.5907140000    -0.1276910000
| 16>  C        4.4437540000    -0.8096840000     0.0714410000
| 17>  C        3.1144550000    -1.1444300000     0.1084970000
| 18>  H        0.6234140000    -0.1936880000     0.7849400000
| 19>  H        0.6363620000    -0.4264470000    -0.8459250000
| 20>  H        2.8381030000     2.0548210000    -0.3498600000
| 21>  H        5.4191050000     1.1846040000    -0.2051760000
| 22>  H        5.2692340000    -1.4965390000     0.1760260000
| 23>  H        2.6190980000    -2.0936300000     0.2393410000
| 24> *
| 25>
| 26>                          ****END OF INPUT****
 Total Charge           Charge          ....    0
 Multiplicity           Mult            ....    1
 Number of Electrons    NEL             ....   44
 Basis Dimension        Dim             ....  114

MULLIKEN ATOMIC CHARGES
-----------------------
   0 N :   -0.056380
   1 N :   -0.169179
   2 C :    0.078397
   3 C :   -0.027814
   4 C :   -0.026795
   5 C :    0.049454
   6 H :    0.112226
   7 H :    0.112797
   8 H :   -0.010405
   9 H :   -0.021256
  10 H :   -0.020949
  11 H :   -0.020096
Sum of atomic charges:   -0.0000000

LOEWDIN ATOMIC CHARGES
----------------------
   0 N :   -0.019141
   1 N :    0.091795
   2 C :   -0.032579
   3 C :   -0.090974
   4 C :   -0.082971
   5 C :   -0.060689
   6 H :    0.058775
   7 H :    0.058990
   8 H :    0.019131
   9 H :    0.022718
  10 H :    0.022710
  11 H :    0.012236

  Mayer bond orders larger than 0.1
B(  0-N ,  1-N ) :   1.0116 B(  0-N ,  6-H ) :   0.9682 B(  0-N ,  7-H ) :   0.9689
B(  1-N ,  2-C ) :   1.2030 B(  1-N ,  5-C ) :   1.1927 B(  2-C ,  3-C ) :   1.4561
B(  2-C ,  8-H ) :   0.9915 B(  3-C ,  4-C ) :   1.3087 B(  3-C ,  9-H ) :   1.0050
B(  4-C ,  5-C ) :   1.4646 B(  4-C , 10-H ) :   1.0017 B(  5-C , 11-H ) :   0.9826

FINAL SINGLE POINT ENERGY      -264.970574376700

DIPOLE MOMENT
-------------
                                X             Y             Z
Electronic contribution:     -0.01657       0.27951      -0.04130
Nuclear contribution   :     -0.77367      -0.73062       0.09803
                        -----------------------------------------
Total Dipole Moment    :     -0.79024      -0.45111       0.05673
                        -----------------------------------------
Magnitude (a.u.)       :      0.91170
Magnitude (Debye)      :      2.31736

                             ****ORCA TERMINATED NORMALLY****
TOTAL RUN TIME: 0 days 0 hours 0 minutes 5 seconds 746 msec
