                         Program Version 3.0.3 - RELEASE   -
|  1> ! RI PBE def2-SVP def2-SVP/J NBO PAL2
|  2> % maxcore 2000
|  3> % output
|  4>     # printlevel mini
|  5>     print[ P_Basis ] 0
|  6>     print[ P_SCFInfo ] 1
|  7>     print[ P_SCFIterInfo ] 1
|  8>     print[ P_OrbEn ] 0
|  9>     print[ P_Cartesian ] 0
| 10> end
| 11> *xyz 0 1
| 12>  N        1.1050360000    -1.7182140000     0.8984300000
| 13>  N        2.3884760000    -1.7171230000     0.4386350000
| 14>  C        3.1753150000    -0.8089750000     0.8426040000
| 15>  C        4.5841320000    -0.7405670000     0.4134310000
| 16>  C        5.1564430000    -1.7835080000    -0.4920300000
| 17>  C        4.9127960000    -0.4112840000    -1.0262230000
| 18>  H        0.4989030000    -2.1814150000     0.2400040000
| 19>  H        0.7449100000    -0.8049770000     1.1614390000
| 20>  H        2.8235020000    -0.0175340000     1.5185300000
| 21>  H        5.2517670000    -0.3097660000     1.1520330000
| 22>  H        4.4803230000    -2.5704610000    -0.7991640000
| 23>  H        6.1796460000    -2.0915410000    -0.3177760000
| 24>  H        4.0708770000    -0.2751220000    -1.6937730000
| 25>  H        5.7624740000     0.2323670000    -1.2191290000
| 26> *
| 27>
| 28>                          ****END OF INPUT****
 Total Charge           Charge          ....    0
 Multiplicity           Mult            ....    1
 Number of Electrons    NEL             ....   46
 Basis Dimension        Dim             ....  124

MULLIKEN ATOMIC CHARGES
-----------------------
   0 N :   -0.052561
   1 N :   -0.119086
   2 C :   -0.026453
   3 C :   -0.085223
   4 C :    0.000292
   5 C :   -0.048297
   6 H :    0.113496
   7 H :    0.083735
   8 H :   -0.031395
   9 H :    0.020865
  10 H :    0.044792
  11 H :    0.028185
  12 H :    0.036811
  13 H :    0.034840
Sum of atomic charges:   -0.0000000

LOEWDIN ATOMIC CHARGES
----------------------
   0 N :   -0.001694
   1 N :   -0.050669
   2 C :   -0.047841
   3 C :   -0.058557
   4 C :   -0.033100
   5 C :   -0.035479
   6 H :    0.058285
   7 H :    0.039425
   8 H :   -0.007661
   9 H :    0.030447
  10 H :    0.029479
  11 H :    0.026534
  12 H :    0.026016
  13 H :    0.024816

  Mayer bond orders larger than 0.1
B(  0-N ,  1-N ) :   1.0993 B(  0-N ,  2-C ) :   0.1244 B(  0-N ,  6-H ) :   0.9635
B(  0-N ,  7-H ) :   0.9433 B(  1-N ,  2-C ) :   1.8898 B(  2-C ,  3-C ) :   1.0673
B(  2-C ,  8-H ) :   0.9350 B(  3-C ,  4-C ) :   0.9988 B(  3-C ,  5-C ) :   0.9668
B(  3-C ,  9-H ) :   0.9332 B(  4-C ,  5-C ) :   1.0540 B(  4-C , 10-H ) :   0.9339
B(  4-C , 11-H ) :   0.9446 B(  5-C , 12-H ) :   0.9490 B(  5-C , 13-H ) :   0.9484

FINAL SINGLE POINT ENERGY      -266.136769268093

DIPOLE MOMENT
-------------
                                X             Y             Z
Electronic contribution:     -2.19735      -0.95105       1.29741
Nuclear contribution   :      1.79739       1.49846      -1.34886
                        -----------------------------------------
Total Dipole Moment    :     -0.39996       0.54741      -0.05146
                        -----------------------------------------
Magnitude (a.u.)       :      0.67990
Magnitude (Debye)      :      1.72818

                             ****ORCA TERMINATED NORMALLY****
TOTAL RUN TIME: 0 days 0 hours 0 minutes 6 seconds 230 msec
