                         Program Version 3.0.3 - RELEASE   -
|  1> ! RI PBE def2-SVP def2-SVP/J NBO PAL2
|  2> % maxcore 2000
|  3> % output
|  4>     # printlevel mini
|  5>     print[ P_Basis ] 0
|  6>     print[ P_SCFInfo ] 1
|  7>     print[ P_SCFIterInfo ] 1
|  8>     print[ P_OrbEn ] 0
|  9>     print[ P_Cartesian ] 0
| 10> end
| 11> *xyz 0 1
| 12>  N        0.8083630000    -1.3555450000     0.0501430000
| 13>  N        2.1672170000    -1.3731690000     0.0886670000
| 14>  C        2.8092130000    -0.8435640000    -0.8673770000
| 15>  C        4.3023090000    -0.7691180000    -0.8489090000
| 16>  C        4.9172880000    -1.5364930000    -1.9789150000
| 17>  C        5.6489080000    -1.0062070000    -2.9486720000
| 18>  H        0.4292250000    -2.1157910000     0.5916100000
| 19>  H        0.4015860000    -1.3051840000    -0.8798070000
| 20>  H        2.2925180000    -0.4288220000    -1.7436830000
| 21>  H        4.6405500000    -1.1688430000     0.1116810000
| 22>  H        4.6223110000     0.2776630000    -0.9079290000
| 23>  H        4.7203200000    -2.6068530000    -1.9832190000
| 24>  H        5.8639870000     0.0578760000    -2.9783490000
| 25>  H        6.0654060000    -1.6142410000    -3.7434290000
| 26> *
| 27>
| 28>                          ****END OF INPUT****
 Total Charge           Charge          ....    0
 Multiplicity           Mult            ....    1
 Number of Electrons    NEL             ....   46
 Basis Dimension        Dim             ....  124

MULLIKEN ATOMIC CHARGES
-----------------------
   0 N :   -0.054336
   1 N :   -0.111590
   2 C :   -0.105039
   3 C :    0.152303
   4 C :   -0.107226
   5 C :   -0.033848
   6 H :    0.115718
   7 H :    0.084550
   8 H :   -0.021776
   9 H :    0.017122
  10 H :    0.011827
  11 H :    0.011348
  12 H :    0.016838
  13 H :    0.024109
Sum of atomic charges:   -0.0000000

LOEWDIN ATOMIC CHARGES
----------------------
   0 N :    0.001918
   1 N :   -0.045923
   2 C :   -0.050244
   3 C :   -0.046595
   4 C :   -0.029555
   5 C :   -0.067441
   6 H :    0.059217
   7 H :    0.039843
   8 H :   -0.009508
   9 H :    0.041391
  10 H :    0.034794
  11 H :    0.026524
  12 H :    0.020993
  13 H :    0.024585

  Mayer bond orders larger than 0.1
B(  0-N ,  1-N ) :   1.1074 B(  0-N ,  2-C ) :   0.1296 B(  0-N ,  6-H ) :   0.9635
B(  0-N ,  7-H ) :   0.9425 B(  1-N ,  2-C ) :   1.8870 B(  2-C ,  3-C ) :   1.0290
B(  2-C ,  8-H ) :   0.9301 B(  3-C ,  4-C ) :   1.0473 B(  3-C ,  9-H ) :   0.9022
B(  3-C , 10-H ) :   0.9134 B(  4-C ,  5-C ) :   2.0072 B(  4-C , 11-H ) :   0.9560
B(  5-C , 12-H ) :   0.9472 B(  5-C , 13-H ) :   0.9447

FINAL SINGLE POINT ENERGY      -266.138040279129

DIPOLE MOMENT
-------------
                                X             Y             Z
Electronic contribution:     -2.43667      -0.54395       2.40627
Nuclear contribution   :      1.94622       0.30791      -2.82411
                        -----------------------------------------
Total Dipole Moment    :     -0.49046      -0.23605      -0.41785
                        -----------------------------------------
Magnitude (a.u.)       :      0.68619
Magnitude (Debye)      :      1.74416

                             ****ORCA TERMINATED NORMALLY****
TOTAL RUN TIME: 0 days 0 hours 0 minutes 5 seconds 877 msec
