                         Program Version 3.0.3 - RELEASE   -
|  1> ! RI PBE def2-SVP def2-SVP/J NBO PAL2
|  2> % maxcore 2000
|  3> % output
|  4>     # printlevel mini
|  5>     print[ P_Basis ] 0
|  6>     print[ P_SCFInfo ] 1
|  7>     print[ P_SCFIterInfo ] 1
|  8>     print[ P_OrbEn ] 0
|  9>     print[ P_Cartesian ] 0
| 10> end
| 11> *xyz 0 1
| 12>  C       -1.2732140000     0.0492480000    -0.4287520000
| 13>  C       -0.3860280000    -0.7548970000     0.5514960000
| 14>  O       -0.4471540000     0.3894330000     1.4494470000
| 15>  C       -0.3687640000     1.1352080000     0.2015600000
| 16>  C        1.0105460000     0.7245930000    -0.3206290000
| 17>  C        0.9986040000    -0.5828570000    -0.0785680000
| 18>  H       -2.3091960000     0.1207360000    -0.0937340000
| 19>  H       -1.1885950000    -0.1493020000    -1.4970030000
| 20>  H       -0.6738010000    -1.7040600000     0.9987080000
| 21>  H       -0.6382640000     2.1864860000     0.2784100000
| 22>  H        1.7649800000     1.3585010000    -0.7622900000
| 23>  H        1.7402760000    -1.3460800000    -0.2615630000
| 24> *
| 25>
| 26>                          ****END OF INPUT****
 Total Charge           Charge          ....    0
 Multiplicity           Mult            ....    1
 Number of Electrons    NEL             ....   44
 Basis Dimension        Dim             ....  114

MULLIKEN ATOMIC CHARGES
-----------------------
   0 C :    0.049108
   1 C :    0.102674
   2 O :   -0.317510
   3 C :    0.083533
   4 C :    0.026823
   5 C :    0.015494
   6 H :    0.028822
   7 H :    0.026690
   8 H :   -0.003658
   9 H :    0.000673
  10 H :   -0.006483
  11 H :   -0.006167
Sum of atomic charges:    0.0000000

LOEWDIN ATOMIC CHARGES
----------------------
   0 C :   -0.023905
   1 C :    0.075546
   2 O :   -0.176128
   3 C :    0.073133
   4 C :   -0.028570
   5 C :   -0.030073
   6 H :    0.025221
   7 H :    0.015954
   8 H :    0.011090
   9 H :    0.011786
  10 H :    0.022958
  11 H :    0.022989

  Mayer bond orders larger than 0.1
B(  0-C ,  1-C ) :   1.0095 B(  0-C ,  3-C ) :   1.0099 B(  0-C ,  6-H ) :   0.9213
B(  0-C ,  7-H ) :   0.9403 B(  1-C ,  2-O ) :   0.9677 B(  1-C ,  5-C ) :   0.9178
B(  1-C ,  8-H ) :   0.9743 B(  2-O ,  3-C ) :   0.9704 B(  3-C ,  4-C ) :   0.9161
B(  3-C ,  9-H ) :   0.9771 B(  4-C ,  5-C ) :   1.7767 B(  4-C , 10-H ) :   1.0199
B(  5-C , 11-H ) :   1.0211

FINAL SINGLE POINT ENERGY      -268.727877916947

DIPOLE MOMENT
-------------
                                X             Y             Z
Electronic contribution:      0.63575       0.36505       2.00400
Nuclear contribution   :     -0.63281      -0.48909      -2.67294
                        -----------------------------------------
Total Dipole Moment    :      0.00293      -0.12404      -0.66894
                        -----------------------------------------
Magnitude (a.u.)       :      0.68035
Magnitude (Debye)      :      1.72931

                             ****ORCA TERMINATED NORMALLY****
TOTAL RUN TIME: 0 days 0 hours 0 minutes 5 seconds 280 msec
