                         Program Version 3.0.3 - RELEASE   -
|  1> ! RI PBE def2-SVP def2-SVP/J NBO PAL2
|  2> % maxcore 2000
|  3> % output
|  4>     # printlevel mini
|  5>     print[ P_Basis ] 0
|  6>     print[ P_SCFInfo ] 1
|  7>     print[ P_SCFIterInfo ] 1
|  8>     print[ P_OrbEn ] 0
|  9>     print[ P_Cartesian ] 0
| 10> end
| 11> *xyz 0 1
| 12>  C        0.3843030000     1.4151230000     0.4906310000
| 13>  C        0.8403820000     0.3603520000    -0.4552480000
| 14>  O        0.8885300000    -0.9711150000     0.0021990000
| 15>  C       -0.3903030000    -1.3263110000     0.3031390000
| 16>  C       -1.3038030000    -0.3973770000     0.0249860000
| 17>  C       -0.6037130000     0.8056050000    -0.4803420000
| 18>  H        0.7360300000     2.4174360000     0.2797250000
| 19>  H        0.2770420000     1.1650150000     1.5390700000
| 20>  H        1.5749170000     0.5667420000    -1.2219010000
| 21>  H       -0.5012570000    -2.3137910000     0.7271730000
| 22>  H       -2.3698860000    -0.5021470000     0.1538000000
| 23>  H       -1.0277410000     1.4114580000    -1.2718320000
| 24> *
| 25>
| 26>                          ****END OF INPUT****
 Total Charge           Charge          ....    0
 Multiplicity           Mult            ....    1
 Number of Electrons    NEL             ....   44
 Basis Dimension        Dim             ....  114

MULLIKEN ATOMIC CHARGES
-----------------------
   0 C :    0.006937
   1 C :    0.092409
   2 O :   -0.239648
   3 C :    0.125232
   4 C :   -0.038097
   5 C :   -0.086455
   6 H :    0.036225
   7 H :    0.045392
   8 H :    0.028476
   9 H :    0.004950
  10 H :   -0.000027
  11 H :    0.024606
Sum of atomic charges:    0.0000000

LOEWDIN ATOMIC CHARGES
----------------------
   0 C :   -0.053237
   1 C :    0.057879
   2 O :   -0.063222
   3 C :    0.040220
   4 C :   -0.103509
   5 C :   -0.042835
   6 H :    0.033021
   7 H :    0.033163
   8 H :    0.020820
   9 H :    0.021741
  10 H :    0.029633
  11 H :    0.026327

  Mayer bond orders larger than 0.1
B(  0-C ,  1-C ) :   0.9945 B(  0-C ,  5-C ) :   0.9540 B(  0-C ,  6-H ) :   0.9408
B(  0-C ,  7-H ) :   0.9289 B(  1-C ,  2-O ) :   1.0124 B(  1-C ,  5-C ) :   0.9157
B(  1-C ,  8-H ) :   0.9596 B(  2-O ,  3-C ) :   1.1084 B(  2-O ,  4-C ) :   0.1058
B(  3-C ,  4-C ) :   1.7045 B(  3-C ,  9-H ) :   0.9887 B(  4-C ,  5-C ) :   1.0470
B(  4-C , 10-H ) :   0.9986 B(  5-C , 11-H ) :   0.9540

FINAL SINGLE POINT ENERGY      -268.769053001907

DIPOLE MOMENT
-------------
                                X             Y             Z
Electronic contribution:      1.02482      -2.44128      -0.35736
Nuclear contribution   :     -1.21704       2.73060       0.27310
                        -----------------------------------------
Total Dipole Moment    :     -0.19222       0.28932      -0.08426
                        -----------------------------------------
Magnitude (a.u.)       :      0.35743
Magnitude (Debye)      :      0.90851

                             ****ORCA TERMINATED NORMALLY****
TOTAL RUN TIME: 0 days 0 hours 0 minutes 5 seconds 447 msec
