                         Program Version 3.0.3 - RELEASE   -
|  1> ! RI PBE def2-SVP def2-SVP/J NBO PAL2
|  2> % maxcore 2000
|  3> % output
|  4>     # printlevel mini
|  5>     print[ P_Basis ] 0
|  6>     print[ P_SCFInfo ] 1
|  7>     print[ P_SCFIterInfo ] 1
|  8>     print[ P_OrbEn ] 0
|  9>     print[ P_Cartesian ] 0
| 10> end
| 11> *xyz 0 1
| 12>  C        0.3337910000     0.7951190000    -0.1231270000
| 13>  C       -0.7276540000    -0.2373060000     0.1075670000
| 14>  C        0.6963200000    -0.6549180000    -0.1059160000
| 15>  C        1.4724070000    -1.2229950000     1.0300060000
| 16>  C        2.6781780000    -0.5867320000     1.5528220000
| 17>  O        1.4455910000    -0.5011850000     2.2513320000
| 18>  H        0.6322410000     1.3863620000     0.7336340000
| 19>  H        0.3540980000     1.3131470000    -1.0735080000
| 20>  H       -1.4436370000    -0.4316510000    -0.6809280000
| 21>  H       -1.1199590000    -0.3203980000     1.1137570000
| 22>  H        0.9260210000    -1.1160510000    -1.0616400000
| 23>  H        1.3783250000    -2.3011360000     1.1614760000
| 24>  H        3.0173530000     0.3426360000     1.1015130000
| 25>  H        3.4446250000    -1.1864210000     2.0374920000
| 26> *
| 27>
| 28>                          ****END OF INPUT****
 Total Charge           Charge          ....    0
 Multiplicity           Mult            ....    1
 Number of Electrons    NEL             ....   46
 Basis Dimension        Dim             ....  124

MULLIKEN ATOMIC CHARGES
-----------------------
   0 C :   -0.043177
   1 C :   -0.038618
   2 C :   -0.084253
   3 C :    0.055453
   4 C :    0.140188
   5 O :   -0.291618
   6 H :    0.048501
   7 H :    0.030291
   8 H :    0.036427
   9 H :    0.044592
  10 H :    0.022003
  11 H :    0.025348
  12 H :    0.025030
  13 H :    0.029832
Sum of atomic charges:    0.0000000

LOEWDIN ATOMIC CHARGES
----------------------
   0 C :   -0.043992
   1 C :   -0.038184
   2 C :   -0.058818
   3 C :    0.044852
   4 C :    0.057538
   5 O :   -0.155375
   6 H :    0.029188
   7 H :    0.027047
   8 H :    0.026979
   9 H :    0.030951
  10 H :    0.031704
  11 H :    0.018839
  12 H :    0.013878
  13 H :    0.015391

  Mayer bond orders larger than 0.1
B(  0-C ,  1-C ) :   1.0412 B(  0-C ,  2-C ) :   0.9981 B(  0-C ,  6-H ) :   0.9401
B(  0-C ,  7-H ) :   0.9395 B(  1-C ,  2-C ) :   0.9886 B(  1-C ,  8-H ) :   0.9481
B(  1-C ,  9-H ) :   0.9511 B(  2-C ,  3-C ) :   1.0473 B(  2-C , 10-H ) :   0.9386
B(  3-C ,  4-C ) :   1.0919 B(  3-C ,  5-O ) :   0.9843 B(  3-C , 11-H ) :   0.9376
B(  4-C ,  5-O ) :   0.9920 B(  4-C , 12-H ) :   0.9291 B(  4-C , 13-H ) :   0.9394

FINAL SINGLE POINT ENERGY      -269.953872022489

DIPOLE MOMENT
-------------
                                X             Y             Z
Electronic contribution:      1.01086      -0.99763       2.45211
Nuclear contribution   :     -0.73115       0.79498      -3.00424
                        -----------------------------------------
Total Dipole Moment    :      0.27971      -0.20265      -0.55213
                        -----------------------------------------
Magnitude (a.u.)       :      0.65127
Magnitude (Debye)      :      1.65540

                             ****ORCA TERMINATED NORMALLY****
TOTAL RUN TIME: 0 days 0 hours 0 minutes 5 seconds 778 msec
