                         Program Version 3.0.3 - RELEASE   -
|  1> ! RI PBE def2-SVP def2-SVP/J NBO PAL2
|  2> % maxcore 2000
|  3> % output
|  4>     # printlevel mini
|  5>     print[ P_Basis ] 0
|  6>     print[ P_SCFInfo ] 1
|  7>     print[ P_SCFIterInfo ] 1
|  8>     print[ P_OrbEn ] 0
|  9>     print[ P_Cartesian ] 0
| 10> end
| 11> *xyz 0 1
| 12>  C        0.2253480000    -0.1229980000     1.3897090000
| 13>  C        0.2919910000     0.7678270000     0.1444920000
| 14>  C       -1.1777470000     0.9778250000    -0.2330080000
| 15>  C       -1.6224590000    -0.5021570000    -0.1121390000
| 16>  C       -0.2627310000    -1.0782670000     0.2952610000
| 17>  O        0.6391680000    -0.4122320000    -0.6292490000
| 18>  H       -0.4491830000     0.1462720000     2.2049980000
| 19>  H        1.2166090000    -0.3913020000     1.7515920000
| 20>  H        0.9905030000     1.5960990000     0.0349460000
| 21>  H       -1.2746070000     1.3665080000    -1.2469510000
| 22>  H       -1.6984930000     1.6501060000     0.4517280000
| 23>  H       -1.9616850000    -0.9200410000    -1.0602080000
| 24>  H       -2.3951470000    -0.6683430000     0.6410780000
| 25>  H       -0.1378770000    -2.1591070000     0.3416310000
| 26> *
| 27>
| 28>                          ****END OF INPUT****
 Total Charge           Charge          ....    0
 Multiplicity           Mult            ....    1
 Number of Electrons    NEL             ....   46
 Basis Dimension        Dim             ....  124

MULLIKEN ATOMIC CHARGES
-----------------------
   0 C :    0.059286
   1 C :   -0.011686
   2 C :    0.098099
   3 C :    0.098019
   4 C :   -0.021049
   5 O :   -0.330464
   6 H :    0.015997
   7 H :    0.023950
   8 H :    0.004310
   9 H :    0.016374
  10 H :    0.011484
  11 H :    0.017484
  12 H :    0.010744
  13 H :    0.007451
Sum of atomic charges:   -0.0000000

LOEWDIN ATOMIC CHARGES
----------------------
   0 C :   -0.043324
   1 C :    0.073256
   2 C :   -0.044398
   3 C :   -0.044953
   4 C :    0.072495
   5 O :   -0.178584
   6 H :    0.015205
   7 H :    0.028746
   8 H :    0.010636
   9 H :    0.026303
  10 H :    0.023551
  11 H :    0.026579
  12 H :    0.023391
  13 H :    0.011096

  Mayer bond orders larger than 0.1
B(  0-C ,  1-C ) :   1.0231 B(  0-C ,  4-C ) :   1.0221 B(  0-C ,  6-H ) :   0.9405
B(  0-C ,  7-H ) :   0.9202 B(  1-C ,  2-C ) :   1.0545 B(  1-C ,  5-O ) :   0.9701
B(  1-C ,  8-H ) :   0.9661 B(  2-C ,  3-C ) :   1.1122 B(  2-C ,  9-H ) :   0.9137
B(  2-C , 10-H ) :   0.9116 B(  3-C ,  4-C ) :   1.0548 B(  3-C , 11-H ) :   0.9124
B(  3-C , 12-H ) :   0.9115 B(  4-C ,  5-O ) :   0.9706 B(  4-C , 13-H ) :   0.9682

FINAL SINGLE POINT ENERGY      -269.973746465303

DIPOLE MOMENT
-------------
                                X             Y             Z
Electronic contribution:      2.64190      -0.91197      -1.43948
Nuclear contribution   :     -3.01365       1.06414       1.94182
                        -----------------------------------------
Total Dipole Moment    :     -0.37175       0.15217       0.50234
                        -----------------------------------------
Magnitude (a.u.)       :      0.64319
Magnitude (Debye)      :      1.63487

                             ****ORCA TERMINATED NORMALLY****
TOTAL RUN TIME: 0 days 0 hours 0 minutes 5 seconds 716 msec
