                         Program Version 3.0.3 - RELEASE   -
|  1> ! RI PBE def2-SVP def2-SVP/J NBO PAL2
|  2> % maxcore 2000
|  3> % output
|  4>     # printlevel mini
|  5>     print[ P_Basis ] 0
|  6>     print[ P_SCFInfo ] 1
|  7>     print[ P_SCFIterInfo ] 1
|  8>     print[ P_OrbEn ] 0
|  9>     print[ P_Cartesian ] 0
| 10> end
| 11> *xyz 0 1
| 12>  C        0.7973970000     1.2807070000    -0.6148480000
| 13>  C       -0.3528010000     1.0082660000     0.3197670000
| 14>  C       -1.3989440000     0.0075340000    -0.1402870000
| 15>  C       -0.7069490000    -1.3344140000     0.1078770000
| 16>  O        0.6901980000    -1.0840270000     0.0233600000
| 17>  C        0.9172590000     0.2316150000     0.4400350000
| 18>  H        1.3466000000     2.2055780000    -0.4814660000
| 19>  H        0.7126400000     0.9340990000    -1.6384670000
| 20>  H       -0.6218830000     1.7620520000     1.0483250000
| 21>  H       -1.6479250000     0.1407230000    -1.1965620000
| 22>  H       -2.3228030000     0.0975020000     0.4340430000
| 23>  H       -0.9545680000    -2.1020360000    -0.6276230000
| 24>  H       -0.9553890000    -1.7169790000     1.1076010000
| 25>  H        1.6085790000     0.3379890000     1.2688350000
| 26> *
| 27>
| 28>                          ****END OF INPUT****
 Total Charge           Charge          ....    0
 Multiplicity           Mult            ....    1
 Number of Electrons    NEL             ....   46
 Basis Dimension        Dim             ....  124

MULLIKEN ATOMIC CHARGES
-----------------------
   0 C :    0.027767
   1 C :   -0.180040
   2 C :    0.042199
   3 C :    0.212729
   4 O :   -0.328055
   5 C :    0.077062
   6 H :    0.028676
   7 H :    0.027648
   8 H :    0.023004
   9 H :    0.017917
  10 H :    0.014436
  11 H :    0.016010
  12 H :   -0.000726
  13 H :    0.021374
Sum of atomic charges:    0.0000000

LOEWDIN ATOMIC CHARGES
----------------------
   0 C :   -0.050798
   1 C :   -0.055778
   2 C :   -0.044626
   3 C :    0.074543
   4 O :   -0.144968
   5 C :    0.043667
   6 H :    0.029237
   7 H :    0.027805
   8 H :    0.025238
   9 H :    0.026708
  10 H :    0.031266
  11 H :    0.018291
  12 H :    0.005619
  13 H :    0.013794

  Mayer bond orders larger than 0.1
B(  0-C ,  1-C ) :   0.9728 B(  0-C ,  5-C ) :   0.9861 B(  0-C ,  6-H ) :   0.9356
B(  0-C ,  7-H ) :   0.9272 B(  1-C ,  2-C ) :   1.0966 B(  1-C ,  5-C ) :   0.9611
B(  1-C ,  8-H ) :   0.9501 B(  2-C ,  3-C ) :   1.1033 B(  2-C ,  9-H ) :   0.9146
B(  2-C , 10-H ) :   0.9304 B(  3-C ,  4-O ) :   0.9941 B(  3-C , 11-H ) :   0.9444
B(  3-C , 12-H ) :   0.9327 B(  4-O ,  5-C ) :   1.0602 B(  5-C , 13-H ) :   0.9486

FINAL SINGLE POINT ENERGY      -269.977846879478

DIPOLE MOMENT
-------------
                                X             Y             Z
Electronic contribution:      2.11611      -1.31807       0.39223
Nuclear contribution   :     -2.58209       1.65955      -0.22627
                        -----------------------------------------
Total Dipole Moment    :     -0.46598       0.34148       0.16596
                        -----------------------------------------
Magnitude (a.u.)       :      0.60108
Magnitude (Debye)      :      1.52782

                             ****ORCA TERMINATED NORMALLY****
TOTAL RUN TIME: 0 days 0 hours 0 minutes 5 seconds 860 msec
