                         Program Version 3.0.3 - RELEASE   -
|  1> ! RI PBE def2-SVP def2-SVP/J NBO PAL2
|  2> % maxcore 2000
|  3> % output
|  4>     # printlevel mini
|  5>     print[ P_Basis ] 0
|  6>     print[ P_SCFInfo ] 1
|  7>     print[ P_SCFIterInfo ] 1
|  8>     print[ P_OrbEn ] 0
|  9>     print[ P_Cartesian ] 0
| 10> end
| 11> *xyz 0 1
| 12>  C        0.7852710000     1.3740510000     0.2405030000
| 13>  C       -0.6992170000     1.2431740000    -0.1329390000
| 14>  C       -0.9680910000    -0.2336180000    -0.0225590000
| 15>  O       -0.4499890000    -0.8206530000     1.1675670000
| 16>  C        0.3014230000    -0.9535760000    -0.0354080000
| 17>  C        1.4290510000     0.0362060000    -0.1544800000
| 18>  H        0.8763950000     1.5155080000     1.3175910000
| 19>  H        1.2639380000     2.2267280000    -0.2433230000
| 20>  H       -0.8823880000     1.5531990000    -1.1676900000
| 21>  H       -1.3486610000     1.8421000000     0.5100870000
| 22>  H       -1.8935200000    -0.6678220000    -0.3897510000
| 23>  H        0.3981030000    -1.9674290000    -0.4129470000
| 24>  H        1.7732490000     0.0471540000    -1.1945690000
| 25>  H        2.2861460000    -0.2192440000     0.4732970000
| 26> *
| 27>
| 28>                          ****END OF INPUT****
 Total Charge           Charge          ....    0
 Multiplicity           Mult            ....    1
 Number of Electrons    NEL             ....   46
 Basis Dimension        Dim             ....  124

MULLIKEN ATOMIC CHARGES
-----------------------
   0 C :   -0.076041
   1 C :    0.099675
   2 C :    0.007624
   3 O :   -0.277648
   4 C :    0.006990
   5 C :    0.098004
   6 H :    0.034329
   7 H :    0.010714
   8 H :    0.010482
   9 H :    0.024191
  10 H :    0.012453
  11 H :    0.012623
  12 H :    0.013530
  13 H :    0.023074
Sum of atomic charges:   -0.0000000

LOEWDIN ATOMIC CHARGES
----------------------
   0 C :   -0.038260
   1 C :   -0.045188
   2 C :    0.041172
   3 O :   -0.157497
   4 C :    0.040982
   5 C :   -0.045420
   6 H :    0.030514
   7 H :    0.025576
   8 H :    0.028753
   9 H :    0.031199
  10 H :    0.013910
  11 H :    0.014108
  12 H :    0.029515
  13 H :    0.030635

  Mayer bond orders larger than 0.1
B(  0-C ,  1-C ) :   1.0814 B(  0-C ,  5-C ) :   1.0793 B(  0-C ,  6-H ) :   0.9335
B(  0-C ,  7-H ) :   0.9360 B(  1-C ,  2-C ) :   1.0299 B(  1-C ,  8-H ) :   0.9225
B(  1-C ,  9-H ) :   0.9243 B(  2-C ,  3-O ) :   0.9963 B(  2-C ,  4-C ) :   1.0397
B(  2-C , 10-H ) :   0.9549 B(  3-O ,  4-C ) :   0.9926 B(  4-C ,  5-C ) :   1.0335
B(  4-C , 11-H ) :   0.9538 B(  5-C , 12-H ) :   0.9218 B(  5-C , 13-H ) :   0.9261

FINAL SINGLE POINT ENERGY      -269.993345145426

DIPOLE MOMENT
-------------
                                X             Y             Z
Electronic contribution:     -1.70165      -3.03124       1.83114
Nuclear contribution   :      1.82341       3.25950      -2.47917
                        -----------------------------------------
Total Dipole Moment    :      0.12176       0.22825      -0.64802
                        -----------------------------------------
Magnitude (a.u.)       :      0.69775
Magnitude (Debye)      :      1.77355

                             ****ORCA TERMINATED NORMALLY****
TOTAL RUN TIME: 0 days 0 hours 0 minutes 6 seconds 103 msec
