                         Program Version 3.0.3 - RELEASE   -
|  1> ! RI PBE def2-SVP def2-SVP/J NBO PAL2
|  2> % maxcore 2000
|  3> % output
|  4>     # printlevel mini
|  5>     print[ P_Basis ] 0
|  6>     print[ P_SCFInfo ] 1
|  7>     print[ P_SCFIterInfo ] 1
|  8>     print[ P_OrbEn ] 0
|  9>     print[ P_Cartesian ] 0
| 10> end
| 11> *xyz 0 1
| 12>  C        0.9610030000    -1.0509550000     0.0119240000
| 13>  C       -0.4816860000    -1.4754770000     0.0722950000
| 14>  C       -1.3150000000    -0.4416870000    -0.0266660000
| 15>  C       -0.5450800000     0.8269730000    -0.0994290000
| 16>  O        0.2573260000     1.0611450000     1.0655060000
| 17>  C        0.8733480000     0.4574080000    -0.0587190000
| 18>  H        1.4670400000    -1.4603590000    -0.8695530000
| 19>  H        1.5272160000    -1.3821830000     0.8889470000
| 20>  H       -0.7802790000    -2.5072500000     0.2159980000
| 21>  H       -2.3959860000    -0.4925720000    -0.0134420000
| 22>  H       -0.9271170000     1.7187190000    -0.5845760000
| 23>  H        1.6537250000     1.0436370000    -0.5341060000
| 24> *
| 25>
| 26>                          ****END OF INPUT****
 Total Charge           Charge          ....    0
 Multiplicity           Mult            ....    1
 Number of Electrons    NEL             ....   44
 Basis Dimension        Dim             ....  114

MULLIKEN ATOMIC CHARGES
-----------------------
   0 C :    0.161384
   1 C :   -0.116427
   2 C :    0.057856
   3 C :    0.072347
   4 O :   -0.276486
   5 C :    0.000396
   6 H :    0.031014
   7 H :    0.042016
   8 H :   -0.000033
   9 H :   -0.005569
  10 H :    0.015720
  11 H :    0.017782
Sum of atomic charges:   -0.0000000

LOEWDIN ATOMIC CHARGES
----------------------
   0 C :   -0.046428
   1 C :   -0.010235
   2 C :   -0.049706
   3 C :    0.043865
   4 O :   -0.150330
   5 C :    0.047545
   6 H :    0.038849
   7 H :    0.045984
   8 H :    0.023122
   9 H :    0.026225
  10 H :    0.016075
  11 H :    0.015033

  Mayer bond orders larger than 0.1
B(  0-C ,  1-C ) :   1.0231 B(  0-C ,  5-C ) :   1.0219 B(  0-C ,  6-H ) :   0.9142
B(  0-C ,  7-H ) :   0.8975 B(  1-C ,  2-C ) :   1.8097 B(  1-C ,  8-H ) :   0.9757
B(  2-C ,  3-C ) :   0.9806 B(  2-C ,  9-H ) :   1.0033 B(  3-C ,  4-O ) :   0.9559
B(  3-C ,  5-C ) :   1.0349 B(  3-C , 10-H ) :   0.9594 B(  4-O ,  5-C ) :   0.9950
B(  5-C , 11-H ) :   0.9455

FINAL SINGLE POINT ENERGY      -268.767287552060

DIPOLE MOMENT
-------------
                                X             Y             Z
Electronic contribution:     -0.56231       2.07551       1.26107
Nuclear contribution   :      0.61294      -2.43733      -1.85219
                        -----------------------------------------
Total Dipole Moment    :      0.05063      -0.36182      -0.59112
                        -----------------------------------------
Magnitude (a.u.)       :      0.69491
Magnitude (Debye)      :      1.76632

                             ****ORCA TERMINATED NORMALLY****
TOTAL RUN TIME: 0 days 0 hours 0 minutes 5 seconds 393 msec
