                         Program Version 3.0.3 - RELEASE   -
|  1> ! RI PBE def2-SVP def2-SVP/J NBO PAL2
|  2> % maxcore 2000
|  3> % output
|  4>     # printlevel mini
|  5>     print[ P_Basis ] 0
|  6>     print[ P_SCFInfo ] 1
|  7>     print[ P_SCFIterInfo ] 1
|  8>     print[ P_OrbEn ] 0
|  9>     print[ P_Cartesian ] 0
| 10> end
| 11> *xyz 0 1
| 12>  C        0.4196860000     1.2890820000    -0.0901110000
| 13>  C       -1.0592770000     1.0528240000     0.1561660000
| 14>  C       -1.3780200000    -0.3955260000    -0.0409060000
| 15>  C       -0.4182760000    -1.3112260000    -0.0800370000
| 16>  C        1.0189110000    -0.9607620000     0.1306100000
| 17>  O        1.2091230000     0.3493180000     0.6044750000
| 18>  H        0.7338330000     2.2735730000     0.2612950000
| 19>  H        0.6283740000     1.2301910000    -1.1695240000
| 20>  H       -1.6502780000     1.6695750000    -0.5299370000
| 21>  H       -1.3318980000     1.3698060000     1.1700400000
| 22>  H       -2.4170210000    -0.6854500000    -0.1648630000
| 23>  H       -0.6482550000    -2.3567350000    -0.2628090000
| 24>  H        1.5832370000    -1.1163330000    -0.8058810000
| 25>  H        1.4628510000    -1.6236370000     0.8797620000
| 26> *
| 27>
| 28>                          ****END OF INPUT****
 Total Charge           Charge          ....    0
 Multiplicity           Mult            ....    1
 Number of Electrons    NEL             ....   46
 Basis Dimension        Dim             ....  124

MULLIKEN ATOMIC CHARGES
-----------------------
   0 C :    0.171007
   1 C :    0.054113
   2 C :   -0.080126
   3 C :   -0.124641
   4 C :    0.251011
   5 O :   -0.345273
   6 H :    0.008093
   7 H :   -0.005093
   8 H :    0.016722
   9 H :    0.027366
  10 H :   -0.004925
  11 H :   -0.000970
  12 H :    0.006493
  13 H :    0.026223
Sum of atomic charges:    0.0000000

LOEWDIN ATOMIC CHARGES
----------------------
   0 C :    0.065190
   1 C :   -0.059956
   2 C :   -0.044488
   3 C :   -0.065519
   4 C :    0.056180
   5 O :   -0.147473
   6 H :    0.021170
   7 H :    0.005990
   8 H :    0.035204
   9 H :    0.036074
  10 H :    0.024309
  11 H :    0.027208
  12 H :    0.014534
  13 H :    0.031577

  Mayer bond orders larger than 0.1
B(  0-C ,  1-C ) :   1.1021 B(  0-C ,  5-O ) :   1.0055 B(  0-C ,  6-H ) :   0.9395
B(  0-C ,  7-H ) :   0.9255 B(  1-C ,  2-C ) :   1.0442 B(  1-C ,  8-H ) :   0.9122
B(  1-C ,  9-H ) :   0.9014 B(  2-C ,  3-C ) :   1.9312 B(  2-C , 10-H ) :   0.9688
B(  3-C ,  4-C ) :   1.0122 B(  3-C , 11-H ) :   0.9536 B(  4-C ,  5-O ) :   1.0416
B(  4-C , 12-H ) :   0.9134 B(  4-C , 13-H ) :   0.9276

FINAL SINGLE POINT ENERGY      -269.991689610681

DIPOLE MOMENT
-------------
                                X             Y             Z
Electronic contribution:      1.26367      -0.54989       1.16900
Nuclear contribution   :     -1.58012       0.50053      -1.46439
                        -----------------------------------------
Total Dipole Moment    :     -0.31645      -0.04936      -0.29539
                        -----------------------------------------
Magnitude (a.u.)       :      0.43569
Magnitude (Debye)      :      1.10744

                             ****ORCA TERMINATED NORMALLY****
TOTAL RUN TIME: 0 days 0 hours 0 minutes 5 seconds 902 msec
