                         Program Version 3.0.3 - RELEASE   -
|  1> ! RI PBE def2-SVP def2-SVP/J NBO PAL2
|  2> % maxcore 2000
|  3> % output
|  4>     # printlevel mini
|  5>     print[ P_Basis ] 0
|  6>     print[ P_SCFInfo ] 1
|  7>     print[ P_SCFIterInfo ] 1
|  8>     print[ P_OrbEn ] 0
|  9>     print[ P_Cartesian ] 0
| 10> end
| 11> *xyz 0 1
| 12>  C        0.7347770000     1.2779680000    -0.2150200000
| 13>  C       -0.7203090000     1.2366850000     0.2334240000
| 14>  C       -1.3706640000    -0.0584040000    -0.2187690000
| 15>  O       -0.6668950000    -1.1903760000     0.2411700000
| 16>  C        0.6600370000    -1.2145830000    -0.2351330000
| 17>  C        1.4472980000     0.0025620000     0.2159490000
| 18>  H        1.2408910000     2.1612490000     0.1842370000
| 19>  H        0.7731180000     1.3607980000    -1.3085830000
| 20>  H       -1.2800070000     2.0882370000    -0.1659440000
| 21>  H       -0.7743070000     1.2952110000     1.3260150000
| 22>  H       -1.4273730000    -0.0812960000    -1.3202870000
| 23>  H       -2.3868060000    -0.1512990000     0.1702380000
| 24>  H        0.6558840000    -1.2674090000    -1.3370750000
| 25>  H        1.1034500000    -2.1384700000     0.1421200000
| 26>  H        2.4603070000    -0.0413050000    -0.1961020000
| 27>  H        1.5384890000    -0.0215680000     1.3073690000
| 28> *
| 29>
| 30>                          ****END OF INPUT****
 Total Charge           Charge          ....    0
 Multiplicity           Mult            ....    1
 Number of Electrons    NEL             ....   48
 Basis Dimension        Dim             ....  134

MULLIKEN ATOMIC CHARGES
-----------------------
   0 C :   -0.030589
   1 C :   -0.032745
   2 C :    0.178448
   3 O :   -0.342761
   4 C :    0.182074
   5 C :   -0.030279
   6 H :    0.013139
   7 H :    0.008783
   8 H :    0.009322
   9 H :    0.017932
  10 H :   -0.011720
  11 H :    0.012840
  12 H :   -0.014253
  13 H :    0.010535
  14 H :    0.009572
  15 H :    0.019701
Sum of atomic charges:   -0.0000000

LOEWDIN ATOMIC CHARGES
----------------------
   0 C :   -0.045830
   1 C :   -0.060925
   2 C :    0.057290
   3 O :   -0.149170
   4 C :    0.057852
   5 C :   -0.060391
   6 H :    0.024716
   7 H :    0.021591
   8 H :    0.027317
   9 H :    0.026218
  10 H :    0.002780
  11 H :    0.021318
  12 H :    0.002378
  13 H :    0.020739
  14 H :    0.027638
  15 H :    0.026479

  Mayer bond orders larger than 0.1
B(  0-C ,  1-C ) :   1.0928 B(  0-C ,  5-C ) :   1.0926 B(  0-C ,  6-H ) :   0.9370
B(  0-C ,  7-H ) :   0.9356 B(  1-C ,  2-C ) :   1.0941 B(  1-C ,  8-H ) :   0.9236
B(  1-C ,  9-H ) :   0.9234 B(  2-C ,  3-O ) :   1.0289 B(  2-C , 10-H ) :   0.9178
B(  2-C , 11-H ) :   0.9423 B(  3-O ,  4-C ) :   1.0254 B(  4-C ,  5-C ) :   1.0954
B(  4-C , 12-H ) :   0.9163 B(  4-C , 13-H ) :   0.9429 B(  5-C , 14-H ) :   0.9230
B(  5-C , 15-H ) :   0.9242

FINAL SINGLE POINT ENERGY      -271.213643824544

DIPOLE MOMENT
-------------
                                X             Y             Z
Electronic contribution:     -1.51947      -2.68347       0.92146
Nuclear contribution   :      1.74651       3.08343      -1.12189
                        -----------------------------------------
Total Dipole Moment    :      0.22704       0.39995      -0.20043
                        -----------------------------------------
Magnitude (a.u.)       :      0.50168
Magnitude (Debye)      :      1.27517

                             ****ORCA TERMINATED NORMALLY****
TOTAL RUN TIME: 0 days 0 hours 0 minutes 6 seconds 543 msec
