                         Program Version 3.0.3 - RELEASE   -
|  1> ! RI PBE def2-SVP def2-SVP/J NBO PAL2
|  2> % maxcore 2000
|  3> % output
|  4>     # printlevel mini
|  5>     print[ P_Basis ] 0
|  6>     print[ P_SCFInfo ] 1
|  7>     print[ P_SCFIterInfo ] 1
|  8>     print[ P_OrbEn ] 0
|  9>     print[ P_Cartesian ] 0
| 10> end
| 11> *xyz 0 1
| 12>  C        1.4886590000    -0.2632980000     0.1102720000
| 13>  C        0.4244700000    -1.3133210000     0.0177190000
| 14>  C       -0.8602390000    -1.0184240000    -0.1234080000
| 15>  O       -1.3702340000     0.2431450000    -0.2009810000
| 16>  C       -0.4578620000     1.2527460000    -0.1238420000
| 17>  C        0.8499730000     1.0883830000     0.0172600000
| 18>  H        2.2351430000    -0.3957020000    -0.6851520000
| 19>  H        2.0520370000    -0.3629310000     1.0484360000
| 20>  H        0.6987430000    -2.3602990000     0.0663600000
| 21>  H       -1.6462520000    -1.7590560000    -0.1924170000
| 22>  H       -0.9415930000     2.2183090000    -0.1931770000
| 23>  H        1.4672460000     1.9774270000     0.0655310000
| 24> *
| 25>
| 26>                          ****END OF INPUT****
 Total Charge           Charge          ....    0
 Multiplicity           Mult            ....    1
 Number of Electrons    NEL             ....   44
 Basis Dimension        Dim             ....  114

MULLIKEN ATOMIC CHARGES
-----------------------
   0 C :    0.166683
   1 C :   -0.148582
   2 C :    0.123158
   3 O :   -0.212549
   4 C :    0.126121
   5 C :   -0.141325
   6 H :    0.031696
   7 H :    0.028123
   8 H :    0.003128
   9 H :    0.011092
  10 H :    0.006976
  11 H :    0.005477
Sum of atomic charges:   -0.0000000

LOEWDIN ATOMIC CHARGES
----------------------
   0 C :   -0.038098
   1 C :   -0.086933
   2 C :    0.033123
   3 O :   -0.032771
   4 C :    0.033984
   5 C :   -0.086270
   6 H :    0.032215
   7 H :    0.031698
   8 H :    0.031436
   9 H :    0.025284
  10 H :    0.024339
  11 H :    0.031993

  Mayer bond orders larger than 0.1
B(  0-C ,  1-C ) :   1.0384 B(  0-C ,  5-C ) :   1.0376 B(  0-C ,  6-H ) :   0.9143
B(  0-C ,  7-H ) :   0.9130 B(  1-C ,  2-C ) :   1.8483 B(  1-C ,  8-H ) :   0.9517
B(  2-C ,  3-O ) :   1.0876 B(  2-C ,  9-H ) :   0.9707 B(  3-O ,  4-C ) :   1.0817
B(  4-C ,  5-C ) :   1.8448 B(  4-C , 10-H ) :   0.9735 B(  5-C , 11-H ) :   0.9513

FINAL SINGLE POINT ENERGY      -268.787381705364

DIPOLE MOMENT
-------------
                                X             Y             Z
Electronic contribution:     -3.36940       0.59753      -0.36717
Nuclear contribution   :      3.65216      -0.64697       0.39750
                        -----------------------------------------
Total Dipole Moment    :      0.28276      -0.04943       0.03033
                        -----------------------------------------
Magnitude (a.u.)       :      0.28865
Magnitude (Debye)      :      0.73369

                             ****ORCA TERMINATED NORMALLY****
TOTAL RUN TIME: 0 days 0 hours 0 minutes 5 seconds 546 msec
