                         Program Version 3.0.3 - RELEASE   -
|  1> ! RI PBE def2-SVP def2-SVP/J NBO PAL2
|  2> % maxcore 2000
|  3> % output
|  4>     # printlevel mini
|  5>     print[ P_Basis ] 0
|  6>     print[ P_SCFInfo ] 1
|  7>     print[ P_SCFIterInfo ] 1
|  8>     print[ P_OrbEn ] 0
|  9>     print[ P_Cartesian ] 0
| 10> end
| 11> *xyz 0 1
| 12>  C        0.3836960000     1.3696820000     0.2867980000
| 13>  C        1.3340840000     0.2909020000    -0.1892310000
| 14>  O        0.9711680000    -0.9939400000     0.2981100000
| 15>  C       -0.3503410000    -1.2694590000     0.2178980000
| 16>  C       -1.3112490000    -0.3880330000    -0.0502600000
| 17>  C       -1.0244330000     1.0718450000    -0.2141950000
| 18>  H        0.7359490000     2.3448500000    -0.0594820000
| 19>  H        0.3937700000     1.3880290000     1.3808930000
| 20>  H        2.3533870000     0.4619350000     0.1592390000
| 21>  H        1.3426720000     0.2537640000    -1.2866890000
| 22>  H       -0.5463700000    -2.3188400000     0.4065260000
| 23>  H       -2.3308800000    -0.7489950000    -0.1072880000
| 24>  H       -1.7573980000     1.6636010000     0.3436400000
| 25>  H       -1.1299640000     1.3749770000    -1.2634480000
| 26> *
| 27>
| 28>                          ****END OF INPUT****
 Total Charge           Charge          ....    0
 Multiplicity           Mult            ....    1
 Number of Electrons    NEL             ....   46
 Basis Dimension        Dim             ....  124

MULLIKEN ATOMIC CHARGES
-----------------------
   0 C :   -0.066769
   1 C :    0.172178
   2 O :   -0.272141
   3 C :    0.122319
   4 C :   -0.157036
   5 C :    0.082951
   6 H :    0.010264
   7 H :    0.036700
   8 H :    0.016565
   9 H :    0.020755
  10 H :    0.000404
  11 H :   -0.005867
  12 H :    0.019784
  13 H :    0.019894
Sum of atomic charges:   -0.0000000

LOEWDIN ATOMIC CHARGES
----------------------
   0 C :   -0.056344
   1 C :    0.071288
   2 O :   -0.082302
   3 C :    0.021219
   4 C :   -0.126719
   5 C :   -0.040572
   6 H :    0.030205
   7 H :    0.032471
   8 H :    0.023626
   9 H :    0.017113
  10 H :    0.020966
  11 H :    0.026544
  12 H :    0.033803
  13 H :    0.028701

  Mayer bond orders larger than 0.1
B(  0-C ,  1-C ) :   1.0850 B(  0-C ,  5-C ) :   1.1025 B(  0-C ,  6-H ) :   0.9232
B(  0-C ,  7-H ) :   0.9314 B(  1-C ,  2-O ) :   0.9785 B(  1-C ,  8-H ) :   0.9433
B(  1-C ,  9-H ) :   0.9431 B(  2-O ,  3-C ) :   1.1395 B(  2-O ,  4-C ) :   0.1080
B(  3-C ,  4-C ) :   1.7973 B(  3-C , 10-H ) :   0.9711 B(  4-C ,  5-C ) :   1.0461
B(  4-C , 11-H ) :   0.9561 B(  5-C , 12-H ) :   0.9209 B(  5-C , 13-H ) :   0.9210

FINAL SINGLE POINT ENERGY      -270.002004699239

DIPOLE MOMENT
-------------
                                X             Y             Z
Electronic contribution:      1.10781      -3.54104       0.70070
Nuclear contribution   :     -1.13122       4.00055      -0.83855
                        -----------------------------------------
Total Dipole Moment    :     -0.02340       0.45951      -0.13784
                        -----------------------------------------
Magnitude (a.u.)       :      0.48031
Magnitude (Debye)      :      1.22084

                             ****ORCA TERMINATED NORMALLY****
TOTAL RUN TIME: 0 days 0 hours 0 minutes 6 seconds 257 msec
