                         Program Version 3.0.3 - RELEASE   -
|  1> ! RI PBE def2-SVP def2-SVP/J NBO PAL2
|  2> % maxcore 2000
|  3> % output
|  4>     # printlevel mini
|  5>     print[ P_Basis ] 0
|  6>     print[ P_SCFInfo ] 1
|  7>     print[ P_SCFIterInfo ] 1
|  8>     print[ P_OrbEn ] 0
|  9>     print[ P_Cartesian ] 0
| 10> end
| 11> *xyz 0 1
| 12>  C        0.6975890000     1.1586020000    -0.2442550000
| 13>  C       -0.7346260000     1.1589950000     0.2425130000
| 14>  O       -1.4124750000     0.0005210000    -0.1926850000
| 15>  C       -0.7355470000    -1.1588020000     0.2416850000
| 16>  C        0.6966670000    -1.1591990000    -0.2450850000
| 17>  O        1.3745190000    -0.0007230000     0.1901030000
| 18>  H        1.2433720000     2.0164870000     0.1548760000
| 19>  H        0.7123260000     1.2117300000    -1.3437000000
| 20>  H       -1.2797270000     2.0176030000    -0.1559960000
| 21>  H       -0.7493210000     1.2113370000     1.3419960000
| 22>  H       -1.2813330000    -2.0166900000    -0.1574350000
| 23>  H       -0.7502830000    -1.2119160000     1.3411310000
| 24>  H        0.7113600000    -1.2115510000    -1.3445680000
| 25>  H        1.2417700000    -2.0178030000     0.1534300000
| 26> *
| 27>
| 28>                          ****END OF INPUT****
 Total Charge           Charge          ....    0
 Multiplicity           Mult            ....    1
 Number of Electrons    NEL             ....   48
 Basis Dimension        Dim             ....  124

MULLIKEN ATOMIC CHARGES
-----------------------
   0 C :    0.162510
   1 C :    0.162532
   2 O :   -0.349474
   3 C :    0.162508
   4 C :    0.162534
   5 O :   -0.349474
   6 H :    0.014102
   7 H :   -0.001882
   8 H :    0.014089
   9 H :   -0.001878
  10 H :    0.014103
  11 H :   -0.001882
  12 H :   -0.001878
  13 H :    0.014089
Sum of atomic charges:   -0.0000000

LOEWDIN ATOMIC CHARGES
----------------------
   0 C :    0.041695
   1 C :    0.041697
   2 O :   -0.149609
   3 C :    0.041696
   4 C :    0.041697
   5 O :   -0.149609
   6 H :    0.025211
   7 H :    0.007898
   8 H :    0.025208
   9 H :    0.007899
  10 H :    0.025212
  11 H :    0.007898
  12 H :    0.007899
  13 H :    0.025208

  Mayer bond orders larger than 0.1
B(  0-C ,  1-C ) :   1.0989 B(  0-C ,  5-O ) :   1.0212 B(  0-C ,  6-H ) :   0.9336
B(  0-C ,  7-H ) :   0.9078 B(  1-C ,  2-O ) :   1.0212 B(  1-C ,  8-H ) :   0.9336
B(  1-C ,  9-H ) :   0.9078 B(  2-O ,  3-C ) :   1.0212 B(  3-C ,  4-C ) :   1.0989
B(  3-C , 10-H ) :   0.9336 B(  3-C , 11-H ) :   0.9078 B(  4-C ,  5-O ) :   1.0212
B(  4-C , 12-H ) :   0.9078 B(  4-C , 13-H ) :   0.9336

FINAL SINGLE POINT ENERGY      -307.057274376182

DIPOLE MOMENT
-------------
                                X             Y             Z
Electronic contribution:      0.00000      -0.00001      -0.00002
Nuclear contribution   :     -0.00001       0.00000       0.00003
                        -----------------------------------------
Total Dipole Moment    :     -0.00000      -0.00000       0.00001
                        -----------------------------------------
Magnitude (a.u.)       :      0.00001
Magnitude (Debye)      :      0.00002

                             ****ORCA TERMINATED NORMALLY****
TOTAL RUN TIME: 0 days 0 hours 0 minutes 5 seconds 808 msec
