                         Program Version 3.0.3 - RELEASE   -
|  1> ! RI PBE def2-SVP def2-SVP/J NBO PAL2
|  2> % maxcore 2000
|  3> % output
|  4>     # printlevel mini
|  5>     print[ P_Basis ] 0
|  6>     print[ P_SCFInfo ] 1
|  7>     print[ P_SCFIterInfo ] 1
|  8>     print[ P_OrbEn ] 0
|  9>     print[ P_Cartesian ] 0
| 10> end
| 11> *xyz 0 1
| 12>  C        0.3047750000     1.3424470000     0.1455130000
| 13>  C        1.3406190000     0.2754990000    -0.1391870000
| 14>  O        0.9532730000    -0.9575980000     0.4342100000
| 15>  C       -0.3655900000    -1.2214640000     0.2157400000
| 16>  C       -1.2421950000    -0.3169250000    -0.2169800000
| 17>  O       -0.9380880000     0.9938700000    -0.4316660000
| 18>  H        0.6020630000     2.3004440000    -0.2838940000
| 19>  H        0.1841500000     1.4564960000     1.2298740000
| 20>  H        2.3061310000     0.5427080000     0.2931500000
| 21>  H        1.4535630000     0.1539980000    -1.2235650000
| 22>  H       -0.6442220000    -2.2454890000     0.4189540000
| 23>  H       -2.2736770000    -0.5640170000    -0.4232500000
| 24> *
| 25>
| 26>                          ****END OF INPUT****
 Total Charge           Charge          ....    0
 Multiplicity           Mult            ....    1
 Number of Electrons    NEL             ....   46
 Basis Dimension        Dim             ....  114

MULLIKEN ATOMIC CHARGES
-----------------------
   0 C :    0.144940
   1 C :    0.143807
   2 O :   -0.278351
   3 C :    0.069951
   4 C :    0.069180
   5 O :   -0.278328
   6 H :    0.021263
   7 H :    0.033674
   8 H :    0.021644
   9 H :    0.033847
  10 H :    0.008943
  11 H :    0.009431
Sum of atomic charges:   -0.0000000

LOEWDIN ATOMIC CHARGES
----------------------
   0 C :    0.052790
   1 C :    0.052663
   2 O :   -0.088492
   3 C :   -0.040170
   4 C :   -0.040326
   5 O :   -0.088496
   6 H :    0.028652
   7 H :    0.021976
   8 H :    0.028751
   9 H :    0.021991
  10 H :    0.025279
  11 H :    0.025383

  Mayer bond orders larger than 0.1
B(  0-C ,  1-C ) :   1.0740 B(  0-C ,  5-O ) :   0.9930 B(  0-C ,  6-H ) :   0.9379
B(  0-C ,  7-H ) :   0.9353 B(  1-C ,  2-O ) :   0.9934 B(  1-C ,  8-H ) :   0.9378
B(  1-C ,  9-H ) :   0.9353 B(  2-O ,  3-C ) :   1.0990 B(  3-C ,  4-C ) :   1.7235
B(  3-C , 10-H ) :   0.9657 B(  4-C ,  5-O ) :   1.0994 B(  4-C , 11-H ) :   0.9655

FINAL SINGLE POINT ENERGY      -305.848899349312

DIPOLE MOMENT
-------------
                                X             Y             Z
Electronic contribution:     -1.09135      -1.05919      -0.00269
Nuclear contribution   :      1.37406       1.33315       0.00317
                        -----------------------------------------
Total Dipole Moment    :      0.28271       0.27395       0.00048
                        -----------------------------------------
Magnitude (a.u.)       :      0.39367
Magnitude (Debye)      :      1.00063

                             ****ORCA TERMINATED NORMALLY****
TOTAL RUN TIME: 0 days 0 hours 0 minutes 5 seconds 201 msec
