                         Program Version 3.0.3 - RELEASE   -
|  1> ! RI PBE def2-SVP def2-SVP/J NBO PAL2
|  2> % maxcore 2000
|  3> % output
|  4>     # printlevel mini
|  5>     print[ P_Basis ] 0
|  6>     print[ P_SCFInfo ] 1
|  7>     print[ P_SCFIterInfo ] 1
|  8>     print[ P_OrbEn ] 0
|  9>     print[ P_Cartesian ] 0
| 10> end
| 11> *xyz 0 1
| 12>  C        0.6946020000     1.2357440000    -0.2265140000
| 13>  C       -0.7542510000     1.1847020000     0.2251920000
| 14>  O       -1.3655200000    -0.0128230000    -0.2133510000
| 15>  C       -0.6597590000    -1.1252420000     0.2431980000
| 16>  O        0.6505560000    -1.1728320000    -0.2309600000
| 17>  C        1.3844150000    -0.0458430000     0.2065130000
| 18>  H        1.1994700000     2.1066910000     0.2020280000
| 19>  H        0.7335580000     1.3199860000    -1.3159260000
| 20>  H       -1.3413570000     2.0063590000    -0.1874180000
| 21>  H       -0.8088380000     1.2427860000     1.3245230000
| 22>  H       -1.1721900000    -2.0101360000    -0.1325840000
| 23>  H       -0.6501900000    -1.1254110000     1.3498140000
| 24>  H        2.3843230000    -0.1373200000    -0.2199580000
| 25>  H        1.4764820000    -0.0721410000     1.3045630000
| 26> *
| 27>
| 28>                          ****END OF INPUT****
 Total Charge           Charge          ....    0
 Multiplicity           Mult            ....    1
 Number of Electrons    NEL             ....   48
 Basis Dimension        Dim             ....  124

MULLIKEN ATOMIC CHARGES
-----------------------
   0 C :   -0.046539
   1 C :    0.159174
   2 O :   -0.335369
   3 C :    0.325316
   4 O :   -0.332195
   5 C :    0.152921
   6 H :    0.014062
   7 H :    0.033409
   8 H :    0.021022
   9 H :   -0.004630
  10 H :    0.020423
  11 H :   -0.028453
  12 H :    0.022691
  13 H :   -0.001831
Sum of atomic charges:   -0.0000000

LOEWDIN ATOMIC CHARGES
----------------------
   0 C :   -0.076384
   1 C :    0.059718
   2 O :   -0.142963
   3 C :    0.119269
   4 O :   -0.142076
   5 C :    0.058891
   6 H :    0.031877
   7 H :    0.031744
   8 H :    0.023690
   9 H :    0.004829
  10 H :    0.018584
  11 H :   -0.016354
  12 H :    0.023984
  13 H :    0.005191

  Mayer bond orders larger than 0.1
B(  0-C ,  1-C ) :   1.0886 B(  0-C ,  5-C ) :   1.0877 B(  0-C ,  6-H ) :   0.9200
B(  0-C ,  7-H ) :   0.9183 B(  1-C ,  2-O ) :   1.0072 B(  1-C ,  8-H ) :   0.9476
B(  1-C ,  9-H ) :   0.9234 B(  2-O ,  3-C ) :   1.0672 B(  3-C ,  4-O ) :   1.0656
B(  3-C , 10-H ) :   0.9527 B(  3-C , 11-H ) :   0.9146 B(  4-O ,  5-C ) :   1.0073
B(  5-C , 12-H ) :   0.9474 B(  5-C , 13-H ) :   0.9243

FINAL SINGLE POINT ENERGY      -307.066208107669

DIPOLE MOMENT
-------------
                                X             Y             Z
Electronic contribution:     -1.54332      -2.66363      -1.69683
Nuclear contribution   :      1.83625       3.15916       2.12164
                        -----------------------------------------
Total Dipole Moment    :      0.29292       0.49553       0.42482
                        -----------------------------------------
Magnitude (a.u.)       :      0.71542
Magnitude (Debye)      :      1.81844

                             ****ORCA TERMINATED NORMALLY****
TOTAL RUN TIME: 0 days 0 hours 0 minutes 5 seconds 836 msec
