                         Program Version 3.0.3 - RELEASE   -
|  1> ! RI PBE def2-SVP def2-SVP/J NBO PAL2
|  2> % maxcore 2000
|  3> % output
|  4>     # printlevel mini
|  5>     print[ P_Basis ] 0
|  6>     print[ P_SCFInfo ] 1
|  7>     print[ P_SCFIterInfo ] 1
|  8>     print[ P_OrbEn ] 0
|  9>     print[ P_Cartesian ] 0
| 10> end
| 11> *xyz 0 1
| 12>  C       -0.2027540000     0.7235660000     0.0214790000
| 13>  O       -0.1214620000    -0.6257210000    -0.4098030000
| 14>  C        1.0604490000    -0.0048650000     0.0680370000
| 15>  C        1.5948120000    -0.5368400000     1.3472370000
| 16>  C        2.8585200000    -1.2643500000     1.3942230000
| 17>  O        2.7761060000     0.0848240000     1.8256220000
| 18>  H       -0.7585890000     0.8840390000     0.9423390000
| 19>  H       -0.3702310000     1.4548240000    -0.7648150000
| 20>  H        1.8129490000     0.2083230000    -0.6903650000
| 21>  H        0.8421280000    -0.7506670000     2.1052810000
| 22>  H        3.4148410000    -1.4243480000     0.4735710000
| 23>  H        3.0262220000    -1.9955860000     2.1804950000
| 24> *
| 25>
| 26>                          ****END OF INPUT****
 Total Charge           Charge          ....    0
 Multiplicity           Mult            ....    1
 Number of Electrons    NEL             ....   46
 Basis Dimension        Dim             ....  114

MULLIKEN ATOMIC CHARGES
-----------------------
   0 C :    0.154574
   1 O :   -0.283028
   2 C :    0.054177
   3 C :    0.054203
   4 C :    0.154598
   5 O :   -0.283050
   6 H :    0.028182
   7 H :    0.038150
   8 H :    0.007941
   9 H :    0.007950
  10 H :    0.028167
  11 H :    0.038136
Sum of atomic charges:   -0.0000000

LOEWDIN ATOMIC CHARGES
----------------------
   0 C :    0.061083
   1 O :   -0.148150
   2 C :    0.030655
   3 C :    0.030662
   4 C :    0.061070
   5 O :   -0.148162
   6 H :    0.016221
   7 H :    0.019783
   8 H :    0.020420
   9 H :    0.020423
  10 H :    0.016216
  11 H :    0.019780

  Mayer bond orders larger than 0.1
B(  0-C ,  1-O ) :   0.9977 B(  0-C ,  2-C ) :   1.0736 B(  0-C ,  6-H ) :   0.9323
B(  0-C ,  7-H ) :   0.9360 B(  1-O ,  2-C ) :   0.9695 B(  2-C ,  3-C ) :   1.0373
B(  2-C ,  8-H ) :   0.9224 B(  3-C ,  4-C ) :   1.0736 B(  3-C ,  5-O ) :   0.9694
B(  3-C ,  9-H ) :   0.9224 B(  4-C ,  5-O ) :   0.9977 B(  4-C , 10-H ) :   0.9323
B(  4-C , 11-H ) :   0.9360

FINAL SINGLE POINT ENERGY      -305.802753257365

DIPOLE MOMENT
-------------
                                X             Y             Z
Electronic contribution:     -0.00115      -0.00004       0.00012
Nuclear contribution   :      0.00158      -0.00008      -0.00031
                        -----------------------------------------
Total Dipole Moment    :      0.00043      -0.00013      -0.00018
                        -----------------------------------------
Magnitude (a.u.)       :      0.00048
Magnitude (Debye)      :      0.00122

                             ****ORCA TERMINATED NORMALLY****
TOTAL RUN TIME: 0 days 0 hours 0 minutes 4 seconds 884 msec
