                         Program Version 3.0.3 - RELEASE   -
|  1> ! RI PBE def2-SVP def2-SVP/J NBO PAL2
|  2> % maxcore 2000
|  3> % output
|  4>     # printlevel mini
|  5>     print[ P_Basis ] 0
|  6>     print[ P_SCFInfo ] 1
|  7>     print[ P_SCFIterInfo ] 1
|  8>     print[ P_OrbEn ] 0
|  9>     print[ P_Cartesian ] 0
| 10> end
| 11> *xyz 0 1
| 12>  C        0.9326810000    -0.0222360000     0.9715630000
| 13>  C        0.3424780000    -1.0442470000    -0.0335200000
| 14>  C        0.7466890000    -0.0336600000    -1.1373160000
| 15>  C        0.3171920000     0.9547280000    -0.0421190000
| 16>  O       -1.0864380000     0.7197410000     0.0829470000
| 17>  C       -1.1379150000    -0.7166950000     0.0952690000
| 18>  H        2.0224610000    -0.0154460000     0.9685800000
| 19>  H        0.5370920000    -0.0026760000     1.9887800000
| 20>  H        0.6295330000    -2.0942900000    -0.0531500000
| 21>  H        0.1791530000    -0.0246590000    -2.0697450000
| 22>  H        1.8201630000    -0.0278720000    -1.3251870000
| 23>  H        0.5122730000     2.0247410000    -0.0651190000
| 24>  H       -1.7379880000    -1.0778810000    -0.7458480000
| 25>  H       -1.5811650000    -1.0682480000     1.0322650000
| 26> *
| 27>
| 28>                          ****END OF INPUT****
 Total Charge           Charge          ....    0
 Multiplicity           Mult            ....    1
 Number of Electrons    NEL             ....   46
 Basis Dimension        Dim             ....  124

MULLIKEN ATOMIC CHARGES
-----------------------
   0 C :    0.069168
   1 C :   -0.247014
   2 C :    0.073409
   3 C :    0.049331
   4 O :   -0.335756
   5 C :    0.277218
   6 H :    0.025792
   7 H :    0.017772
   8 H :    0.002587
   9 H :    0.017285
  10 H :    0.023531
  11 H :    0.002752
  12 H :    0.012387
  13 H :    0.011538
Sum of atomic charges:    0.0000000

LOEWDIN ATOMIC CHARGES
----------------------
   0 C :   -0.037663
   1 C :   -0.040359
   2 C :   -0.036807
   3 C :    0.069246
   4 O :   -0.169213
   5 C :    0.077710
   6 H :    0.025864
   7 H :    0.018176
   8 H :    0.014824
   9 H :    0.018107
  10 H :    0.025726
  11 H :    0.009990
  12 H :    0.012294
  13 H :    0.012105

  Mayer bond orders larger than 0.1
B(  0-C ,  1-C ) :   0.9676 B(  0-C ,  3-C ) :   0.9890 B(  0-C ,  6-H ) :   0.9422
B(  0-C ,  7-H ) :   0.9261 B(  1-C ,  2-C ) :   0.9688 B(  1-C ,  5-C ) :   1.0334
B(  1-C ,  8-H ) :   0.9455 B(  2-C ,  3-C ) :   0.9890 B(  2-C ,  9-H ) :   0.9261
B(  2-C , 10-H ) :   0.9416 B(  3-C ,  4-O ) :   1.0232 B(  3-C , 11-H ) :   0.9525
B(  4-O ,  5-C ) :   0.9777 B(  5-C , 12-H ) :   0.9412 B(  5-C , 13-H ) :   0.9418

FINAL SINGLE POINT ENERGY      -269.970469886216

DIPOLE MOMENT
-------------
                                X             Y             Z
Electronic contribution:     -1.77564       1.62108       0.14543
Nuclear contribution   :      2.26780      -2.03204      -0.18900
                        -----------------------------------------
Total Dipole Moment    :      0.49216      -0.41095      -0.04357
                        -----------------------------------------
Magnitude (a.u.)       :      0.64265
Magnitude (Debye)      :      1.63350

                             ****ORCA TERMINATED NORMALLY****
TOTAL RUN TIME: 0 days 0 hours 0 minutes 5 seconds 743 msec
