                         Program Version 3.0.3 - RELEASE   -
|  1> ! RI PBE def2-SVP def2-SVP/J NBO PAL2
|  2> % maxcore 2000
|  3> % output
|  4>     # printlevel mini
|  5>     print[ P_Basis ] 0
|  6>     print[ P_SCFInfo ] 1
|  7>     print[ P_SCFIterInfo ] 1
|  8>     print[ P_OrbEn ] 0
|  9>     print[ P_Cartesian ] 0
| 10> end
| 11> *xyz 0 1
| 12>  C        0.7284680000     1.2939710000    -0.6112610000
| 13>  C       -0.3243400000     0.9476030000     0.4003360000
| 14>  O       -1.3033610000     0.0389250000    -0.0319340000
| 15>  C       -0.7323040000    -1.2310360000     0.1748470000
| 16>  O        0.6511540000    -1.0968010000    -0.0480150000
| 17>  C        0.9612060000     0.2006040000     0.3897850000
| 18>  H        1.2697720000     2.2236530000    -0.4774440000
| 19>  H        0.5434510000     0.9899710000    -1.6337180000
| 20>  H       -0.6322670000     1.6359320000     1.1780800000
| 21>  H       -1.1475020000    -1.9353440000    -0.5471240000
| 22>  H       -0.9201710000    -1.5689400000     1.2064750000
| 23>  H        1.7211840000     0.2683530000     1.1587730000
| 24> *
| 25>
| 26>                          ****END OF INPUT****
 Total Charge           Charge          ....    0
 Multiplicity           Mult            ....    1
 Number of Electrons    NEL             ....   46
 Basis Dimension        Dim             ....  114

MULLIKEN ATOMIC CHARGES
-----------------------
   0 C :    0.027821
   1 C :    0.043234
   2 O :   -0.317046
   3 C :    0.361705
   4 O :   -0.316413
   5 C :    0.040621
   6 H :    0.034817
   7 H :    0.038168
   8 H :    0.030197
   9 H :    0.032163
  10 H :   -0.007728
  11 H :    0.032462
Sum of atomic charges:   -0.0000000

LOEWDIN ATOMIC CHARGES
----------------------
   0 C :   -0.059298
   1 C :    0.034062
   2 O :   -0.137176
   3 C :    0.152534
   4 O :   -0.136911
   5 C :    0.032939
   6 H :    0.033580
   7 H :    0.037691
   8 H :    0.017906
   9 H :    0.016015
  10 H :   -0.009621
  11 H :    0.018280

  Mayer bond orders larger than 0.1
B(  0-C ,  1-C ) :   0.9757 B(  0-C ,  5-C ) :   0.9729 B(  0-C ,  6-H ) :   0.9313
B(  0-C ,  7-H ) :   0.9071 B(  1-C ,  2-O ) :   1.0391 B(  1-C ,  5-C ) :   0.9636
B(  1-C ,  8-H ) :   0.9547 B(  2-O ,  3-C ) :   1.0261 B(  3-C ,  4-O ) :   1.0254
B(  3-C ,  9-H ) :   0.9551 B(  3-C , 10-H ) :   0.9307 B(  4-O ,  5-C ) :   1.0388
B(  5-C , 11-H ) :   0.9551

FINAL SINGLE POINT ENERGY      -305.827008020487

DIPOLE MOMENT
-------------
                                X             Y             Z
Electronic contribution:     -0.75205      -1.28726      -0.19903
Nuclear contribution   :      0.90405       1.54761       0.57534
                        -----------------------------------------
Total Dipole Moment    :      0.15199       0.26035       0.37630
                        -----------------------------------------
Magnitude (a.u.)       :      0.48217
Magnitude (Debye)      :      1.22557

                             ****ORCA TERMINATED NORMALLY****
TOTAL RUN TIME: 0 days 0 hours 0 minutes 5 seconds 229 msec
