                         Program Version 3.0.3 - RELEASE   -
|  1> ! RI PBE def2-SVP def2-SVP/J NBO PAL2
|  2> % maxcore 2000
|  3> % output
|  4>     # printlevel mini
|  5>     print[ P_Basis ] 0
|  6>     print[ P_SCFInfo ] 1
|  7>     print[ P_SCFIterInfo ] 1
|  8>     print[ P_OrbEn ] 0
|  9>     print[ P_Cartesian ] 0
| 10> end
| 11> *xyz 0 1
| 12>  C        0.7626080000     1.3246830000    -0.6232690000
| 13>  C       -0.3363870000     0.9047200000     0.3020250000
| 14>  C       -1.3471340000    -0.0539630000    -0.2742040000
| 15>  O       -0.5922690000    -1.0363290000    -0.9613450000
| 16>  C        0.6443210000    -1.1947270000    -0.2884540000
| 17>  C        0.9662160000     0.1585510000     0.2927040000
| 18>  H        1.2890130000     2.2406780000    -0.3862740000
| 19>  H        0.6400700000     1.1239930000    -1.6822770000
| 20>  H       -0.6220850000     1.5405140000     1.1303240000
| 21>  H       -2.0315100000     0.3940260000    -0.9995320000
| 22>  H       -1.9408080000    -0.5053070000     0.5348450000
| 23>  H        1.3690970000    -1.5539420000    -1.0238670000
| 24>  H        0.5640100000    -1.9401410000     0.5169200000
| 25>  H        1.6680700000     0.2286440000     1.1139360000
| 26> *
| 27>
| 28>                          ****END OF INPUT****
 Total Charge           Charge          ....    0
 Multiplicity           Mult            ....    1
 Number of Electrons    NEL             ....   46
 Basis Dimension        Dim             ....  124

MULLIKEN ATOMIC CHARGES
-----------------------
   0 C :    0.022153
   1 C :   -0.190103
   2 C :    0.291726
   3 O :   -0.365248
   4 C :    0.288549
   5 C :   -0.198752
   6 H :    0.029639
   7 H :    0.038205
   8 H :    0.022425
   9 H :    0.018424
  10 H :   -0.002061
  11 H :    0.017489
  12 H :    0.001977
  13 H :    0.025577
Sum of atomic charges:   -0.0000000

LOEWDIN ATOMIC CHARGES
----------------------
   0 C :   -0.040056
   1 C :   -0.058180
   2 C :    0.074085
   3 O :   -0.156589
   4 C :    0.072846
   5 C :   -0.059878
   6 H :    0.030023
   7 H :    0.028620
   8 H :    0.026298
   9 H :    0.020241
  10 H :    0.007316
  11 H :    0.020277
  12 H :    0.008073
  13 H :    0.026924

  Mayer bond orders larger than 0.1
B(  0-C ,  1-C ) :   0.9788 B(  0-C ,  5-C ) :   0.9771 B(  0-C ,  6-H ) :   0.9420
B(  0-C ,  7-H ) :   0.9381 B(  1-C ,  2-C ) :   1.0619 B(  1-C ,  5-C ) :   0.9728
B(  1-C ,  8-H ) :   0.9466 B(  2-C ,  3-O ) :   1.0097 B(  2-C ,  9-H ) :   0.9363
B(  2-C , 10-H ) :   0.9219 B(  3-O ,  4-C ) :   1.0120 B(  4-C ,  5-C ) :   1.0631
B(  4-C , 11-H ) :   0.9346 B(  4-C , 12-H ) :   0.9225 B(  5-C , 13-H ) :   0.9455

FINAL SINGLE POINT ENERGY      -269.984795871323

DIPOLE MOMENT
-------------
                                X             Y             Z
Electronic contribution:     -0.70829      -1.21600      -0.85262
Nuclear contribution   :      0.89153       1.53986       1.32064
                        -----------------------------------------
Total Dipole Moment    :      0.18324       0.32385       0.46802
                        -----------------------------------------
Magnitude (a.u.)       :      0.59791
Magnitude (Debye)      :      1.51977

                             ****ORCA TERMINATED NORMALLY****
TOTAL RUN TIME: 0 days 0 hours 0 minutes 5 seconds 889 msec
