                         Program Version 3.0.3 - RELEASE   -
|  1> ! RI PBE def2-SVP def2-SVP/J NBO PAL2
|  2> % maxcore 2000
|  3> % output
|  4>     # printlevel mini
|  5>     print[ P_Basis ] 0
|  6>     print[ P_SCFInfo ] 1
|  7>     print[ P_SCFIterInfo ] 1
|  8>     print[ P_OrbEn ] 0
|  9>     print[ P_Cartesian ] 0
| 10> end
| 11> *xyz 0 1
| 12>  C        0.6380570000     1.2314600000    -0.2909490000
| 13>  O       -0.6668680000     1.1716590000    -0.8353150000
| 14>  C       -1.3673930000     0.0736080000    -0.2818800000
| 15>  C       -0.3121470000    -0.8904480000     0.1779870000
| 16>  O        0.6729940000    -1.1488560000    -0.8116550000
| 17>  C        0.9484670000    -0.1626300000     0.1722860000
| 18>  H        0.6899700000     1.9197010000     0.5661910000
| 19>  H        1.3109360000     1.5918360000    -1.0733020000
| 20>  H       -2.0212130000    -0.3319890000    -1.0582330000
| 21>  H       -1.9835600000     0.3761320000     0.5782820000
| 22>  H       -0.5420800000    -1.7003210000     0.8629660000
| 23>  H        1.7694350000    -0.3657620000     0.8525120000
| 24> *
| 25>
| 26>                          ****END OF INPUT****
 Total Charge           Charge          ....    0
 Multiplicity           Mult            ....    1
 Number of Electrons    NEL             ....   46
 Basis Dimension        Dim             ....  114

MULLIKEN ATOMIC CHARGES
-----------------------
   0 C :    0.281985
   1 O :   -0.358225
   2 C :    0.284555
   3 C :   -0.031589
   4 O :   -0.266715
   5 C :   -0.036080
   6 H :    0.005993
   7 H :    0.029162
   8 H :    0.029086
   9 H :    0.003814
  10 H :    0.028740
  11 H :    0.029275
Sum of atomic charges:   -0.0000000

LOEWDIN ATOMIC CHARGES
----------------------
   0 C :    0.059894
   1 O :   -0.152777
   2 C :    0.060608
   3 C :    0.026707
   4 O :   -0.140630
   5 C :    0.026232
   6 H :    0.012510
   7 H :    0.027554
   8 H :    0.027451
   9 H :    0.012159
  10 H :    0.020103
  11 H :    0.020188

  Mayer bond orders larger than 0.1
B(  0-C ,  1-O ) :   1.0233 B(  0-C ,  5-C ) :   1.0242 B(  0-C ,  6-H ) :   0.9142
B(  0-C ,  7-H ) :   0.9213 B(  1-O ,  2-C ) :   1.0189 B(  2-C ,  3-C ) :   1.0259
B(  2-C ,  8-H ) :   0.9217 B(  2-C ,  9-H ) :   0.9136 B(  3-C ,  4-O ) :   0.9777
B(  3-C ,  5-C ) :   1.0514 B(  3-C , 10-H ) :   0.9464 B(  4-O ,  5-C ) :   0.9766
B(  5-C , 11-H ) :   0.9471

FINAL SINGLE POINT ENERGY      -305.835587420506

DIPOLE MOMENT
-------------
                                X             Y             Z
Electronic contribution:      0.62359      -1.09476      -1.65571
Nuclear contribution   :     -0.60998       1.07623       2.51843
                        -----------------------------------------
Total Dipole Moment    :      0.01362      -0.01853       0.86272
                        -----------------------------------------
Magnitude (a.u.)       :      0.86302
Magnitude (Debye)      :      2.19363

                             ****ORCA TERMINATED NORMALLY****
TOTAL RUN TIME: 0 days 0 hours 0 minutes 5 seconds 297 msec
