                         Program Version 3.0.3 - RELEASE   -
|  1> ! RI PBE def2-SVP def2-SVP/J NBO PAL2
|  2> % maxcore 2000
|  3> % output
|  4>     # printlevel mini
|  5>     print[ P_Basis ] 0
|  6>     print[ P_SCFInfo ] 1
|  7>     print[ P_SCFIterInfo ] 1
|  8>     print[ P_OrbEn ] 0
|  9>     print[ P_Cartesian ] 0
| 10> end
| 11> *xyz 0 1
| 12>  C        0.2565040000    -1.3913770000     0.0233000000
| 13>  O       -1.0750290000    -0.8544580000     0.0160550000
| 14>  C       -1.2685720000     0.4744150000     0.0003650000
| 15>  C       -0.2995220000     1.3917980000    -0.0100870000
| 16>  C        1.0786630000     0.9372490000    -0.0043800000
| 17>  C        1.3446040000    -0.3666620000     0.0112090000
| 18>  H        0.3357290000    -2.0538970000    -0.8490450000
| 19>  H        0.3349360000    -2.0322960000     0.9117200000
| 20>  H       -2.3259060000     0.7118560000    -0.0028590000
| 21>  H       -0.5545440000     2.4415310000    -0.0225530000
| 22>  H        1.8832020000     1.6636170000    -0.0129080000
| 23>  H        2.3615440000    -0.7435760000     0.0158820000
| 24> *
| 25>
| 26>                          ****END OF INPUT****
 Total Charge           Charge          ....    0
 Multiplicity           Mult            ....    1
 Number of Electrons    NEL             ....   44
 Basis Dimension        Dim             ....  114

MULLIKEN ATOMIC CHARGES
-----------------------
   0 C :    0.255502
   1 O :   -0.274932
   2 C :    0.136241
   3 C :   -0.071541
   4 C :    0.052549
   5 C :   -0.149269
   6 H :    0.026605
   7 H :    0.026066
   8 H :    0.012692
   9 H :   -0.009133
  10 H :   -0.006203
  11 H :    0.001421
Sum of atomic charges:   -0.0000000

LOEWDIN ATOMIC CHARGES
----------------------
   0 C :    0.082840
   1 O :   -0.070279
   2 C :    0.060891
   3 C :   -0.131687
   4 C :   -0.032675
   5 C :   -0.066927
   6 H :    0.021591
   7 H :    0.021489
   8 H :    0.024441
   9 H :    0.031016
  10 H :    0.030741
  11 H :    0.028559

  Mayer bond orders larger than 0.1
B(  0-C ,  1-O ) :   0.9487 B(  0-C ,  5-C ) :   1.0508 B(  0-C ,  6-H ) :   0.9328
B(  0-C ,  7-H ) :   0.9327 B(  1-O ,  2-C ) :   1.1685 B(  1-O ,  3-C ) :   0.1101
B(  2-C ,  3-C ) :   1.6922 B(  2-C ,  8-H ) :   0.9707 B(  3-C ,  4-C ) :   1.0936
B(  3-C ,  9-H ) :   0.9644 B(  4-C ,  5-C ) :   1.8414 B(  4-C , 10-H ) :   0.9731
B(  5-C , 11-H ) :   0.9513

FINAL SINGLE POINT ENERGY      -268.781809151146

DIPOLE MOMENT
-------------
                                X             Y             Z
Electronic contribution:     -1.76984      -0.08777      -0.00054
Nuclear contribution   :      2.01670       0.05284       0.00069
                        -----------------------------------------
Total Dipole Moment    :      0.24686      -0.03492       0.00015
                        -----------------------------------------
Magnitude (a.u.)       :      0.24932
Magnitude (Debye)      :      0.63373

                             ****ORCA TERMINATED NORMALLY****
TOTAL RUN TIME: 0 days 0 hours 0 minutes 5 seconds 893 msec
