                         Program Version 3.0.3 - RELEASE   -
|  1> ! RI PBE def2-SVP def2-SVP/J NBO PAL2
|  2> % maxcore 2000
|  3> % output
|  4>     # printlevel mini
|  5>     print[ P_Basis ] 0
|  6>     print[ P_SCFInfo ] 1
|  7>     print[ P_SCFIterInfo ] 1
|  8>     print[ P_OrbEn ] 0
|  9>     print[ P_Cartesian ] 0
| 10> end
| 11> *xyz 0 1
| 12>  C        0.3415210000     1.2484910000    -0.0045270000
| 13>  O        1.2091000000     0.3457720000    -0.5967560000
| 14>  C        1.0309380000    -0.9594020000    -0.0713570000
| 15>  C       -0.4205060000    -1.2647310000     0.0947350000
| 16>  C       -1.3297080000    -0.3119920000    -0.0879530000
| 17>  O       -1.0110890000     0.9845380000    -0.3158980000
| 18>  H        0.5664890000     2.2379940000    -0.3980130000
| 19>  H        0.4441900000     1.2250240000     1.0916240000
| 20>  H        1.5859970000    -1.0686390000     0.8732540000
| 21>  H        1.4886920000    -1.6367650000    -0.7976140000
| 22>  H       -0.7349350000    -2.2774430000     0.3104680000
| 23>  H       -2.3997990000    -0.4794580000    -0.0706620000
| 24> *
| 25>
| 26>                          ****END OF INPUT****
 Total Charge           Charge          ....    0
 Multiplicity           Mult            ....    1
 Number of Electrons    NEL             ....   46
 Basis Dimension        Dim             ....  114

MULLIKEN ATOMIC CHARGES
-----------------------
   0 C :    0.314355
   1 O :   -0.331960
   2 C :    0.260181
   3 C :   -0.203515
   4 C :    0.130458
   5 O :   -0.264767
   6 H :    0.028000
   7 H :    0.000682
   8 H :    0.013863
   9 H :    0.035396
  10 H :    0.007029
  11 H :    0.010280
Sum of atomic charges:   -0.0000000

LOEWDIN ATOMIC CHARGES
----------------------
   0 C :    0.137374
   1 O :   -0.133627
   2 C :    0.067067
   3 C :   -0.138761
   4 C :    0.028023
   5 O :   -0.083061
   6 H :    0.021226
   7 H :   -0.001699
   8 H :    0.014002
   9 H :    0.033368
  10 H :    0.032644
  11 H :    0.023445

  Mayer bond orders larger than 0.1
B(  0-C ,  1-O ) :   1.0799 B(  0-C ,  5-O ) :   0.9968 B(  0-C ,  6-H ) :   0.9557
B(  0-C ,  7-H ) :   0.9257 B(  1-O ,  2-C ) :   1.0094 B(  2-C ,  3-C ) :   1.0335
B(  2-C ,  8-H ) :   0.9241 B(  2-C ,  9-H ) :   0.9318 B(  3-C ,  4-C ) :   1.8024
B(  3-C ,  5-O ) :   0.1038 B(  3-C , 10-H ) :   0.9486 B(  4-C ,  5-O ) :   1.1333
B(  4-C , 11-H ) :   0.9790

FINAL SINGLE POINT ENERGY      -305.852196536370

DIPOLE MOMENT
-------------
                                X             Y             Z
Electronic contribution:     -0.87677       1.82671      -1.45751
Nuclear contribution   :      0.92181      -2.10595       1.88063
                        -----------------------------------------
Total Dipole Moment    :      0.04503      -0.27924       0.42312
                        -----------------------------------------
Magnitude (a.u.)       :      0.50895
Magnitude (Debye)      :      1.29365

                             ****ORCA TERMINATED NORMALLY****
TOTAL RUN TIME: 0 days 0 hours 0 minutes 5 seconds 575 msec
