                         Program Version 3.0.3 - RELEASE   -
|  1> ! RI PBE def2-SVP def2-SVP/J NBO PAL2
|  2> % maxcore 2000
|  3> % output
|  4>     # printlevel mini
|  5>     print[ P_Basis ] 0
|  6>     print[ P_SCFInfo ] 1
|  7>     print[ P_SCFIterInfo ] 1
|  8>     print[ P_OrbEn ] 0
|  9>     print[ P_Cartesian ] 0
| 10> end
| 11> *xyz 0 1
| 12>  C        1.0594290000     0.0822730000    -0.0951120000
| 13>  C        2.5579630000     0.0642920000    -0.0025660000
| 14>  C        3.3582180000    -0.8754790000    -0.8523130000
| 15>  C        3.3978160000     0.6025980000    -1.1177340000
| 16>  C        4.6479570000     1.3739580000    -0.8184830000
| 17>  O        4.4099970000     2.7133530000    -0.4294500000
| 18>  H        0.6121510000    -0.6943860000     0.5313930000
| 19>  H        0.7305650000    -0.0930620000    -1.1232160000
| 20>  H        0.6541700000     1.0460460000     0.2248930000
| 21>  H        2.9558660000     0.2482960000     0.9914260000
| 22>  H        2.8230680000    -1.5038890000    -1.5545900000
| 23>  H        4.2424650000    -1.3351420000    -0.4256170000
| 24>  H        2.8556440000     0.9364010000    -2.0006470000
| 25>  H        5.3287790000     1.3366390000    -1.6812440000
| 26>  H        5.1702210000     0.9112870000     0.0235070000
| 27>  H        3.9413910000     3.1545140000    -1.1422470000
| 28> *
| 29>
| 30>                          ****END OF INPUT****
 Total Charge           Charge          ....    0
 Multiplicity           Mult            ....    1
 Number of Electrons    NEL             ....   48
 Basis Dimension        Dim             ....  134

MULLIKEN ATOMIC CHARGES
-----------------------
   0 C :    0.078134
   1 C :   -0.147494
   2 C :    0.007694
   3 C :   -0.178718
   4 C :    0.260938
   5 O :   -0.288605
   6 H :    0.023588
   7 H :    0.000387
   8 H :    0.023749
   9 H :    0.022783
  10 H :    0.022860
  11 H :    0.025202
  12 H :    0.007665
  13 H :   -0.000640
  14 H :   -0.007539
  15 H :    0.149998
Sum of atomic charges:   -0.0000000

LOEWDIN ATOMIC CHARGES
----------------------
   0 C :   -0.053865
   1 C :   -0.041365
   2 C :   -0.040861
   3 C :   -0.069255
   4 C :    0.059169
   5 O :   -0.126192
   6 H :    0.029279
   7 H :    0.024631
   8 H :    0.029289
   9 H :    0.027341
  10 H :    0.024934
  11 H :    0.025127
  12 H :    0.019361
  13 H :    0.006210
  14 H :    0.020737
  15 H :    0.065461

  Mayer bond orders larger than 0.1
B(  0-C ,  1-C ) :   1.0994 B(  0-C ,  6-H ) :   0.9584 B(  0-C ,  7-H ) :   0.9490
B(  0-C ,  8-H ) :   0.9621 B(  1-C ,  2-C ) :   1.0073 B(  1-C ,  3-C ) :   0.9365
B(  1-C ,  9-H ) :   0.9425 B(  2-C ,  3-C ) :   0.9779 B(  2-C , 10-H ) :   0.9370
B(  2-C , 11-H ) :   0.9405 B(  3-C ,  4-C ) :   1.0654 B(  3-C , 12-H ) :   0.9346
B(  4-C ,  5-O ) :   1.0644 B(  4-C , 13-H ) :   0.9301 B(  4-C , 14-H ) :   0.9191
B(  5-O , 15-H ) :   0.9867

FINAL SINGLE POINT ENERGY      -271.183098847856

DIPOLE MOMENT
-------------
                                X             Y             Z
Electronic contribution:      2.75607       2.82413       0.10546
Nuclear contribution   :     -3.03602      -3.01207      -0.57374
                        -----------------------------------------
Total Dipole Moment    :     -0.27994      -0.18793      -0.46828
                        -----------------------------------------
Magnitude (a.u.)       :      0.57704
Magnitude (Debye)      :      1.46671

                             ****ORCA TERMINATED NORMALLY****
TOTAL RUN TIME: 0 days 0 hours 0 minutes 6 seconds 354 msec
