                         Program Version 3.0.3 - RELEASE   -
|  1> ! RI PBE def2-SVP def2-SVP/J NBO PAL2
|  2> % maxcore 2000
|  3> % output
|  4>     # printlevel mini
|  5>     print[ P_Basis ] 0
|  6>     print[ P_SCFInfo ] 1
|  7>     print[ P_SCFIterInfo ] 1
|  8>     print[ P_OrbEn ] 0
|  9>     print[ P_Cartesian ] 0
| 10> end
| 11> *xyz 0 1
| 12>  C        0.8533320000    -0.0722680000    -0.7301970000
| 13>  C        2.1046110000     0.5871920000    -0.2239950000
| 14>  C        3.4515880000    -0.0832030000    -0.3478860000
| 15>  C        3.1681680000     1.1589700000    -1.1192780000
| 16>  C        3.0533090000     1.1308780000    -2.6159600000
| 17>  O        3.8501000000     2.2839000000    -0.6318130000
| 18>  H        0.4388290000    -0.7446320000     0.0261200000
| 19>  H        1.0424580000    -0.6701150000    -1.6242730000
| 20>  H        0.0810480000     0.6614800000    -0.9788790000
| 21>  H        1.9799340000     1.1544850000     0.6939530000
| 22>  H        3.5001060000    -1.0175560000    -0.8960480000
| 23>  H        4.1421490000     0.0026420000     0.4813150000
| 24>  H        2.5758380000     0.2172030000    -2.9716150000
| 25>  H        4.0477010000     1.1945180000    -3.0640880000
| 26>  H        2.4627250000     1.9787820000    -2.9793270000
| 27>  H        3.2992750000     3.0563250000    -0.7907210000
| 28> *
| 29>
| 30>                          ****END OF INPUT****
 Total Charge           Charge          ....    0
 Multiplicity           Mult            ....    1
 Number of Electrons    NEL             ....   48
 Basis Dimension        Dim             ....  134

MULLIKEN ATOMIC CHARGES
-----------------------
   0 C :    0.079150
   1 C :   -0.169434
   2 C :    0.021634
   3 C :   -0.090047
   4 C :    0.104908
   5 O :   -0.242183
   6 H :    0.024345
   7 H :    0.003532
   8 H :    0.020896
   9 H :    0.013685
  10 H :    0.017243
  11 H :    0.034260
  12 H :   -0.003167
  13 H :    0.025910
  14 H :    0.008438
  15 H :    0.150831
Sum of atomic charges:    0.0000000

LOEWDIN ATOMIC CHARGES
----------------------
   0 C :   -0.060802
   1 C :   -0.060352
   2 C :   -0.044542
   3 C :    0.005688
   4 C :   -0.063161
   5 O :   -0.095342
   6 H :    0.031059
   7 H :    0.024744
   8 H :    0.028077
   9 H :    0.026669
  10 H :    0.023305
  11 H :    0.031863
  12 H :    0.027290
  13 H :    0.032488
  14 H :    0.023889
  15 H :    0.069126

  Mayer bond orders larger than 0.1
B(  0-C ,  1-C ) :   1.1038 B(  0-C ,  6-H ) :   0.9505 B(  0-C ,  7-H ) :   0.9434
B(  0-C ,  8-H ) :   0.9576 B(  1-C ,  2-C ) :   0.9903 B(  1-C ,  3-C ) :   0.9141
B(  1-C ,  9-H ) :   0.9293 B(  2-C ,  3-C ) :   0.9715 B(  2-C , 10-H ) :   0.9422
B(  2-C , 11-H ) :   0.9287 B(  3-C ,  4-C ) :   1.0974 B(  3-C ,  5-O ) :   1.0818
B(  4-C , 12-H ) :   0.9296 B(  4-C , 13-H ) :   0.9482 B(  4-C , 14-H ) :   0.9498
B(  5-O , 15-H ) :   0.9827

FINAL SINGLE POINT ENERGY      -271.189211762251

DIPOLE MOMENT
-------------
                                X             Y             Z
Electronic contribution:      3.16276       2.79187       2.08854
Nuclear contribution   :     -3.69240      -2.68749      -2.33048
                        -----------------------------------------
Total Dipole Moment    :     -0.52965       0.10438      -0.24194
                        -----------------------------------------
Magnitude (a.u.)       :      0.59157
Magnitude (Debye)      :      1.50365

                             ****ORCA TERMINATED NORMALLY****
TOTAL RUN TIME: 0 days 0 hours 0 minutes 5 seconds 970 msec
