                         Program Version 3.0.3 - RELEASE   -
|  1> ! RI PBE def2-SVP def2-SVP/J NBO PAL2
|  2> % maxcore 2000
|  3> % output
|  4>     # printlevel mini
|  5>     print[ P_Basis ] 0
|  6>     print[ P_SCFInfo ] 1
|  7>     print[ P_SCFIterInfo ] 1
|  8>     print[ P_OrbEn ] 0
|  9>     print[ P_Cartesian ] 0
| 10> end
| 11> *xyz 0 1
| 12>  C        0.9224580000     0.0987440000    -0.0004210000
| 13>  C        2.4230340000     0.0668670000     0.0277870000
| 14>  C        3.1942540000    -0.7465310000    -0.9380810000
| 15>  C        3.1961350000     0.7618560000    -1.0753270000
| 16>  C        4.4201750000     1.4806490000    -0.7036760000
| 17>  O        4.8112370000     2.4972070000    -1.2127850000
| 18>  H        0.5056950000    -0.7230970000     0.5876740000
| 19>  H        0.5485460000     0.0003410000    -1.0223400000
| 20>  H        0.5376900000     1.0355940000     0.4092550000
| 21>  H        2.8660150000     0.1620080000     1.0155330000
| 22>  H        2.6527320000    -1.2924020000    -1.7010180000
| 23>  H        4.1138530000    -1.2166730000    -0.6091830000
| 24>  H        2.6292310000     1.2013640000    -1.8876630000
| 25>  H        4.9935340000     1.0029840000     0.1261350000
| 26> *
| 27>
| 28>                          ****END OF INPUT****
 Total Charge           Charge          ....    0
 Multiplicity           Mult            ....    1
 Number of Electrons    NEL             ....   46
 Basis Dimension        Dim             ....  124

MULLIKEN ATOMIC CHARGES
-----------------------
   0 C :    0.077657
   1 C :   -0.166034
   2 C :    0.022741
   3 C :   -0.113532
   4 C :    0.158840
   5 O :   -0.165827
   6 H :    0.033876
   7 H :    0.010399
   8 H :    0.033553
   9 H :    0.033796
  10 H :    0.042350
  11 H :    0.040274
  12 H :    0.025103
  13 H :   -0.033198
Sum of atomic charges:    0.0000000

LOEWDIN ATOMIC CHARGES
----------------------
   0 C :   -0.049673
   1 C :   -0.025231
   2 C :   -0.021737
   3 C :   -0.072191
   4 C :    0.079361
   5 O :   -0.119354
   6 H :    0.034424
   7 H :    0.029372
   8 H :    0.034175
   9 H :    0.028720
  10 H :    0.034703
  11 H :    0.030028
  12 H :    0.034235
  13 H :   -0.016831

  Mayer bond orders larger than 0.1
B(  0-C ,  1-C ) :   1.1004 B(  0-C ,  6-H ) :   0.9595 B(  0-C ,  7-H ) :   0.9499
B(  0-C ,  8-H ) :   0.9606 B(  1-C ,  2-C ) :   1.0121 B(  1-C ,  3-C ) :   0.8659
B(  1-C ,  9-H ) :   0.9444 B(  2-C ,  3-C ) :   0.9238 B(  2-C , 10-H ) :   0.9384
B(  2-C , 11-H ) :   0.9438 B(  3-C ,  4-C ) :   1.0253 B(  3-C , 12-H ) :   0.9485
B(  4-C ,  5-O ) :   2.1641 B(  4-C , 13-H ) :   0.9185

FINAL SINGLE POINT ENERGY      -269.994001595394

DIPOLE MOMENT
-------------
                                X             Y             Z
Electronic contribution:      5.29340       4.21268      -1.64719
Nuclear contribution   :     -6.02745      -5.17480       1.99154
                        -----------------------------------------
Total Dipole Moment    :     -0.73405      -0.96212       0.34435
                        -----------------------------------------
Magnitude (a.u.)       :      1.25820
Magnitude (Debye)      :      3.19810

                             ****ORCA TERMINATED NORMALLY****
TOTAL RUN TIME: 0 days 0 hours 0 minutes 5 seconds 286 msec
