                         Program Version 3.0.3 - RELEASE   -
|  1> ! RI PBE def2-SVP def2-SVP/J NBO PAL2
|  2> % maxcore 2000
|  3> % output
|  4>     # printlevel mini
|  5>     print[ P_Basis ] 0
|  6>     print[ P_SCFInfo ] 1
|  7>     print[ P_SCFIterInfo ] 1
|  8>     print[ P_OrbEn ] 0
|  9>     print[ P_Cartesian ] 0
| 10> end
| 11> *xyz 0 1
| 12>  C        0.8887200000    -0.0358400000     0.0249590000
| 13>  C        2.3927730000     0.0089790000     0.1301520000
| 14>  C        3.0894360000     1.0621520000     1.0178300000
| 15>  C        4.1637080000     0.0108260000     1.3547810000
| 16>  C        3.1399940000    -1.0606680000     0.9493960000
| 17>  O        3.5489150000    -2.2576010000     0.3529870000
| 18>  H        0.4962870000     0.8373820000    -0.5036340000
| 19>  H        0.4304040000    -0.0565110000     1.0180950000
| 20>  H        0.5585140000    -0.9279200000    -0.5140830000
| 21>  H        2.8444490000     0.0428540000    -0.8702760000
| 22>  H        2.4782140000     1.3049500000     1.8908370000
| 23>  H        3.4125050000     1.9916280000     0.5486250000
| 24>  H        4.5801260000    -0.0211480000     2.3622330000
| 25>  H        4.9857420000     0.0474010000     0.6329780000
| 26>  H        2.5347070000    -1.3515890000     1.8137840000
| 27>  H        4.0996960000    -2.0423830000    -0.4048830000
| 28> *
| 29>
| 30>                          ****END OF INPUT****
 Total Charge           Charge          ....    0
 Multiplicity           Mult            ....    1
 Number of Electrons    NEL             ....   48
 Basis Dimension        Dim             ....  134

MULLIKEN ATOMIC CHARGES
-----------------------
   0 C :    0.070650
   1 C :   -0.168145
   2 C :    0.021040
   3 C :    0.040766
   4 C :    0.060865
   5 O :   -0.241206
   6 H :    0.020858
   7 H :    0.006294
   8 H :    0.024583
   9 H :   -0.012239
  10 H :    0.010245
  11 H :    0.009332
  12 H :    0.011584
  13 H :   -0.003525
  14 H :   -0.001803
  15 H :    0.150702
Sum of atomic charges:    0.0000000

LOEWDIN ATOMIC CHARGES
----------------------
   0 C :   -0.065134
   1 C :   -0.057690
   2 C :   -0.029946
   3 C :   -0.051123
   4 C :    0.040924
   5 O :   -0.102704
   6 H :    0.027874
   7 H :    0.023601
   8 H :    0.030605
   9 H :    0.019374
  10 H :    0.023431
  11 H :    0.017170
  12 H :    0.017126
  13 H :    0.020730
  14 H :    0.021156
  15 H :    0.064605

  Mayer bond orders larger than 0.1
B(  0-C ,  1-C ) :   1.1042 B(  0-C ,  6-H ) :   0.9591 B(  0-C ,  7-H ) :   0.9494
B(  0-C ,  8-H ) :   0.9559 B(  1-C ,  2-C ) :   1.0663 B(  1-C ,  4-C ) :   1.0011
B(  1-C ,  9-H ) :   0.8906 B(  2-C ,  3-C ) :   1.1119 B(  2-C , 10-H ) :   0.9275
B(  2-C , 11-H ) :   0.9275 B(  3-C ,  4-C ) :   1.0584 B(  3-C , 12-H ) :   0.9293
B(  3-C , 13-H ) :   0.9118 B(  4-C ,  5-O ) :   1.1230 B(  4-C , 14-H ) :   0.9067
B(  5-O , 15-H ) :   0.9769

FINAL SINGLE POINT ENERGY      -271.192965939189

DIPOLE MOMENT
-------------
                                X             Y             Z
Electronic contribution:      2.30760      -3.31887      -0.05218
Nuclear contribution   :     -2.17776       3.78081      -0.21950
                        -----------------------------------------
Total Dipole Moment    :      0.12984       0.46193      -0.27168
                        -----------------------------------------
Magnitude (a.u.)       :      0.55140
Magnitude (Debye)      :      1.40156

                             ****ORCA TERMINATED NORMALLY****
TOTAL RUN TIME: 0 days 0 hours 0 minutes 6 seconds 32 msec
