                         Program Version 3.0.3 - RELEASE   -
|  1> ! RI PBE def2-SVP def2-SVP/J NBO PAL2
|  2> % maxcore 2000
|  3> % output
|  4>     # printlevel mini
|  5>     print[ P_Basis ] 0
|  6>     print[ P_SCFInfo ] 1
|  7>     print[ P_SCFIterInfo ] 1
|  8>     print[ P_OrbEn ] 0
|  9>     print[ P_Cartesian ] 0
| 10> end
| 11> *xyz 0 1
| 12>  C        0.9426320000     0.1190460000    -0.2164370000
| 13>  C        2.4073250000     0.0284720000     0.1226120000
| 14>  C        2.7057830000    -0.1461230000     1.5875590000
| 15>  C        3.3132220000    -0.6564330000    -0.8720160000
| 16>  C        3.3516250000     0.8351740000    -0.7082640000
| 17>  O        4.4370860000     1.4323100000    -0.0721340000
| 18>  H        0.4201270000    -0.7997110000     0.0671340000
| 19>  H        0.7867060000     0.2721040000    -1.2870840000
| 20>  H        0.4698970000     0.9506530000     0.3148350000
| 21>  H        2.2937560000    -1.0918630000     1.9515790000
| 22>  H        2.2565130000     0.6623350000     2.1718880000
| 23>  H        3.7783410000    -0.1366790000     1.7798700000
| 24>  H        2.8836750000    -1.0731120000    -1.7759790000
| 25>  H        4.1558600000    -1.2061870000    -0.4679930000
| 26>  H        2.9085880000     1.4372210000    -1.5003790000
| 27>  H        5.1998840000     1.3615920000    -0.6517920000
| 28> *
| 29>
| 30>                          ****END OF INPUT****
 Total Charge           Charge          ....    0
 Multiplicity           Mult            ....    1
 Number of Electrons    NEL             ....   48
 Basis Dimension        Dim             ....  134

MULLIKEN ATOMIC CHARGES
-----------------------
   0 C :    0.095920
   1 C :   -0.321207
   2 C :    0.112247
   3 C :    0.002247
   4 C :    0.062940
   5 O :   -0.229436
   6 H :    0.018237
   7 H :    0.001590
   8 H :    0.018128
   9 H :    0.008631
  10 H :    0.017503
  11 H :    0.009284
  12 H :    0.018066
  13 H :    0.021770
  14 H :    0.003571
  15 H :    0.160508
Sum of atomic charges:    0.0000000

LOEWDIN ATOMIC CHARGES
----------------------
   0 C :   -0.045114
   1 C :   -0.071226
   2 C :   -0.043872
   3 C :   -0.065086
   4 C :    0.033680
   5 O :   -0.095037
   6 H :    0.027228
   7 H :    0.023654
   8 H :    0.027995
   9 H :    0.025317
  10 H :    0.028533
  11 H :    0.025561
  12 H :    0.022699
  13 H :    0.026342
  14 H :    0.005088
  15 H :    0.074237

  Mayer bond orders larger than 0.1
B(  0-C ,  1-C ) :   1.0900 B(  0-C ,  6-H ) :   0.9582 B(  0-C ,  7-H ) :   0.9428
B(  0-C ,  8-H ) :   0.9560 B(  1-C ,  2-C ) :   1.0959 B(  1-C ,  3-C ) :   0.9593
B(  1-C ,  4-C ) :   0.9072 B(  2-C ,  9-H ) :   0.9567 B(  2-C , 10-H ) :   0.9568
B(  2-C , 11-H ) :   0.9386 B(  3-C ,  4-C ) :   0.9784 B(  3-C , 12-H ) :   0.9335
B(  3-C , 13-H ) :   0.9352 B(  4-C ,  5-O ) :   1.1434 B(  4-C , 14-H ) :   0.9459
B(  5-O , 15-H ) :   0.9795

FINAL SINGLE POINT ENERGY      -271.187369771731

DIPOLE MOMENT
-------------
                                X             Y             Z
Electronic contribution:      3.64790       2.22932      -1.17377
Nuclear contribution   :     -3.51431      -2.40306       0.73688
                        -----------------------------------------
Total Dipole Moment    :      0.13359      -0.17374      -0.43688
                        -----------------------------------------
Magnitude (a.u.)       :      0.48877
Magnitude (Debye)      :      1.24236

                             ****ORCA TERMINATED NORMALLY****
TOTAL RUN TIME: 0 days 0 hours 0 minutes 6 seconds 690 msec
