                         Program Version 3.0.3 - RELEASE   -
|  1> ! RI PBE def2-SVP def2-SVP/J NBO PAL2
|  2> % maxcore 2000
|  3> % output
|  4>     # printlevel mini
|  5>     print[ P_Basis ] 0
|  6>     print[ P_SCFInfo ] 1
|  7>     print[ P_SCFIterInfo ] 1
|  8>     print[ P_OrbEn ] 0
|  9>     print[ P_Cartesian ] 0
| 10> end
| 11> *xyz 0 1
| 12>  C        0.8819170000     0.2485830000    -0.0452720000
| 13>  C        2.3735980000     0.1226590000     0.0815660000
| 14>  C        3.2061420000    -0.7842660000    -0.8004440000
| 15>  C        2.6123790000    -1.6299460000    -1.8917100000
| 16>  C        3.2994280000     0.7067440000    -0.9251580000
| 17>  O        4.4134570000     1.3888190000    -0.4388350000
| 18>  H        0.3682010000    -0.5660530000     0.4727180000
| 19>  H        0.5555540000     0.2327780000    -1.0868750000
| 20>  H        0.5366250000     1.1897880000     0.3907630000
| 21>  H        2.7508270000     0.1993660000     1.0967750000
| 22>  H        4.0489230000    -1.2338010000    -0.2830010000
| 23>  H        2.1718550000    -2.5479230000    -1.4923310000
| 24>  H        1.8276810000    -1.1010950000    -2.4362280000
| 25>  H        3.3753280000    -1.9192550000    -2.6199400000
| 26>  H        2.8411480000     1.1510150000    -1.8095330000
| 27>  H        5.1511470000     1.2209660000    -1.0314950000
| 28> *
| 29>
| 30>                          ****END OF INPUT****
 Total Charge           Charge          ....    0
 Multiplicity           Mult            ....    1
 Number of Electrons    NEL             ....   48
 Basis Dimension        Dim             ....  134

MULLIKEN ATOMIC CHARGES
-----------------------
   0 C :    0.082988
   1 C :   -0.130406
   2 C :   -0.148497
   3 C :    0.084792
   4 C :    0.061206
   5 O :   -0.234524
   6 H :    0.023763
   7 H :    0.001360
   8 H :    0.024044
   9 H :    0.022745
  10 H :    0.011037
  11 H :    0.022181
  12 H :    0.002524
  13 H :    0.018990
  14 H :    0.000767
  15 H :    0.157031
Sum of atomic charges:    0.0000000

LOEWDIN ATOMIC CHARGES
----------------------
   0 C :   -0.056483
   1 C :   -0.050587
   2 C :   -0.065174
   3 C :   -0.058674
   4 C :    0.029412
   5 O :   -0.100654
   6 H :    0.029399
   7 H :    0.023802
   8 H :    0.032342
   9 H :    0.031004
  10 H :    0.025631
  11 H :    0.029310
  12 H :    0.024531
  13 H :    0.029217
  14 H :    0.004406
  15 H :    0.072517

  Mayer bond orders larger than 0.1
B(  0-C ,  1-C ) :   1.1051 B(  0-C ,  6-H ) :   0.9572 B(  0-C ,  7-H ) :   0.9481
B(  0-C ,  8-H ) :   0.9564 B(  1-C ,  2-C ) :   0.9540 B(  1-C ,  4-C ) :   0.9373
B(  1-C ,  9-H ) :   0.9291 B(  2-C ,  3-C ) :   1.0968 B(  2-C ,  4-C ) :   0.9381
B(  2-C , 10-H ) :   0.9286 B(  3-C , 11-H ) :   0.9534 B(  3-C , 12-H ) :   0.9473
B(  3-C , 13-H ) :   0.9562 B(  4-C ,  5-O ) :   1.1443 B(  4-C , 14-H ) :   0.9485
B(  5-O , 15-H ) :   0.9825

FINAL SINGLE POINT ENERGY      -271.185718582056

DIPOLE MOMENT
-------------
                                X             Y             Z
Electronic contribution:      4.35210       3.12951       1.39225
Nuclear contribution   :     -4.28248      -3.44716      -1.83588
                        -----------------------------------------
Total Dipole Moment    :      0.06962      -0.31764      -0.44363
                        -----------------------------------------
Magnitude (a.u.)       :      0.55005
Magnitude (Debye)      :      1.39811

                             ****ORCA TERMINATED NORMALLY****
TOTAL RUN TIME: 0 days 0 hours 0 minutes 5 seconds 802 msec
