                         Program Version 3.0.3 - RELEASE   -
|  1> ! RI PBE def2-SVP def2-SVP/J NBO PAL2
|  2> % maxcore 2000
|  3> % output
|  4>     # printlevel mini
|  5>     print[ P_Basis ] 0
|  6>     print[ P_SCFInfo ] 1
|  7>     print[ P_SCFIterInfo ] 1
|  8>     print[ P_OrbEn ] 0
|  9>     print[ P_Cartesian ] 0
| 10> end
| 11> *xyz 0 1
| 12>  C        1.0321510000    -0.0375090000     0.0921920000
| 13>  C        2.5026570000     0.1092450000     0.0967430000
| 14>  C        3.3344650000     1.1807450000     0.0973290000
| 15>  C        4.6653410000     0.6635110000     0.1027590000
| 16>  C        4.5400880000    -0.6820430000     0.1050310000
| 17>  O        3.2324060000    -1.0341540000     0.1014370000
| 18>  H        0.5628590000     0.9460170000     0.0887190000
| 19>  H        0.6840210000    -0.5818580000     0.9745560000
| 20>  H        0.6898270000    -0.5853170000    -0.7903050000
| 21>  H        3.0342950000     2.2167590000     0.0942630000
| 22>  H        5.5882590000     1.2211820000     0.1046870000
| 23>  H        5.2487510000    -1.4933680000     0.1089890000
| 24> *
| 25>
| 26>                          ****END OF INPUT****
 Total Charge           Charge          ....    0
 Multiplicity           Mult            ....    1
 Number of Electrons    NEL             ....   44
 Basis Dimension        Dim             ....  114

MULLIKEN ATOMIC CHARGES
-----------------------
   0 C :    0.094792
   1 C :   -0.017395
   2 C :   -0.064263
   3 C :   -0.012561
   4 C :    0.105135
   5 O :   -0.177975
   6 H :    0.020830
   7 H :    0.039852
   8 H :    0.039848
   9 H :   -0.020436
  10 H :   -0.010424
  11 H :    0.002596
Sum of atomic charges:   -0.0000000

LOEWDIN ATOMIC CHARGES
----------------------
   0 C :   -0.064387
   1 C :    0.002368
   2 C :   -0.091974
   3 C :   -0.081365
   4 C :    0.008412
   5 O :    0.024441
   6 H :    0.042497
   7 H :    0.041905
   8 H :    0.041905
   9 H :    0.027398
  10 H :    0.029550
  11 H :    0.019251

  Mayer bond orders larger than 0.1
B(  0-C ,  1-C ) :   1.1149 B(  0-C ,  6-H ) :   0.9458 B(  0-C ,  7-H ) :   0.9365
B(  0-C ,  8-H ) :   0.9365 B(  1-C ,  2-C ) :   1.5574 B(  1-C ,  4-C ) :   0.1022
B(  1-C ,  5-O ) :   1.1481 B(  2-C ,  3-C ) :   1.1989 B(  2-C ,  9-H ) :   1.0105
B(  3-C ,  4-C ) :   1.5446 B(  3-C , 10-H ) :   0.9973 B(  4-C ,  5-O ) :   1.1406
B(  4-C , 11-H ) :   1.0005

FINAL SINGLE POINT ENERGY      -268.816878769790

DIPOLE MOMENT
-------------
                                X             Y             Z
Electronic contribution:      2.89157      -1.46937       0.01246
Nuclear contribution   :     -3.04409       1.60070      -0.01324
                        -----------------------------------------
Total Dipole Moment    :     -0.15251       0.13132      -0.00078
                        -----------------------------------------
Magnitude (a.u.)       :      0.20126
Magnitude (Debye)      :      0.51157

                             ****ORCA TERMINATED NORMALLY****
TOTAL RUN TIME: 0 days 0 hours 0 minutes 5 seconds 493 msec
