                         Program Version 3.0.3 - RELEASE   -
|  1> ! RI PBE def2-SVP def2-SVP/J NBO PAL2
|  2> % maxcore 2000
|  3> % output
|  4>     # printlevel mini
|  5>     print[ P_Basis ] 0
|  6>     print[ P_SCFInfo ] 1
|  7>     print[ P_SCFIterInfo ] 1
|  8>     print[ P_OrbEn ] 0
|  9>     print[ P_Cartesian ] 0
| 10> end
| 11> *xyz 0 1
| 12>  C        1.0539970000    -0.0678380000     0.1085120000
| 13>  C        2.5583690000     0.0194610000     0.1722280000
| 14>  C        3.1205350000     1.1677690000     0.9946660000
| 15>  C        4.5094760000     0.6477450000     1.3383320000
| 16>  C        4.2604690000    -0.8508490000     1.5061440000
| 17>  O        3.0672140000    -1.1526550000     0.7968820000
| 18>  H        0.6410550000     0.8089390000    -0.3964630000
| 19>  H        0.6337220000    -0.1233910000     1.1155620000
| 20>  H        0.7435520000    -0.9574660000    -0.4425270000
| 21>  H        2.9610360000     0.0822450000    -0.8526180000
| 22>  H        2.5179010000     1.2982640000     1.8995950000
| 23>  H        3.1317270000     2.1138830000     0.4507220000
| 24>  H        4.9379370000     1.1031240000     2.2323270000
| 25>  H        5.1964260000     0.8324940000     0.5081790000
| 26>  H        4.1148600000    -1.1210600000     2.5582650000
| 27>  H        5.0851240000    -1.4555640000     1.1143040000
| 28> *
| 29>
| 30>                          ****END OF INPUT****
 Total Charge           Charge          ....    0
 Multiplicity           Mult            ....    1
 Number of Electrons    NEL             ....   48
 Basis Dimension        Dim             ....  134

MULLIKEN ATOMIC CHARGES
-----------------------
   0 C :    0.052279
   1 C :    0.037920
   2 C :   -0.002894
   3 C :   -0.064603
   4 C :    0.214104
   5 O :   -0.360484
   6 H :    0.014336
   7 H :    0.012131
   8 H :    0.028809
   9 H :   -0.007169
  10 H :    0.011896
  11 H :    0.016086
  12 H :    0.019784
  13 H :    0.020338
  14 H :    0.004242
  15 H :    0.003226
Sum of atomic charges:    0.0000000

LOEWDIN ATOMIC CHARGES
----------------------
   0 C :   -0.066697
   1 C :    0.047706
   2 C :   -0.048667
   3 C :   -0.057679
   4 C :    0.066766
   5 O :   -0.164542
   6 H :    0.029607
   7 H :    0.025698
   8 H :    0.032115
   9 H :    0.004771
  10 H :    0.025700
  11 H :    0.027699
  12 H :    0.029091
  13 H :    0.026914
  14 H :    0.010212
  15 H :    0.011308

  Mayer bond orders larger than 0.1
B(  0-C ,  1-C ) :   1.0988 B(  0-C ,  6-H ) :   0.9525 B(  0-C ,  7-H ) :   0.9484
B(  0-C ,  8-H ) :   0.9551 B(  1-C ,  2-C ) :   1.0556 B(  1-C ,  5-O ) :   1.0014
B(  1-C ,  9-H ) :   0.9168 B(  2-C ,  3-C ) :   1.1121 B(  2-C , 10-H ) :   0.9228
B(  2-C , 11-H ) :   0.9311 B(  3-C ,  4-C ) :   1.0887 B(  3-C , 12-H ) :   0.9358
B(  3-C , 13-H ) :   0.9335 B(  4-C ,  5-O ) :   1.0186 B(  4-C , 14-H ) :   0.9435
B(  4-C , 15-H ) :   0.9390

FINAL SINGLE POINT ENERGY      -271.211629401909

DIPOLE MOMENT
-------------
                                X             Y             Z
Electronic contribution:      1.01079      -2.38193       0.04650
Nuclear contribution   :     -0.80556       2.93214       0.00348
                        -----------------------------------------
Total Dipole Moment    :      0.20523       0.55021       0.04997
                        -----------------------------------------
Magnitude (a.u.)       :      0.58936
Magnitude (Debye)      :      1.49804

                             ****ORCA TERMINATED NORMALLY****
TOTAL RUN TIME: 0 days 0 hours 0 minutes 6 seconds 457 msec
