                         Program Version 3.0.3 - RELEASE   -
|  1> ! RI PBE def2-SVP def2-SVP/J NBO PAL2
|  2> % maxcore 2000
|  3> % output
|  4>     # printlevel mini
|  5>     print[ P_Basis ] 0
|  6>     print[ P_SCFInfo ] 1
|  7>     print[ P_SCFIterInfo ] 1
|  8>     print[ P_OrbEn ] 0
|  9>     print[ P_Cartesian ] 0
| 10> end
| 11> *xyz 0 1
| 12>  C        1.0147590000    -0.1278670000     0.0748610000
| 13>  C        2.3207500000    -0.0311220000    -0.1433350000
| 14>  C        3.2028190000     1.1807070000    -0.0285750000
| 15>  C        4.4040250000     0.7906120000    -0.8836420000
| 16>  C        4.4347110000    -0.7140770000    -0.6762960000
| 17>  O        3.0708960000    -1.1001790000    -0.5300040000
| 18>  H        0.4504350000     0.7470740000     0.3643870000
| 19>  H        0.4975060000    -1.0722610000    -0.0287870000
| 20>  H        3.5042480000     1.3178030000     1.0155600000
| 21>  H        2.6999630000     2.0909400000    -0.3530140000
| 22>  H        5.3326210000     1.2774630000    -0.5843940000
| 23>  H        4.2157860000     1.0219650000    -1.9349370000
| 24>  H        4.9851190000    -0.9839310000     0.2335440000
| 25>  H        4.8530620000    -1.2718250000    -1.5151690000
| 26> *
| 27>
| 28>                          ****END OF INPUT****
 Total Charge           Charge          ....    0
 Multiplicity           Mult            ....    1
 Number of Electrons    NEL             ....   46
 Basis Dimension        Dim             ....  124

MULLIKEN ATOMIC CHARGES
-----------------------
   0 C :   -0.095339
   1 C :    0.017226
   2 C :    0.038928
   3 C :   -0.056441
   4 C :    0.187681
   5 O :   -0.272103
   6 H :    0.002214
   7 H :    0.014984
   8 H :    0.038705
   9 H :    0.028702
  10 H :    0.017213
  11 H :    0.034308
  12 H :    0.018795
  13 H :    0.025127
Sum of atomic charges:    0.0000000

LOEWDIN ATOMIC CHARGES
----------------------
   0 C :   -0.151035
   1 C :    0.024431
   2 C :   -0.043570
   3 C :   -0.051128
   4 C :    0.074337
   5 O :   -0.082563
   6 H :    0.025526
   7 H :    0.026899
   8 H :    0.040063
   9 H :    0.037841
  10 H :    0.030662
  11 H :    0.032053
  12 H :    0.013904
  13 H :    0.022578

  Mayer bond orders larger than 0.1
B(  0-C ,  1-C ) :   1.9382 B(  0-C ,  6-H ) :   0.9271 B(  0-C ,  7-H ) :   0.9272
B(  1-C ,  2-C ) :   1.0119 B(  1-C ,  5-O ) :   1.1305 B(  2-C ,  3-C ) :   1.0912
B(  2-C ,  8-H ) :   0.9169 B(  2-C ,  9-H ) :   0.9279 B(  3-C ,  4-C ) :   1.0886
B(  3-C , 10-H ) :   0.9305 B(  3-C , 11-H ) :   0.9368 B(  4-C ,  5-O ) :   0.9694
B(  4-C , 12-H ) :   0.9430 B(  4-C , 13-H ) :   0.9476

FINAL SINGLE POINT ENERGY      -270.000325642767

DIPOLE MOMENT
-------------
                                X             Y             Z
Electronic contribution:     -0.90288      -2.50694      -0.19524
Nuclear contribution   :      1.64776       3.03012       0.15254
                        -----------------------------------------
Total Dipole Moment    :      0.74488       0.52318      -0.04269
                        -----------------------------------------
Magnitude (a.u.)       :      0.91126
Magnitude (Debye)      :      2.31623

                             ****ORCA TERMINATED NORMALLY****
TOTAL RUN TIME: 0 days 0 hours 0 minutes 5 seconds 959 msec
