                         Program Version 3.0.3 - RELEASE   -
|  1> ! RI PBE def2-SVP def2-SVP/J NBO PAL2
|  2> % maxcore 2000
|  3> % output
|  4>     # printlevel mini
|  5>     print[ P_Basis ] 0
|  6>     print[ P_SCFInfo ] 1
|  7>     print[ P_SCFIterInfo ] 1
|  8>     print[ P_OrbEn ] 0
|  9>     print[ P_Cartesian ] 0
| 10> end
| 11> *xyz 0 1
| 12>  C        1.1719770000     0.1364510000     0.0976180000
| 13>  C        2.4687970000     0.0212420000    -0.1466130000
| 14>  C        3.3527050000    -1.2038680000    -0.1494960000
| 15>  C        4.6844140000    -0.6106760000    -0.5019060000
| 16>  C        4.5195470000     0.6944270000    -0.6549540000
| 17>  O        3.2358550000     1.1255510000    -0.4583590000
| 18>  H        0.5871290000    -0.7395510000     0.3401680000
| 19>  H        0.6792230000     1.0984320000     0.0594150000
| 20>  H        3.0099400000    -1.9431680000    -0.8808530000
| 21>  H        3.3533210000    -1.6994320000     0.8269030000
| 22>  H        5.6113680000    -1.1506660000    -0.6112400000
| 23>  H        5.2215340000     1.4751460000    -0.9074830000
| 24> *
| 25>
| 26>                          ****END OF INPUT****
 Total Charge           Charge          ....    0
 Multiplicity           Mult            ....    1
 Number of Electrons    NEL             ....   44
 Basis Dimension        Dim             ....  114

MULLIKEN ATOMIC CHARGES
-----------------------
   0 C :   -0.081716
   1 C :   -0.000044
   2 C :    0.128035
   3 C :   -0.136449
   4 C :    0.152704
   5 O :   -0.213643
   6 H :    0.011858
   7 H :    0.023624
   8 H :    0.054792
   9 H :    0.051140
  10 H :    0.001548
  11 H :    0.008152
Sum of atomic charges:   -0.0000000

LOEWDIN ATOMIC CHARGES
----------------------
   0 C :   -0.126297
   1 C :    0.042323
   2 C :   -0.038406
   3 C :   -0.099398
   4 C :    0.045062
   5 O :   -0.035029
   6 H :    0.030245
   7 H :    0.031375
   8 H :    0.047998
   9 H :    0.047542
  10 H :    0.029484
  11 H :    0.025102

  Mayer bond orders larger than 0.1
B(  0-C ,  1-C ) :   1.9600 B(  0-C ,  6-H ) :   0.9294 B(  0-C ,  7-H ) :   0.9253
B(  1-C ,  2-C ) :   1.0088 B(  1-C ,  5-O ) :   1.0790 B(  2-C ,  3-C ) :   1.0389
B(  2-C ,  8-H ) :   0.9001 B(  2-C ,  9-H ) :   0.8997 B(  3-C ,  4-C ) :   1.7646
B(  3-C , 10-H ) :   0.9840 B(  4-C ,  5-O ) :   1.0699 B(  4-C , 11-H ) :   0.9944

FINAL SINGLE POINT ENERGY      -268.784090010479

DIPOLE MOMENT
-------------
                                X             Y             Z
Electronic contribution:      1.20383       2.56026      -0.60878
Nuclear contribution   :     -0.84271      -2.99784       0.59710
                        -----------------------------------------
Total Dipole Moment    :      0.36112      -0.43758      -0.01168
                        -----------------------------------------
Magnitude (a.u.)       :      0.56747
Magnitude (Debye)      :      1.44239

                             ****ORCA TERMINATED NORMALLY****
TOTAL RUN TIME: 0 days 0 hours 0 minutes 5 seconds 494 msec
