                         Program Version 3.0.3 - RELEASE   -
|  1> ! RI PBE def2-SVP def2-SVP/J NBO PAL2
|  2> % maxcore 2000
|  3> % output
|  4>     # printlevel mini
|  5>     print[ P_Basis ] 0
|  6>     print[ P_SCFInfo ] 1
|  7>     print[ P_SCFIterInfo ] 1
|  8>     print[ P_OrbEn ] 0
|  9>     print[ P_Cartesian ] 0
| 10> end
| 11> *xyz 0 1
| 12>  C        1.0005760000     0.1352370000     0.0535770000
| 13>  C        2.4691360000    -0.0242580000    -0.0264940000
| 14>  C        3.2357430000    -1.1098650000     0.0296240000
| 15>  C        4.6767840000    -0.7124640000    -0.1014300000
| 16>  C        4.5573440000     0.8152200000    -0.2472750000
| 17>  O        3.1587400000     1.1399900000    -0.1846550000
| 18>  H        0.5153780000    -0.8318170000     0.1793930000
| 19>  H        0.6175120000     0.6096290000    -0.8540970000
| 20>  H        0.7314470000     0.7799480000     0.8947590000
| 21>  H        2.8756450000    -2.1198700000     0.1519330000
| 22>  H        5.1608240000    -1.1682720000    -0.9712400000
| 23>  H        5.2707860000    -0.9934280000     0.7743470000
| 24>  H        4.9416200000     1.1785440000    -1.2030250000
| 25>  H        5.0617750000     1.3565980000     0.5561030000
| 26> *
| 27>
| 28>                          ****END OF INPUT****
 Total Charge           Charge          ....    0
 Multiplicity           Mult            ....    1
 Number of Electrons    NEL             ....   46
 Basis Dimension        Dim             ....  124

MULLIKEN ATOMIC CHARGES
-----------------------
   0 C :    0.094147
   1 C :    0.003460
   2 C :   -0.165139
   3 C :    0.007137
   4 C :    0.199373
   5 O :   -0.302310
   6 H :    0.018466
   7 H :    0.036188
   8 H :    0.037128
   9 H :   -0.022703
  10 H :    0.025567
  11 H :    0.025408
  12 H :    0.019159
  13 H :    0.024118
Sum of atomic charges:   -0.0000000

LOEWDIN ATOMIC CHARGES
----------------------
   0 C :   -0.061770
   1 C :    0.022299
   2 C :   -0.131543
   3 C :   -0.049341
   4 C :    0.085506
   5 O :   -0.102622
   6 H :    0.038708
   7 H :    0.041838
   8 H :    0.041987
   9 H :    0.021651
  10 H :    0.028238
  11 H :    0.027885
  12 H :    0.018014
  13 H :    0.019150

  Mayer bond orders larger than 0.1
B(  0-C ,  1-C ) :   1.1087 B(  0-C ,  6-H ) :   0.9504 B(  0-C ,  7-H ) :   0.9349
B(  0-C ,  8-H ) :   0.9345 B(  1-C ,  2-C ) :   1.7528 B(  1-C ,  5-O ) :   1.1048
B(  2-C ,  3-C ) :   1.0290 B(  2-C ,  5-O ) :   0.1065 B(  2-C ,  9-H ) :   0.9914
B(  3-C ,  4-C ) :   1.1099 B(  3-C , 10-H ) :   0.9206 B(  3-C , 11-H ) :   0.9210
B(  4-C ,  5-O ) :   0.9653 B(  4-C , 12-H ) :   0.9486 B(  4-C , 13-H ) :   0.9487

FINAL SINGLE POINT ENERGY      -270.002387498553

DIPOLE MOMENT
-------------
                                X             Y             Z
Electronic contribution:      0.37533       1.46630      -0.16237
Nuclear contribution   :     -0.23716      -1.65950       0.17479
                        -----------------------------------------
Total Dipole Moment    :      0.13817      -0.19319       0.01242
                        -----------------------------------------
Magnitude (a.u.)       :      0.23784
Magnitude (Debye)      :      0.60455

                             ****ORCA TERMINATED NORMALLY****
TOTAL RUN TIME: 0 days 0 hours 0 minutes 5 seconds 914 msec
