                         Program Version 3.0.3 - RELEASE   -
|  1> ! RI PBE def2-SVP def2-SVP/J NBO PAL2
|  2> % maxcore 2000
|  3> % output
|  4>     # printlevel mini
|  5>     print[ P_Basis ] 0
|  6>     print[ P_SCFInfo ] 1
|  7>     print[ P_SCFIterInfo ] 1
|  8>     print[ P_OrbEn ] 0
|  9>     print[ P_Cartesian ] 0
| 10> end
| 11> *xyz 0 1
| 12>  C        0.9885480000    -0.1148960000     0.3028240000
| 13>  C        2.4601760000     0.0539060000     0.0026310000
| 14>  C        2.7385930000     0.0757360000    -1.4830330000
| 15>  C        3.1849150000     1.1385070000     0.8255560000
| 16>  C        3.9555450000    -0.0295010000     1.4379780000
| 17>  O        3.2368910000    -0.9860860000     0.6521750000
| 18>  H        0.4117340000     0.7142820000    -0.1159940000
| 19>  H        0.8157640000    -0.1497950000     1.3802770000
| 20>  H        0.6182340000    -1.0460440000    -0.1334370000
| 21>  H        2.2190130000     0.9107920000    -1.9609290000
| 22>  H        2.3949880000    -0.8529960000    -1.9454550000
| 23>  H        3.8087900000     0.1770650000    -1.6740550000
| 24>  H        2.5472710000     1.6926310000     1.5144370000
| 25>  H        3.7782590000     1.8409250000     0.2401600000
| 26>  H        3.8058720000    -0.1887320000     2.5107950000
| 27>  H        5.0295170000    -0.0525040000     1.2255500000
| 28> *
| 29>
| 30>                          ****END OF INPUT****
 Total Charge           Charge          ....    0
 Multiplicity           Mult            ....    1
 Number of Electrons    NEL             ....   48
 Basis Dimension        Dim             ....  134

MULLIKEN ATOMIC CHARGES
-----------------------
   0 C :    0.098347
   1 C :   -0.187969
   2 C :    0.100138
   3 C :    0.007399
   4 C :    0.185623
   5 O :   -0.346289
   6 H :    0.016639
   7 H :    0.008403
   8 H :    0.020154
   9 H :    0.014853
  10 H :    0.022436
  11 H :    0.007043
  12 H :    0.011771
  13 H :    0.010629
  14 H :    0.014951
  15 H :    0.015874
Sum of atomic charges:   -0.0000000

LOEWDIN ATOMIC CHARGES
----------------------
   0 C :   -0.061764
   1 C :    0.033302
   2 C :   -0.061403
   3 C :   -0.046653
   4 C :    0.080139
   5 O :   -0.181911
   6 H :    0.029439
   7 H :    0.026061
   8 H :    0.030996
   9 H :    0.029081
  10 H :    0.031153
  11 H :    0.025965
  12 H :    0.024021
  13 H :    0.023508
  14 H :    0.009063
  15 H :    0.009003

  Mayer bond orders larger than 0.1
B(  0-C ,  1-C ) :   1.0584 B(  0-C ,  6-H ) :   0.9499 B(  0-C ,  7-H ) :   0.9439
B(  0-C ,  8-H ) :   0.9502 B(  1-C ,  2-C ) :   1.0565 B(  1-C ,  3-C ) :   1.0673
B(  1-C ,  5-O ) :   1.0214 B(  2-C ,  9-H ) :   0.9494 B(  2-C , 10-H ) :   0.9517
B(  2-C , 11-H ) :   0.9438 B(  3-C ,  4-C ) :   1.1122 B(  3-C , 12-H ) :   0.9323
B(  3-C , 13-H ) :   0.9336 B(  4-C ,  5-O ) :   1.0310 B(  4-C , 14-H ) :   0.9381
B(  4-C , 15-H ) :   0.9379

FINAL SINGLE POINT ENERGY      -271.189236808589

DIPOLE MOMENT
-------------
                                X             Y             Z
Electronic contribution:      1.91914      -2.12111       1.66896
Nuclear contribution   :     -2.00422       2.75646      -1.68912
                        -----------------------------------------
Total Dipole Moment    :     -0.08508       0.63535      -0.02016
                        -----------------------------------------
Magnitude (a.u.)       :      0.64134
Magnitude (Debye)      :      1.63016

                             ****ORCA TERMINATED NORMALLY****
TOTAL RUN TIME: 0 days 0 hours 0 minutes 6 seconds 269 msec
