                         Program Version 3.0.3 - RELEASE   -
|  1> ! RI PBE def2-SVP def2-SVP/J NBO PAL2
|  2> % maxcore 2000
|  3> % output
|  4>     # printlevel mini
|  5>     print[ P_Basis ] 0
|  6>     print[ P_SCFInfo ] 1
|  7>     print[ P_SCFIterInfo ] 1
|  8>     print[ P_OrbEn ] 0
|  9>     print[ P_Cartesian ] 0
| 10> end
| 11> *xyz 0 1
| 12>  C        1.0400630000     0.0503180000     0.2460870000
| 13>  C        2.4763440000     0.0887100000    -0.2067980000
| 14>  C        2.9822290000    -1.1811280000    -0.9139380000
| 15>  C        3.7130400000    -0.6007700000    -2.0910120000
| 16>  C        3.4417960000     0.6968890000    -2.1476140000
| 17>  O        2.6490990000     1.1687390000    -1.1555240000
| 18>  H        0.9051640000    -0.7293260000     0.9998850000
| 19>  H        0.3803070000    -0.1667640000    -0.5971520000
| 20>  H        0.7419540000     1.0051110000     0.6830050000
| 21>  H        3.1313320000     0.3258230000     0.6403550000
| 22>  H        2.1512940000    -1.8250820000    -1.2306500000
| 23>  H        3.6176830000    -1.7778630000    -0.2550140000
| 24>  H        4.3025840000    -1.1532870000    -2.8061400000
| 25>  H        3.7475100000     1.4354190000    -2.8765010000
| 26> *
| 27>
| 28>                          ****END OF INPUT****
 Total Charge           Charge          ....    0
 Multiplicity           Mult            ....    1
 Number of Electrons    NEL             ....   46
 Basis Dimension        Dim             ....  124

MULLIKEN ATOMIC CHARGES
-----------------------
   0 C :    0.012778
   1 C :    0.047996
   2 C :    0.087708
   3 C :   -0.158321
   4 C :    0.145464
   5 O :   -0.282621
   6 H :    0.028700
   7 H :    0.026105
   8 H :    0.032306
   9 H :    0.015595
  10 H :    0.015542
  11 H :    0.025523
  12 H :   -0.002281
  13 H :    0.005505
Sum of atomic charges:   -0.0000000

LOEWDIN ATOMIC CHARGES
----------------------
   0 C :   -0.069409
   1 C :    0.071902
   2 C :   -0.042567
   3 C :   -0.121221
   4 C :    0.037070
   5 O :   -0.095868
   6 H :    0.034053
   7 H :    0.029811
   8 H :    0.033107
   9 H :    0.019279
  10 H :    0.026339
  11 H :    0.031473
  12 H :    0.024786
  13 H :    0.021244

  Mayer bond orders larger than 0.1
B(  0-C ,  1-C ) :   1.1075 B(  0-C ,  6-H ) :   0.9552 B(  0-C ,  7-H ) :   0.9512
B(  0-C ,  8-H ) :   0.9550 B(  1-C ,  2-C ) :   1.0735 B(  1-C ,  5-O ) :   0.9528
B(  1-C ,  9-H ) :   0.9162 B(  2-C ,  3-C ) :   1.0420 B(  2-C , 10-H ) :   0.9110
B(  2-C , 11-H ) :   0.9220 B(  3-C ,  4-C ) :   1.7536 B(  3-C ,  5-O ) :   0.1230
B(  3-C , 12-H ) :   0.9860 B(  4-C ,  5-O ) :   1.1154 B(  4-C , 13-H ) :   0.9880

FINAL SINGLE POINT ENERGY      -269.998838101202

DIPOLE MOMENT
-------------
                                X             Y             Z
Electronic contribution:      2.29948       2.73430      -2.33893
Nuclear contribution   :     -2.31651      -3.08608       2.51094
                        -----------------------------------------
Total Dipole Moment    :     -0.01703      -0.35178       0.17201
                        -----------------------------------------
Magnitude (a.u.)       :      0.39195
Magnitude (Debye)      :      0.99625

                             ****ORCA TERMINATED NORMALLY****
TOTAL RUN TIME: 0 days 0 hours 0 minutes 5 seconds 779 msec
