                         Program Version 3.0.3 - RELEASE   -
|  1> ! RI PBE def2-SVP def2-SVP/J NBO PAL2
|  2> % maxcore 2000
|  3> % output
|  4>     # printlevel mini
|  5>     print[ P_Basis ] 0
|  6>     print[ P_SCFInfo ] 1
|  7>     print[ P_SCFIterInfo ] 1
|  8>     print[ P_OrbEn ] 0
|  9>     print[ P_Cartesian ] 0
| 10> end
| 11> *xyz 0 1
| 12>  C        0.9565200000    -0.0130090000     0.3141440000
| 13>  C        2.3835680000     0.2060970000    -0.1127760000
| 14>  C        3.1962710000     1.2652360000     0.6418060000
| 15>  C        4.0796870000     0.0891920000     1.0755690000
| 16>  C        5.5137250000     0.0877340000     0.6170200000
| 17>  O        3.2629450000    -0.8418840000     0.3393510000
| 18>  H        0.3277510000     0.8181110000    -0.0182320000
| 19>  H        0.8849890000    -0.0914030000     1.4017760000
| 20>  H        0.5645720000    -0.9341880000    -0.1232210000
| 21>  H        2.4379500000     0.2996010000    -1.2045050000
| 22>  H        2.6565410000     1.7695150000     1.4436950000
| 23>  H        3.6965950000     2.0069200000     0.0187400000
| 24>  H        4.0293040000    -0.1314150000     2.1490530000
| 25>  H        5.5803170000     0.3226990000    -0.4481380000
| 26>  H        5.9658850000    -0.8930880000     0.7814020000
| 27>  H        6.0926990000     0.8292820000     1.1751270000
| 28> *
| 29>
| 30>                          ****END OF INPUT****
 Total Charge           Charge          ....    0
 Multiplicity           Mult            ....    1
 Number of Electrons    NEL             ....   48
 Basis Dimension        Dim             ....  134

MULLIKEN ATOMIC CHARGES
-----------------------
   0 C :    0.052251
   1 C :    0.022350
   2 C :    0.029084
   3 C :    0.030760
   4 C :    0.053229
   5 O :   -0.344723
   6 H :    0.021502
   7 H :    0.011861
   8 H :    0.029946
   9 H :    0.009882
  10 H :    0.008001
  11 H :    0.008515
  12 H :    0.006020
  13 H :    0.008914
  14 H :    0.031361
  15 H :    0.021048
Sum of atomic charges:   -0.0000000

LOEWDIN ATOMIC CHARGES
----------------------
   0 C :   -0.074544
   1 C :    0.064096
   2 C :   -0.047699
   3 C :    0.065495
   4 C :   -0.074114
   5 O :   -0.182098
   6 H :    0.031434
   7 H :    0.026410
   8 H :    0.033320
   9 H :    0.009968
  10 H :    0.023928
  11 H :    0.023739
  12 H :    0.009323
  13 H :    0.026023
  14 H :    0.033214
  15 H :    0.031504

  Mayer bond orders larger than 0.1
B(  0-C ,  1-C ) :   1.0929 B(  0-C ,  6-H ) :   0.9486 B(  0-C ,  7-H ) :   0.9468
B(  0-C ,  8-H ) :   0.9518 B(  1-C ,  2-C ) :   1.0870 B(  1-C ,  5-O ) :   1.0319
B(  1-C ,  9-H ) :   0.9191 B(  2-C ,  3-C ) :   1.0849 B(  2-C , 10-H ) :   0.9292
B(  2-C , 11-H ) :   0.9301 B(  3-C ,  4-C ) :   1.0949 B(  3-C ,  5-O ) :   1.0285
B(  3-C , 12-H ) :   0.9182 B(  4-C , 13-H ) :   0.9454 B(  4-C , 14-H ) :   0.9536
B(  4-C , 15-H ) :   0.9483

FINAL SINGLE POINT ENERGY      -271.191259499092

DIPOLE MOMENT
-------------
                                X             Y             Z
Electronic contribution:      0.06489      -2.00967      -0.28678
Nuclear contribution   :     -0.08301       2.62383       0.37667
                        -----------------------------------------
Total Dipole Moment    :     -0.01812       0.61416       0.08989
                        -----------------------------------------
Magnitude (a.u.)       :      0.62097
Magnitude (Debye)      :      1.57837

                             ****ORCA TERMINATED NORMALLY****
TOTAL RUN TIME: 0 days 0 hours 0 minutes 6 seconds 158 msec
