                         Program Version 3.0.3 - RELEASE   -
|  1> ! RI PBE def2-SVP def2-SVP/J NBO PAL2
|  2> % maxcore 2000
|  3> % output
|  4>     # printlevel mini
|  5>     print[ P_Basis ] 0
|  6>     print[ P_SCFInfo ] 1
|  7>     print[ P_SCFIterInfo ] 1
|  8>     print[ P_OrbEn ] 0
|  9>     print[ P_Cartesian ] 0
| 10> end
| 11> *xyz 0 1
| 12>  C        0.9372990000    -0.0047500000    -0.0952620000
| 13>  C        2.4251020000    -0.0394200000    -0.0913460000
| 14>  C        3.2752170000     1.0160460000    -0.0894410000
| 15>  O        4.5656120000     0.6051120000    -0.0859410000
| 16>  C        4.5424630000    -0.7440180000    -0.0855810000
| 17>  C        3.2684090000    -1.1973400000    -0.0887640000
| 18>  H        0.5677330000     1.0219050000    -0.0965310000
| 19>  H        0.5258410000    -0.5074950000     0.7842120000
| 20>  H        0.5304620000    -0.5080080000    -0.9765900000
| 21>  H        3.1176070000     2.0824620000    -0.0901840000
| 22>  H        5.5016220000    -1.2350770000    -0.0829200000
| 23>  H        2.9566220000    -2.2305270000    -0.0892530000
| 24> *
| 25>
| 26>                          ****END OF INPUT****
 Total Charge           Charge          ....    0
 Multiplicity           Mult            ....    1
 Number of Electrons    NEL             ....   44
 Basis Dimension        Dim             ....  114

MULLIKEN ATOMIC CHARGES
-----------------------
   0 C :    0.082281
   1 C :   -0.092164
   2 C :    0.048436
   3 O :   -0.166253
   4 C :    0.114519
   5 C :   -0.048448
   6 H :    0.013943
   7 H :    0.032814
   8 H :    0.032766
   9 H :   -0.003991
  10 H :    0.004383
  11 H :   -0.018286
Sum of atomic charges:   -0.0000000

LOEWDIN ATOMIC CHARGES
----------------------
   0 C :   -0.053972
   1 C :   -0.082132
   2 C :   -0.001672
   3 O :    0.032128
   4 C :    0.014468
   5 C :   -0.084780
   6 H :    0.033910
   7 H :    0.037677
   8 H :    0.037669
   9 H :    0.018369
  10 H :    0.019690
  11 H :    0.028645

  Mayer bond orders larger than 0.1
B(  0-C ,  1-C ) :   1.1045 B(  0-C ,  6-H ) :   0.9522 B(  0-C ,  7-H ) :   0.9464
B(  0-C ,  8-H ) :   0.9463 B(  1-C ,  2-C ) :   1.5375 B(  1-C ,  5-C ) :   1.2403
B(  2-C ,  3-O ) :   1.1484 B(  2-C ,  9-H ) :   1.0063 B(  3-O ,  4-C ) :   1.1610
B(  4-C ,  5-C ) :   1.5271 B(  4-C , 10-H ) :   0.9966 B(  5-C , 11-H ) :   1.0114

FINAL SINGLE POINT ENERGY      -268.812898757232

DIPOLE MOMENT
-------------
                                X             Y             Z
Electronic contribution:      5.12534       0.91456       0.01319
Nuclear contribution   :     -5.41409      -1.05232      -0.01387
                        -----------------------------------------
Total Dipole Moment    :     -0.28875      -0.13776      -0.00068
                        -----------------------------------------
Magnitude (a.u.)       :      0.31993
Magnitude (Debye)      :      0.81321

                             ****ORCA TERMINATED NORMALLY****
TOTAL RUN TIME: 0 days 0 hours 0 minutes 5 seconds 514 msec
