                         Program Version 3.0.3 - RELEASE   -
|  1> ! RI PBE def2-SVP def2-SVP/J NBO PAL2
|  2> % maxcore 2000
|  3> % output
|  4>     # printlevel mini
|  5>     print[ P_Basis ] 0
|  6>     print[ P_SCFInfo ] 1
|  7>     print[ P_SCFIterInfo ] 1
|  8>     print[ P_OrbEn ] 0
|  9>     print[ P_Cartesian ] 0
| 10> end
| 11> *xyz 0 1
| 12>  C        1.0062700000     0.0517180000    -0.1293200000
| 13>  C        2.5177330000     0.0808730000    -0.0361140000
| 14>  C        3.0979890000     1.1957960000     0.8287340000
| 15>  C        4.4938170000     0.6739910000     1.1281000000
| 16>  O        4.4024010000    -0.7453500000     1.1163680000
| 17>  C        3.1280880000    -1.1387740000     0.6405460000
| 18>  H        0.6199690000     0.9561670000    -0.6051430000
| 19>  H        0.5579090000    -0.0206590000     0.8661330000
| 20>  H        0.6584610000    -0.8032250000    -0.7150950000
| 21>  H        2.9440280000     0.1654770000    -1.0432220000
| 22>  H        2.5129820000     1.2874150000     1.7501590000
| 23>  H        3.1056530000     2.1693930000     0.3350650000
| 24>  H        4.8742540000     0.9985600000     2.1009340000
| 25>  H        5.2097390000     0.9939680000     0.3599400000
| 26>  H        2.4954780000    -1.4615250000     1.4817910000
| 27>  H        3.2525180000    -1.9894130000    -0.0358570000
| 28> *
| 29>
| 30>                          ****END OF INPUT****
 Total Charge           Charge          ....    0
 Multiplicity           Mult            ....    1
 Number of Electrons    NEL             ....   48
 Basis Dimension        Dim             ....  134

MULLIKEN ATOMIC CHARGES
-----------------------
   0 C :    0.047980
   1 C :   -0.237573
   2 C :   -0.030080
   3 C :    0.227018
   4 O :   -0.371660
   5 C :    0.247125
   6 H :    0.021872
   7 H :    0.014080
   8 H :    0.024356
   9 H :    0.018952
  10 H :    0.013455
  11 H :    0.018899
  12 H :    0.002831
  13 H :    0.001642
  14 H :   -0.007624
  15 H :    0.008727
Sum of atomic charges:   -0.0000000

LOEWDIN ATOMIC CHARGES
----------------------
   0 C :   -0.057053
   1 C :   -0.061759
   2 C :   -0.051384
   3 C :    0.068117
   4 O :   -0.168723
   5 C :    0.066518
   6 H :    0.028762
   7 H :    0.024855
   8 H :    0.028772
   9 H :    0.028077
  10 H :    0.025261
  11 H :    0.028442
  12 H :    0.013493
  13 H :    0.007648
  14 H :    0.003154
  15 H :    0.015820

  Mayer bond orders larger than 0.1
B(  0-C ,  1-C ) :   1.0891 B(  0-C ,  6-H ) :   0.9590 B(  0-C ,  7-H ) :   0.9514
B(  0-C ,  8-H ) :   0.9626 B(  1-C ,  2-C ) :   1.0632 B(  1-C ,  5-C ) :   1.0516
B(  1-C ,  9-H ) :   0.9105 B(  2-C ,  3-C ) :   1.0984 B(  2-C , 10-H ) :   0.9265
B(  2-C , 11-H ) :   0.9347 B(  3-C ,  4-O ) :   1.0063 B(  3-C , 12-H ) :   0.9400
B(  3-C , 13-H ) :   0.9373 B(  4-O ,  5-C ) :   1.0206 B(  5-C , 14-H ) :   0.9331
B(  5-C , 15-H ) :   0.9349

FINAL SINGLE POINT ENERGY      -271.207397156314

DIPOLE MOMENT
-------------
                                X             Y             Z
Electronic contribution:      4.07351      -1.64494       1.16016
Nuclear contribution   :     -4.55777       2.06000      -1.39599
                        -----------------------------------------
Total Dipole Moment    :     -0.48427       0.41506      -0.23584
                        -----------------------------------------
Magnitude (a.u.)       :      0.68001
Magnitude (Debye)      :      1.72844

                             ****ORCA TERMINATED NORMALLY****
TOTAL RUN TIME: 0 days 0 hours 0 minutes 6 seconds 675 msec
