                         Program Version 3.0.3 - RELEASE   -
|  1> ! RI PBE def2-SVP def2-SVP/J NBO PAL2
|  2> % maxcore 2000
|  3> % output
|  4>     # printlevel mini
|  5>     print[ P_Basis ] 0
|  6>     print[ P_SCFInfo ] 1
|  7>     print[ P_SCFIterInfo ] 1
|  8>     print[ P_OrbEn ] 0
|  9>     print[ P_Cartesian ] 0
| 10> end
| 11> *xyz 0 1
| 12>  C        0.9726840000     0.0458350000     0.2602900000
| 13>  C        2.2799840000     0.1054560000     0.0573220000
| 14>  C        3.1439900000     1.3358420000    -0.0047160000
| 15>  C        4.3964420000     0.8019370000    -0.6874980000
| 16>  O        4.5099010000    -0.5333230000    -0.2356180000
| 17>  C        3.2008360000    -1.0654090000    -0.1928310000
| 18>  H        0.3797670000     0.9410080000     0.4099200000
| 19>  H        0.4454750000    -0.9019560000     0.2870810000
| 20>  H        3.3874950000     1.6733230000     1.0079700000
| 21>  H        2.6705620000     2.1630050000    -0.5356490000
| 22>  H        5.3129220000     1.3276620000    -0.4175480000
| 23>  H        4.2844090000     0.8301560000    -1.7818800000
| 24>  H        3.1617270000    -1.8207790000     0.5954600000
| 25>  H        2.9493050000    -1.5514570000    -1.1478130000
| 26> *
| 27>
| 28>                          ****END OF INPUT****
 Total Charge           Charge          ....    0
 Multiplicity           Mult            ....    1
 Number of Electrons    NEL             ....   46
 Basis Dimension        Dim             ....  124

MULLIKEN ATOMIC CHARGES
-----------------------
   0 C :   -0.038760
   1 C :   -0.266522
   2 C :    0.060246
   3 C :    0.170200
   4 O :   -0.358385
   5 C :    0.283912
   6 H :    0.012832
   7 H :    0.011665
   8 H :    0.039431
   9 H :    0.022936
  10 H :    0.013570
  11 H :    0.007470
  12 H :    0.030615
  13 H :    0.010790
Sum of atomic charges:   -0.0000000

LOEWDIN ATOMIC CHARGES
----------------------
   0 C :   -0.077908
   1 C :   -0.045613
   2 C :   -0.049204
   3 C :    0.065144
   4 O :   -0.156272
   5 C :    0.065317
   6 H :    0.024289
   7 H :    0.023810
   8 H :    0.041994
   9 H :    0.035749
  10 H :    0.020185
  11 H :    0.005497
  12 H :    0.029312
  13 H :    0.017698

  Mayer bond orders larger than 0.1
B(  0-C ,  1-C ) :   2.0235 B(  0-C ,  6-H ) :   0.9347 B(  0-C ,  7-H ) :   0.9360
B(  1-C ,  2-C ) :   1.0616 B(  1-C ,  5-C ) :   1.0123 B(  2-C ,  3-C ) :   1.0902
B(  2-C ,  8-H ) :   0.9039 B(  2-C ,  9-H ) :   0.9206 B(  3-C ,  4-O ) :   1.0056
B(  3-C , 10-H ) :   0.9422 B(  3-C , 11-H ) :   0.9280 B(  4-O ,  5-C ) :   1.0229
B(  5-C , 12-H ) :   0.9332 B(  5-C , 13-H ) :   0.9116

FINAL SINGLE POINT ENERGY      -269.985372228698

DIPOLE MOMENT
-------------
                                X             Y             Z
Electronic contribution:      1.93755      -1.36372       0.32833
Nuclear contribution   :     -2.25137       1.69764      -0.39919
                        -----------------------------------------
Total Dipole Moment    :     -0.31381       0.33391      -0.07087
                        -----------------------------------------
Magnitude (a.u.)       :      0.46368
Magnitude (Debye)      :      1.17858

                             ****ORCA TERMINATED NORMALLY****
TOTAL RUN TIME: 0 days 0 hours 0 minutes 5 seconds 988 msec
