                         Program Version 3.0.3 - RELEASE   -
|  1> ! RI PBE def2-SVP def2-SVP/J NBO PAL2
|  2> % maxcore 2000
|  3> % output
|  4>     # printlevel mini
|  5>     print[ P_Basis ] 0
|  6>     print[ P_SCFInfo ] 1
|  7>     print[ P_SCFIterInfo ] 1
|  8>     print[ P_OrbEn ] 0
|  9>     print[ P_Cartesian ] 0
| 10> end
| 11> *xyz 0 1
| 12>  C        1.0360710000     0.0998670000    -0.0275030000
| 13>  C        2.5186590000     0.0266270000    -0.0474150000
| 14>  C        3.3053660000    -1.0390450000    -0.1222790000
| 15>  C        4.7379560000    -0.6271220000    -0.1112450000
| 16>  O        4.7154180000     0.7885360000    -0.0225290000
| 17>  C        3.3799610000     1.2500910000     0.0203440000
| 18>  H        0.5855010000    -0.8914830000    -0.0849850000
| 19>  H        0.6608020000     0.6957260000    -0.8660560000
| 20>  H        0.6789150000     0.5858730000     0.8864370000
| 21>  H        2.9804400000    -2.0703150000    -0.1835060000
| 22>  H        5.2719440000    -0.9330050000    -1.0225750000
| 23>  H        5.2900590000    -1.0434500000     0.7437960000
| 24>  H        3.1896650000     1.9323790000    -0.8220730000
| 25>  H        3.2080430000     1.8215200000     0.9451800000
| 26> *
| 27>
| 28>                          ****END OF INPUT****
 Total Charge           Charge          ....    0
 Multiplicity           Mult            ....    1
 Number of Electrons    NEL             ....   46
 Basis Dimension        Dim             ....  124

MULLIKEN ATOMIC CHARGES
-----------------------
   0 C :    0.080406
   1 C :   -0.221967
   2 C :   -0.148301
   3 C :    0.263402
   4 O :   -0.370567
   5 C :    0.278648
   6 H :    0.019153
   7 H :    0.033020
   8 H :    0.031372
   9 H :   -0.016030
  10 H :    0.015702
  11 H :    0.017221
  12 H :    0.009966
  13 H :    0.007975
Sum of atomic charges:   -0.0000000

LOEWDIN ATOMIC CHARGES
----------------------
   0 C :   -0.055803
   1 C :   -0.056272
   2 C :   -0.066716
   3 C :    0.072608
   4 O :   -0.163580
   5 C :    0.073465
   6 H :    0.035267
   7 H :    0.038940
   8 H :    0.038653
   9 H :    0.024494
  10 H :    0.015137
  11 H :    0.015507
  12 H :    0.014323
  13 H :    0.013976

  Mayer bond orders larger than 0.1
B(  0-C ,  1-C ) :   1.1048 B(  0-C ,  6-H ) :   0.9501 B(  0-C ,  7-H ) :   0.9421
B(  0-C ,  8-H ) :   0.9420 B(  1-C ,  2-C ) :   1.8641 B(  1-C ,  5-C ) :   1.0421
B(  2-C ,  3-C ) :   1.0202 B(  2-C ,  9-H ) :   0.9853 B(  3-C ,  4-O ) :   1.0136
B(  3-C , 10-H ) :   0.9191 B(  3-C , 11-H ) :   0.9191 B(  4-O ,  5-C ) :   1.0201
B(  5-C , 12-H ) :   0.9146 B(  5-C , 13-H ) :   0.9140

FINAL SINGLE POINT ENERGY      -269.991652513885

DIPOLE MOMENT
-------------
                                X             Y             Z
Electronic contribution:      3.56772       0.40795      -0.01309
Nuclear contribution   :     -4.21491      -0.72278      -0.00118
                        -----------------------------------------
Total Dipole Moment    :     -0.64719      -0.31483      -0.01427
                        -----------------------------------------
Magnitude (a.u.)       :      0.71985
Magnitude (Debye)      :      1.82971

                             ****ORCA TERMINATED NORMALLY****
TOTAL RUN TIME: 0 days 0 hours 0 minutes 5 seconds 925 msec
