                         Program Version 3.0.3 - RELEASE   -
|  1> ! RI PBE def2-SVP def2-SVP/J NBO PAL2
|  2> % maxcore 2000
|  3> % output
|  4>     # printlevel mini
|  5>     print[ P_Basis ] 0
|  6>     print[ P_SCFInfo ] 1
|  7>     print[ P_SCFIterInfo ] 1
|  8>     print[ P_OrbEn ] 0
|  9>     print[ P_Cartesian ] 0
| 10> end
| 11> *xyz 0 1
| 12>  C        0.8074390000     0.0072710000     0.2011450000
| 13>  C        2.3146740000     0.0178490000     0.0644350000
| 14>  C        2.7497360000    -0.0020750000    -1.3884410000
| 15>  C        3.0681600000     1.0630370000     0.9084620000
| 16>  O        3.8709490000     0.0549510000     1.5337940000
| 17>  C        3.0855640000    -0.9864110000     0.9417780000
| 18>  H        0.3637310000     0.8778370000    -0.2910810000
| 19>  H        0.5017520000     0.0217280000     1.2501620000
| 20>  H        0.3787110000    -0.8862400000    -0.2624040000
| 21>  H        2.3633400000     0.8698830000    -1.9243790000
| 22>  H        2.3783480000    -0.8974250000    -1.8956500000
| 23>  H        3.8394000000     0.0058250000    -1.4717360000
| 24>  H        2.4441570000     1.5938970000     1.6381400000
| 25>  H        3.6753570000     1.7883610000     0.3566320000
| 26>  H        2.4704620000    -1.5037940000     1.6884960000
| 27>  H        3.7051410000    -1.7188740000     0.4136460000
| 28> *
| 29>
| 30>                          ****END OF INPUT****
 Total Charge           Charge          ....    0
 Multiplicity           Mult            ....    1
 Number of Electrons    NEL             ....   48
 Basis Dimension        Dim             ....  134

MULLIKEN ATOMIC CHARGES
-----------------------
   0 C :    0.083058
   1 C :   -0.513837
   2 C :    0.074013
   3 C :    0.309816
   4 O :   -0.364971
   5 C :    0.309868
   6 H :    0.019287
   7 H :    0.015479
   8 H :    0.018779
   9 H :    0.020088
  10 H :    0.019722
  11 H :    0.024660
  12 H :   -0.007119
  13 H :   -0.000980
  14 H :   -0.007091
  15 H :   -0.000773
Sum of atomic charges:   -0.0000000

LOEWDIN ATOMIC CHARGES
----------------------
   0 C :   -0.053554
   1 C :   -0.084564
   2 C :   -0.050649
   3 C :    0.092919
   4 O :   -0.183604
   5 C :    0.092990
   6 H :    0.027910
   7 H :    0.024284
   8 H :    0.027808
   9 H :    0.026716
  10 H :    0.026643
  11 H :    0.028585
  12 H :    0.005097
  13 H :    0.007151
  14 H :    0.005107
  15 H :    0.007161

  Mayer bond orders larger than 0.1
B(  0-C ,  1-C ) :   1.0549 B(  0-C ,  6-H ) :   0.9564 B(  0-C ,  7-H ) :   0.9503
B(  0-C ,  8-H ) :   0.9564 B(  1-C ,  2-C ) :   1.0407 B(  1-C ,  3-C ) :   1.0470
B(  1-C ,  5-C ) :   1.0470 B(  2-C ,  9-H ) :   0.9560 B(  2-C , 10-H ) :   0.9561
B(  2-C , 11-H ) :   0.9515 B(  3-C ,  4-O ) :   1.0402 B(  3-C , 12-H ) :   0.9242
B(  3-C , 13-H ) :   0.9295 B(  4-O ,  5-C ) :   1.0400 B(  5-C , 14-H ) :   0.9244
B(  5-C , 15-H ) :   0.9298

FINAL SINGLE POINT ENERGY      -271.180884075438

DIPOLE MOMENT
-------------
                                X             Y             Z
Electronic contribution:      3.57898       0.08756       3.53487
Nuclear contribution   :     -4.13581      -0.10047      -4.02003
                        -----------------------------------------
Total Dipole Moment    :     -0.55683      -0.01292      -0.48516
                        -----------------------------------------
Magnitude (a.u.)       :      0.73866
Magnitude (Debye)      :      1.87752

                             ****ORCA TERMINATED NORMALLY****
TOTAL RUN TIME: 0 days 0 hours 0 minutes 6 seconds 732 msec
