                         Program Version 3.0.3 - RELEASE   -
|  1> ! RI PBE def2-SVP def2-SVP/J NBO PAL2
|  2> % maxcore 2000
|  3> % output
|  4>     # printlevel mini
|  5>     print[ P_Basis ] 0
|  6>     print[ P_SCFInfo ] 1
|  7>     print[ P_SCFIterInfo ] 1
|  8>     print[ P_OrbEn ] 0
|  9>     print[ P_Cartesian ] 0
| 10> end
| 11> *xyz 0 1
| 12>  C        0.9645000000    -0.0749260000     0.0125980000
| 13>  C        2.4741870000    -0.0829780000    -0.0366650000
| 14>  C        3.2259930000     1.0277800000     0.7427400000
| 15>  C        4.1266920000    -0.0588100000     1.3125370000
| 16>  O        5.1819990000    -0.0505230000     1.8701300000
| 17>  C        3.2159890000    -1.1627060000     0.7942310000
| 18>  H        0.5547770000     0.7979610000    -0.5022440000
| 19>  H        0.6084270000    -0.0489810000     1.0471350000
| 20>  H        0.5467150000    -0.9672620000    -0.4607500000
| 21>  H        2.8179730000    -0.1089300000    -1.0738620000
| 22>  H        2.6115370000     1.4766100000     1.5304450000
| 23>  H        3.7177060000     1.8261600000     0.1845730000
| 24>  H        2.5976300000    -1.5684010000     1.6020230000
| 25>  H        3.7002740000    -1.9908850000     0.2742990000
| 26> *
| 27>
| 28>                          ****END OF INPUT****
 Total Charge           Charge          ....    0
 Multiplicity           Mult            ....    1
 Number of Electrons    NEL             ....   46
 Basis Dimension        Dim             ....  124

MULLIKEN ATOMIC CHARGES
-----------------------
   0 C :    0.049030
   1 C :   -0.261236
   2 C :    0.090976
   3 C :   -0.083212
   4 O :   -0.119955
   5 C :    0.091932
   6 H :    0.027894
   7 H :    0.011332
   8 H :    0.027544
   9 H :    0.023393
  10 H :    0.032801
  11 H :    0.038643
  12 H :    0.032671
  13 H :    0.038185
Sum of atomic charges:   -0.0000000

LOEWDIN ATOMIC CHARGES
----------------------
   0 C :   -0.062378
   1 C :   -0.038053
   2 C :   -0.062766
   3 C :    0.051289
   4 O :   -0.100101
   5 C :   -0.062659
   6 H :    0.030373
   7 H :    0.023537
   8 H :    0.030319
   9 H :    0.029442
  10 H :    0.044742
  11 H :    0.035795
  12 H :    0.044734
  13 H :    0.035725

  Mayer bond orders larger than 0.1
B(  0-C ,  1-C ) :   1.0684 B(  0-C ,  6-H ) :   0.9596 B(  0-C ,  7-H ) :   0.9566
B(  0-C ,  8-H ) :   0.9595 B(  1-C ,  2-C ) :   1.0660 B(  1-C ,  5-C ) :   1.0649
B(  1-C ,  9-H ) :   0.9088 B(  2-C ,  3-C ) :   0.9853 B(  2-C ,  5-C ) :  -0.1237
B(  2-C , 10-H ) :   0.8929 B(  2-C , 11-H ) :   0.9204 B(  3-C ,  4-O ) :   2.2426
B(  3-C ,  5-C ) :   0.9858 B(  5-C , 12-H ) :   0.8931 B(  5-C , 13-H ) :   0.9205

FINAL SINGLE POINT ENERGY      -270.003307046313

DIPOLE MOMENT
-------------
                                X             Y             Z
Electronic contribution:      6.87242       0.03831       2.96082
Nuclear contribution   :     -7.82774      -0.04593      -3.47483
                        -----------------------------------------
Total Dipole Moment    :     -0.95532      -0.00763      -0.51400
                        -----------------------------------------
Magnitude (a.u.)       :      1.08485
Magnitude (Debye)      :      2.75747

                             ****ORCA TERMINATED NORMALLY****
TOTAL RUN TIME: 0 days 0 hours 0 minutes 6 seconds 345 msec
