                         Program Version 3.0.3 - RELEASE   -
|  1> ! RI PBE def2-SVP def2-SVP/J NBO PAL2
|  2> % maxcore 2000
|  3> % output
|  4>     # printlevel mini
|  5>     print[ P_Basis ] 0
|  6>     print[ P_SCFInfo ] 1
|  7>     print[ P_SCFIterInfo ] 1
|  8>     print[ P_OrbEn ] 0
|  9>     print[ P_Cartesian ] 0
| 10> end
| 11> *xyz 0 1
| 12>  C        0.8766850000     0.0180690000     0.1910680000
| 13>  C        2.3824300000    -0.0249940000     0.1008510000
| 14>  C        3.2019960000     1.0838070000     0.7964430000
| 15>  C        4.2177800000     0.0118940000     1.2391780000
| 16>  O        5.2874940000    -0.1598690000     0.3335000000
| 17>  C        3.1526050000    -1.0536640000     0.9580030000
| 18>  H        0.4683120000     0.8716550000    -0.3576950000
| 19>  H        0.5501200000     0.1043250000     1.2322150000
| 20>  H        0.4273280000    -0.8885600000    -0.2242760000
| 21>  H        2.6973460000    -0.1129400000    -0.9419110000
| 22>  H        2.6636630000     1.5000440000     1.6531550000
| 23>  H        3.5856860000     1.9043200000     0.1851730000
| 24>  H        4.5912140000     0.0811960000     2.2677710000
| 25>  H        5.8390130000     0.6261780000     0.3678980000
| 26>  H        2.6003000000    -1.3146100000     1.8645690000
| 27>  H        3.5113250000    -1.9649520000     0.4776770000
| 28> *
| 29>
| 30>                          ****END OF INPUT****
 Total Charge           Charge          ....    0
 Multiplicity           Mult            ....    1
 Number of Electrons    NEL             ....   48
 Basis Dimension        Dim             ....  134

MULLIKEN ATOMIC CHARGES
-----------------------
   0 C :    0.068653
   1 C :   -0.230637
   2 C :    0.109575
   3 C :   -0.019159
   4 O :   -0.259002
   5 C :    0.126760
   6 H :    0.019158
   7 H :    0.002601
   8 H :    0.020257
   9 H :    0.016837
  10 H :   -0.006898
  11 H :   -0.000170
  12 H :   -0.010975
  13 H :    0.153084
  14 H :   -0.002771
  15 H :    0.012687
Sum of atomic charges:    0.0000000

LOEWDIN ATOMIC CHARGES
----------------------
   0 C :   -0.064720
   1 C :   -0.037802
   2 C :   -0.048617
   3 C :    0.050504
   4 O :   -0.115610
   5 C :   -0.033096
   6 H :    0.027446
   7 H :    0.020495
   8 H :    0.028006
   9 H :    0.027790
  10 H :    0.022530
  11 H :    0.014534
  12 H :   -0.005914
  13 H :    0.067841
  14 H :    0.024099
  15 H :    0.022515

  Mayer bond orders larger than 0.1
B(  0-C ,  1-C ) :   1.1047 B(  0-C ,  6-H ) :   0.9578 B(  0-C ,  7-H ) :   0.9502
B(  0-C ,  8-H ) :   0.9581 B(  1-C ,  2-C ) :   1.0788 B(  1-C ,  5-C ) :   1.0852
B(  1-C ,  9-H ) :   0.9067 B(  2-C ,  3-C ) :   1.0729 B(  2-C , 10-H ) :   0.9035
B(  2-C , 11-H ) :   0.9156 B(  3-C ,  4-O ) :   1.0799 B(  3-C ,  5-C ) :   1.0833
B(  3-C , 12-H ) :   0.9245 B(  4-O , 13-H ) :   0.9834 B(  5-C , 14-H ) :   0.9134
B(  5-C , 15-H ) :   0.9121

FINAL SINGLE POINT ENERGY      -271.188777260454

DIPOLE MOMENT
-------------
                                X             Y             Z
Electronic contribution:      4.91981      -0.43081      -0.31882
Nuclear contribution   :     -4.96663       0.89874       0.52151
                        -----------------------------------------
Total Dipole Moment    :     -0.04682       0.46793       0.20269
                        -----------------------------------------
Magnitude (a.u.)       :      0.51208
Magnitude (Debye)      :      1.30162

                             ****ORCA TERMINATED NORMALLY****
TOTAL RUN TIME: 0 days 0 hours 0 minutes 6 seconds 675 msec
