                         Program Version 3.0.3 - RELEASE   -
|  1> ! RI PBE def2-SVP def2-SVP/J NBO PAL2
|  2> % maxcore 2000
|  3> % output
|  4>     # printlevel mini
|  5>     print[ P_Basis ] 0
|  6>     print[ P_SCFInfo ] 1
|  7>     print[ P_SCFIterInfo ] 1
|  8>     print[ P_OrbEn ] 0
|  9>     print[ P_Cartesian ] 0
| 10> end
| 11> *xyz 0 1
| 12>  C        1.1197880000    -0.0695950000     0.0758800000
| 13>  C        2.5850390000     0.1740610000    -0.1361160000
| 14>  C        3.2856710000     1.2102430000     0.7442660000
| 15>  C        4.0597910000     0.0125160000     1.2568640000
| 16>  O        4.9239110000    -0.2062640000     2.0368910000
| 17>  O        3.4086890000    -0.8807670000     0.4623320000
| 18>  H        0.5395330000     0.7573200000    -0.3410470000
| 19>  H        0.8897390000    -0.1539770000     1.1404480000
| 20>  H        0.8062620000    -0.9904440000    -0.4192720000
| 21>  H        2.8348180000     0.2509220000    -1.1965070000
| 22>  H        2.6635380000     1.6920960000     1.4987000000
| 23>  H        3.8999330000     1.9538910000     0.2381620000
| 24> *
| 25>
| 26>                          ****END OF INPUT****
 Total Charge           Charge          ....    0
 Multiplicity           Mult            ....    1
 Number of Electrons    NEL             ....   46
 Basis Dimension        Dim             ....  114

MULLIKEN ATOMIC CHARGES
-----------------------
   0 C :    0.059386
   1 C :   -0.018238
   2 C :   -0.025389
   3 C :    0.117158
   4 O :   -0.127421
   5 O :   -0.245628
   6 H :    0.037290
   7 H :    0.020982
   8 H :    0.043452
   9 H :    0.035371
  10 H :    0.047929
  11 H :    0.055107
Sum of atomic charges:   -0.0000000

LOEWDIN ATOMIC CHARGES
----------------------
   0 C :   -0.066814
   1 C :    0.069905
   2 C :   -0.070508
   3 C :    0.034811
   4 O :   -0.109126
   5 O :   -0.086241
   6 H :    0.039852
   7 H :    0.032810
   8 H :    0.039529
   9 H :    0.023630
  10 H :    0.045390
  11 H :    0.046764

  Mayer bond orders larger than 0.1
B(  0-C ,  1-C ) :   1.0944 B(  0-C ,  6-H ) :   0.9507 B(  0-C ,  7-H ) :   0.9461
B(  0-C ,  8-H ) :   0.9536 B(  1-C ,  2-C ) :   1.0772 B(  1-C ,  5-O ) :   0.9785
B(  1-C ,  9-H ) :   0.9243 B(  2-C ,  3-C ) :   0.9626 B(  2-C , 10-H ) :   0.9190
B(  2-C , 11-H ) :   0.9194 B(  3-C ,  4-O ) :   2.2212 B(  3-C ,  5-O ) :   1.1245
B(  4-O ,  5-O ) :   0.1132

FINAL SINGLE POINT ENERGY      -305.893114299249

DIPOLE MOMENT
-------------
                                X             Y             Z
Electronic contribution:      6.11978      -2.30894       2.53242
Nuclear contribution   :     -7.21950       3.13951      -3.32093
                        -----------------------------------------
Total Dipole Moment    :     -1.09973       0.83057      -0.78850
                        -----------------------------------------
Magnitude (a.u.)       :      1.58776
Magnitude (Debye)      :      4.03576

                             ****ORCA TERMINATED NORMALLY****
TOTAL RUN TIME: 0 days 0 hours 0 minutes 5 seconds 173 msec
