                         Program Version 3.0.3 - RELEASE   -
|  1> ! RI PBE def2-SVP def2-SVP/J NBO PAL2
|  2> % maxcore 2000
|  3> % output
|  4>     # printlevel mini
|  5>     print[ P_Basis ] 0
|  6>     print[ P_SCFInfo ] 1
|  7>     print[ P_SCFIterInfo ] 1
|  8>     print[ P_OrbEn ] 0
|  9>     print[ P_Cartesian ] 0
| 10> end
| 11> *xyz 0 1
| 12>  C        0.8723260000    -0.0537200000     0.0893670000
| 13>  C        2.3787410000    -0.1243510000     0.0485830000
| 14>  C        3.1923160000     0.8648540000     0.8882190000
| 15>  O        3.9853050000    -0.1911730000     1.4439120000
| 16>  C        3.0984260000    -1.1859470000     0.8968290000
| 17>  C        3.8268460000    -2.3092530000     0.2150680000
| 18>  H        0.5024180000     0.8391430000    -0.4219250000
| 19>  H        0.5090830000    -0.0227110000     1.1203990000
| 20>  H        0.4208730000    -0.9217480000    -0.3989470000
| 21>  H        2.7364620000    -0.1541650000    -0.9846920000
| 22>  H        2.6013520000     1.3758940000     1.6600480000
| 23>  H        3.8019990000     1.6014800000     0.3574150000
| 24>  H        2.4452340000    -1.5819630000     1.6893160000
| 25>  H        4.4733990000    -1.9248240000    -0.5770330000
| 26>  H        3.1135690000    -3.0132290000    -0.2231670000
| 27>  H        4.4462510000    -2.8555880000     0.9304180000
| 28> *
| 29>
| 30>                          ****END OF INPUT****
 Total Charge           Charge          ....    0
 Multiplicity           Mult            ....    1
 Number of Electrons    NEL             ....   48
 Basis Dimension        Dim             ....  134

MULLIKEN ATOMIC CHARGES
-----------------------
   0 C :    0.059657
   1 C :   -0.221197
   2 C :    0.253724
   3 O :   -0.354946
   4 C :    0.086733
   5 C :    0.050263
   6 H :    0.024402
   7 H :    0.014659
   8 H :    0.024798
   9 H :    0.004085
  10 H :   -0.006023
  11 H :    0.009309
  12 H :   -0.012379
  13 H :    0.013216
  14 H :    0.020115
  15 H :    0.033583
Sum of atomic charges:    0.0000000

LOEWDIN ATOMIC CHARGES
----------------------
   0 C :   -0.062074
   1 C :   -0.058800
   2 C :    0.086656
   3 O :   -0.182951
   4 C :    0.067075
   5 C :   -0.073615
   6 H :    0.030061
   7 H :    0.024156
   8 H :    0.029645
   9 H :    0.025377
  10 H :    0.004661
  11 H :    0.009381
  12 H :    0.006380
  13 H :    0.026038
  14 H :    0.032841
  15 H :    0.035169

  Mayer bond orders larger than 0.1
B(  0-C ,  1-C ) :   1.0781 B(  0-C ,  6-H ) :   0.9566 B(  0-C ,  7-H ) :   0.9524
B(  0-C ,  8-H ) :   0.9591 B(  1-C ,  2-C ) :   1.0852 B(  1-C ,  4-C ) :   1.0475
B(  1-C ,  9-H ) :   0.9021 B(  2-C ,  3-O ) :   1.0323 B(  2-C , 10-H ) :   0.9277
B(  2-C , 11-H ) :   0.9376 B(  3-O ,  4-C ) :   1.0384 B(  4-C ,  5-C ) :   1.1019
B(  4-C , 12-H ) :   0.9084 B(  5-C , 13-H ) :   0.9441 B(  5-C , 14-H ) :   0.9489
B(  5-C , 15-H ) :   0.9508

FINAL SINGLE POINT ENERGY      -271.186890037374

DIPOLE MOMENT
-------------
                                X             Y             Z
Electronic contribution:      3.12113       1.44830       2.24503
Nuclear contribution   :     -3.66670      -1.50326      -2.68994
                        -----------------------------------------
Total Dipole Moment    :     -0.54557      -0.05496      -0.44491
                        -----------------------------------------
Magnitude (a.u.)       :      0.70613
Magnitude (Debye)      :      1.79483

                             ****ORCA TERMINATED NORMALLY****
TOTAL RUN TIME: 0 days 0 hours 0 minutes 6 seconds 414 msec
