                         Program Version 3.0.3 - RELEASE   -
|  1> ! RI PBE def2-SVP def2-SVP/J NBO PAL2
|  2> % maxcore 2000
|  3> % output
|  4>     # printlevel mini
|  5>     print[ P_Basis ] 0
|  6>     print[ P_SCFInfo ] 1
|  7>     print[ P_SCFIterInfo ] 1
|  8>     print[ P_OrbEn ] 0
|  9>     print[ P_Cartesian ] 0
| 10> end
| 11> *xyz 0 1
| 12>  C        1.0543270000     0.1792520000     0.1758090000
| 13>  C        2.5390130000    -0.0251830000     0.0766750000
| 14>  C        3.1424950000    -0.7856940000    -1.0678500000
| 15>  O        2.2701880000    -1.3154580000    -2.0126860000
| 16>  C        3.3437420000     0.6877110000    -0.9766090000
| 17>  O        4.6348510000     1.1319720000    -0.7071240000
| 18>  H        0.5733670000    -0.6704490000     0.6665890000
| 19>  H        0.6070170000     0.2781420000    -0.8137060000
| 20>  H        0.8203210000     1.0782760000     0.7522090000
| 21>  H        3.0607580000    -0.1704120000     1.0181490000
| 22>  H        4.0138360000    -1.3945510000    -0.8350640000
| 23>  H        2.6928180000    -1.2639000000    -2.8742730000
| 24>  H        2.7745340000     1.2887520000    -1.6856770000
| 25>  H        4.5789440000     1.8698430000    -0.0938520000
| 26> *
| 27>
| 28>                          ****END OF INPUT****
 Total Charge           Charge          ....    0
 Multiplicity           Mult            ....    1
 Number of Electrons    NEL             ....   48
 Basis Dimension        Dim             ....  124

MULLIKEN ATOMIC CHARGES
-----------------------
   0 C :    0.084878
   1 C :   -0.163489
   2 C :    0.080412
   3 O :   -0.231581
   4 C :    0.045537
   5 O :   -0.233241
   6 H :    0.027733
   7 H :    0.016189
   8 H :    0.015392
   9 H :    0.017486
  10 H :    0.013515
  11 H :    0.162814
  12 H :    0.004897
  13 H :    0.159459
Sum of atomic charges:    0.0000000

LOEWDIN ATOMIC CHARGES
----------------------
   0 C :   -0.054264
   1 C :   -0.070497
   2 C :    0.025688
   3 O :   -0.094644
   4 C :    0.008705
   5 O :   -0.100042
   6 H :    0.032392
   7 H :    0.028561
   8 H :    0.027109
   9 H :    0.027706
  10 H :    0.011688
  11 H :    0.077115
  12 H :    0.006899
  13 H :    0.073584

  Mayer bond orders larger than 0.1
B(  0-C ,  1-C ) :   1.0912 B(  0-C ,  6-H ) :   0.9566 B(  0-C ,  7-H ) :   0.9476
B(  0-C ,  8-H ) :   0.9599 B(  1-C ,  2-C ) :   0.9374 B(  1-C ,  4-C ) :   0.9256
B(  1-C ,  9-H ) :   0.9273 B(  2-C ,  3-O ) :   1.1420 B(  2-C ,  4-C ) :   0.9265
B(  2-C , 10-H ) :   0.9369 B(  3-O , 11-H ) :   0.9790 B(  4-C ,  5-O ) :   1.1322
B(  4-C , 12-H ) :   0.9381 B(  5-O , 13-H ) :   0.9804

FINAL SINGLE POINT ENERGY      -307.040926951440

DIPOLE MOMENT
-------------
                                X             Y             Z
Electronic contribution:      3.44300      -0.60859      -2.17544
Nuclear contribution   :     -3.40854       1.05608       2.22852
                        -----------------------------------------
Total Dipole Moment    :      0.03446       0.44749       0.05308
                        -----------------------------------------
Magnitude (a.u.)       :      0.45194
Magnitude (Debye)      :      1.14875

                             ****ORCA TERMINATED NORMALLY****
TOTAL RUN TIME: 0 days 0 hours 0 minutes 5 seconds 709 msec
