                         Program Version 3.0.3 - RELEASE   -
|  1> ! RI PBE def2-SVP def2-SVP/J NBO PAL2
|  2> % maxcore 2000
|  3> % output
|  4>     # printlevel mini
|  5>     print[ P_Basis ] 0
|  6>     print[ P_SCFInfo ] 1
|  7>     print[ P_SCFIterInfo ] 1
|  8>     print[ P_OrbEn ] 0
|  9>     print[ P_Cartesian ] 0
| 10> end
| 11> *xyz 0 1
| 12>  C        0.9855500000    -0.0498560000     0.1164350000
| 13>  C        2.4957770000     0.0206670000     0.0847540000
| 14>  C        3.2163320000     1.0375790000     0.9726310000
| 15>  O        3.8842110000    -0.0379260000     1.6885110000
| 16>  C        3.2426930000    -0.9864160000     0.9477750000
| 17>  O        3.3199240000    -2.1634760000     1.0533730000
| 18>  H        0.5447230000     0.7878020000    -0.4280860000
| 19>  H        0.6109670000    -0.0262290000     1.1424190000
| 20>  H        0.6391970000    -0.9753920000    -0.3466780000
| 21>  H        2.8723660000     0.0049040000    -0.9408270000
| 22>  H        2.5764920000     1.6069470000     1.6483340000
| 23>  H        3.9438670000     1.6881970000     0.4876590000
| 24> *
| 25>
| 26>                          ****END OF INPUT****
 Total Charge           Charge          ....    0
 Multiplicity           Mult            ....    1
 Number of Electrons    NEL             ....   46
 Basis Dimension        Dim             ....  114

MULLIKEN ATOMIC CHARGES
-----------------------
   0 C :    0.051625
   1 C :   -0.297713
   2 C :    0.238404
   3 O :   -0.259015
   4 C :    0.165735
   5 O :   -0.126676
   6 H :    0.037197
   7 H :    0.026974
   8 H :    0.046685
   9 H :    0.053771
  10 H :    0.028795
  11 H :    0.034219
Sum of atomic charges:   -0.0000000

LOEWDIN ATOMIC CHARGES
----------------------
   0 C :   -0.049080
   1 C :   -0.083204
   2 C :    0.093570
   3 O :   -0.084617
   4 C :    0.036505
   5 O :   -0.106971
   6 H :    0.033359
   7 H :    0.031441
   8 H :    0.040430
   9 H :    0.045387
  10 H :    0.021020
  11 H :    0.022160

  Mayer bond orders larger than 0.1
B(  0-C ,  1-C ) :   1.0729 B(  0-C ,  6-H ) :   0.9620 B(  0-C ,  7-H ) :   0.9610
B(  0-C ,  8-H ) :   0.9579 B(  1-C ,  2-C ) :   1.0623 B(  1-C ,  4-C ) :   0.9187
B(  1-C ,  9-H ) :   0.8987 B(  2-C ,  3-O ) :   0.9889 B(  2-C , 10-H ) :   0.9385
B(  2-C , 11-H ) :   0.9386 B(  3-O ,  4-C ) :   1.1283 B(  3-O ,  5-O ) :   0.1143
B(  4-C ,  5-O ) :   2.2301

FINAL SINGLE POINT ENERGY      -305.888033610796

DIPOLE MOMENT
-------------
                                X             Y             Z
Electronic contribution:      4.94446      -3.71717       2.52807
Nuclear contribution   :     -5.56229       4.95605      -3.15511
                        -----------------------------------------
Total Dipole Moment    :     -0.61783       1.23887      -0.62705
                        -----------------------------------------
Magnitude (a.u.)       :      1.51977
Magnitude (Debye)      :      3.86296

                             ****ORCA TERMINATED NORMALLY****
TOTAL RUN TIME: 0 days 0 hours 0 minutes 5 seconds 381 msec
