                         Program Version 3.0.3 - RELEASE   -
|  1> ! RI PBE def2-SVP def2-SVP/J NBO PAL2
|  2> % maxcore 2000
|  3> % output
|  4>     # printlevel mini
|  5>     print[ P_Basis ] 0
|  6>     print[ P_SCFInfo ] 1
|  7>     print[ P_SCFIterInfo ] 1
|  8>     print[ P_OrbEn ] 0
|  9>     print[ P_Cartesian ] 0
| 10> end
| 11> *xyz 0 1
| 12>  C        0.9730570000     0.0513370000    -0.0666090000
| 13>  C        2.2982910000     0.1056510000     0.0755830000
| 14>  C        3.2488950000    -1.0690780000     0.0707410000
| 15>  O        4.5643870000    -0.5205230000     0.2555210000
| 16>  C        4.4168030000     0.8151910000     0.3577660000
| 17>  C        3.1576700000     1.2575860000     0.2660960000
| 18>  H        0.4531870000    -0.8894730000    -0.2033170000
| 19>  H        0.3717800000     0.9518670000    -0.0496980000
| 20>  H        3.2407170000    -1.6157980000    -0.8754940000
| 21>  H        3.0579490000    -1.7709910000     0.8863300000
| 22>  H        5.3375050000     1.3639950000     0.5015740000
| 23>  H        2.8405700000     2.2869250000     0.3238060000
| 24> *
| 25>
| 26>                          ****END OF INPUT****
 Total Charge           Charge          ....    0
 Multiplicity           Mult            ....    1
 Number of Electrons    NEL             ....   44
 Basis Dimension        Dim             ....  114

MULLIKEN ATOMIC CHARGES
-----------------------
   0 C :   -0.074958
   1 C :   -0.146112
   2 C :    0.258888
   3 O :   -0.273547
   4 C :    0.134793
   5 C :   -0.015219
   6 H :    0.007071
   7 H :    0.011519
   8 H :    0.046597
   9 H :    0.049646
  10 H :    0.014938
  11 H :   -0.013616
Sum of atomic charges:   -0.0000000

LOEWDIN ATOMIC CHARGES
----------------------
   0 C :   -0.102768
   1 C :   -0.047391
   2 C :    0.092247
   3 O :   -0.073162
   4 C :    0.057957
   5 C :   -0.100865
   6 H :    0.020711
   7 H :    0.023849
   8 H :    0.035780
   9 H :    0.036252
  10 H :    0.024753
  11 H :    0.032635

  Mayer bond orders larger than 0.1
B(  0-C ,  1-C ) :   1.8963 B(  0-C ,  4-C ) :   0.1083 B(  0-C ,  6-H ) :   0.9385
B(  0-C ,  7-H ) :   0.9345 B(  1-C ,  2-C ) :   1.0211 B(  1-C ,  5-C ) :   1.1236
B(  2-C ,  3-O ) :   0.9567 B(  2-C ,  8-H ) :   0.9283 B(  2-C ,  9-H ) :   0.9288
B(  3-O ,  4-C ) :   1.1485 B(  4-C ,  5-C ) :   1.5959 B(  4-C , 10-H ) :   0.9812
B(  5-C , 11-H ) :   1.0012

FINAL SINGLE POINT ENERGY      -268.784754851466

DIPOLE MOMENT
-------------
                                X             Y             Z
Electronic contribution:      3.32845       0.12278       0.35744
Nuclear contribution   :     -3.29443      -0.10985      -0.35142
                        -----------------------------------------
Total Dipole Moment    :      0.03402       0.01293       0.00602
                        -----------------------------------------
Magnitude (a.u.)       :      0.03689
Magnitude (Debye)      :      0.09376

                             ****ORCA TERMINATED NORMALLY****
TOTAL RUN TIME: 0 days 0 hours 0 minutes 5 seconds 954 msec
