                         Program Version 3.0.3 - RELEASE   -
|  1> ! RI PBE def2-SVP def2-SVP/J NBO PAL2
|  2> % maxcore 2000
|  3> % output
|  4>     # printlevel mini
|  5>     print[ P_Basis ] 0
|  6>     print[ P_SCFInfo ] 1
|  7>     print[ P_SCFIterInfo ] 1
|  8>     print[ P_OrbEn ] 0
|  9>     print[ P_Cartesian ] 0
| 10> end
| 11> *xyz 0 1
| 12>  C        0.9222270000     0.0377660000     0.1805030000
| 13>  C        2.3947870000     0.0590010000     0.0021960000
| 14>  C        3.2169540000    -0.9695540000    -0.1672520000
| 15>  O        4.5335780000    -0.6657930000    -0.3072620000
| 16>  C        4.6423660000     0.7667200000    -0.2253930000
| 17>  C        3.2231850000     1.3168940000    -0.0137880000
| 18>  H        0.5340100000    -0.9822920000     0.1591270000
| 19>  H        0.4144730000     0.6066740000    -0.6065680000
| 20>  H        0.6270080000     0.4893040000     1.1343990000
| 21>  H        2.9900890000    -2.0267610000    -0.2106480000
| 22>  H        5.0982360000     1.1198480000    -1.1530450000
| 23>  H        5.3149620000     1.0031010000     0.6020910000
| 24>  H        2.9165720000     1.9951550000    -0.8178320000
| 25>  H        3.1300650000     1.8764360000     0.9236720000
| 26> *
| 27>
| 28>                          ****END OF INPUT****
 Total Charge           Charge          ....    0
 Multiplicity           Mult            ....    1
 Number of Electrons    NEL             ....   46
 Basis Dimension        Dim             ....  124

MULLIKEN ATOMIC CHARGES
-----------------------
   0 C :    0.083599
   1 C :   -0.239586
   2 C :    0.101140
   3 O :   -0.294863
   4 C :    0.192946
   5 C :    0.018258
   6 H :    0.011720
   7 H :    0.024076
   8 H :    0.020259
   9 H :   -0.008301
  10 H :    0.022212
  11 H :    0.025377
  12 H :    0.023022
  13 H :    0.020141
Sum of atomic charges:   -0.0000000

LOEWDIN ATOMIC CHARGES
----------------------
   0 C :   -0.054980
   1 C :   -0.117297
   2 C :    0.021372
   3 O :   -0.101549
   4 C :    0.085333
   5 C :   -0.044255
   6 H :    0.033132
   7 H :    0.031461
   8 H :    0.030754
   9 H :    0.019311
  10 H :    0.019630
  11 H :    0.020312
  12 H :    0.028734
  13 H :    0.028042

  Mayer bond orders larger than 0.1
B(  0-C ,  1-C ) :   1.1214 B(  0-C ,  6-H ) :   0.9503 B(  0-C ,  7-H ) :   0.9436
B(  0-C ,  8-H ) :   0.9429 B(  1-C ,  2-C ) :   1.7440 B(  1-C ,  3-O ) :   0.1265
B(  1-C ,  5-C ) :   1.0735 B(  2-C ,  3-O ) :   1.1022 B(  2-C ,  9-H ) :   0.9949
B(  3-O ,  4-C ) :   0.9700 B(  4-C ,  5-C ) :   1.1085 B(  4-C , 10-H ) :   0.9457
B(  4-C , 11-H ) :   0.9459 B(  5-C , 12-H ) :   0.9150 B(  5-C , 13-H ) :   0.9152

FINAL SINGLE POINT ENERGY      -269.998118911651

DIPOLE MOMENT
-------------
                                X             Y             Z
Electronic contribution:      3.79674      -2.69598      -0.64663
Nuclear contribution   :     -4.04866       3.10361       0.70164
                        -----------------------------------------
Total Dipole Moment    :     -0.25193       0.40762       0.05501
                        -----------------------------------------
Magnitude (a.u.)       :      0.48234
Magnitude (Debye)      :      1.22601

                             ****ORCA TERMINATED NORMALLY****
TOTAL RUN TIME: 0 days 0 hours 0 minutes 5 seconds 974 msec
