                         Program Version 3.0.3 - RELEASE   -
|  1> ! RI PBE def2-SVP def2-SVP/J NBO PAL2
|  2> % maxcore 2000
|  3> % output
|  4>     # printlevel mini
|  5>     print[ P_Basis ] 0
|  6>     print[ P_SCFInfo ] 1
|  7>     print[ P_SCFIterInfo ] 1
|  8>     print[ P_OrbEn ] 0
|  9>     print[ P_Cartesian ] 0
| 10> end
| 11> *xyz 0 1
| 12>  C        0.8682200000     0.0305080000    -0.0854740000
| 13>  C        2.3634740000     0.0321230000     0.0857430000
| 14>  C        2.7865480000     0.0933330000     1.5382180000
| 15>  O        4.1792940000     0.0832760000     1.7522580000
| 16>  C        3.1871270000    -0.7580250000    -0.8847920000
| 17>  C        3.1986660000     0.7448780000    -0.9284470000
| 18>  H        0.4129690000    -0.8371330000     0.4027270000
| 19>  H        0.5942080000    -0.0000670000    -1.1420730000
| 20>  H        0.4211370000     0.9307330000     0.3480950000
| 21>  H        2.3003110000    -0.7264530000     2.0877020000
| 22>  H        2.4246300000     1.0301640000     1.9737830000
| 23>  H        4.5055470000    -0.8033750000     1.5827470000
| 24>  H        2.6659970000    -1.2941130000    -1.6690900000
| 25>  H        4.0907910000    -1.2476530000    -0.5400440000
| 26>  H        2.6932560000     1.2384460000    -1.7501150000
| 27>  H        4.0969140000     1.2361690000    -0.5754280000
| 28> *
| 29>
| 30>                          ****END OF INPUT****
 Total Charge           Charge          ....    0
 Multiplicity           Mult            ....    1
 Number of Electrons    NEL             ....   48
 Basis Dimension        Dim             ....  134

MULLIKEN ATOMIC CHARGES
-----------------------
   0 C :    0.089180
   1 C :   -0.337179
   2 C :    0.264285
   3 O :   -0.279178
   4 C :   -0.035515
   5 C :    0.006452
   6 H :    0.016594
   7 H :    0.005318
   8 H :    0.019276
   9 H :   -0.002640
  10 H :    0.006055
  11 H :    0.155020
  12 H :    0.028202
  13 H :    0.006780
  14 H :    0.025820
  15 H :    0.031529
Sum of atomic charges:   -0.0000000

LOEWDIN ATOMIC CHARGES
----------------------
   0 C :   -0.043567
   1 C :   -0.088560
   2 C :    0.067608
   3 O :   -0.110369
   4 C :   -0.048566
   5 C :   -0.040789
   6 H :    0.026077
   7 H :    0.027476
   8 H :    0.027915
   9 H :    0.006238
  10 H :    0.021836
  11 H :    0.066472
  12 H :    0.024567
  13 H :    0.014371
  14 H :    0.023216
  15 H :    0.026076

  Mayer bond orders larger than 0.1
B(  0-C ,  1-C ) :   1.0814 B(  0-C ,  6-H ) :   0.9555 B(  0-C ,  7-H ) :   0.9431
B(  0-C ,  8-H ) :   0.9576 B(  1-C ,  2-C ) :   1.0067 B(  1-C ,  4-C ) :   0.9845
B(  1-C ,  5-C ) :   0.9743 B(  2-C ,  3-O ) :   1.0691 B(  2-C ,  9-H ) :   0.9398
B(  2-C , 10-H ) :   0.9303 B(  3-O , 11-H ) :   0.9822 B(  4-C ,  5-C ) :   1.0123
B(  4-C , 12-H ) :   0.9473 B(  4-C , 13-H ) :   0.9376 B(  5-C , 14-H ) :   0.9497
B(  5-C , 15-H ) :   0.9363

FINAL SINGLE POINT ENERGY      -271.184482605092

DIPOLE MOMENT
-------------
                                X             Y             Z
Electronic contribution:      3.15173       0.26360       1.95863
Nuclear contribution   :     -3.43820      -0.72323      -2.07750
                        -----------------------------------------
Total Dipole Moment    :     -0.28647      -0.45962      -0.11888
                        -----------------------------------------
Magnitude (a.u.)       :      0.55448
Magnitude (Debye)      :      1.40939

                             ****ORCA TERMINATED NORMALLY****
TOTAL RUN TIME: 0 days 0 hours 0 minutes 6 seconds 722 msec
