                         Program Version 3.0.3 - RELEASE   -
|  1> ! RI PBE def2-SVP def2-SVP/J NBO PAL2
|  2> % maxcore 2000
|  3> % output
|  4>     # printlevel mini
|  5>     print[ P_Basis ] 0
|  6>     print[ P_SCFInfo ] 1
|  7>     print[ P_SCFIterInfo ] 1
|  8>     print[ P_OrbEn ] 0
|  9>     print[ P_Cartesian ] 0
| 10> end
| 11> *xyz 0 1
| 12>  C        1.0963920000    -0.0344210000    -0.0606690000
| 13>  C        2.5928190000    -0.0307460000     0.0919060000
| 14>  C        3.1753010000     1.1508960000     0.8669170000
| 15>  O        4.2698720000     0.6016000000     1.5795330000
| 16>  C        4.2853650000    -0.7824550000     1.3167060000
| 17>  O        3.0086110000    -1.1327230000     0.8838160000
| 18>  H        0.7726710000     0.8311550000    -0.6433130000
| 19>  H        0.6163810000     0.0047260000     0.9194200000
| 20>  H        0.7628880000    -0.9361130000    -0.5765580000
| 21>  H        3.0779160000    -0.0979160000    -0.8945560000
| 22>  H        2.4458500000     1.5567460000     1.5773950000
| 23>  H        3.5184140000     1.9547610000     0.2089810000
| 24>  H        4.5169230000    -1.3316610000     2.2318490000
| 25>  H        5.0352090000    -1.0021700000     0.5377440000
| 26> *
| 27>
| 28>                          ****END OF INPUT****
 Total Charge           Charge          ....    0
 Multiplicity           Mult            ....    1
 Number of Electrons    NEL             ....   48
 Basis Dimension        Dim             ....  124

MULLIKEN ATOMIC CHARGES
-----------------------
   0 C :    0.034119
   1 C :   -0.037569
   2 C :    0.241579
   3 O :   -0.370055
   4 C :    0.353296
   5 O :   -0.333160
   6 H :    0.027892
   7 H :    0.028609
   8 H :    0.036339
   9 H :    0.004221
  10 H :    0.000661
  11 H :    0.008980
  12 H :    0.020686
  13 H :   -0.015597
Sum of atomic charges:   -0.0000000

LOEWDIN ATOMIC CHARGES
----------------------
   0 C :   -0.063988
   1 C :    0.031627
   2 C :    0.056653
   3 O :   -0.164682
   4 C :    0.138703
   5 O :   -0.138695
   6 H :    0.035317
   7 H :    0.031623
   8 H :    0.035763
   9 H :    0.010101
  10 H :    0.011562
  11 H :    0.015485
  12 H :    0.013032
  13 H :   -0.012499

  Mayer bond orders larger than 0.1
B(  0-C ,  1-C ) :   1.0960 B(  0-C ,  6-H ) :   0.9546 B(  0-C ,  7-H ) :   0.9481
B(  0-C ,  8-H ) :   0.9541 B(  1-C ,  2-C ) :   1.0639 B(  1-C ,  5-O ) :   0.9980
B(  1-C ,  9-H ) :   0.9058 B(  2-C ,  3-O ) :   1.0163 B(  2-C , 10-H ) :   0.9299
B(  2-C , 11-H ) :   0.9281 B(  3-O ,  4-C ) :   1.0248 B(  4-C ,  5-O ) :   1.0580
B(  4-C , 12-H ) :   0.9502 B(  4-C , 13-H ) :   0.9298

FINAL SINGLE POINT ENERGY      -307.063589652152

DIPOLE MOMENT
-------------
                                X             Y             Z
Electronic contribution:      3.34783      -1.08114       2.28711
Nuclear contribution   :     -3.62924       1.24187      -2.74575
                        -----------------------------------------
Total Dipole Moment    :     -0.28142       0.16073      -0.45865
                        -----------------------------------------
Magnitude (a.u.)       :      0.56159
Magnitude (Debye)      :      1.42746

                             ****ORCA TERMINATED NORMALLY****
TOTAL RUN TIME: 0 days 0 hours 0 minutes 5 seconds 602 msec
