                         Program Version 3.0.3 - RELEASE   -
|  1> ! RI PBE def2-SVP def2-SVP/J NBO PAL2
|  2> % maxcore 2000
|  3> % output
|  4>     # printlevel mini
|  5>     print[ P_Basis ] 0
|  6>     print[ P_SCFInfo ] 1
|  7>     print[ P_SCFIterInfo ] 1
|  8>     print[ P_OrbEn ] 0
|  9>     print[ P_Cartesian ] 0
| 10> end
| 11> *xyz 0 1
| 12>  C        1.0830540000    -0.1596640000     0.0979930000
| 13>  C        2.3880060000    -0.0815800000    -0.1177590000
| 14>  C        3.2871430000     1.1177770000    -0.0222410000
| 15>  O        4.5704880000     0.6333050000    -0.3559440000
| 16>  C        4.4918180000    -0.7354690000    -0.6309960000
| 17>  O        3.1508920000    -1.1416210000    -0.4794620000
| 18>  H        0.5323890000     0.7252520000     0.3844550000
| 19>  H        0.5506570000    -1.0947020000    -0.0063190000
| 20>  H        3.2965860000     1.5370610000     0.9891240000
| 21>  H        2.9898540000     1.9035280000    -0.7242820000
| 22>  H        5.1161830000    -1.3005610000     0.0718370000
| 23>  H        4.8092500000    -0.9341160000    -1.6619160000
| 24> *
| 25>
| 26>                          ****END OF INPUT****
 Total Charge           Charge          ....    0
 Multiplicity           Mult            ....    1
 Number of Electrons    NEL             ....   46
 Basis Dimension        Dim             ....  114

MULLIKEN ATOMIC CHARGES
-----------------------
   0 C :   -0.081904
   1 C :   -0.048100
   2 C :    0.245602
   3 O :   -0.358500
   4 C :    0.357121
   5 O :   -0.266031
   6 H :    0.011929
   7 H :    0.024926
   8 H :    0.034877
   9 H :    0.039064
  10 H :    0.023376
  11 H :    0.017640
Sum of atomic charges:   -0.0000000

LOEWDIN ATOMIC CHARGES
----------------------
   0 C :   -0.144748
   1 C :    0.009677
   2 C :    0.064404
   3 O :   -0.150941
   4 C :    0.162120
   5 O :   -0.071025
   6 H :    0.030173
   7 H :    0.031795
   8 H :    0.027596
   9 H :    0.028262
  10 H :    0.006791
  11 H :    0.005895

  Mayer bond orders larger than 0.1
B(  0-C ,  1-C ) :   1.9287 B(  0-C ,  6-H ) :   0.9304 B(  0-C ,  7-H ) :   0.9284
B(  1-C ,  2-C ) :   1.0116 B(  1-C ,  5-O ) :   1.1221 B(  2-C ,  3-O ) :   1.0049
B(  2-C ,  8-H ) :   0.9249 B(  2-C ,  9-H ) :   0.9258 B(  3-O ,  4-C ) :   1.0398
B(  4-C ,  5-O ) :   0.9954 B(  4-C , 10-H ) :   0.9431 B(  4-C , 11-H ) :   0.9420

FINAL SINGLE POINT ENERGY      -305.846330397250

DIPOLE MOMENT
-------------
                                X             Y             Z
Electronic contribution:      1.92502      -0.97257      -0.55278
Nuclear contribution   :     -1.80744       1.14499       0.57168
                        -----------------------------------------
Total Dipole Moment    :      0.11758       0.17242       0.01890
                        -----------------------------------------
Magnitude (a.u.)       :      0.20955
Magnitude (Debye)      :      0.53264

                             ****ORCA TERMINATED NORMALLY****
TOTAL RUN TIME: 0 days 0 hours 0 minutes 5 seconds 329 msec
