                         Program Version 3.0.3 - RELEASE   -
|  1> ! RI PBE def2-SVP def2-SVP/J NBO PAL2
|  2> % maxcore 2000
|  3> % output
|  4>     # printlevel mini
|  5>     print[ P_Basis ] 0
|  6>     print[ P_SCFInfo ] 1
|  7>     print[ P_SCFIterInfo ] 1
|  8>     print[ P_OrbEn ] 0
|  9>     print[ P_Cartesian ] 0
| 10> end
| 11> *xyz 0 1
| 12>  C        1.1082280000     0.1304330000     0.0957100000
| 13>  C        2.5678920000     0.0013940000    -0.0514930000
| 14>  C        3.3885980000    -1.0365100000    -0.0976550000
| 15>  O        4.6967870000    -0.6324760000    -0.2491740000
| 16>  C        4.6492260000     0.7821680000    -0.2981220000
| 17>  O        3.2921030000     1.1708190000    -0.1711910000
| 18>  H        0.6497030000    -0.8546830000     0.1807350000
| 19>  H        0.6736610000     0.6453240000    -0.7661170000
| 20>  H        0.8563900000     0.7116330000     0.9876150000
| 21>  H        3.2051510000    -2.0952310000    -0.0384140000
| 22>  H        5.0456840000     1.1336460000    -1.2592880000
| 23>  H        5.2326960000     1.2018830000     0.5312950000
| 24> *
| 25>
| 26>                          ****END OF INPUT****
 Total Charge           Charge          ....    0
 Multiplicity           Mult            ....    1
 Number of Electrons    NEL             ....   46
 Basis Dimension        Dim             ....  114

MULLIKEN ATOMIC CHARGES
-----------------------
   0 C :    0.092798
   1 C :   -0.029922
   2 C :    0.042668
   3 O :   -0.297967
   4 C :    0.352900
   5 O :   -0.305813
   6 H :    0.022143
   7 H :    0.039226
   8 H :    0.038408
   9 H :    0.008970
  10 H :    0.016248
  11 H :    0.020341
Sum of atomic charges:   -0.0000000

LOEWDIN ATOMIC CHARGES
----------------------
   0 C :   -0.059327
   1 C :   -0.023936
   2 C :   -0.029085
   3 O :   -0.109150
   4 C :    0.174458
   5 O :   -0.110263
   6 H :    0.042661
   7 H :    0.041004
   8 H :    0.040873
   9 H :    0.024995
  10 H :    0.003456
  11 H :    0.004314

  Mayer bond orders larger than 0.1
B(  0-C ,  1-C ) :   1.1258 B(  0-C ,  6-H ) :   0.9474 B(  0-C ,  7-H ) :   0.9330
B(  0-C ,  8-H ) :   0.9321 B(  1-C ,  2-C ) :   1.7249 B(  1-C ,  3-O ) :   0.1069
B(  1-C ,  5-O ) :   1.0463 B(  2-C ,  3-O ) :   1.0345 B(  2-C ,  9-H ) :   0.9898
B(  3-O ,  4-C ) :   1.0159 B(  4-C ,  5-O ) :   1.0115 B(  4-C , 10-H ) :   0.9432
B(  4-C , 11-H ) :   0.9441

FINAL SINGLE POINT ENERGY      -305.849696322618

DIPOLE MOMENT
-------------
                                X             Y             Z
Electronic contribution:      3.56834      -0.22982      -0.36039
Nuclear contribution   :     -3.87371       0.18603       0.39586
                        -----------------------------------------
Total Dipole Moment    :     -0.30536      -0.04379       0.03547
                        -----------------------------------------
Magnitude (a.u.)       :      0.31052
Magnitude (Debye)      :      0.78927

                             ****ORCA TERMINATED NORMALLY****
TOTAL RUN TIME: 0 days 0 hours 0 minutes 5 seconds 295 msec
