                         Program Version 3.0.3 - RELEASE   -
|  1> ! RI PBE def2-SVP def2-SVP/J NBO PAL2
|  2> % maxcore 2000
|  3> % output
|  4>     # printlevel mini
|  5>     print[ P_Basis ] 0
|  6>     print[ P_SCFInfo ] 1
|  7>     print[ P_SCFIterInfo ] 1
|  8>     print[ P_OrbEn ] 0
|  9>     print[ P_Cartesian ] 0
| 10> end
| 11> *xyz 0 1
| 12>  C        1.0267460000    -0.5539400000     0.0644330000
| 13>  C        2.4375860000    -0.0439640000     0.0875560000
| 14>  C        3.0688190000     0.1256140000     1.4492750000
| 15>  O        3.1740090000    -1.0855560000     2.1659050000
| 16>  C        3.3057710000    -0.2153560000    -1.0730620000
| 17>  O        2.7125150000     1.0447510000    -0.7885160000
| 18>  H        0.9734760000    -1.5673340000     0.4706590000
| 19>  H        0.6441800000    -0.5758250000    -0.9563940000
| 20>  H        0.3746800000     0.0928040000     0.6594280000
| 21>  H        2.5000750000     0.8767910000     2.0151380000
| 22>  H        4.0826110000     0.5100820000     1.3232990000
| 23>  H        2.3117350000    -1.3111520000     2.5215180000
| 24>  H        2.9225980000    -0.7164850000    -1.9589200000
| 25>  H        4.3832900000    -0.2650390000    -0.9352190000
| 26> *
| 27>
| 28>                          ****END OF INPUT****
 Total Charge           Charge          ....    0
 Multiplicity           Mult            ....    1
 Number of Electrons    NEL             ....   48
 Basis Dimension        Dim             ....  124

MULLIKEN ATOMIC CHARGES
-----------------------
   0 C :    0.091796
   1 C :   -0.231578
   2 C :    0.271030
   3 O :   -0.283092
   4 C :    0.176477
   5 O :   -0.290312
   6 H :    0.018848
   7 H :    0.020167
   8 H :    0.022088
   9 H :    0.005420
  10 H :   -0.001732
  11 H :    0.156241
  12 H :    0.018045
  13 H :    0.026602
Sum of atomic charges:   -0.0000000

LOEWDIN ATOMIC CHARGES
----------------------
   0 C :   -0.064134
   1 C :   -0.015004
   2 C :    0.056554
   3 O :   -0.116073
   4 C :    0.061142
   5 O :   -0.153183
   6 H :    0.030331
   7 H :    0.037176
   8 H :    0.031745
   9 H :    0.010523
  10 H :    0.024843
  11 H :    0.067106
  12 H :    0.013554
  13 H :    0.015420

  Mayer bond orders larger than 0.1
B(  0-C ,  1-C ) :   1.0675 B(  0-C ,  6-H ) :   0.9450 B(  0-C ,  7-H ) :   0.9366
B(  0-C ,  8-H ) :   0.9491 B(  1-C ,  2-C ) :   1.0005 B(  1-C ,  4-C ) :   1.0942
B(  1-C ,  5-O ) :   0.9509 B(  2-C ,  3-O ) :   1.0770 B(  2-C ,  9-H ) :   0.9289
B(  2-C , 10-H ) :   0.9104 B(  3-O , 11-H ) :   0.9836 B(  4-C ,  5-O ) :   0.9996
B(  4-C , 12-H ) :   0.9279 B(  4-C , 13-H ) :   0.9253

FINAL SINGLE POINT ENERGY      -307.037595935395

DIPOLE MOMENT
-------------
                                X             Y             Z
Electronic contribution:      2.06679       1.33212      -0.09701
Nuclear contribution   :     -2.57424      -1.75698       0.26794
                        -----------------------------------------
Total Dipole Moment    :     -0.50746      -0.42485       0.17093
                        -----------------------------------------
Magnitude (a.u.)       :      0.68354
Magnitude (Debye)      :      1.73742

                             ****ORCA TERMINATED NORMALLY****
TOTAL RUN TIME: 0 days 0 hours 0 minutes 5 seconds 973 msec
