                         Program Version 3.0.3 - RELEASE   -
|  1> ! RI PBE def2-SVP def2-SVP/J NBO PAL2
|  2> % maxcore 2000
|  3> % output
|  4>     # printlevel mini
|  5>     print[ P_Basis ] 0
|  6>     print[ P_SCFInfo ] 1
|  7>     print[ P_SCFIterInfo ] 1
|  8>     print[ P_OrbEn ] 0
|  9>     print[ P_Cartesian ] 0
| 10> end
| 11> *xyz 0 1
| 12>  C        0.9868380000     0.1647800000    -0.1421480000
| 13>  C        2.4782080000     0.2841170000    -0.1047120000
| 14>  O        3.2212080000    -0.3940770000    -1.1115600000
| 15>  C        3.3032430000     1.0325350000    -1.0606180000
| 16>  C        2.7077200000     1.7566730000    -2.2346030000
| 17>  C        4.6382940000     1.5572670000    -0.6089250000
| 18>  H        0.6823050000    -0.8205110000     0.2202440000
| 19>  H        0.5911970000     0.2879550000    -1.1495140000
| 20>  H        0.5293760000     0.9151870000     0.5084760000
| 21>  H        2.9053260000     0.1642640000     0.8931220000
| 22>  H        1.7698300000     1.3081170000    -2.5574510000
| 23>  H        3.4022490000     1.7267440000    -3.0786930000
| 24>  H        2.5277190000     2.8066070000    -1.9883190000
| 25>  H        5.0211100000     0.9710760000     0.2275080000
| 26>  H        4.5607280000     2.6025670000    -0.2979760000
| 27>  H        5.3634680000     1.5029970000    -1.4257300000
| 28> *
| 29>
| 30>                          ****END OF INPUT****
 Total Charge           Charge          ....    0
 Multiplicity           Mult            ....    1
 Number of Electrons    NEL             ....   48
 Basis Dimension        Dim             ....  134

MULLIKEN ATOMIC CHARGES
-----------------------
   0 C :    0.084533
   1 C :    0.015643
   2 O :   -0.290160
   3 C :   -0.176754
   4 C :    0.105617
   5 C :    0.091907
   6 H :    0.027707
   7 H :    0.008433
   8 H :    0.025637
   9 H :    0.000605
  10 H :    0.002050
  11 H :    0.025085
  12 H :    0.022202
  13 H :    0.012006
  14 H :    0.021133
  15 H :    0.024357
Sum of atomic charges:    0.0000000

LOEWDIN ATOMIC CHARGES
----------------------
   0 C :   -0.069016
   1 C :    0.038792
   2 O :   -0.161598
   3 C :    0.007982
   4 C :   -0.060270
   5 C :   -0.059864
   6 H :    0.036136
   7 H :    0.029103
   8 H :    0.035247
   9 H :    0.011075
  10 H :    0.028193
  11 H :    0.034409
  12 H :    0.033683
  13 H :    0.031573
  14 H :    0.032300
  15 H :    0.032256

  Mayer bond orders larger than 0.1
B(  0-C ,  1-C ) :   1.0990 B(  0-C ,  6-H ) :   0.9445 B(  0-C ,  7-H ) :   0.9410
B(  0-C ,  8-H ) :   0.9496 B(  1-C ,  2-O ) :   0.9813 B(  1-C ,  3-C ) :   1.0390
B(  1-C ,  9-H ) :   0.9172 B(  2-O ,  3-C ) :   0.9571 B(  3-C ,  4-C ) :   1.0939
B(  3-C ,  5-C ) :   1.0777 B(  4-C , 10-H ) :   0.9312 B(  4-C , 11-H ) :   0.9449
B(  4-C , 12-H ) :   0.9485 B(  5-C , 13-H ) :   0.9367 B(  5-C , 14-H ) :   0.9508
B(  5-C , 15-H ) :   0.9478

FINAL SINGLE POINT ENERGY      -271.192913655004

DIPOLE MOMENT
-------------
                                X             Y             Z
Electronic contribution:      1.18731      -3.27351       0.03773
Nuclear contribution   :     -1.41430       3.89402       0.20009
                        -----------------------------------------
Total Dipole Moment    :     -0.22699       0.62051       0.23782
                        -----------------------------------------
Magnitude (a.u.)       :      0.70222
Magnitude (Debye)      :      1.78491

                             ****ORCA TERMINATED NORMALLY****
TOTAL RUN TIME: 0 days 0 hours 0 minutes 6 seconds 385 msec
