                         Program Version 3.0.3 - RELEASE   -
|  1> ! RI PBE def2-SVP def2-SVP/J NBO PAL2
|  2> % maxcore 2000
|  3> % output
|  4>     # printlevel mini
|  5>     print[ P_Basis ] 0
|  6>     print[ P_SCFInfo ] 1
|  7>     print[ P_SCFIterInfo ] 1
|  8>     print[ P_OrbEn ] 0
|  9>     print[ P_Cartesian ] 0
| 10> end
| 11> *xyz 0 1
| 12>  C        1.1620140000    -0.1869850000     0.1132510000
| 13>  C        2.6083640000     0.1248230000    -0.0995210000
| 14>  O        3.1689720000    -0.2550520000    -1.3475160000
| 15>  C        3.0707020000     1.1306000000    -1.0667440000
| 16>  C        4.3282500000     1.8821340000    -0.8892290000
| 17>  C        5.5357630000     1.3454400000    -0.9938730000
| 18>  H        1.0271500000    -1.2505620000     0.3261540000
| 19>  H        0.5789570000     0.0606740000    -0.7754950000
| 20>  H        0.7682210000     0.3786040000     0.9616660000
| 21>  H        3.2715540000    -0.0632090000     0.7446880000
| 22>  H        2.2951670000     1.6449880000    -1.6360720000
| 23>  H        4.2125630000     2.9400880000    -0.6654330000
| 24>  H        5.6552520000     0.2953060000    -1.2357870000
| 25>  H        6.4302720000     1.9383530000    -0.8474090000
| 26> *
| 27>
| 28>                          ****END OF INPUT****
 Total Charge           Charge          ....    0
 Multiplicity           Mult            ....    1
 Number of Electrons    NEL             ....   46
 Basis Dimension        Dim             ....  124

MULLIKEN ATOMIC CHARGES
-----------------------
   0 C :    0.060577
   1 C :    0.006936
   2 O :   -0.272042
   3 C :    0.086682
   4 C :   -0.038514
   5 C :   -0.029264
   6 H :    0.036068
   7 H :    0.021461
   8 H :    0.030892
   9 H :    0.017233
  10 H :    0.014036
  11 H :    0.005478
  12 H :    0.034784
  13 H :    0.025674
Sum of atomic charges:   -0.0000000

LOEWDIN ATOMIC CHARGES
----------------------
   0 C :   -0.070792
   1 C :    0.049995
   2 O :   -0.143765
   3 C :    0.037644
   4 C :   -0.050786
   5 C :   -0.049347
   6 H :    0.037616
   7 H :    0.034723
   8 H :    0.036984
   9 H :    0.016317
  10 H :    0.018786
  11 H :    0.030495
  12 H :    0.026588
  13 H :    0.025544

  Mayer bond orders larger than 0.1
B(  0-C ,  1-C ) :   1.0882 B(  0-C ,  6-H ) :   0.9485 B(  0-C ,  7-H ) :   0.9449
B(  0-C ,  8-H ) :   0.9523 B(  1-C ,  2-O ) :   0.9831 B(  1-C ,  3-C ) :   1.0303
B(  1-C ,  9-H ) :   0.9254 B(  2-O ,  3-C ) :   1.0011 B(  3-C ,  4-C ) :   1.0398
B(  3-C , 10-H ) :   0.9153 B(  4-C ,  5-C ) :   1.9841 B(  4-C , 11-H ) :   0.9497
B(  5-C , 12-H ) :   0.9408 B(  5-C , 13-H ) :   0.9451

FINAL SINGLE POINT ENERGY      -269.964473630459

DIPOLE MOMENT
-------------
                                X             Y             Z
Electronic contribution:      1.52051      -0.40389      -1.93748
Nuclear contribution   :     -1.86730       0.78909       2.40776
                        -----------------------------------------
Total Dipole Moment    :     -0.34678       0.38521       0.47027
                        -----------------------------------------
Magnitude (a.u.)       :      0.69986
Magnitude (Debye)      :      1.77890

                             ****ORCA TERMINATED NORMALLY****
TOTAL RUN TIME: 0 days 0 hours 0 minutes 5 seconds 666 msec
