                         Program Version 3.0.3 - RELEASE   -
|  1> ! RI PBE def2-SVP def2-SVP/J NBO PAL2
|  2> % maxcore 2000
|  3> % output
|  4>     # printlevel mini
|  5>     print[ P_Basis ] 0
|  6>     print[ P_SCFInfo ] 1
|  7>     print[ P_SCFIterInfo ] 1
|  8>     print[ P_OrbEn ] 0
|  9>     print[ P_Cartesian ] 0
| 10> end
| 11> *xyz 0 1
| 12>  C        0.8783190000     0.0403170000    -0.0469580000
| 13>  C        2.3615800000     0.1693230000     0.0842200000
| 14>  O        3.1577620000    -0.6385520000    -0.7640230000
| 15>  C        3.1859470000     0.7704630000    -0.9732530000
| 16>  C        4.4111240000     1.4613450000    -0.6817470000
| 17>  C        5.4267370000     2.0605950000    -0.4576310000
| 18>  H        0.5320740000    -0.8720030000     0.4448010000
| 19>  H        0.5849330000    -0.0036230000    -1.0970910000
| 20>  H        0.3776560000     0.8894230000     0.4247630000
| 21>  H        2.7509480000     0.2473860000     1.0984250000
| 22>  H        2.6803710000     1.0955930000    -1.8809350000
| 23>  H        6.3309590000     2.5841220000    -0.2543600000
| 24> *
| 25>
| 26>                          ****END OF INPUT****
 Total Charge           Charge          ....    0
 Multiplicity           Mult            ....    1
 Number of Electrons    NEL             ....   44
 Basis Dimension        Dim             ....  114

MULLIKEN ATOMIC CHARGES
-----------------------
   0 C :    0.069092
   1 C :    0.006971
   2 O :   -0.258797
   3 C :    0.018958
   4 C :    0.441293
   5 C :   -0.446356
   6 H :    0.037841
   7 H :    0.018493
   8 H :    0.036527
   9 H :    0.027287
  10 H :    0.039568
  11 H :    0.009121
Sum of atomic charges:   -0.0000000

LOEWDIN ATOMIC CHARGES
----------------------
   0 C :   -0.066204
   1 C :    0.054783
   2 O :   -0.136138
   3 C :    0.030984
   4 C :   -0.028602
   5 C :   -0.058287
   6 H :    0.038892
   7 H :    0.034523
   8 H :    0.039237
   9 H :    0.021107
  10 H :    0.031998
  11 H :    0.037706

  Mayer bond orders larger than 0.1
B(  0-C ,  1-C ) :   1.0800 B(  0-C ,  6-H ) :   0.9492 B(  0-C ,  7-H ) :   0.9448
B(  0-C ,  8-H ) :   0.9522 B(  1-C ,  2-O ) :   0.9791 B(  1-C ,  3-C ) :   1.0243
B(  1-C ,  9-H ) :   0.9337 B(  2-O ,  3-C ) :   1.0127 B(  3-C ,  4-C ) :   0.9436
B(  3-C , 10-H ) :   0.9182 B(  4-C ,  5-C ) :   2.3246 B(  5-C , 11-H ) :   1.0879

FINAL SINGLE POINT ENERGY      -268.716433414451

DIPOLE MOMENT
-------------
                                X             Y             Z
Electronic contribution:      4.86922       0.08643      -1.21073
Nuclear contribution   :     -5.33574       0.39987       1.44391
                        -----------------------------------------
Total Dipole Moment    :     -0.46652       0.48630       0.23318
                        -----------------------------------------
Magnitude (a.u.)       :      0.71309
Magnitude (Debye)      :      1.81254

                             ****ORCA TERMINATED NORMALLY****
TOTAL RUN TIME: 0 days 0 hours 0 minutes 5 seconds 509 msec
