                         Program Version 3.0.3 - RELEASE   -
|  1> ! RI PBE def2-SVP def2-SVP/J NBO PAL2
|  2> % maxcore 2000
|  3> % output
|  4>     # printlevel mini
|  5>     print[ P_Basis ] 0
|  6>     print[ P_SCFInfo ] 1
|  7>     print[ P_SCFIterInfo ] 1
|  8>     print[ P_OrbEn ] 0
|  9>     print[ P_Cartesian ] 0
| 10> end
| 11> *xyz 0 1
| 12>  C        1.0212270000    -0.0597590000    -0.0724970000
| 13>  C        2.4951080000     0.1432390000     0.0734600000
| 14>  O        3.3387940000    -0.7391210000    -0.6636480000
| 15>  C        3.3352960000     0.6368240000    -1.0113950000
| 16>  C        4.6183240000     1.3777780000    -0.7584970000
| 17>  O        4.4412350000     2.7779640000    -0.7826850000
| 18>  H        0.6926160000    -0.9276400000     0.5044980000
| 19>  H        0.7558420000    -0.2238090000    -1.1184110000
| 20>  H        0.4784350000     0.8151450000     0.2943740000
| 21>  H        2.8493030000     0.3308350000     1.0873340000
| 22>  H        2.8491840000     0.8555050000    -1.9650980000
| 23>  H        5.3775710000     1.0559580000    -1.4842380000
| 24>  H        4.9896400000     1.1220330000     0.2361540000
| 25>  H        4.2905540000     3.0542380000    -1.6897400000
| 26> *
| 27>
| 28>                          ****END OF INPUT****
 Total Charge           Charge          ....    0
 Multiplicity           Mult            ....    1
 Number of Electrons    NEL             ....   48
 Basis Dimension        Dim             ....  124

MULLIKEN ATOMIC CHARGES
-----------------------
   0 C :    0.073535
   1 C :   -0.008567
   2 O :   -0.283462
   3 C :   -0.014074
   4 C :    0.264173
   5 O :   -0.289242
   6 H :    0.032405
   7 H :    0.013938
   8 H :    0.033119
   9 H :    0.016111
  10 H :   -0.001199
  11 H :    0.008703
  12 H :   -0.000047
  13 H :    0.154606
Sum of atomic charges:   -0.0000000

LOEWDIN ATOMIC CHARGES
----------------------
   0 C :   -0.067288
   1 C :    0.041368
   2 O :   -0.155630
   3 C :    0.015366
   4 C :    0.049503
   5 O :   -0.118209
   6 H :    0.035920
   7 H :    0.032877
   8 H :    0.037485
   9 H :    0.015502
  10 H :    0.007503
  11 H :    0.011512
  12 H :    0.025040
  13 H :    0.069052

  Mayer bond orders larger than 0.1
B(  0-C ,  1-C ) :   1.0847 B(  0-C ,  6-H ) :   0.9498 B(  0-C ,  7-H ) :   0.9451
B(  0-C ,  8-H ) :   0.9530 B(  1-C ,  2-O ) :   0.9798 B(  1-C ,  3-C ) :   1.0584
B(  1-C ,  9-H ) :   0.9280 B(  2-O ,  3-C ) :   0.9840 B(  3-C ,  4-C ) :   1.0119
B(  3-C , 10-H ) :   0.9154 B(  4-C ,  5-O ) :   1.0529 B(  4-C , 11-H ) :   0.9272
B(  4-C , 12-H ) :   0.9194 B(  5-O , 13-H ) :   0.9857

FINAL SINGLE POINT ENERGY      -307.038127284047

DIPOLE MOMENT
-------------
                                X             Y             Z
Electronic contribution:      2.98235       0.06621      -0.61638
Nuclear contribution   :     -3.32747       0.26723       0.25162
                        -----------------------------------------
Total Dipole Moment    :     -0.34512       0.33344      -0.36476
                        -----------------------------------------
Magnitude (a.u.)       :      0.60278
Magnitude (Debye)      :      1.53215

                             ****ORCA TERMINATED NORMALLY****
TOTAL RUN TIME: 0 days 0 hours 0 minutes 5 seconds 852 msec
