                         Program Version 3.0.3 - RELEASE   -
|  1> ! RI PBE def2-SVP def2-SVP/J NBO PAL2
|  2> % maxcore 2000
|  3> % output
|  4>     # printlevel mini
|  5>     print[ P_Basis ] 0
|  6>     print[ P_SCFInfo ] 1
|  7>     print[ P_SCFIterInfo ] 1
|  8>     print[ P_OrbEn ] 0
|  9>     print[ P_Cartesian ] 0
| 10> end
| 11> *xyz 0 1
| 12>  C        0.9102640000     0.0903560000    -0.0278680000
| 13>  C        2.3855000000     0.2517740000     0.1534000000
| 14>  O        3.2305000000    -0.6736770000    -0.4937120000
| 15>  C        3.2533570000     0.6692380000    -0.9603660000
| 16>  C        4.4917570000     1.4257690000    -0.6533990000
| 17>  O        4.8640890000     2.3793330000    -1.2792290000
| 18>  H        0.5347900000    -0.7064840000     0.6185120000
| 19>  H        0.6732010000    -0.1627730000    -1.0620190000
| 20>  H        0.3914820000     1.0144320000     0.2375910000
| 21>  H        2.7165440000     0.5095020000     1.1601340000
| 22>  H        2.8110310000     0.8495080000    -1.9371940000
| 23>  H        5.0528850000     1.0372320000     0.2241590000
| 24> *
| 25>
| 26>                          ****END OF INPUT****
 Total Charge           Charge          ....    0
 Multiplicity           Mult            ....    1
 Number of Electrons    NEL             ....   46
 Basis Dimension        Dim             ....  114

MULLIKEN ATOMIC CHARGES
-----------------------
   0 C :    0.070337
   1 C :   -0.007593
   2 O :   -0.260042
   3 C :    0.040395
   4 C :    0.162876
   5 O :   -0.150866
   6 H :    0.043626
   7 H :    0.023879
   8 H :    0.040250
   9 H :    0.026996
  10 H :    0.023384
  11 H :   -0.013243
Sum of atomic charges:   -0.0000000

LOEWDIN ATOMIC CHARGES
----------------------
   0 C :   -0.063425
   1 C :    0.054668
   2 O :   -0.129273
   3 C :    0.008836
   4 C :    0.074808
   5 O :   -0.100128
   6 H :    0.040764
   7 H :    0.037472
   8 H :    0.041425
   9 H :    0.017562
  10 H :    0.025301
  11 H :   -0.008009

  Mayer bond orders larger than 0.1
B(  0-C ,  1-C ) :   1.0895 B(  0-C ,  6-H ) :   0.9513 B(  0-C ,  7-H ) :   0.9449
B(  0-C ,  8-H ) :   0.9512 B(  1-C ,  2-O ) :   0.9829 B(  1-C ,  3-C ) :   0.9704
B(  1-C ,  9-H ) :   0.9318 B(  2-O ,  3-C ) :   0.9629 B(  3-C ,  4-C ) :   0.9677
B(  3-C , 10-H ) :   0.9306 B(  4-C ,  5-O ) :   2.1663 B(  4-C , 11-H ) :   0.9131

FINAL SINGLE POINT ENERGY      -305.843998518170

DIPOLE MOMENT
-------------
                                X             Y             Z
Electronic contribution:      5.56407       1.27072      -1.84579
Nuclear contribution   :     -6.48914      -1.47659       2.35150
                        -----------------------------------------
Total Dipole Moment    :     -0.92506      -0.20587       0.50572
                        -----------------------------------------
Magnitude (a.u.)       :      1.07419
Magnitude (Debye)      :      2.73036

                             ****ORCA TERMINATED NORMALLY****
TOTAL RUN TIME: 0 days 0 hours 0 minutes 5 seconds 247 msec
