                         Program Version 3.0.3 - RELEASE   -
|  1> ! RI PBE def2-SVP def2-SVP/J NBO PAL2
|  2> % maxcore 2000
|  3> % output
|  4>     # printlevel mini
|  5>     print[ P_Basis ] 0
|  6>     print[ P_SCFInfo ] 1
|  7>     print[ P_SCFIterInfo ] 1
|  8>     print[ P_OrbEn ] 0
|  9>     print[ P_Cartesian ] 0
| 10> end
| 11> *xyz 0 1
| 12>  C        1.0733550000    -0.0358010000     0.0470960000
| 13>  C        2.5682790000    -0.1523470000    -0.0124370000
| 14>  O        3.2552010000     0.8885990000     0.7095200000
| 15>  C        4.1924350000    -0.0509710000     1.2481500000
| 16>  C        3.3003450000    -1.2185280000     0.8182980000
| 17>  O        3.8510380000    -2.3369330000     0.1972940000
| 18>  H        0.7368580000     0.8822190000    -0.4400560000
| 19>  H        0.7298260000    -0.0211920000     1.0837270000
| 20>  H        0.6110500000    -0.8834110000    -0.4656180000
| 21>  H        2.9134620000    -0.1767070000    -1.0593520000
| 22>  H        4.3746360000     0.1049830000     2.3141800000
| 23>  H        5.1506060000    -0.0302370000     0.7084900000
| 24>  H        2.6798650000    -1.5928360000     1.6347580000
| 25>  H        4.4152440000    -2.0415490000    -0.5235580000
| 26> *
| 27>
| 28>                          ****END OF INPUT****
 Total Charge           Charge          ....    0
 Multiplicity           Mult            ....    1
 Number of Electrons    NEL             ....   48
 Basis Dimension        Dim             ....  124

MULLIKEN ATOMIC CHARGES
-----------------------
   0 C :    0.054982
   1 C :    0.061988
   2 O :   -0.348526
   3 C :    0.226597
   4 C :    0.013482
   5 O :   -0.235471
   6 H :    0.033203
   7 H :    0.014664
   8 H :    0.028766
   9 H :   -0.019344
  10 H :    0.020442
  11 H :   -0.014547
  12 H :    0.009476
  13 H :    0.154290
Sum of atomic charges:    0.0000000

LOEWDIN ATOMIC CHARGES
----------------------
   0 C :   -0.069719
   1 C :    0.043242
   2 O :   -0.178069
   3 C :    0.063747
   4 C :    0.024331
   5 O :   -0.093728
   6 H :    0.035462
   7 H :    0.027551
   8 H :    0.036967
   9 H :    0.003606
  10 H :    0.013745
  11 H :    0.002739
  12 H :    0.024566
  13 H :    0.065560

  Mayer bond orders larger than 0.1
B(  0-C ,  1-C ) :   1.1037 B(  0-C ,  6-H ) :   0.9519 B(  0-C ,  7-H ) :   0.9476
B(  0-C ,  8-H ) :   0.9489 B(  1-C ,  2-O ) :   1.0316 B(  1-C ,  4-C ) :   1.0076
B(  1-C ,  9-H ) :   0.8920 B(  2-O ,  3-C ) :   1.0303 B(  3-C ,  4-C ) :   1.0542
B(  3-C , 10-H ) :   0.9374 B(  3-C , 11-H ) :   0.9126 B(  4-C ,  5-O ) :   1.1246
B(  4-C , 12-H ) :   0.9030 B(  5-O , 13-H ) :   0.9732

FINAL SINGLE POINT ENERGY      -307.043100788096

DIPOLE MOMENT
-------------
                                X             Y             Z
Electronic contribution:      2.72678      -0.40657       0.36207
Nuclear contribution   :     -2.64303       0.25526      -0.61452
                        -----------------------------------------
Total Dipole Moment    :      0.08376      -0.15131      -0.25245
                        -----------------------------------------
Magnitude (a.u.)       :      0.30601
Magnitude (Debye)      :      0.77782

                             ****ORCA TERMINATED NORMALLY****
TOTAL RUN TIME: 0 days 0 hours 0 minutes 5 seconds 934 msec
