                         Program Version 3.0.3 - RELEASE   -
|  1> ! RI PBE def2-SVP def2-SVP/J NBO PAL2
|  2> % maxcore 2000
|  3> % output
|  4>     # printlevel mini
|  5>     print[ P_Basis ] 0
|  6>     print[ P_SCFInfo ] 1
|  7>     print[ P_SCFIterInfo ] 1
|  8>     print[ P_OrbEn ] 0
|  9>     print[ P_Cartesian ] 0
| 10> end
| 11> *xyz 0 1
| 12>  C        0.9297820000     0.0935190000    -0.2339120000
| 13>  C        2.4207950000    -0.0243450000    -0.1496420000
| 14>  O        2.9416200000     0.0914400000     1.1486610000
| 15>  C        3.1852560000    -0.8930980000    -1.1142480000
| 16>  C        3.3144620000     0.6083530000    -1.1659610000
| 17>  O        4.4835470000     1.2140390000    -0.7412760000
| 18>  H        0.4401470000    -0.7512810000     0.2610330000
| 19>  H        0.6008050000     0.1068620000    -1.2750330000
| 20>  H        0.5934810000     1.0152370000     0.2466220000
| 21>  H        2.9180170000    -0.7713110000     1.5710780000
| 22>  H        2.6368090000    -1.4082000000    -1.8942800000
| 23>  H        4.0482420000    -1.4208790000    -0.7243910000
| 24>  H        2.8546040000     1.1320470000    -1.9975550000
| 25>  H        4.5000340000     1.1221350000     0.2204940000
| 26> *
| 27>
| 28>                          ****END OF INPUT****
 Total Charge           Charge          ....    0
 Multiplicity           Mult            ....    1
 Number of Electrons    NEL             ....   48
 Basis Dimension        Dim             ....  124

MULLIKEN ATOMIC CHARGES
-----------------------
   0 C :    0.119367
   1 C :   -0.139872
   2 O :   -0.250911
   3 C :   -0.014699
   4 C :    0.087826
   5 O :   -0.226464
   6 H :    0.010904
   7 H :    0.004848
   8 H :    0.028116
   9 H :    0.169174
  10 H :    0.024691
  11 H :    0.023106
  12 H :    0.016599
  13 H :    0.147316
Sum of atomic charges:   -0.0000000

LOEWDIN ATOMIC CHARGES
----------------------
   0 C :   -0.059682
   1 C :   -0.015847
   2 O :   -0.084852
   3 C :   -0.081779
   4 C :    0.035406
   5 O :   -0.091663
   6 H :    0.025258
   7 H :    0.031403
   8 H :    0.032909
   9 H :    0.077714
  10 H :    0.026545
  11 H :    0.029001
  12 H :    0.017033
  13 H :    0.058553

  Mayer bond orders larger than 0.1
B(  0-C ,  1-C ) :   1.0752 B(  0-C ,  6-H ) :   0.9464 B(  0-C ,  7-H ) :   0.9364
B(  0-C ,  8-H ) :   0.9517 B(  1-C ,  2-O ) :   1.0708 B(  1-C ,  3-C ) :   0.9683
B(  1-C ,  4-C ) :   0.9035 B(  2-O ,  9-H ) :   0.9742 B(  3-C ,  4-C ) :   0.9295
B(  3-C , 10-H ) :   0.9284 B(  3-C , 11-H ) :   0.9236 B(  4-C ,  5-O ) :   1.1703
B(  4-C , 12-H ) :   0.9514 B(  5-O , 13-H ) :   0.9541

FINAL SINGLE POINT ENERGY      -307.046989600854

DIPOLE MOMENT
-------------
                                X             Y             Z
Electronic contribution:      3.75521       1.65982       1.23441
Nuclear contribution   :     -4.32808      -2.37650      -0.87546
                        -----------------------------------------
Total Dipole Moment    :     -0.57287      -0.71668       0.35894
                        -----------------------------------------
Magnitude (a.u.)       :      0.98522
Magnitude (Debye)      :      2.50422

                             ****ORCA TERMINATED NORMALLY****
TOTAL RUN TIME: 0 days 0 hours 0 minutes 5 seconds 579 msec
