                         Program Version 3.0.3 - RELEASE   -
|  1> ! RI PBE def2-SVP def2-SVP/J NBO PAL2
|  2> % maxcore 2000
|  3> % output
|  4>     # printlevel mini
|  5>     print[ P_Basis ] 0
|  6>     print[ P_SCFInfo ] 1
|  7>     print[ P_SCFIterInfo ] 1
|  8>     print[ P_OrbEn ] 0
|  9>     print[ P_Cartesian ] 0
| 10> end
| 11> *xyz 0 1
| 12>  C        1.0555260000    -0.0098230000     0.1999640000
| 13>  C        2.5389480000    -0.1621630000    -0.0060670000
| 14>  O        3.3312250000     0.8851330000     0.5949030000
| 15>  C        4.1075280000    -0.0174240000     1.3923270000
| 16>  C        3.2809750000    -1.1756930000     0.8596750000
| 17>  O        3.2159210000    -2.3475270000     1.0490580000
| 18>  H        0.6933920000     0.8829570000    -0.3133920000
| 19>  H        0.8147390000     0.0770640000     1.2610200000
| 20>  H        0.5353890000    -0.8792880000    -0.2081730000
| 21>  H        2.7827710000    -0.2725700000    -1.0713790000
| 22>  H        4.0205540000     0.1737640000     2.4670960000
| 23>  H        5.1655430000    -0.0426010000     1.1074790000
| 24> *
| 25>
| 26>                          ****END OF INPUT****
 Total Charge           Charge          ....    0
 Multiplicity           Mult            ....    1
 Number of Electrons    NEL             ....   46
 Basis Dimension        Dim             ....  114

MULLIKEN ATOMIC CHARGES
-----------------------
   0 C :    0.058851
   1 C :    0.008363
   2 O :   -0.339741
   3 C :    0.163993
   4 C :   -0.033391
   5 O :   -0.100102
   6 H :    0.043382
   7 H :    0.018300
   8 H :    0.039856
   9 H :    0.040564
  10 H :    0.050531
  11 H :    0.049393
Sum of atomic charges:    0.0000000

LOEWDIN ATOMIC CHARGES
----------------------
   0 C :   -0.060394
   1 C :    0.026129
   2 O :   -0.175817
   3 C :    0.045471
   4 C :    0.041665
   5 O :   -0.080100
   6 H :    0.039094
   7 H :    0.031354
   8 H :    0.041676
   9 H :    0.029253
  10 H :    0.030708
  11 H :    0.030961

  Mayer bond orders larger than 0.1
B(  0-C ,  1-C ) :   1.0855 B(  0-C ,  6-H ) :   0.9554 B(  0-C ,  7-H ) :   0.9524
B(  0-C ,  8-H ) :   0.9477 B(  1-C ,  2-O ) :   1.0363 B(  1-C ,  4-C ) :   0.9395
B(  1-C ,  9-H ) :   0.8932 B(  2-O ,  3-C ) :   1.0328 B(  3-C ,  4-C ) :   0.9868
B(  3-C , 10-H ) :   0.9233 B(  3-C , 11-H ) :   0.9164 B(  4-C ,  5-O ) :   2.2616

FINAL SINGLE POINT ENERGY      -305.851333107079

DIPOLE MOMENT
-------------
                                X             Y             Z
Electronic contribution:      3.13774      -2.24845       0.70509
Nuclear contribution   :     -3.24126       2.54104      -0.80812
                        -----------------------------------------
Total Dipole Moment    :     -0.10352       0.29259      -0.10304
                        -----------------------------------------
Magnitude (a.u.)       :      0.32702
Magnitude (Debye)      :      0.83122

                             ****ORCA TERMINATED NORMALLY****
TOTAL RUN TIME: 0 days 0 hours 0 minutes 5 seconds 135 msec
