                         Program Version 3.0.3 - RELEASE   -
|  1> ! RI PBE def2-SVP def2-SVP/J NBO PAL2
|  2> % maxcore 2000
|  3> % output
|  4>     # printlevel mini
|  5>     print[ P_Basis ] 0
|  6>     print[ P_SCFInfo ] 1
|  7>     print[ P_SCFIterInfo ] 1
|  8>     print[ P_OrbEn ] 0
|  9>     print[ P_Cartesian ] 0
| 10> end
| 11> *xyz 0 1
| 12>  C        1.0173830000    -0.0086220000    -0.1753080000
| 13>  C        2.3295720000     0.0782810000     0.0458180000
| 14>  O        3.1090090000    -1.0101340000     0.3117260000
| 15>  C        4.4560450000    -0.5992620000     0.5007790000
| 16>  C        4.4305770000     0.8792810000     0.3217690000
| 17>  C        3.1820520000     1.2560920000     0.0571200000
| 18>  H        0.5039160000    -0.9597340000    -0.1535870000
| 19>  H        0.4514440000     0.8883520000    -0.3809790000
| 20>  H        5.0955320000    -1.1077970000    -0.2323300000
| 21>  H        4.7897830000    -0.9031460000     1.5014160000
| 22>  H        5.3052480000     1.5098030000     0.4015890000
| 23>  H        2.8201510000     2.2576070000    -0.1249120000
| 24> *
| 25>
| 26>                          ****END OF INPUT****
 Total Charge           Charge          ....    0
 Multiplicity           Mult            ....    1
 Number of Electrons    NEL             ....   44
 Basis Dimension        Dim             ....  114

MULLIKEN ATOMIC CHARGES
-----------------------
   0 C :   -0.098874
   1 C :    0.108087
   2 O :   -0.279614
   3 C :    0.257828
   4 C :   -0.117675
   5 C :    0.023373
   6 H :    0.020890
   7 H :    0.009035
   8 H :    0.040028
   9 H :    0.034786
  10 H :    0.008574
  11 H :   -0.006438
Sum of atomic charges:   -0.0000000

LOEWDIN ATOMIC CHARGES
----------------------
   0 C :   -0.135785
   1 C :    0.028241
   2 O :   -0.082270
   3 C :    0.081687
   4 C :   -0.040606
   5 C :   -0.031491
   6 H :    0.029053
   7 H :    0.028259
   8 H :    0.029185
   9 H :    0.028080
  10 H :    0.030712
  11 H :    0.034935

  Mayer bond orders larger than 0.1
B(  0-C ,  1-C ) :   1.8364 B(  0-C ,  4-C ) :   0.1096 B(  0-C ,  6-H ) :   0.9275
B(  0-C ,  7-H ) :   0.9289 B(  1-C ,  2-O ) :   1.1079 B(  1-C ,  5-C ) :   1.0418
B(  2-O ,  3-C ) :   0.9914 B(  3-C ,  4-C ) :   1.0407 B(  3-C ,  8-H ) :   0.9213
B(  3-C ,  9-H ) :   0.9206 B(  4-C ,  5-C ) :   1.7444 B(  4-C , 10-H ) :   0.9770
B(  5-C , 11-H ) :   1.0028

FINAL SINGLE POINT ENERGY      -268.787232713266

DIPOLE MOMENT
-------------
                                X             Y             Z
Electronic contribution:      0.32528      -0.79894       0.14762
Nuclear contribution   :      0.37796       1.23433      -0.07900
                        -----------------------------------------
Total Dipole Moment    :      0.70325       0.43539       0.06862
                        -----------------------------------------
Magnitude (a.u.)       :      0.82996
Magnitude (Debye)      :      2.10958

                             ****ORCA TERMINATED NORMALLY****
TOTAL RUN TIME: 0 days 0 hours 0 minutes 5 seconds 682 msec
