                         Program Version 3.0.3 - RELEASE   -
|  1> ! RI PBE def2-SVP def2-SVP/J NBO PAL2
|  2> % maxcore 2000
|  3> % output
|  4>     # printlevel mini
|  5>     print[ P_Basis ] 0
|  6>     print[ P_SCFInfo ] 1
|  7>     print[ P_SCFIterInfo ] 1
|  8>     print[ P_OrbEn ] 0
|  9>     print[ P_Cartesian ] 0
| 10> end
| 11> *xyz 0 1
| 12>  C        0.8821600000    -0.0857800000     0.0159330000
| 13>  C        2.3915010000    -0.0805780000     0.0053050000
| 14>  O        2.8885500000    -0.1666000000    -1.3206150000
| 15>  C        3.1300960000     1.0129540000     0.8161010000
| 16>  C        4.1518490000    -0.0521720000     1.2582750000
| 17>  C        3.1434620000    -1.1375960000     0.8354180000
| 18>  H        0.4869710000     0.7891670000    -0.5119120000
| 19>  H        0.4934360000    -0.0616000000     1.0362990000
| 20>  H        0.5037610000    -0.9821800000    -0.4814440000
| 21>  H        2.5799870000     0.6052030000    -1.8044760000
| 22>  H        2.5238670000     1.3728870000     1.6508330000
| 23>  H        3.4964900000     1.8702350000     0.2470700000
| 24>  H        4.4657020000    -0.0387010000     2.3024260000
| 25>  H        5.0374990000    -0.0545940000     0.6229780000
| 26>  H        2.5385800000    -1.4893250000     1.6736550000
| 27>  H        3.5145090000    -1.9940110000     0.2716640000
| 28> *
| 29>
| 30>                          ****END OF INPUT****
 Total Charge           Charge          ....    0
 Multiplicity           Mult            ....    1
 Number of Electrons    NEL             ....   48
 Basis Dimension        Dim             ....  134

MULLIKEN ATOMIC CHARGES
-----------------------
   0 C :    0.090991
   1 C :   -0.248585
   2 O :   -0.253749
   3 C :    0.104755
   4 C :   -0.019216
   5 C :    0.111686
   6 H :    0.005141
   7 H :    0.003110
   8 H :    0.026008
   9 H :    0.149748
  10 H :   -0.004519
  11 H :   -0.004690
  12 H :    0.006338
  13 H :    0.021006
  14 H :   -0.000940
  15 H :    0.012917
Sum of atomic charges:   -0.0000000

LOEWDIN ATOMIC CHARGES
----------------------
   0 C :   -0.074005
   1 C :    0.018210
   2 O :   -0.106606
   3 C :   -0.043531
   4 C :   -0.032903
   5 C :   -0.030140
   6 H :    0.022697
   7 H :    0.025549
   8 H :    0.030270
   9 H :    0.064156
  10 H :    0.022191
  11 H :    0.014217
  12 H :    0.016325
  13 H :    0.027425
  14 H :    0.023895
  15 H :    0.022250

  Mayer bond orders larger than 0.1
B(  0-C ,  1-C ) :   1.0756 B(  0-C ,  6-H ) :   0.9492 B(  0-C ,  7-H ) :   0.9360
B(  0-C ,  8-H ) :   0.9537 B(  1-C ,  2-O ) :   1.0352 B(  1-C ,  3-C ) :   1.0432
B(  1-C ,  5-C ) :   1.0482 B(  2-O ,  9-H ) :   0.9817 B(  3-C ,  4-C ) :   1.1332
B(  3-C , 10-H ) :   0.9083 B(  3-C , 11-H ) :   0.9166 B(  4-C ,  5-C ) :   1.1382
B(  4-C , 12-H ) :   0.9333 B(  4-C , 13-H ) :   0.9252 B(  5-C , 14-H ) :   0.9169
B(  5-C , 15-H ) :   0.9129

FINAL SINGLE POINT ENERGY      -271.192424072151

DIPOLE MOMENT
-------------
                                X             Y             Z
Electronic contribution:      1.39340      -0.34155      -2.46864
Nuclear contribution   :     -1.71284       0.75212       2.59181
                        -----------------------------------------
Total Dipole Moment    :     -0.31945       0.41057       0.12316
                        -----------------------------------------
Magnitude (a.u.)       :      0.53459
Magnitude (Debye)      :      1.35881

                             ****ORCA TERMINATED NORMALLY****
TOTAL RUN TIME: 0 days 0 hours 0 minutes 6 seconds 503 msec
