                         Program Version 3.0.3 - RELEASE   -
|  1> ! RI PBE def2-SVP def2-SVP/J NBO PAL2
|  2> % maxcore 2000
|  3> % output
|  4>     # printlevel mini
|  5>     print[ P_Basis ] 0
|  6>     print[ P_SCFInfo ] 1
|  7>     print[ P_SCFIterInfo ] 1
|  8>     print[ P_OrbEn ] 0
|  9>     print[ P_Cartesian ] 0
| 10> end
| 11> *xyz 0 1
| 12>  C        0.8987900000     0.0308810000    -0.0739950000
| 13>  C        2.3781750000    -0.0639470000     0.2443950000
| 14>  O        2.6408430000    -1.2416250000     1.0031340000
| 15>  C        3.3769680000    -0.9312530000     2.1715380000
| 16>  C        3.4665280000     0.5582820000     2.1894130000
| 17>  C        2.9087280000     1.0487670000     1.0944100000
| 18>  H        0.5734360000    -0.8599450000    -0.6145320000
| 19>  H        0.6963640000     0.9043850000    -0.6992880000
| 20>  H        0.3157240000     0.1137650000     0.8455890000
| 21>  H        2.9392850000    -0.1220080000    -0.7029770000
| 22>  H        4.3712370000    -1.4015180000     2.1320520000
| 23>  H        2.8601200000    -1.3360380000     3.0519500000
| 24>  H        3.9343720000     1.1206340000     2.9871140000
| 25>  H        2.8322310000     2.0926990000     0.8187970000
| 26> *
| 27>
| 28>                          ****END OF INPUT****
 Total Charge           Charge          ....    0
 Multiplicity           Mult            ....    1
 Number of Electrons    NEL             ....   46
 Basis Dimension        Dim             ....  124

MULLIKEN ATOMIC CHARGES
-----------------------
   0 C :    0.022209
   1 C :    0.132868
   2 O :   -0.360433
   3 C :    0.272120
   4 C :   -0.117487
   5 C :   -0.058817
   6 H :    0.032282
   7 H :    0.015856
   8 H :    0.018363
   9 H :    0.008300
  10 H :    0.015597
  11 H :    0.015268
  12 H :    0.003819
  13 H :    0.000053
Sum of atomic charges:   -0.0000000

LOEWDIN ATOMIC CHARGES
----------------------
   0 C :   -0.070734
   1 C :    0.055825
   2 O :   -0.159069
   3 C :    0.071736
   4 C :   -0.047266
   5 C :   -0.043152
   6 H :    0.032592
   7 H :    0.028370
   8 H :    0.027331
   9 H :    0.015600
  10 H :    0.015646
  11 H :    0.017532
  12 H :    0.027779
  13 H :    0.027812

  Mayer bond orders larger than 0.1
B(  0-C ,  1-C ) :   1.0713 B(  0-C ,  6-H ) :   0.9558 B(  0-C ,  7-H ) :   0.9535
B(  0-C ,  8-H ) :   0.9547 B(  1-C ,  2-O ) :   1.0133 B(  1-C ,  5-C ) :   1.0080
B(  1-C ,  9-H ) :   0.8933 B(  2-O ,  3-C ) :   1.0182 B(  3-C ,  4-C ) :   1.0297
B(  3-C , 10-H ) :   0.9176 B(  3-C , 11-H ) :   0.9232 B(  4-C ,  5-C ) :   1.8695
B(  4-C , 12-H ) :   0.9796 B(  5-C , 13-H ) :   0.9902

FINAL SINGLE POINT ENERGY      -269.990479243676

DIPOLE MOMENT
-------------
                                X             Y             Z
Electronic contribution:      2.15391      -0.98952       0.98191
Nuclear contribution   :     -2.02039       1.50159      -0.83012
                        -----------------------------------------
Total Dipole Moment    :      0.13352       0.51207       0.15178
                        -----------------------------------------
Magnitude (a.u.)       :      0.55053
Magnitude (Debye)      :      1.39933

                             ****ORCA TERMINATED NORMALLY****
TOTAL RUN TIME: 0 days 0 hours 0 minutes 5 seconds 753 msec
