                         Program Version 3.0.3 - RELEASE   -
|  1> ! RI PBE def2-SVP def2-SVP/J NBO PAL2
|  2> % maxcore 2000
|  3> % output
|  4>     # printlevel mini
|  5>     print[ P_Basis ] 0
|  6>     print[ P_SCFInfo ] 1
|  7>     print[ P_SCFIterInfo ] 1
|  8>     print[ P_OrbEn ] 0
|  9>     print[ P_Cartesian ] 0
| 10> end
| 11> *xyz 0 1
| 12>  C        1.0761930000    -0.0893070000     0.0483060000
| 13>  C        2.5751550000    -0.1088600000     0.0896940000
| 14>  O        3.0692860000     0.9543540000     0.8574930000
| 15>  C        4.3750210000     0.5539610000     1.2069690000
| 16>  C        4.2351050000    -0.9575790000     1.4073200000
| 17>  O        3.0448390000    -1.2859230000     0.7124980000
| 18>  H        0.7278320000     0.8244670000    -0.4352720000
| 19>  H        0.6807680000    -0.1349280000     1.0638370000
| 20>  H        0.7114220000    -0.9475240000    -0.5173050000
| 21>  H        3.0041310000    -0.0496740000    -0.9278970000
| 22>  H        4.6784870000     1.0917940000     2.1049760000
| 23>  H        5.0785960000     0.7840220000     0.3953850000
| 24>  H        4.1124930000    -1.2270810000     2.4601390000
| 25>  H        5.0865820000    -1.5099120000     0.9972680000
| 26> *
| 27>
| 28>                          ****END OF INPUT****
 Total Charge           Charge          ....    0
 Multiplicity           Mult            ....    1
 Number of Electrons    NEL             ....   48
 Basis Dimension        Dim             ....  124

MULLIKEN ATOMIC CHARGES
-----------------------
   0 C :    0.045329
   1 C :    0.203883
   2 O :   -0.329828
   3 C :    0.133036
   4 C :    0.171424
   5 O :   -0.350927
   6 H :    0.029133
   7 H :    0.022174
   8 H :    0.032215
   9 H :   -0.019457
  10 H :    0.027778
  11 H :    0.007673
  12 H :    0.017123
  13 H :    0.010444
Sum of atomic charges:   -0.0000000

LOEWDIN ATOMIC CHARGES
----------------------
   0 C :   -0.071756
   1 C :    0.108457
   2 O :   -0.137213
   3 C :    0.047836
   4 C :    0.051741
   5 O :   -0.157364
   6 H :    0.036470
   7 H :    0.032578
   8 H :    0.038179
   9 H :   -0.010826
  10 H :    0.025718
  11 H :    0.008156
  12 H :    0.015452
  13 H :    0.012573

  Mayer bond orders larger than 0.1
B(  0-C ,  1-C ) :   1.0844 B(  0-C ,  6-H ) :   0.9517 B(  0-C ,  7-H ) :   0.9467
B(  0-C ,  8-H ) :   0.9516 B(  1-C ,  2-O ) :   1.0557 B(  1-C ,  5-O ) :   1.0377
B(  1-C ,  9-H ) :   0.9114 B(  2-O ,  3-C ) :   1.0169 B(  3-C ,  4-C ) :   1.0847
B(  3-C , 10-H ) :   0.9472 B(  3-C , 11-H ) :   0.9323 B(  4-C ,  5-O ) :   1.0219
B(  4-C , 12-H ) :   0.9410 B(  4-C , 13-H ) :   0.9373

FINAL SINGLE POINT ENERGY      -307.067280595219

DIPOLE MOMENT
-------------
                                X             Y             Z
Electronic contribution:      0.77074      -0.00167       0.57290
Nuclear contribution   :     -0.35463       0.07111      -0.57201
                        -----------------------------------------
Total Dipole Moment    :      0.41611       0.06944       0.00088
                        -----------------------------------------
Magnitude (a.u.)       :      0.42186
Magnitude (Debye)      :      1.07229

                             ****ORCA TERMINATED NORMALLY****
TOTAL RUN TIME: 0 days 0 hours 0 minutes 5 seconds 598 msec
