                         Program Version 3.0.3 - RELEASE   -
|  1> ! RI PBE def2-SVP def2-SVP/J NBO PAL2
|  2> % maxcore 2000
|  3> % output
|  4>     # printlevel mini
|  5>     print[ P_Basis ] 0
|  6>     print[ P_SCFInfo ] 1
|  7>     print[ P_SCFIterInfo ] 1
|  8>     print[ P_OrbEn ] 0
|  9>     print[ P_Cartesian ] 0
| 10> end
| 11> *xyz 0 1
| 12>  C        0.8429070000     0.0257600000     0.2105240000
| 13>  C        2.2571000000     0.0286660000    -0.2814050000
| 14>  O        2.5316970000    -1.1138930000    -1.0832150000
| 15>  C        3.3843720000    -0.6450310000    -2.0540850000
| 16>  C        3.3770390000     0.6790040000    -2.0674060000
| 17>  O        2.5190990000     1.1578220000    -1.1060680000
| 18>  H        0.6691990000    -0.8556740000     0.8293720000
| 19>  H        0.1545340000     0.0135680000    -0.6352850000
| 20>  H        0.6594120000     0.9173250000     0.8117850000
| 21>  H        2.9853830000     0.0410570000     0.5496110000
| 22>  H        3.8835840000    -1.3669910000    -2.6772240000
| 23>  H        3.8682830000     1.3937780000    -2.7049950000
| 24> *
| 25>
| 26>                          ****END OF INPUT****
 Total Charge           Charge          ....    0
 Multiplicity           Mult            ....    1
 Number of Electrons    NEL             ....   46
 Basis Dimension        Dim             ....  114

MULLIKEN ATOMIC CHARGES
-----------------------
   0 C :    0.018016
   1 C :    0.231846
   2 O :   -0.282487
   3 C :    0.085535
   4 C :    0.085007
   5 O :   -0.282259
   6 H :    0.039149
   7 H :    0.032525
   8 H :    0.038982
   9 H :   -0.005776
  10 H :    0.019681
  11 H :    0.019779
Sum of atomic charges:   -0.0000000

LOEWDIN ATOMIC CHARGES
----------------------
   0 C :   -0.075810
   1 C :    0.139590
   2 O :   -0.101901
   3 C :   -0.013352
   4 C :   -0.013440
   5 O :   -0.101836
   6 H :    0.040672
   7 H :    0.036095
   8 H :    0.040641
   9 H :   -0.002921
  10 H :    0.026125
  11 H :    0.026137

  Mayer bond orders larger than 0.1
B(  0-C ,  1-C ) :   1.1010 B(  0-C ,  6-H ) :   0.9514 B(  0-C ,  7-H ) :   0.9455
B(  0-C ,  8-H ) :   0.9514 B(  1-C ,  2-O ) :   1.0207 B(  1-C ,  5-O ) :   1.0207
B(  1-C ,  9-H ) :   0.9037 B(  2-O ,  3-C ) :   1.0490 B(  3-C ,  4-C ) :   1.7326
B(  3-C , 10-H ) :   0.9836 B(  4-C ,  5-O ) :   1.0491 B(  4-C , 11-H ) :   0.9836

FINAL SINGLE POINT ENERGY      -305.850705591938

DIPOLE MOMENT
-------------
                                X             Y             Z
Electronic contribution:      2.45000      -0.00883      -2.22615
Nuclear contribution   :     -2.36686       0.00940       2.24304
                        -----------------------------------------
Total Dipole Moment    :      0.08314       0.00057       0.01689
                        -----------------------------------------
Magnitude (a.u.)       :      0.08484
Magnitude (Debye)      :      0.21566

                             ****ORCA TERMINATED NORMALLY****
TOTAL RUN TIME: 0 days 0 hours 0 minutes 5 seconds 300 msec
