                         Program Version 3.0.3 - RELEASE   -
|  1> ! RI PBE def2-SVP def2-SVP/J NBO PAL2
|  2> % maxcore 2000
|  3> % output
|  4>     # printlevel mini
|  5>     print[ P_Basis ] 0
|  6>     print[ P_SCFInfo ] 1
|  7>     print[ P_SCFIterInfo ] 1
|  8>     print[ P_OrbEn ] 0
|  9>     print[ P_Cartesian ] 0
| 10> end
| 11> *xyz 0 1
| 12>  C        0.9171150000     0.0950640000     0.1932220000
| 13>  C        2.4207570000     0.1017640000     0.0529220000
| 14>  O        2.8270660000     0.0376090000    -1.2892410000
| 15>  C        3.1355460000     1.1300220000     0.9513740000
| 16>  O        3.5042330000     0.1005010000     1.8780950000
| 17>  C        3.1481550000    -0.9180160000     0.9333440000
| 18>  H        0.4790270000     0.9795830000    -0.2820240000
| 19>  H        0.6287540000     0.1068070000     1.2462930000
| 20>  H        0.4943730000    -0.7972670000    -0.2749010000
| 21>  H        2.2404440000     0.5855570000    -1.8176010000
| 22>  H        2.5272610000     1.9097450000     1.4204770000
| 23>  H        4.0099280000     1.5741850000     0.4620430000
| 24>  H        2.5494410000    -1.7142780000     1.3847940000
| 25>  H        4.0267100000    -1.3420660000     0.4348910000
| 26> *
| 27>
| 28>                          ****END OF INPUT****
 Total Charge           Charge          ....    0
 Multiplicity           Mult            ....    1
 Number of Electrons    NEL             ....   48
 Basis Dimension        Dim             ....  124

MULLIKEN ATOMIC CHARGES
-----------------------
   0 C :    0.047553
   1 C :   -0.271818
   2 O :   -0.224835
   3 C :    0.291546
   4 O :   -0.363692
   5 C :    0.285870
   6 H :    0.018012
   7 H :    0.026692
   8 H :    0.032199
   9 H :    0.153064
  10 H :    0.000471
  11 H :   -0.006013
  12 H :    0.005213
  13 H :    0.005736
Sum of atomic charges:   -0.0000000

LOEWDIN ATOMIC CHARGES
----------------------
   0 C :   -0.067275
   1 C :   -0.009415
   2 O :   -0.095193
   3 C :    0.072279
   4 O :   -0.182201
   5 C :    0.085278
   6 H :    0.024774
   7 H :    0.036587
   8 H :    0.030329
   9 H :    0.068859
  10 H :    0.006110
  11 H :    0.007844
  12 H :    0.009329
  13 H :    0.012696

  Mayer bond orders larger than 0.1
B(  0-C ,  1-C ) :   1.0411 B(  0-C ,  6-H ) :   0.9504 B(  0-C ,  7-H ) :   0.9406
B(  0-C ,  8-H ) :   0.9543 B(  1-C ,  2-O ) :   1.1223 B(  1-C ,  3-C ) :   1.0263
B(  1-C ,  5-C ) :   1.0375 B(  2-O ,  9-H ) :   0.9783 B(  3-C ,  4-O ) :   1.0376
B(  3-C , 10-H ) :   0.9313 B(  3-C , 11-H ) :   0.9069 B(  4-O ,  5-C ) :   1.0343
B(  5-C , 12-H ) :   0.9339 B(  5-C , 13-H ) :   0.9107

FINAL SINGLE POINT ENERGY      -307.040257594668

DIPOLE MOMENT
-------------
                                X             Y             Z
Electronic contribution:      3.20454      -0.20738       0.25692
Nuclear contribution   :     -4.00661       0.50261      -0.79288
                        -----------------------------------------
Total Dipole Moment    :     -0.80206       0.29523      -0.53596
                        -----------------------------------------
Magnitude (a.u.)       :      1.00882
Magnitude (Debye)      :      2.56422

                             ****ORCA TERMINATED NORMALLY****
TOTAL RUN TIME: 0 days 0 hours 0 minutes 5 seconds 998 msec
