                         Program Version 3.0.3 - RELEASE   -
|  1> ! RI PBE def2-SVP def2-SVP/J NBO PAL2
|  2> % maxcore 2000
|  3> % output
|  4>     # printlevel mini
|  5>     print[ P_Basis ] 0
|  6>     print[ P_SCFInfo ] 1
|  7>     print[ P_SCFIterInfo ] 1
|  8>     print[ P_OrbEn ] 0
|  9>     print[ P_Cartesian ] 0
| 10> end
| 11> *xyz 0 1
| 12>  C        2.5826850000     1.4244430000     0.2483860000
| 13>  C        2.4723350000    -0.0859370000     0.1072150000
| 14>  C        2.8964380000    -0.8244110000     1.3468820000
| 15>  C        3.3476340000    -2.2593550000     1.2770120000
| 16>  C        4.3333030000    -1.1844430000     1.5670840000
| 17>  O        4.8698580000    -1.1738090000     2.8528090000
| 18>  H        2.2652170000     1.9359500000    -0.6632430000
| 19>  H        3.6125220000     1.7260150000     0.4586790000
| 20>  H        1.9574120000     1.7892760000     1.0679340000
| 21>  H        3.0854130000    -0.4245540000    -0.7358970000
| 22>  H        1.4411610000    -0.3593600000    -0.1441950000
| 23>  H        2.3580670000    -0.5620120000     2.2539970000
| 24>  H        3.3818860000    -2.7429270000     0.3077860000
| 25>  H        3.0900520000    -2.9053250000     2.1067570000
| 26>  H        5.0351400000    -0.9238420000     0.7753460000
| 27>  H        5.0047760000    -0.2588990000     3.1139470000
| 28> *
| 29>
| 30>                          ****END OF INPUT****
 Total Charge           Charge          ....    0
 Multiplicity           Mult            ....    1
 Number of Electrons    NEL             ....   48
 Basis Dimension        Dim             ....  134

MULLIKEN ATOMIC CHARGES
-----------------------
   0 C :   -0.007048
   1 C :    0.058714
   2 C :   -0.162008
   3 C :    0.008539
   4 C :    0.045573
   5 O :   -0.235066
   6 H :    0.019711
   7 H :    0.009575
   8 H :    0.016254
   9 H :   -0.006183
  10 H :    0.012433
  11 H :    0.015024
  12 H :    0.026047
  13 H :    0.036054
  14 H :    0.004663
  15 H :    0.157717
Sum of atomic charges:    0.0000000

LOEWDIN ATOMIC CHARGES
----------------------
   0 C :   -0.065067
   1 C :   -0.038690
   2 C :   -0.063055
   3 C :   -0.049992
   4 C :    0.029393
   5 O :   -0.099659
   6 H :    0.026500
   7 H :    0.021794
   8 H :    0.024589
   9 H :    0.023491
  10 H :    0.026719
  11 H :    0.025546
  12 H :    0.026330
  13 H :    0.033409
  14 H :    0.005206
  15 H :    0.073487

  Mayer bond orders larger than 0.1
B(  0-C ,  1-C ) :   1.1127 B(  0-C ,  6-H ) :   0.9600 B(  0-C ,  7-H ) :   0.9685
B(  0-C ,  8-H ) :   0.9656 B(  1-C ,  2-C ) :   1.0654 B(  1-C ,  9-H ) :   0.9208
B(  1-C , 10-H ) :   0.9264 B(  2-C ,  3-C ) :   0.9877 B(  2-C ,  4-C ) :   0.9313
B(  2-C , 11-H ) :   0.9373 B(  3-C ,  4-C ) :   1.0062 B(  3-C , 12-H ) :   0.9367
B(  3-C , 13-H ) :   0.9304 B(  4-C ,  5-O ) :   1.1428 B(  4-C , 14-H ) :   0.9385
B(  5-O , 15-H ) :   0.9830

FINAL SINGLE POINT ENERGY      -271.184146233243

DIPOLE MOMENT
-------------
                                X             Y             Z
Electronic contribution:      2.92134      -3.06681       3.61205
Nuclear contribution   :     -3.04450       3.61274      -3.82058
                        -----------------------------------------
Total Dipole Moment    :     -0.12317       0.54593      -0.20853
                        -----------------------------------------
Magnitude (a.u.)       :      0.59724
Magnitude (Debye)      :      1.51806

                             ****ORCA TERMINATED NORMALLY****
TOTAL RUN TIME: 0 days 0 hours 0 minutes 6 seconds 562 msec
