                         Program Version 3.0.3 - RELEASE   -
|  1> ! RI PBE def2-SVP def2-SVP/J NBO PAL2
|  2> % maxcore 2000
|  3> % output
|  4>     # printlevel mini
|  5>     print[ P_Basis ] 0
|  6>     print[ P_SCFInfo ] 1
|  7>     print[ P_SCFIterInfo ] 1
|  8>     print[ P_OrbEn ] 0
|  9>     print[ P_Cartesian ] 0
| 10> end
| 11> *xyz 0 1
| 12>  C        3.4115430000     0.0627840000    -1.0110550000
| 13>  C        2.4583910000    -0.0690010000     0.1649020000
| 14>  C        3.0112030000    -0.9385300000     1.2637270000
| 15>  C        2.0781010000    -1.3680910000     2.4021270000
| 16>  C        2.4911980000    -2.7866840000     2.0093740000
| 17>  O        3.1954220000    -2.3106700000     0.8552590000
| 18>  H        2.9795700000     0.6744070000    -1.8059350000
| 19>  H        3.6444480000    -0.9191720000    -1.4279340000
| 20>  H        4.3528250000     0.5283500000    -0.7056160000
| 21>  H        1.5045440000    -0.4937970000    -0.1665400000
| 22>  H        2.2377450000     0.9168510000     0.5920120000
| 23>  H        3.9651910000    -0.5257690000     1.6231100000
| 24>  H        1.0291670000    -1.1386630000     2.2096650000
| 25>  H        2.3446540000    -1.0386140000     3.4053760000
| 26>  H        1.6898270000    -3.4813260000     1.7420530000
| 27>  H        3.1667790000    -3.2776650000     2.7192840000
| 28> *
| 29>
| 30>                          ****END OF INPUT****
 Total Charge           Charge          ....    0
 Multiplicity           Mult            ....    1
 Number of Electrons    NEL             ....   48
 Basis Dimension        Dim             ....  134

MULLIKEN ATOMIC CHARGES
-----------------------
   0 C :   -0.022053
   1 C :    0.041545
   2 C :    0.034212
   3 C :   -0.003661
   4 C :    0.176265
   5 O :   -0.357456
   6 H :    0.022763
   7 H :    0.033840
   8 H :    0.015248
   9 H :   -0.003784
  10 H :    0.009266
  11 H :   -0.006856
  12 H :    0.011039
  13 H :    0.019311
  14 H :    0.018356
  15 H :    0.011965
Sum of atomic charges:   -0.0000000

LOEWDIN ATOMIC CHARGES
----------------------
   0 C :   -0.065545
   1 C :   -0.055841
   2 C :    0.067667
   3 C :   -0.051581
   4 C :    0.081974
   5 O :   -0.186468
   6 H :    0.027150
   7 H :    0.030969
   8 H :    0.024711
   9 H :    0.023289
  10 H :    0.028512
  11 H :    0.007009
  12 H :    0.026050
  13 H :    0.023640
  14 H :    0.010409
  15 H :    0.008055

  Mayer bond orders larger than 0.1
B(  0-C ,  1-C ) :   1.1223 B(  0-C ,  6-H ) :   0.9625 B(  0-C ,  7-H ) :   0.9638
B(  0-C ,  8-H ) :   0.9632 B(  1-C ,  2-C ) :   1.0661 B(  1-C ,  9-H ) :   0.9111
B(  1-C , 10-H ) :   0.9225 B(  2-C ,  3-C ) :   1.0834 B(  2-C ,  5-O ) :   1.0317
B(  2-C , 11-H ) :   0.9072 B(  3-C ,  4-C ) :   1.1239 B(  3-C , 12-H ) :   0.9212
B(  3-C , 13-H ) :   0.9394 B(  4-C ,  5-O ) :   1.0297 B(  4-C , 14-H ) :   0.9419
B(  4-C , 15-H ) :   0.9353

FINAL SINGLE POINT ENERGY      -271.183838747152

DIPOLE MOMENT
-------------
                                X             Y             Z
Electronic contribution:      0.53722      -3.10439       1.46714
Nuclear contribution   :     -0.86303       3.42941      -1.02836
                        -----------------------------------------
Total Dipole Moment    :     -0.32581       0.32502       0.43878
                        -----------------------------------------
Magnitude (a.u.)       :      0.63586
Magnitude (Debye)      :      1.61622

                             ****ORCA TERMINATED NORMALLY****
TOTAL RUN TIME: 0 days 0 hours 0 minutes 6 seconds 364 msec
