                         Program Version 3.0.3 - RELEASE   -
|  1> ! RI PBE def2-SVP def2-SVP/J NBO PAL2
|  2> % maxcore 2000
|  3> % output
|  4>     # printlevel mini
|  5>     print[ P_Basis ] 0
|  6>     print[ P_SCFInfo ] 1
|  7>     print[ P_SCFIterInfo ] 1
|  8>     print[ P_OrbEn ] 0
|  9>     print[ P_Cartesian ] 0
| 10> end
| 11> *xyz 0 1
| 12>  C        2.5144990000     1.2025030000     0.0496940000
| 13>  C        2.1791080000    -0.0346430000     0.3869870000
| 14>  C        3.1093400000    -1.0020690000     1.0184970000
| 15>  C        2.6750770000    -1.6762760000     2.3324620000
| 16>  C        2.9659200000    -2.9799950000     1.5915980000
| 17>  O        3.1379560000    -2.2814750000     0.3503820000
| 18>  H        1.7985770000     1.8900480000    -0.3853730000
| 19>  H        3.5240690000     1.5726350000     0.2004980000
| 20>  H        1.1671350000    -0.3972370000     0.2174670000
| 21>  H        4.1183310000    -0.5723660000     1.0709290000
| 22>  H        1.6202120000    -1.5244210000     2.5622080000
| 23>  H        3.2754190000    -1.4535610000     3.2131710000
| 24>  H        2.1574890000    -3.7141810000     1.5392660000
| 25>  H        3.8886880000    -3.4845610000     1.9004250000
| 26> *
| 27>
| 28>                          ****END OF INPUT****
 Total Charge           Charge          ....    0
 Multiplicity           Mult            ....    1
 Number of Electrons    NEL             ....   46
 Basis Dimension        Dim             ....  124

MULLIKEN ATOMIC CHARGES
-----------------------
   0 C :   -0.029347
   1 C :    0.018092
   2 C :    0.083848
   3 C :   -0.014713
   4 C :    0.183988
   5 O :   -0.349165
   6 H :    0.030163
   7 H :    0.022781
   8 H :   -0.007927
   9 H :   -0.008051
  10 H :    0.013387
  11 H :    0.026094
  12 H :    0.021469
  13 H :    0.009381
Sum of atomic charges:   -0.0000000

LOEWDIN ATOMIC CHARGES
----------------------
   0 C :   -0.045432
   1 C :   -0.038254
   2 C :    0.066046
   3 C :   -0.044273
   4 C :    0.081212
   5 O :   -0.180539
   6 H :    0.027592
   7 H :    0.023718
   8 H :    0.026185
   9 H :    0.012481
  10 H :    0.027408
  11 H :    0.024991
  12 H :    0.011313
  13 H :    0.007551

  Mayer bond orders larger than 0.1
B(  0-C ,  1-C ) :   1.9740 B(  0-C ,  6-H ) :   0.9377 B(  0-C ,  7-H ) :   0.9506
B(  1-C ,  2-C ) :   1.0488 B(  1-C ,  8-H ) :   0.9424 B(  2-C ,  3-C ) :   1.0757
B(  2-C ,  5-O ) :   1.0188 B(  2-C ,  9-H ) :   0.9096 B(  3-C ,  4-C ) :   1.1063
B(  3-C , 10-H ) :   0.9243 B(  3-C , 11-H ) :   0.9428 B(  4-C ,  5-O ) :   1.0270
B(  4-C , 12-H ) :   0.9443 B(  4-C , 13-H ) :   0.9352

FINAL SINGLE POINT ENERGY      -269.957085305013

DIPOLE MOMENT
-------------
                                X             Y             Z
Electronic contribution:      0.46955      -1.33881      -1.83294
Nuclear contribution   :     -0.60222       1.53514       2.47864
                        -----------------------------------------
Total Dipole Moment    :     -0.13267       0.19633       0.64569
                        -----------------------------------------
Magnitude (a.u.)       :      0.68780
Magnitude (Debye)      :      1.74825

                             ****ORCA TERMINATED NORMALLY****
TOTAL RUN TIME: 0 days 0 hours 0 minutes 5 seconds 876 msec
