                         Program Version 3.0.3 - RELEASE   -
|  1> ! RI PBE def2-SVP def2-SVP/J NBO PAL2
|  2> % maxcore 2000
|  3> % output
|  4>     # printlevel mini
|  5>     print[ P_Basis ] 0
|  6>     print[ P_SCFInfo ] 1
|  7>     print[ P_SCFIterInfo ] 1
|  8>     print[ P_OrbEn ] 0
|  9>     print[ P_Cartesian ] 0
| 10> end
| 11> *xyz 0 1
| 12>  C        1.0573990000    -0.0294230000     0.1056850000
| 13>  C        2.2516440000     0.0585860000     0.0215520000
| 14>  C        3.6915440000     0.1915150000    -0.0849020000
| 15>  C        4.3851240000     1.2345480000     0.8123500000
| 16>  C        5.2302090000     0.0504080000     1.2818460000
| 17>  O        4.4253670000    -0.8784070000     0.5380890000
| 18>  H       -0.0007020000    -0.1169990000     0.1821700000
| 19>  H        3.9667590000     0.2801970000    -1.1435650000
| 20>  H        3.7286580000     1.6504450000     1.5739460000
| 21>  H        4.9034980000     2.0364370000     0.2899820000
| 22>  H        5.2148060000    -0.1675890000     2.3526740000
| 23>  H        6.2668060000     0.0546820000     0.9286620000
| 24> *
| 25>
| 26>                          ****END OF INPUT****
 Total Charge           Charge          ....    0
 Multiplicity           Mult            ....    1
 Number of Electrons    NEL             ....   44
 Basis Dimension        Dim             ....  114

MULLIKEN ATOMIC CHARGES
-----------------------
   0 C :   -0.473010
   1 C :    0.428745
   2 C :    0.073587
   3 C :   -0.021951
   4 C :    0.186395
   5 O :   -0.334459
   6 H :    0.006100
   7 H :    0.030923
   8 H :    0.031336
   9 H :    0.030563
  10 H :    0.025602
  11 H :    0.016169
Sum of atomic charges:    0.0000000

LOEWDIN ATOMIC CHARGES
----------------------
   0 C :   -0.060541
   1 C :   -0.030124
   2 C :    0.057749
   3 C :   -0.035836
   4 C :    0.084656
   5 O :   -0.170442
   6 H :    0.036621
   7 H :    0.031008
   8 H :    0.034014
   9 H :    0.027944
  10 H :    0.014338
  11 H :    0.010613

  Mayer bond orders larger than 0.1
B(  0-C ,  1-C ) :   2.3295 B(  0-C ,  6-H ) :   1.0953 B(  1-C ,  2-C ) :   0.9561
B(  1-C ,  6-H ) :  -0.1054 B(  2-C ,  3-C ) :   1.0921 B(  2-C ,  5-O ) :   1.0887
B(  2-C ,  7-H ) :   0.8828 B(  3-C ,  4-C ) :   1.1092 B(  3-C ,  8-H ) :   0.9310
B(  3-C ,  9-H ) :   0.9395 B(  4-C ,  5-O ) :   1.0180 B(  4-C , 10-H ) :   0.9437
B(  4-C , 11-H ) :   0.9369

FINAL SINGLE POINT ENERGY      -268.709736211142

DIPOLE MOMENT
-------------
                                X             Y             Z
Electronic contribution:     -2.26727      -2.23880      -1.18366
Nuclear contribution   :      2.40193       2.95711       1.28742
                        -----------------------------------------
Total Dipole Moment    :      0.13465       0.71832       0.10376
                        -----------------------------------------
Magnitude (a.u.)       :      0.73816
Magnitude (Debye)      :      1.87626

                             ****ORCA TERMINATED NORMALLY****
TOTAL RUN TIME: 0 days 0 hours 0 minutes 5 seconds 476 msec
