                         Program Version 3.0.3 - RELEASE   -
|  1> ! RI PBE def2-SVP def2-SVP/J NBO PAL2
|  2> % maxcore 2000
|  3> % output
|  4>     # printlevel mini
|  5>     print[ P_Basis ] 0
|  6>     print[ P_SCFInfo ] 1
|  7>     print[ P_SCFIterInfo ] 1
|  8>     print[ P_OrbEn ] 0
|  9>     print[ P_Cartesian ] 0
| 10> end
| 11> *xyz 0 1
| 12>  C        3.3053600000     0.5925540000    -1.2476130000
| 13>  C        2.4552190000    -0.0505570000    -0.1675680000
| 14>  C        2.9378730000     0.1409580000     1.2518760000
| 15>  C        2.0836780000    -0.5167310000     2.2993600000
| 16>  C        4.3374300000     0.4332960000     1.5577790000
| 17>  O        3.3599550000     1.4628650000     1.5839930000
| 18>  H        2.8025930000     0.5341490000    -2.2149220000
| 19>  H        4.2728170000     0.0964510000    -1.3534470000
| 20>  H        3.4838140000     1.6460200000    -1.0232600000
| 21>  H        2.3602840000    -1.1267840000    -0.3497110000
| 22>  H        1.4363920000     0.3525240000    -0.2151010000
| 23>  H        2.0725060000    -1.6016550000     2.1659320000
| 24>  H        1.0528070000    -0.1586030000     2.2293390000
| 25>  H        2.4571840000    -0.2913540000     3.2989990000
| 26>  H        5.0711980000     0.5131620000     0.7603400000
| 27>  H        4.7381700000     0.1491020000     2.5287840000
| 28> *
| 29>
| 30>                          ****END OF INPUT****
 Total Charge           Charge          ....    0
 Multiplicity           Mult            ....    1
 Number of Electrons    NEL             ....   48
 Basis Dimension        Dim             ....  134

MULLIKEN ATOMIC CHARGES
-----------------------
   0 C :   -0.033050
   1 C :    0.061337
   2 C :   -0.196292
   3 C :    0.095038
   4 C :    0.166991
   5 O :   -0.295954
   6 H :    0.018983
   7 H :    0.019965
   8 H :    0.038054
   9 H :    0.014500
  10 H :    0.011464
  11 H :    0.027229
  12 H :    0.022337
  13 H :    0.012137
  14 H :    0.021683
  15 H :    0.015577
Sum of atomic charges:   -0.0000000

LOEWDIN ATOMIC CHARGES
----------------------
   0 C :   -0.068630
   1 C :   -0.045841
   2 C :    0.007556
   3 C :   -0.059104
   4 C :    0.054804
   5 O :   -0.157000
   6 H :    0.029821
   7 H :    0.023791
   8 H :    0.030629
   9 H :    0.031046
  10 H :    0.031514
  11 H :    0.033457
  12 H :    0.032397
  13 H :    0.032310
  14 H :    0.011724
  15 H :    0.011526

  Mayer bond orders larger than 0.1
B(  0-C ,  1-C ) :   1.1313 B(  0-C ,  6-H ) :   0.9553 B(  0-C ,  7-H ) :   0.9564
B(  0-C ,  8-H ) :   0.9573 B(  1-C ,  2-C ) :   1.0262 B(  1-C ,  9-H ) :   0.9277
B(  1-C , 10-H ) :   0.9165 B(  2-C ,  3-C ) :   1.0827 B(  2-C ,  4-C ) :   1.0913
B(  2-C ,  5-O ) :   0.9517 B(  3-C , 11-H ) :   0.9522 B(  3-C , 12-H ) :   0.9495
B(  3-C , 13-H ) :   0.9380 B(  4-C ,  5-O ) :   0.9977 B(  4-C , 14-H ) :   0.9224
B(  4-C , 15-H ) :   0.9258

FINAL SINGLE POINT ENERGY      -271.186068581600

DIPOLE MOMENT
-------------
                                X             Y             Z
Electronic contribution:      1.01954       2.55711       2.61276
Nuclear contribution   :     -0.98849      -3.22356      -2.75533
                        -----------------------------------------
Total Dipole Moment    :      0.03105      -0.66645      -0.14257
                        -----------------------------------------
Magnitude (a.u.)       :      0.68223
Magnitude (Debye)      :      1.73410

                             ****ORCA TERMINATED NORMALLY****
TOTAL RUN TIME: 0 days 0 hours 0 minutes 6 seconds 423 msec
