                         Program Version 3.0.3 - RELEASE   -
|  1> ! RI PBE def2-SVP def2-SVP/J NBO PAL2
|  2> % maxcore 2000
|  3> % output
|  4>     # printlevel mini
|  5>     print[ P_Basis ] 0
|  6>     print[ P_SCFInfo ] 1
|  7>     print[ P_SCFIterInfo ] 1
|  8>     print[ P_OrbEn ] 0
|  9>     print[ P_Cartesian ] 0
| 10> end
| 11> *xyz 0 1
| 12>  C        3.3616400000     0.0340050000    -1.1585040000
| 13>  C        2.4773340000     0.0975500000     0.0760960000
| 14>  C        3.0499870000    -0.6670620000     1.2486320000
| 15>  C        2.1611870000    -0.8484590000     2.4852830000
| 16>  O        2.2424360000    -2.2769890000     2.3990110000
| 17>  C        3.0068380000    -2.2010620000     1.1889530000
| 18>  H        2.9216030000     0.5817190000    -1.9945430000
| 19>  H        3.5132400000    -0.9990000000    -1.4843010000
| 20>  H        4.3470410000     0.4645500000    -0.9596810000
| 21>  H        1.4832090000    -0.3021100000    -0.1567640000
| 22>  H        2.3258210000     1.1429240000     0.3688770000
| 23>  H        4.0441590000    -0.2863320000     1.4968320000
| 24>  H        1.1312010000    -0.4912370000     2.3621820000
| 25>  H        2.5584150000    -0.4739590000     3.4339870000
| 26>  H        2.4538410000    -2.6094760000     0.3332980000
| 27>  H        3.9633690000    -2.7253840000     1.2781320000
| 28> *
| 29>
| 30>                          ****END OF INPUT****
 Total Charge           Charge          ....    0
 Multiplicity           Mult            ....    1
 Number of Electrons    NEL             ....   48
 Basis Dimension        Dim             ....  134

MULLIKEN ATOMIC CHARGES
-----------------------
   0 C :   -0.015391
   1 C :    0.032983
   2 C :   -0.298934
   3 C :    0.289365
   4 O :   -0.367750
   5 C :    0.253466
   6 H :    0.025774
   7 H :    0.018108
   8 H :    0.018810
   9 H :    0.006432
  10 H :    0.018765
  11 H :    0.012389
  12 H :   -0.008359
  13 H :    0.004769
  14 H :   -0.000038
  15 H :    0.009610
Sum of atomic charges:   -0.0000000

LOEWDIN ATOMIC CHARGES
----------------------
   0 C :   -0.065716
   1 C :   -0.044862
   2 C :   -0.060988
   3 C :    0.089877
   4 O :   -0.187170
   5 C :    0.085295
   6 H :    0.029247
   7 H :    0.024547
   8 H :    0.025877
   9 H :    0.023757
  10 H :    0.027065
  11 H :    0.024843
  12 H :    0.005539
  13 H :    0.008320
  14 H :    0.005412
  15 H :    0.008957

  Mayer bond orders larger than 0.1
B(  0-C ,  1-C ) :   1.1211 B(  0-C ,  6-H ) :   0.9606 B(  0-C ,  7-H ) :   0.9654
B(  0-C ,  8-H ) :   0.9627 B(  1-C ,  2-C ) :   1.0508 B(  1-C ,  9-H ) :   0.9203
B(  1-C , 10-H ) :   0.9301 B(  2-C ,  3-C ) :   1.0834 B(  2-C ,  5-C ) :   1.0821
B(  2-C , 11-H ) :   0.9144 B(  3-C ,  4-O ) :   1.0387 B(  3-C , 12-H ) :   0.9216
B(  3-C , 13-H ) :   0.9319 B(  4-O ,  5-C ) :   1.0440 B(  5-C , 14-H ) :   0.9243
B(  5-C , 15-H ) :   0.9340

FINAL SINGLE POINT ENERGY      -271.178032234909

DIPOLE MOMENT
-------------
                                X             Y             Z
Electronic contribution:     -1.24140      -3.34222       4.87211
Nuclear contribution   :      1.50469       3.91859      -5.30947
                        -----------------------------------------
Total Dipole Moment    :      0.26329       0.57637      -0.43736
                        -----------------------------------------
Magnitude (a.u.)       :      0.76994
Magnitude (Debye)      :      1.95704

                             ****ORCA TERMINATED NORMALLY****
TOTAL RUN TIME: 0 days 0 hours 0 minutes 6 seconds 601 msec
