                         Program Version 3.0.3 - RELEASE   -
|  1> ! RI PBE def2-SVP def2-SVP/J NBO PAL2
|  2> % maxcore 2000
|  3> % output
|  4>     # printlevel mini
|  5>     print[ P_Basis ] 0
|  6>     print[ P_SCFInfo ] 1
|  7>     print[ P_SCFIterInfo ] 1
|  8>     print[ P_OrbEn ] 0
|  9>     print[ P_Cartesian ] 0
| 10> end
| 11> *xyz 0 1
| 12>  C        1.9993370000     1.2420880000    -0.2498720000
| 13>  C        2.4305800000     0.0947090000     0.2569020000
| 14>  C        3.1269220000    -0.9648490000    -0.5101070000
| 15>  C        4.4302700000    -1.5461840000     0.0689530000
| 16>  O        3.9372760000    -2.8870340000    -0.0240320000
| 17>  C        2.6293730000    -2.4152030000    -0.3654010000
| 18>  H        1.4952700000     1.9802540000     0.3628400000
| 19>  H        2.1362980000     1.4834780000    -1.2995350000
| 20>  H        2.2739450000    -0.1103520000     1.3156150000
| 21>  H        3.2371910000    -0.6707890000    -1.5554070000
| 22>  H        4.6250610000    -1.2547470000     1.1083160000
| 23>  H        5.3370250000    -1.3959630000    -0.5235920000
| 24>  H        1.9163210000    -2.5618310000     0.4550840000
| 25>  H        2.2405310000    -2.8902870000    -1.2703530000
| 26> *
| 27>
| 28>                          ****END OF INPUT****
 Total Charge           Charge          ....    0
 Multiplicity           Mult            ....    1
 Number of Electrons    NEL             ....   46
 Basis Dimension        Dim             ....  124

MULLIKEN ATOMIC CHARGES
-----------------------
   0 C :   -0.034776
   1 C :    0.015690
   2 C :   -0.239860
   3 C :    0.268514
   4 O :   -0.366201
   5 C :    0.261245
   6 H :    0.027824
   7 H :    0.019879
   8 H :   -0.001161
   9 H :    0.012130
  10 H :   -0.000034
  11 H :    0.014796
  12 H :    0.005635
  13 H :    0.016319
Sum of atomic charges:   -0.0000000

LOEWDIN ATOMIC CHARGES
----------------------
   0 C :   -0.058023
   1 C :   -0.030612
   2 C :   -0.059929
   3 C :    0.094007
   4 O :   -0.185822
   5 C :    0.092860
   6 H :    0.026678
   7 H :    0.022954
   8 H :    0.025520
   9 H :    0.032319
  10 H :    0.007330
  11 H :    0.012158
  12 H :    0.008002
  13 H :    0.012558

  Mayer bond orders larger than 0.1
B(  0-C ,  1-C ) :   1.9944 B(  0-C ,  6-H ) :   0.9388 B(  0-C ,  7-H ) :   0.9523
B(  1-C ,  2-C ) :   1.0365 B(  1-C ,  8-H ) :   0.9464 B(  2-C ,  3-C ) :   1.0638
B(  2-C ,  5-C ) :   1.0575 B(  2-C ,  9-H ) :   0.9129 B(  3-C ,  4-O ) :   1.0366
B(  3-C , 10-H ) :   0.9272 B(  3-C , 11-H ) :   0.9348 B(  4-O ,  5-C ) :   1.0359
B(  5-C , 12-H ) :   0.9297 B(  5-C , 13-H ) :   0.9345

FINAL SINGLE POINT ENERGY      -269.954063722969

DIPOLE MOMENT
-------------
                                X             Y             Z
Electronic contribution:      1.30779      -2.79032       0.16819
Nuclear contribution   :     -1.54110       3.34430      -0.30071
                        -----------------------------------------
Total Dipole Moment    :     -0.23331       0.55398      -0.13252
                        -----------------------------------------
Magnitude (a.u.)       :      0.61554
Magnitude (Debye)      :      1.56457

                             ****ORCA TERMINATED NORMALLY****
TOTAL RUN TIME: 0 days 0 hours 0 minutes 5 seconds 875 msec
