                         Program Version 3.0.3 - RELEASE   -
|  1> ! RI PBE def2-SVP def2-SVP/J NBO PAL2
|  2> % maxcore 2000
|  3> % output
|  4>     # printlevel mini
|  5>     print[ P_Basis ] 0
|  6>     print[ P_SCFInfo ] 1
|  7>     print[ P_SCFIterInfo ] 1
|  8>     print[ P_OrbEn ] 0
|  9>     print[ P_Cartesian ] 0
| 10> end
| 11> *xyz 0 1
| 12>  C        0.8597600000     0.0623340000    -0.0256570000
| 13>  C        2.0606190000     0.0628100000    -0.0412840000
| 14>  C        3.5030040000     0.0633320000    -0.0380270000
| 15>  C        4.2456920000     1.0861590000     0.8452700000
| 16>  O        5.0680690000     0.0592680000     1.4076770000
| 17>  C        4.2464440000    -0.9645980000     0.8386910000
| 18>  H       -0.2045090000     0.0619260000    -0.0154060000
| 19>  H        3.8839780000     0.0667570000    -1.0614340000
| 20>  H        3.6038490000     1.5569000000     1.5972450000
| 21>  H        4.8305810000     1.8481500000     0.3246640000
| 22>  H        3.6049440000    -1.4406190000     1.5876290000
| 23>  H        4.8318900000    -1.7228080000     0.3132130000
| 24> *
| 25>
| 26>                          ****END OF INPUT****
 Total Charge           Charge          ....    0
 Multiplicity           Mult            ....    1
 Number of Electrons    NEL             ....   44
 Basis Dimension        Dim             ....  114

MULLIKEN ATOMIC CHARGES
-----------------------
   0 C :   -0.483253
   1 C :    0.461256
   2 C :   -0.294112
   3 C :    0.280134
   4 O :   -0.365051
   5 C :    0.280057
   6 H :    0.001450
   7 H :    0.052425
   8 H :    0.012573
   9 H :    0.020940
  10 H :    0.012599
  11 H :    0.020982
Sum of atomic charges:   -0.0000000

LOEWDIN ATOMIC CHARGES
----------------------
   0 C :   -0.076817
   1 C :   -0.025034
   2 C :   -0.068736
   3 C :    0.103851
   4 O :   -0.180788
   5 C :    0.103828
   6 H :    0.035598
   7 H :    0.051386
   8 H :    0.013701
   9 H :    0.014646
  10 H :    0.013705
  11 H :    0.014659

  Mayer bond orders larger than 0.1
B(  0-C ,  1-C ) :   2.2896 B(  0-C ,  6-H ) :   1.1049 B(  1-C ,  2-C ) :   0.9505
B(  1-C ,  6-H ) :  -0.1140 B(  2-C ,  3-C ) :   1.0708 B(  2-C ,  5-C ) :   1.0710
B(  2-C ,  7-H ) :   0.8770 B(  3-C ,  4-O ) :   1.0298 B(  3-C ,  8-H ) :   0.9310
B(  3-C ,  9-H ) :   0.9363 B(  4-O ,  5-C ) :   1.0298 B(  5-C , 10-H ) :   0.9310
B(  5-C , 11-H ) :   0.9362

FINAL SINGLE POINT ENERGY      -268.709853002986

DIPOLE MOMENT
-------------
                                X             Y             Z
Electronic contribution:     -0.33318      -0.00033       0.06777
Nuclear contribution   :      0.04216       0.00146      -0.44518
                        -----------------------------------------
Total Dipole Moment    :     -0.29102       0.00113      -0.37741
                        -----------------------------------------
Magnitude (a.u.)       :      0.47658
Magnitude (Debye)      :      1.21138

                             ****ORCA TERMINATED NORMALLY****
TOTAL RUN TIME: 0 days 0 hours 0 minutes 5 seconds 269 msec
