                         Program Version 3.0.3 - RELEASE   -
|  1> ! RI PBE def2-SVP def2-SVP/J NBO PAL2
|  2> % maxcore 2000
|  3> % output
|  4>     # printlevel mini
|  5>     print[ P_Basis ] 0
|  6>     print[ P_SCFInfo ] 1
|  7>     print[ P_SCFIterInfo ] 1
|  8>     print[ P_OrbEn ] 0
|  9>     print[ P_Cartesian ] 0
| 10> end
| 11> *xyz 0 1
| 12>  C        3.1720370000    -1.1662080000     0.4173340000
| 13>  C        2.3376160000    -0.0128270000    -0.1179520000
| 14>  C        3.1548990000     1.2255370000    -0.3346800000
| 15>  O        2.4464310000     2.4428630000    -0.5260460000
| 16>  C        3.2375890000     2.3026930000     0.6487970000
| 17>  C        4.4235380000     3.2059450000     0.7711010000
| 18>  H        2.5644300000    -2.0636710000     0.5487000000
| 19>  H        3.6165550000    -0.9187340000     1.3847570000
| 20>  H        3.9873020000    -1.4176400000    -0.2665600000
| 21>  H        1.5197600000     0.2246810000     0.5688310000
| 22>  H        1.8733390000    -0.2967350000    -1.0687810000
| 23>  H        4.0077030000     1.1080360000    -1.0066300000
| 24>  H        2.6427500000     2.1822380000     1.5554610000
| 25>  H        4.9711800000     3.2521690000    -0.1718970000
| 26>  H        5.1001590000     2.8485720000     1.5519960000
| 27>  H        4.1105020000     4.2194120000     1.0347780000
| 28> *
| 29>
| 30>                          ****END OF INPUT****
 Total Charge           Charge          ....    0
 Multiplicity           Mult            ....    1
 Number of Electrons    NEL             ....   48
 Basis Dimension        Dim             ....  134

MULLIKEN ATOMIC CHARGES
-----------------------
   0 C :   -0.040755
   1 C :    0.071195
   2 C :    0.000565
   3 O :   -0.281234
   4 C :   -0.004943
   5 C :    0.067265
   6 H :    0.027338
   7 H :    0.020872
   8 H :    0.025123
   9 H :    0.006023
  10 H :    0.017003
  11 H :    0.004643
  12 H :    0.008578
  13 H :    0.019309
  14 H :    0.027462
  15 H :    0.031554
Sum of atomic charges:   -0.0000000

LOEWDIN ATOMIC CHARGES
----------------------
   0 C :   -0.064866
   1 C :   -0.050706
   2 C :    0.036718
   3 O :   -0.157496
   4 C :    0.036229
   5 C :   -0.070059
   6 H :    0.029696
   7 H :    0.025598
   8 H :    0.026191
   9 H :    0.029796
  10 H :    0.031534
  11 H :    0.011101
  12 H :    0.012351
  13 H :    0.033678
  14 H :    0.035005
  15 H :    0.035232

  Mayer bond orders larger than 0.1
B(  0-C ,  1-C ) :   1.1029 B(  0-C ,  6-H ) :   0.9596 B(  0-C ,  7-H ) :   0.9672
B(  0-C ,  8-H ) :   0.9678 B(  1-C ,  2-C ) :   1.0515 B(  1-C ,  9-H ) :   0.9196
B(  1-C , 10-H ) :   0.9187 B(  2-C ,  3-O ) :   0.9858 B(  2-C ,  4-C ) :   1.0538
B(  2-C , 11-H ) :   0.9261 B(  3-O ,  4-C ) :   0.9954 B(  4-C ,  5-C ) :   1.0873
B(  4-C , 12-H ) :   0.9207 B(  5-C , 13-H ) :   0.9456 B(  5-C , 14-H ) :   0.9520
B(  5-C , 15-H ) :   0.9481

FINAL SINGLE POINT ENERGY      -271.188096436088

DIPOLE MOMENT
-------------
                                X             Y             Z
Electronic contribution:     -2.43976       3.54015      -2.11860
Nuclear contribution   :      2.85984      -3.93804       2.51717
                        -----------------------------------------
Total Dipole Moment    :      0.42009      -0.39789       0.39857
                        -----------------------------------------
Magnitude (a.u.)       :      0.70260
Magnitude (Debye)      :      1.78587

                             ****ORCA TERMINATED NORMALLY****
TOTAL RUN TIME: 0 days 0 hours 0 minutes 6 seconds 482 msec
