                         Program Version 3.0.3 - RELEASE   -
|  1> ! RI PBE def2-SVP def2-SVP/J NBO PAL2
|  2> % maxcore 2000
|  3> % output
|  4>     # printlevel mini
|  5>     print[ P_Basis ] 0
|  6>     print[ P_SCFInfo ] 1
|  7>     print[ P_SCFIterInfo ] 1
|  8>     print[ P_OrbEn ] 0
|  9>     print[ P_Cartesian ] 0
| 10> end
| 11> *xyz 0 1
| 12>  C        3.2881340000     0.5514820000    -1.3153710000
| 13>  C        2.4840310000    -0.0165320000    -0.1594740000
| 14>  C        2.9936850000     0.2793000000     1.2306450000
| 15>  O        2.1620100000    -0.2436420000     2.2312620000
| 16>  C        4.4550560000     0.3474320000     1.5547140000
| 17>  C        3.5948340000     1.5866710000     1.6021750000
| 18>  H        2.8258960000     0.2807590000    -2.2668000000
| 19>  H        4.3107160000     0.1675010000    -1.3297620000
| 20>  H        3.3373850000     1.6420400000    -1.2774360000
| 21>  H        2.4236810000    -1.1078270000    -0.2670880000
| 22>  H        1.4531280000     0.3502690000    -0.2084610000
| 23>  H        2.2204990000    -1.2031000000     2.1930290000
| 24>  H        5.1817940000     0.2603550000     0.7564580000
| 25>  H        4.7615740000    -0.0768080000     2.5027120000
| 26>  H        3.7369670000     2.3376350000     0.8355980000
| 27>  H        3.3305200000     1.9708460000     2.5789010000
| 28> *
| 29>
| 30>                          ****END OF INPUT****
 Total Charge           Charge          ....    0
 Multiplicity           Mult            ....    1
 Number of Electrons    NEL             ....   48
 Basis Dimension        Dim             ....  134

MULLIKEN ATOMIC CHARGES
-----------------------
   0 C :   -0.058529
   1 C :    0.075999
   2 C :   -0.079533
   3 O :   -0.241103
   4 C :   -0.040154
   5 C :   -0.023511
   6 H :    0.018164
   7 H :    0.023956
   8 H :    0.034169
   9 H :   -0.000014
  10 H :    0.015673
  11 H :    0.151750
  12 H :    0.029641
  13 H :    0.025107
  14 H :    0.033345
  15 H :    0.035040
Sum of atomic charges:   -0.0000000

LOEWDIN ATOMIC CHARGES
----------------------
   0 C :   -0.067727
   1 C :   -0.048322
   2 C :    0.008716
   3 O :   -0.092765
   4 C :   -0.063195
   5 C :   -0.046624
   6 H :    0.030771
   7 H :    0.025029
   8 H :    0.027359
   9 H :    0.022276
  10 H :    0.029705
  11 H :    0.069123
  12 H :    0.021995
  13 H :    0.027172
  14 H :    0.024281
  15 H :    0.032205

  Mayer bond orders larger than 0.1
B(  0-C ,  1-C ) :   1.1064 B(  0-C ,  6-H ) :   0.9521 B(  0-C ,  7-H ) :   0.9589
B(  0-C ,  8-H ) :   0.9639 B(  1-C ,  2-C ) :   1.0377 B(  1-C ,  9-H ) :   0.9200
B(  1-C , 10-H ) :   0.9221 B(  2-C ,  3-O ) :   1.0798 B(  2-C ,  4-C ) :   0.9791
B(  2-C ,  5-C ) :   0.9779 B(  3-O , 11-H ) :   0.9829 B(  4-C ,  5-C ) :   1.0129
B(  4-C , 12-H ) :   0.9384 B(  4-C , 13-H ) :   0.9350 B(  5-C , 14-H ) :   0.9452
B(  5-C , 15-H ) :   0.9348

FINAL SINGLE POINT ENERGY      -271.185652288043

DIPOLE MOMENT
-------------
                                X             Y             Z
Electronic contribution:     -1.82479      -1.02571       4.40368
Nuclear contribution   :      2.03782       0.64817      -4.76495
                        -----------------------------------------
Total Dipole Moment    :      0.21303      -0.37754      -0.36126
                        -----------------------------------------
Magnitude (a.u.)       :      0.56430
Magnitude (Debye)      :      1.43432

                             ****ORCA TERMINATED NORMALLY****
TOTAL RUN TIME: 0 days 0 hours 0 minutes 6 seconds 656 msec
