                         Program Version 3.0.3 - RELEASE   -
|  1> ! RI PBE def2-SVP def2-SVP/J NBO PAL2
|  2> % maxcore 2000
|  3> % output
|  4>     # printlevel mini
|  5>     print[ P_Basis ] 0
|  6>     print[ P_SCFInfo ] 1
|  7>     print[ P_SCFIterInfo ] 1
|  8>     print[ P_OrbEn ] 0
|  9>     print[ P_Cartesian ] 0
| 10> end
| 11> *xyz 0 1
| 12>  C        1.1632090000     0.0430300000     0.3511130000
| 13>  C        2.6784210000     0.1541590000     0.3469000000
| 14>  C        3.2980940000    -0.3039060000    -0.9661060000
| 15>  C        4.7907340000    -0.1669590000    -0.9786300000
| 16>  C        5.6759440000    -1.2759800000    -0.6370100000
| 17>  O        5.4976400000    -0.8746370000    -1.9855020000
| 18>  H        0.7403310000     0.3779780000     1.3008110000
| 19>  H        0.8432630000    -0.9902290000     0.1905910000
| 20>  H        0.7212990000     0.6510570000    -0.4430370000
| 21>  H        3.0951860000    -0.4382390000     1.1689200000
| 22>  H        2.9699320000     1.1922760000     0.5432520000
| 23>  H        2.8817780000     0.2824140000    -1.7939330000
| 24>  H        3.0405530000    -1.3497220000    -1.1645090000
| 25>  H        5.1698740000     0.8417630000    -0.8086990000
| 26>  H        5.2399340000    -2.2390660000    -0.3791460000
| 27>  H        6.6605890000    -1.0806480000    -0.2190250000
| 28> *
| 29>
| 30>                          ****END OF INPUT****
 Total Charge           Charge          ....    0
 Multiplicity           Mult            ....    1
 Number of Electrons    NEL             ....   48
 Basis Dimension        Dim             ....  134

MULLIKEN ATOMIC CHARGES
-----------------------
   0 C :    0.002686
   1 C :   -0.070930
   2 C :    0.089696
   3 C :   -0.033278
   4 C :    0.148607
   5 O :   -0.289276
   6 H :    0.018760
   7 H :    0.016984
   8 H :    0.019180
   9 H :    0.012477
  10 H :    0.013912
  11 H :    0.017074
  12 H :   -0.005827
  13 H :    0.013020
  14 H :    0.020093
  15 H :    0.026822
Sum of atomic charges:    0.0000000

LOEWDIN ATOMIC CHARGES
----------------------
   0 C :   -0.064055
   1 C :   -0.045447
   2 C :   -0.047875
   3 C :    0.037241
   4 C :    0.053440
   5 O :   -0.157263
   6 H :    0.027047
   7 H :    0.024906
   8 H :    0.025628
   9 H :    0.023416
  10 H :    0.023493
  11 H :    0.031001
  12 H :    0.028195
  13 H :    0.013401
  14 H :    0.012414
  15 H :    0.014458

  Mayer bond orders larger than 0.1
B(  0-C ,  1-C ) :   1.1130 B(  0-C ,  6-H ) :   0.9612 B(  0-C ,  7-H ) :   0.9666
B(  0-C ,  8-H ) :   0.9662 B(  1-C ,  2-C ) :   1.0825 B(  1-C ,  9-H ) :   0.9407
B(  1-C , 10-H ) :   0.9389 B(  2-C ,  3-C ) :   1.0491 B(  2-C , 11-H ) :   0.9184
B(  2-C , 12-H ) :   0.9116 B(  3-C ,  4-C ) :   1.0972 B(  3-C ,  5-O ) :   0.9865
B(  3-C , 13-H ) :   0.9339 B(  4-C ,  5-O ) :   1.0040 B(  4-C , 14-H ) :   0.9281
B(  4-C , 15-H ) :   0.9378

FINAL SINGLE POINT ENERGY      -271.179447076204

DIPOLE MOMENT
-------------
                                X             Y             Z
Electronic contribution:      6.33324      -1.15154      -3.91090
Nuclear contribution   :     -6.60891       1.26457       4.57524
                        -----------------------------------------
Total Dipole Moment    :     -0.27567       0.11303       0.66434
                        -----------------------------------------
Magnitude (a.u.)       :      0.72809
Magnitude (Debye)      :      1.85067

                             ****ORCA TERMINATED NORMALLY****
TOTAL RUN TIME: 0 days 0 hours 0 minutes 6 seconds 450 msec
