                         Program Version 3.0.3 - RELEASE   -
|  1> ! RI PBE def2-SVP def2-SVP/J NBO PAL2
|  2> % maxcore 2000
|  3> % output
|  4>     # printlevel mini
|  5>     print[ P_Basis ] 0
|  6>     print[ P_SCFInfo ] 1
|  7>     print[ P_SCFIterInfo ] 1
|  8>     print[ P_OrbEn ] 0
|  9>     print[ P_Cartesian ] 0
| 10> end
| 11> *xyz 0 1
| 12>  C        1.1761130000     0.7011600000     0.3142840000
| 13>  C        2.1016850000     0.1727170000    -0.4731950000
| 14>  C        3.1339750000    -0.8157150000    -0.0379000000
| 15>  C        4.5344050000    -0.3215150000    -0.2838600000
| 16>  C        5.3309300000     0.3001830000     0.7663400000
| 17>  O        5.5801930000    -1.0354190000     0.3519850000
| 18>  H        0.4506460000     1.4130420000    -0.0618740000
| 19>  H        1.1062330000     0.4350850000     1.3646240000
| 20>  H        2.1318190000     0.4681600000    -1.5209160000
| 21>  H        3.0040020000    -1.7523430000    -0.5952220000
| 22>  H        3.0175890000    -1.0533380000     1.0227270000
| 23>  H        4.7557480000    -0.0419530000    -1.3144550000
| 24>  H        4.9036530000     0.4051460000     1.7610710000
| 25>  H        6.1052080000     1.0188990000     0.5098800000
| 26> *
| 27>
| 28>                          ****END OF INPUT****
 Total Charge           Charge          ....    0
 Multiplicity           Mult            ....    1
 Number of Electrons    NEL             ....   46
 Basis Dimension        Dim             ....  124

MULLIKEN ATOMIC CHARGES
-----------------------
   0 C :   -0.037491
   1 C :   -0.095027
   2 C :    0.162336
   3 C :   -0.046870
   4 C :    0.147983
   5 O :   -0.288539
   6 H :    0.027935
   7 H :    0.019473
   8 H :    0.007856
   9 H :    0.032455
  10 H :   -0.003211
  11 H :    0.019418
  12 H :    0.022005
  13 H :    0.031677
Sum of atomic charges:   -0.0000000

LOEWDIN ATOMIC CHARGES
----------------------
   0 C :   -0.063246
   1 C :   -0.028124
   2 C :   -0.045883
   3 C :    0.039723
   4 C :    0.056470
   5 O :   -0.155312
   6 H :    0.025900
   7 H :    0.022502
   8 H :    0.025876
   9 H :    0.043553
  10 H :    0.034014
  11 H :    0.014514
  12 H :    0.013918
  13 H :    0.016093

  Mayer bond orders larger than 0.1
B(  0-C ,  1-C ) :   2.0236 B(  0-C ,  6-H ) :   0.9462 B(  0-C ,  7-H ) :   0.9474
B(  1-C ,  2-C ) :   1.0392 B(  1-C ,  8-H ) :   0.9525 B(  2-C ,  3-C ) :   1.0347
B(  2-C ,  9-H ) :   0.8979 B(  2-C , 10-H ) :   0.9128 B(  3-C ,  4-C ) :   1.0998
B(  3-C ,  5-O ) :   0.9781 B(  3-C , 11-H ) :   0.9356 B(  4-C ,  5-O ) :   1.0058
B(  4-C , 12-H ) :   0.9265 B(  4-C , 13-H ) :   0.9404

FINAL SINGLE POINT ENERGY      -269.954280248947

DIPOLE MOMENT
-------------
                                X             Y             Z
Electronic contribution:      3.42679      -1.72040      -0.28280
Nuclear contribution   :     -3.77289       2.18318       0.18370
                        -----------------------------------------
Total Dipole Moment    :     -0.34609       0.46278      -0.09909
                        -----------------------------------------
Magnitude (a.u.)       :      0.58631
Magnitude (Debye)      :      1.49029

                             ****ORCA TERMINATED NORMALLY****
TOTAL RUN TIME: 0 days 0 hours 0 minutes 5 seconds 480 msec
