                         Program Version 3.0.3 - RELEASE   -
|  1> ! RI PBE def2-SVP def2-SVP/J NBO PAL2
|  2> % maxcore 2000
|  3> % output
|  4>     # printlevel mini
|  5>     print[ P_Basis ] 0
|  6>     print[ P_SCFInfo ] 1
|  7>     print[ P_SCFIterInfo ] 1
|  8>     print[ P_OrbEn ] 0
|  9>     print[ P_Cartesian ] 0
| 10> end
| 11> *xyz 0 1
| 12>  C        0.9258320000     0.1526370000     0.0858000000
| 13>  C        2.1235440000     0.0829280000     0.0768930000
| 14>  C        3.5736970000    -0.0239510000     0.0660680000
| 15>  C        4.0721200000    -1.3060250000     0.6845690000
| 16>  C        5.3853380000    -1.3767720000     1.3136210000
| 17>  O        4.2005500000    -1.3254700000     2.0920900000
| 18>  H       -0.1362010000     0.2198610000     0.0984790000
| 19>  H        4.0121390000     0.8212440000     0.6056120000
| 20>  H        3.9320210000     0.0328840000    -0.9685270000
| 21>  H        3.6501480000    -2.2167340000     0.2631820000
| 22>  H        6.0052630000    -0.4836370000     1.3532440000
| 23>  H        5.9219680000    -2.3216840000     1.3403690000
| 24> *
| 25>
| 26>                          ****END OF INPUT****
 Total Charge           Charge          ....    0
 Multiplicity           Mult            ....    1
 Number of Electrons    NEL             ....   44
 Basis Dimension        Dim             ....  114

MULLIKEN ATOMIC CHARGES
-----------------------
   0 C :   -0.468745
   1 C :    0.309869
   2 C :    0.168623
   3 C :   -0.037565
   4 C :    0.146653
   5 O :   -0.279781
   6 H :   -0.000744
   7 H :    0.027891
   8 H :    0.045210
   9 H :    0.028813
  10 H :    0.025450
  11 H :    0.034327
Sum of atomic charges:    0.0000000

LOEWDIN ATOMIC CHARGES
----------------------
   0 C :   -0.079407
   1 C :   -0.023015
   2 C :   -0.051146
   3 C :    0.048153
   4 C :    0.055170
   5 O :   -0.148420
   6 H :    0.034719
   7 H :    0.054847
   8 H :    0.056464
   9 H :    0.020298
  10 H :    0.014503
  11 H :    0.017833

  Mayer bond orders larger than 0.1
B(  0-C ,  1-C ) :   2.3708 B(  0-C ,  6-H ) :   1.1019 B(  1-C ,  2-C ) :   1.0675
B(  1-C ,  6-H ) :  -0.1101 B(  2-C ,  3-C ) :   1.0203 B(  2-C ,  7-H ) :   0.8778
B(  2-C ,  8-H ) :   0.8911 B(  3-C ,  4-C ) :   1.0895 B(  3-C ,  5-O ) :   0.9976
B(  3-C ,  9-H ) :   0.9367 B(  4-C ,  5-O ) :   0.9973 B(  4-C , 10-H ) :   0.9311
B(  4-C , 11-H ) :   0.9349

FINAL SINGLE POINT ENERGY      -268.710017065476

DIPOLE MOMENT
-------------
                                X             Y             Z
Electronic contribution:     -1.98041      -0.04971       1.17061
Nuclear contribution   :      2.48448       0.04809      -1.76930
                        -----------------------------------------
Total Dipole Moment    :      0.50406      -0.00162      -0.59869
                        -----------------------------------------
Magnitude (a.u.)       :      0.78263
Magnitude (Debye)      :      1.98929

                             ****ORCA TERMINATED NORMALLY****
TOTAL RUN TIME: 0 days 0 hours 0 minutes 5 seconds 354 msec
