                         Program Version 3.0.3 - RELEASE   -
|  1> ! RI PBE def2-SVP def2-SVP/J NBO PAL2
|  2> % maxcore 2000
|  3> % output
|  4>     # printlevel mini
|  5>     print[ P_Basis ] 0
|  6>     print[ P_SCFInfo ] 1
|  7>     print[ P_SCFIterInfo ] 1
|  8>     print[ P_OrbEn ] 0
|  9>     print[ P_Cartesian ] 0
| 10> end
| 11> *xyz 0 1
| 12>  C        0.9899950000     0.0753970000    -0.0027570000
| 13>  C        2.4650310000    -0.1146870000     0.0664400000
| 14>  C        3.1668760000    -0.9269630000    -0.7144680000
| 15>  C        4.6338860000    -1.0966080000    -0.6489480000
| 16>  C        5.3738970000    -1.1220580000     0.6077630000
| 17>  O        5.1220940000    -2.3218440000    -0.1022560000
| 18>  H        0.5183230000    -0.1767740000     0.9522320000
| 19>  H        0.5416380000    -0.5449080000    -0.7807230000
| 20>  H        0.7384800000     1.1206180000    -0.2086800000
| 21>  H        2.9936870000     0.4685940000     0.8186440000
| 22>  H        2.6576720000    -1.5082970000    -1.4817310000
| 23>  H        5.1795910000    -0.7919750000    -1.5428310000
| 24>  H        4.8333390000    -1.0182930000     1.5449700000
| 25>  H        6.4128020000    -0.8010020000     0.6267210000
| 26> *
| 27>
| 28>                          ****END OF INPUT****
 Total Charge           Charge          ....    0
 Multiplicity           Mult            ....    1
 Number of Electrons    NEL             ....   46
 Basis Dimension        Dim             ....  124

MULLIKEN ATOMIC CHARGES
-----------------------
   0 C :    0.038199
   1 C :   -0.111549
   2 C :    0.009278
   3 C :    0.044313
   4 C :    0.136423
   5 O :   -0.295267
   6 H :    0.037005
   7 H :    0.024226
   8 H :    0.035496
   9 H :    0.001143
  10 H :    0.002774
  11 H :    0.026413
  12 H :    0.026571
  13 H :    0.024977
Sum of atomic charges:   -0.0000000

LOEWDIN ATOMIC CHARGES
----------------------
   0 C :   -0.063864
   1 C :   -0.026154
   2 C :   -0.056448
   3 C :    0.037382
   4 C :    0.055837
   5 O :   -0.157165
   6 H :    0.039644
   7 H :    0.032689
   8 H :    0.038835
   9 H :    0.022893
  10 H :    0.027855
  11 H :    0.019501
  12 H :    0.014140
  13 H :    0.014853

  Mayer bond orders larger than 0.1
B(  0-C ,  1-C ) :   1.0829 B(  0-C ,  6-H ) :   0.9463 B(  0-C ,  7-H ) :   0.9620
B(  0-C ,  8-H ) :   0.9463 B(  1-C ,  2-C ) :   1.9180 B(  1-C ,  9-H ) :   0.9547
B(  2-C ,  3-C ) :   1.0309 B(  2-C , 10-H ) :   0.9471 B(  3-C ,  4-C ) :   1.1138
B(  3-C ,  5-O ) :   0.9440 B(  3-C , 11-H ) :   0.9144 B(  4-C ,  5-O ) :   1.0065
B(  4-C , 12-H ) :   0.9306 B(  4-C , 13-H ) :   0.9307

FINAL SINGLE POINT ENERGY      -269.957700245516

DIPOLE MOMENT
-------------
                                X             Y             Z
Electronic contribution:      4.56073      -3.19235      -0.74863
Nuclear contribution   :     -4.85939       3.94865       0.82723
                        -----------------------------------------
Total Dipole Moment    :     -0.29865       0.75630       0.07860
                        -----------------------------------------
Magnitude (a.u.)       :      0.81692
Magnitude (Debye)      :      2.07646

                             ****ORCA TERMINATED NORMALLY****
TOTAL RUN TIME: 0 days 0 hours 0 minutes 5 seconds 747 msec
