                         Program Version 3.0.3 - RELEASE   -
|  1> ! RI PBE def2-SVP def2-SVP/J NBO PAL2
|  2> % maxcore 2000
|  3> % output
|  4>     # printlevel mini
|  5>     print[ P_Basis ] 0
|  6>     print[ P_SCFInfo ] 1
|  7>     print[ P_SCFIterInfo ] 1
|  8>     print[ P_OrbEn ] 0
|  9>     print[ P_Cartesian ] 0
| 10> end
| 11> *xyz 0 1
| 12>  C        0.9358420000     0.0307190000    -0.1820610000
| 13>  C        2.4290000000     0.1135590000    -0.1785230000
| 14>  C        3.2170190000    -0.7614040000     0.4355810000
| 15>  C        2.9920030000     1.2648430000    -0.9271810000
| 16>  C        3.6022100000     2.4097760000    -0.2429570000
| 17>  O        4.3922040000     1.4501710000    -0.9205240000
| 18>  H        0.4894770000     0.9362410000     0.2420100000
| 19>  H        0.5860000000    -0.8266450000     0.3932730000
| 20>  H        0.5506370000    -0.0614500000    -1.2029740000
| 21>  H        2.8028880000    -1.5959060000     0.9898130000
| 22>  H        4.2949030000    -0.6614230000     0.3930220000
| 23>  H        2.5226640000     1.4623730000    -1.8922190000
| 24>  H        3.6744860000     2.3843520000     0.8415230000
| 25>  H        3.5707550000     3.3960850000    -0.7002630000
| 26> *
| 27>
| 28>                          ****END OF INPUT****
 Total Charge           Charge          ....    0
 Multiplicity           Mult            ....    1
 Number of Electrons    NEL             ....   46
 Basis Dimension        Dim             ....  124

MULLIKEN ATOMIC CHARGES
-----------------------
   0 C :    0.058979
   1 C :   -0.142494
   2 C :   -0.030747
   3 C :    0.043906
   4 C :    0.142071
   5 O :   -0.277493
   6 H :    0.031875
   7 H :    0.019868
   8 H :    0.032749
   9 H :    0.009628
  10 H :    0.028212
  11 H :    0.018956
  12 H :    0.033058
  13 H :    0.031430
Sum of atomic charges:   -0.0000000

LOEWDIN ATOMIC CHARGES
----------------------
   0 C :   -0.053759
   1 C :   -0.052801
   2 C :   -0.065553
   3 C :    0.042443
   4 C :    0.064356
   5 O :   -0.139818
   6 H :    0.036316
   7 H :    0.034207
   8 H :    0.036603
   9 H :    0.021363
  10 H :    0.025314
  11 H :    0.019121
  12 H :    0.017138
  13 H :    0.015067

  Mayer bond orders larger than 0.1
B(  0-C ,  1-C ) :   1.0715 B(  0-C ,  6-H ) :   0.9460 B(  0-C ,  7-H ) :   0.9477
B(  0-C ,  8-H ) :   0.9473 B(  1-C ,  2-C ) :   1.9815 B(  1-C ,  3-C ) :   1.0143
B(  2-C ,  9-H ) :   0.9309 B(  2-C , 10-H ) :   0.9265 B(  3-C ,  4-C ) :   1.0761
B(  3-C ,  5-O ) :   0.9922 B(  3-C , 11-H ) :   0.9248 B(  4-C ,  5-O ) :   0.9991
B(  4-C , 12-H ) :   0.9307 B(  4-C , 13-H ) :   0.9419

FINAL SINGLE POINT ENERGY      -269.961285446119

DIPOLE MOMENT
-------------
                                X             Y             Z
Electronic contribution:      3.97754       1.35093      -1.54760
Nuclear contribution   :     -4.68347      -1.06705       1.68535
                        -----------------------------------------
Total Dipole Moment    :     -0.70593       0.28388       0.13776
                        -----------------------------------------
Magnitude (a.u.)       :      0.77324
Magnitude (Debye)      :      1.96542

                             ****ORCA TERMINATED NORMALLY****
TOTAL RUN TIME: 0 days 0 hours 0 minutes 5 seconds 884 msec
