                         Program Version 3.0.3 - RELEASE   -
|  1> ! RI PBE def2-SVP def2-SVP/J NBO PAL2
|  2> % maxcore 2000
|  3> % output
|  4>     # printlevel mini
|  5>     print[ P_Basis ] 0
|  6>     print[ P_SCFInfo ] 1
|  7>     print[ P_SCFIterInfo ] 1
|  8>     print[ P_OrbEn ] 0
|  9>     print[ P_Cartesian ] 0
| 10> end
| 11> *xyz 0 1
| 12>  C        0.8755230000     0.1196930000     0.1460780000
| 13>  C        2.3808170000     0.0456310000    -0.0909140000
| 14>  C        3.0873980000     1.2640780000     0.4830490000
| 15>  C        2.9023110000    -1.2639530000     0.4499180000
| 16>  C        4.2053590000    -1.4552630000     1.0778390000
| 17>  O        3.0228150000    -1.3943940000     1.8600900000
| 18>  H        0.4528590000     1.0216340000    -0.3024730000
| 19>  H        0.6592240000     0.1403470000     1.2174380000
| 20>  H        0.3596360000    -0.7432050000    -0.2833050000
| 21>  H        2.5558180000     0.0167920000    -1.1746380000
| 22>  H        3.0400350000     1.2571460000     1.5748420000
| 23>  H        2.6074650000     2.1802840000     0.1323270000
| 24>  H        4.1368870000     1.3075220000     0.1843910000
| 25>  H        2.4546330000    -2.1413610000    -0.0199810000
| 26>  H        4.8805240000    -0.6127130000     1.1974930000
| 27>  H        4.6825940000    -2.4316580000     1.0337450000
| 28> *
| 29>
| 30>                          ****END OF INPUT****
 Total Charge           Charge          ....    0
 Multiplicity           Mult            ....    1
 Number of Electrons    NEL             ....   48
 Basis Dimension        Dim             ....  134

MULLIKEN ATOMIC CHARGES
-----------------------
   0 C :    0.008095
   1 C :   -0.080111
   2 C :    0.003780
   3 C :    0.018236
   4 C :    0.141013
   5 O :   -0.298545
   6 H :    0.017149
   7 H :    0.030573
   8 H :    0.014135
   9 H :    0.017379
  10 H :    0.034619
  11 H :    0.012236
  12 H :    0.018138
  13 H :    0.011804
  14 H :    0.025948
  15 H :    0.025551
Sum of atomic charges:   -0.0000000

LOEWDIN ATOMIC CHARGES
----------------------
   0 C :   -0.054556
   1 C :   -0.057114
   2 C :   -0.060259
   3 C :    0.044393
   4 C :    0.051080
   5 O :   -0.158492
   6 H :    0.024987
   7 H :    0.030224
   8 H :    0.024718
   9 H :    0.031947
  10 H :    0.029138
  11 H :    0.027773
  12 H :    0.023810
  13 H :    0.013913
  14 H :    0.013643
  15 H :    0.014796

  Mayer bond orders larger than 0.1
B(  0-C ,  1-C ) :   1.0788 B(  0-C ,  6-H ) :   0.9614 B(  0-C ,  7-H ) :   0.9657
B(  0-C ,  8-H ) :   0.9602 B(  1-C ,  2-C ) :   1.0955 B(  1-C ,  3-C ) :   1.0034
B(  1-C ,  9-H ) :   0.9051 B(  2-C , 10-H ) :   0.9547 B(  2-C , 11-H ) :   0.9550
B(  2-C , 12-H ) :   0.9513 B(  3-C ,  4-C ) :   1.1057 B(  3-C ,  5-O ) :   0.9650
B(  3-C , 13-H ) :   0.9361 B(  4-C ,  5-O ) :   1.0007 B(  4-C , 14-H ) :   0.9204
B(  4-C , 15-H ) :   0.9346

FINAL SINGLE POINT ENERGY      -271.179726406489

DIPOLE MOMENT
-------------
                                X             Y             Z
Electronic contribution:      1.67513      -3.98884       2.35983
Nuclear contribution   :     -1.46426       4.09884      -2.97779
                        -----------------------------------------
Total Dipole Moment    :      0.21087       0.11001      -0.61795
                        -----------------------------------------
Magnitude (a.u.)       :      0.66214
Magnitude (Debye)      :      1.68303

                             ****ORCA TERMINATED NORMALLY****
TOTAL RUN TIME: 0 days 0 hours 0 minutes 5 seconds 947 msec
