                         Program Version 3.0.3 - RELEASE   -
|  1> ! RI PBE def2-SVP def2-SVP/J NBO PAL2
|  2> % maxcore 2000
|  3> % output
|  4>     # printlevel mini
|  5>     print[ P_Basis ] 0
|  6>     print[ P_SCFInfo ] 1
|  7>     print[ P_SCFIterInfo ] 1
|  8>     print[ P_OrbEn ] 0
|  9>     print[ P_Cartesian ] 0
| 10> end
| 11> *xyz 0 1
| 12>  C        0.9369480000     0.0702900000     0.0879970000
| 13>  C        2.3851500000     0.0193080000     0.0728460000
| 14>  C        3.5870280000    -0.0171660000     0.0493380000
| 15>  C        5.0222390000    -0.0614810000     0.0633250000
| 16>  C        5.7870450000    -0.6649460000    -1.0328140000
| 17>  O        5.7210030000     0.7377080000    -0.8882600000
| 18>  H        0.5721940000     0.8551130000    -0.5793400000
| 19>  H        0.5633470000     0.2830560000     1.0925680000
| 20>  H        0.5052620000    -0.8784670000    -0.2403540000
| 21>  H        5.4762940000    -0.0608280000     1.0522550000
| 22>  H        5.2452370000    -1.0730420000    -1.8816400000
| 23>  H        6.7531440000    -1.1157460000    -0.8179020000
| 24> *
| 25>
| 26>                          ****END OF INPUT****
 Total Charge           Charge          ....    0
 Multiplicity           Mult            ....    1
 Number of Electrons    NEL             ....   44
 Basis Dimension        Dim             ....  114

MULLIKEN ATOMIC CHARGES
-----------------------
   0 C :    0.055001
   1 C :   -0.217495
   2 C :    0.055160
   3 C :   -0.051139
   4 C :    0.164913
   5 O :   -0.272448
   6 H :    0.055168
   7 H :    0.050445
   8 H :    0.050534
   9 H :    0.044043
  10 H :    0.033833
  11 H :    0.031986
Sum of atomic charges:    0.0000000

LOEWDIN ATOMIC CHARGES
----------------------
   0 C :   -0.066292
   1 C :   -0.041375
   2 C :   -0.075977
   3 C :    0.030147
   4 C :    0.070091
   5 O :   -0.143002
   6 H :    0.055307
   7 H :    0.052473
   8 H :    0.051805
   9 H :    0.031184
  10 H :    0.019026
  11 H :    0.016615

  Mayer bond orders larger than 0.1
B(  0-C ,  1-C ) :   1.1261 B(  0-C ,  6-H ) :   0.9297 B(  0-C ,  7-H ) :   0.9341
B(  0-C ,  8-H ) :   0.9326 B(  1-C ,  2-C ) :   2.5542 B(  2-C ,  3-C ) :   0.9379
B(  3-C ,  4-C ) :   1.0748 B(  3-C ,  5-O ) :   1.0072 B(  3-C ,  9-H ) :   0.9316
B(  4-C ,  5-O ) :   0.9901 B(  4-C , 10-H ) :   0.9347 B(  4-C , 11-H ) :   0.9332

FINAL SINGLE POINT ENERGY      -268.720609273116

DIPOLE MOMENT
-------------
                                X             Y             Z
Electronic contribution:      3.75049       1.39809      -0.19690
Nuclear contribution   :     -4.22758      -1.98945       0.39650
                        -----------------------------------------
Total Dipole Moment    :     -0.47709      -0.59136       0.19960
                        -----------------------------------------
Magnitude (a.u.)       :      0.78559
Magnitude (Debye)      :      1.99682

                             ****ORCA TERMINATED NORMALLY****
TOTAL RUN TIME: 0 days 0 hours 0 minutes 5 seconds 217 msec
