                         Program Version 3.0.3 - RELEASE   -
|  1> ! RI PBE def2-SVP def2-SVP/J NBO PAL2
|  2> % maxcore 2000
|  3> % output
|  4>     # printlevel mini
|  5>     print[ P_Basis ] 0
|  6>     print[ P_SCFInfo ] 1
|  7>     print[ P_SCFIterInfo ] 1
|  8>     print[ P_OrbEn ] 0
|  9>     print[ P_Cartesian ] 0
| 10> end
| 11> *xyz 0 1
| 12>  C        1.0242100000    -0.0550330000    -0.0460580000
| 13>  C        2.5428390000    -0.0196290000    -0.0616450000
| 14>  C        3.1036030000     1.1824650000    -0.8057470000
| 15>  C        4.6231350000     1.2230260000    -0.8313880000
| 16>  C        5.1690760000     2.4321780000    -1.5656080000
| 17>  O        6.5792600000     2.4470060000    -1.6453310000
| 18>  H        0.6482590000    -0.9275780000     0.4931020000
| 19>  H        0.6201040000    -0.0932720000    -1.0616340000
| 20>  H        0.6134400000     0.8359960000     0.4372590000
| 21>  H        2.9280100000    -0.9376670000    -0.5200730000
| 22>  H        2.9213540000    -0.0145980000     0.9671180000
| 23>  H        2.7190430000     2.1019860000    -0.3465210000
| 24>  H        2.7231750000     1.1782200000    -1.8348970000
| 25>  H        5.0171120000     0.3179390000    -1.3063270000
| 26>  H        5.0047770000     1.2259850000     0.1987060000
| 27>  H        4.7928690000     3.3545040000    -1.0983540000
| 28>  H        4.8159450000     2.4318100000    -2.6005000000
| 29>  H        6.9298790000     2.4443420000    -0.7510900000
| 30> *
| 31>
| 32>                          ****END OF INPUT****
 Total Charge           Charge          ....    0
 Multiplicity           Mult            ....    1
 Number of Electrons    NEL             ....   50
 Basis Dimension        Dim             ....  144

MULLIKEN ATOMIC CHARGES
-----------------------
   0 C :   -0.002883
   1 C :   -0.033451
   2 C :   -0.054625
   3 C :   -0.036346
   4 C :    0.178847
   5 O :   -0.284595
   6 H :    0.018415
   7 H :    0.015855
   8 H :    0.016062
   9 H :    0.007670
  10 H :    0.007362
  11 H :    0.003714
  12 H :    0.008537
  13 H :    0.010583
  14 H :   -0.004887
  15 H :   -0.008308
  16 H :    0.007940
  17 H :    0.150110
Sum of atomic charges:   -0.0000000

LOEWDIN ATOMIC CHARGES
----------------------
   0 C :   -0.065780
   1 C :   -0.045765
   2 C :   -0.042331
   3 C :   -0.064292
   4 C :    0.053679
   5 O :   -0.124254
   6 H :    0.026423
   7 H :    0.024017
   8 H :    0.023882
   9 H :    0.022724
  10 H :    0.021814
  11 H :    0.020312
  12 H :    0.022539
  13 H :    0.023979
  14 H :    0.016787
  15 H :    0.001250
  16 H :    0.019804
  17 H :    0.065212

  Mayer bond orders larger than 0.1
B(  0-C ,  1-C ) :   1.1140 B(  0-C ,  6-H ) :   0.9610 B(  0-C ,  7-H ) :   0.9657
B(  0-C ,  8-H ) :   0.9661 B(  1-C ,  2-C ) :   1.0902 B(  1-C ,  9-H ) :   0.9376
B(  1-C , 10-H ) :   0.9379 B(  2-C ,  3-C ) :   1.0700 B(  2-C , 11-H ) :   0.9366
B(  2-C , 12-H ) :   0.9377 B(  3-C ,  4-C ) :   1.0760 B(  3-C , 13-H ) :   0.9282
B(  3-C , 14-H ) :   0.9276 B(  4-C ,  5-O ) :   1.0645 B(  4-C , 15-H ) :   0.9383
B(  4-C , 16-H ) :   0.9352 B(  5-O , 17-H ) :   0.9873

FINAL SINGLE POINT ENERGY      -272.406819545984

DIPOLE MOMENT
-------------
                                X             Y             Z
Electronic contribution:      6.19819       2.57345      -1.88004
Nuclear contribution   :     -6.49542      -2.64179       2.41950
                        -----------------------------------------
Total Dipole Moment    :     -0.29724      -0.06833       0.53946
                        -----------------------------------------
Magnitude (a.u.)       :      0.61971
Magnitude (Debye)      :      1.57517

                             ****ORCA TERMINATED NORMALLY****
TOTAL RUN TIME: 0 days 0 hours 0 minutes 7 seconds 39 msec
