                         Program Version 3.0.3 - RELEASE   -
|  1> ! RI PBE def2-SVP def2-SVP/J NBO PAL2
|  2> % maxcore 2000
|  3> % output
|  4>     # printlevel mini
|  5>     print[ P_Basis ] 0
|  6>     print[ P_SCFInfo ] 1
|  7>     print[ P_SCFIterInfo ] 1
|  8>     print[ P_OrbEn ] 0
|  9>     print[ P_Cartesian ] 0
| 10> end
| 11> *xyz 0 1
| 12>  C        1.0661970000     0.2511140000     0.1937920000
| 13>  C        2.3914670000     0.1654000000     0.0701490000
| 14>  C        3.0825170000    -1.0743440000    -0.1869520000
| 15>  C        4.4113800000    -1.2003940000    -0.3173860000
| 16>  C        5.0171700000    -2.5014740000    -0.5773140000
| 17>  O        6.2015710000    -2.6923980000    -0.7062390000
| 18>  H        0.5733210000     1.1959150000     0.3869320000
| 19>  H        0.4346030000    -0.6268910000     0.1046050000
| 20>  H        3.0025210000     1.0594550000     0.1636240000
| 21>  H        2.4660430000    -1.9682080000    -0.2799530000
| 22>  H        5.0808950000    -0.3491320000    -0.2356490000
| 23>  H        4.2926350000    -3.3424320000    -0.6527990000
| 24> *
| 25>
| 26>                          ****END OF INPUT****
 Total Charge           Charge          ....    0
 Multiplicity           Mult            ....    1
 Number of Electrons    NEL             ....   44
 Basis Dimension        Dim             ....  114

MULLIKEN ATOMIC CHARGES
-----------------------
   0 C :   -0.006634
   1 C :   -0.006621
   2 C :    0.023904
   3 C :   -0.025188
   4 C :    0.118733
   5 O :   -0.167974
   6 H :    0.039432
   7 H :    0.032890
   8 H :    0.008656
   9 H :    0.002910
  10 H :    0.006853
  11 H :   -0.026960
Sum of atomic charges:   -0.0000000

LOEWDIN ATOMIC CHARGES
----------------------
   0 C :   -0.014715
   1 C :   -0.030338
   2 C :    0.010383
   3 C :   -0.062432
   4 C :    0.063335
   5 O :   -0.115855
   6 H :    0.032111
   7 H :    0.029301
   8 H :    0.035643
   9 H :    0.031961
  10 H :    0.034631
  11 H :   -0.014025

  Mayer bond orders larger than 0.1
B(  0-C ,  1-C ) :   1.8668 B(  0-C ,  3-C ) :   0.1216 B(  0-C ,  6-H ) :   0.9418
B(  0-C ,  7-H ) :   0.9479 B(  1-C ,  2-C ) :   1.1429 B(  1-C ,  8-H ) :   0.9651
B(  2-C ,  3-C ) :   1.6370 B(  2-C ,  9-H ) :   0.9603 B(  3-C ,  4-C ) :   1.0420
B(  3-C , 10-H ) :   0.9705 B(  4-C ,  5-O ) :   2.0981 B(  4-C , 11-H ) :   0.9310

FINAL SINGLE POINT ENERGY      -268.784094966343

DIPOLE MOMENT
-------------
                                X             Y             Z
Electronic contribution:      4.84053      -2.39341      -0.78553
Nuclear contribution   :     -6.14167       3.01818       0.99548
                        -----------------------------------------
Total Dipole Moment    :     -1.30115       0.62477       0.20995
                        -----------------------------------------
Magnitude (a.u.)       :      1.45856
Magnitude (Debye)      :      3.70736

                             ****ORCA TERMINATED NORMALLY****
TOTAL RUN TIME: 0 days 0 hours 0 minutes 5 seconds 119 msec
