                         Program Version 3.0.3 - RELEASE   -
|  1> ! RI PBE def2-SVP def2-SVP/J NBO PAL2
|  2> % maxcore 2000
|  3> % output
|  4>     # printlevel mini
|  5>     print[ P_Basis ] 0
|  6>     print[ P_SCFInfo ] 1
|  7>     print[ P_SCFIterInfo ] 1
|  8>     print[ P_OrbEn ] 0
|  9>     print[ P_Cartesian ] 0
| 10> end
| 11> *xyz 0 1
| 12>  C        2.1953710000    -0.5536320000     0.4879200000
| 13>  C        3.3499310000    -0.1130760000    -0.0032680000
| 14>  C        3.5427840000     0.9245130000    -1.0193020000
| 15>  C        2.5812550000     1.6180940000    -1.6360440000
| 16>  C        4.9574100000     1.2204740000    -1.3868160000
| 17>  O        5.3050110000     2.0365090000    -2.1978550000
| 18>  H        2.1728650000    -1.3305190000     1.2419130000
| 19>  H        1.2372060000    -0.1629620000     0.1627150000
| 20>  H        4.2689370000    -0.5569810000     0.3754930000
| 21>  H        1.5287720000     1.4665400000    -1.4288770000
| 22>  H        2.8552010000     2.3633580000    -2.3736230000
| 23>  H        5.7124560000     0.6129840000    -0.8420550000
| 24> *
| 25>
| 26>                          ****END OF INPUT****
 Total Charge           Charge          ....    0
 Multiplicity           Mult            ....    1
 Number of Electrons    NEL             ....   44
 Basis Dimension        Dim             ....  114

MULLIKEN ATOMIC CHARGES
-----------------------
   0 C :   -0.023906
   1 C :    0.011075
   2 C :   -0.081332
   3 C :   -0.002694
   4 C :    0.140903
   5 O :   -0.149397
   6 H :    0.038729
   7 H :    0.020359
   8 H :   -0.008546
   9 H :    0.031336
  10 H :    0.046501
  11 H :   -0.023028
Sum of atomic charges:   -0.0000000

LOEWDIN ATOMIC CHARGES
----------------------
   0 C :   -0.028431
   1 C :   -0.033816
   2 C :   -0.093193
   3 C :    0.031795
   4 C :    0.090275
   5 O :   -0.100436
   6 H :    0.031344
   7 H :    0.023661
   8 H :    0.028124
   9 H :    0.028256
  10 H :    0.034257
  11 H :   -0.011835

  Mayer bond orders larger than 0.1
B(  0-C ,  1-C ) :   1.9394 B(  0-C ,  3-C ) :   0.1162 B(  0-C ,  6-H ) :   0.9427
B(  0-C ,  7-H ) :   0.9426 B(  1-C ,  2-C ) :   1.0689 B(  1-C ,  8-H ) :   0.9465
B(  2-C ,  3-C ) :   1.8783 B(  2-C ,  4-C ) :   0.9507 B(  3-C ,  9-H ) :   0.9336
B(  3-C , 10-H ) :   0.9179 B(  4-C ,  5-O ) :   2.1603 B(  4-C , 11-H ) :   0.9267

FINAL SINGLE POINT ENERGY      -268.772409719847

DIPOLE MOMENT
-------------
                                X             Y             Z
Electronic contribution:      3.41346       2.16802      -2.29281
Nuclear contribution   :     -4.03923      -2.68745       2.83313
                        -----------------------------------------
Total Dipole Moment    :     -0.62576      -0.51943       0.54032
                        -----------------------------------------
Magnitude (a.u.)       :      0.97639
Magnitude (Debye)      :      2.48177

                             ****ORCA TERMINATED NORMALLY****
TOTAL RUN TIME: 0 days 0 hours 0 minutes 5 seconds 246 msec
