                         Program Version 3.0.3 - RELEASE   -
|  1> ! RI PBE def2-SVP def2-SVP/J NBO PAL2
|  2> % maxcore 2000
|  3> % output
|  4>     # printlevel mini
|  5>     print[ P_Basis ] 0
|  6>     print[ P_SCFInfo ] 1
|  7>     print[ P_SCFIterInfo ] 1
|  8>     print[ P_OrbEn ] 0
|  9>     print[ P_Cartesian ] 0
| 10> end
| 11> *xyz 0 1
| 12>  C        0.9314900000    -0.2157060000    -0.0893500000
| 13>  C        2.2406340000     0.0082170000     0.0340810000
| 14>  C        2.9600790000     0.9001260000    -0.7934280000
| 15>  C        3.6207060000     1.6506590000    -1.4737620000
| 16>  C        4.3447920000     2.5585780000    -2.3182270000
| 17>  O        5.5268760000     2.7763920000    -2.2251320000
| 18>  H        0.4232350000    -0.9091990000     0.5691670000
| 19>  H        0.3415700000     0.2861460000    -0.8468800000
| 20>  H        2.8127620000    -0.5064030000     0.8013330000
| 21>  H        3.7256550000     3.0617900000    -3.0853930000
| 22> *
| 23>
| 24>                          ****END OF INPUT****
 Total Charge           Charge          ....    0
 Multiplicity           Mult            ....    1
 Number of Electrons    NEL             ....   42
 Basis Dimension        Dim             ....  104

MULLIKEN ATOMIC CHARGES
-----------------------
   0 C :    0.006989
   1 C :   -0.078713
   2 C :    0.000919
   3 C :   -0.013947
   4 C :    0.079332
   5 O :   -0.154031
   6 H :    0.048431
   7 H :    0.047958
   8 H :    0.048102
   9 H :    0.014961
Sum of atomic charges:   -0.0000000

LOEWDIN ATOMIC CHARGES
----------------------
   0 C :    0.011571
   1 C :   -0.044113
   2 C :    0.005083
   3 C :   -0.068052
   4 C :    0.063418
   5 O :   -0.093617
   6 H :    0.035088
   7 H :    0.036054
   8 H :    0.050849
   9 H :    0.003719

  Mayer bond orders larger than 0.1
B(  0-C ,  1-C ) :   1.8876 B(  0-C ,  3-C ) :   0.1168 B(  0-C ,  6-H ) :   0.9441
B(  0-C ,  7-H ) :   0.9542 B(  1-C ,  2-C ) :   1.0755 B(  1-C ,  8-H ) :   0.9470
B(  2-C ,  3-C ) :   2.4525 B(  2-C ,  5-O ) :   0.1060 B(  3-C ,  4-C ) :   0.9148
B(  4-C ,  5-O ) :   2.1217 B(  4-C ,  9-H ) :   0.9414

FINAL SINGLE POINT ENERGY      -267.532405638022

DIPOLE MOMENT
-------------
                                X             Y             Z
Electronic contribution:      4.25233       2.47692      -1.63569
Nuclear contribution   :     -5.53832      -3.09706       1.98205
                        -----------------------------------------
Total Dipole Moment    :     -1.28599      -0.62014       0.34636
                        -----------------------------------------
Magnitude (a.u.)       :      1.46912
Magnitude (Debye)      :      3.73421

                             ****ORCA TERMINATED NORMALLY****
TOTAL RUN TIME: 0 days 0 hours 0 minutes 4 seconds 381 msec
