                         Program Version 3.0.3 - RELEASE   -
|  1> ! RI PBE def2-SVP def2-SVP/J NBO PAL2
|  2> % maxcore 2000
|  3> % output
|  4>     # printlevel mini
|  5>     print[ P_Basis ] 0
|  6>     print[ P_SCFInfo ] 1
|  7>     print[ P_SCFIterInfo ] 1
|  8>     print[ P_OrbEn ] 0
|  9>     print[ P_Cartesian ] 0
| 10> end
| 11> *xyz 0 1
| 12>  C        2.7688730000     1.1519610000     0.7767770000
| 13>  C        2.3570600000     0.0774980000     0.1170320000
| 14>  C        3.2105320000    -0.9396600000    -0.5671040000
| 15>  C        4.7012260000    -0.6982100000    -0.4859740000
| 16>  C        5.5295710000    -1.7353470000    -1.1815280000
| 17>  O        5.0925850000    -2.6902680000    -1.7635440000
| 18>  H        2.0599740000     1.8288140000     1.2387930000
| 19>  H        3.8185990000     1.4024460000     0.8848690000
| 20>  H        1.2869100000    -0.1087730000     0.0505280000
| 21>  H        2.9116880000    -1.0073400000    -1.6197050000
| 22>  H        2.9817980000    -1.9310610000    -0.1588600000
| 23>  H        5.0507380000    -0.6549810000     0.5547600000
| 24>  H        4.9802190000     0.2741700000    -0.9146780000
| 25>  H        6.6274270000    -1.5654600000    -1.1262640000
| 26> *
| 27>
| 28>                          ****END OF INPUT****
 Total Charge           Charge          ....    0
 Multiplicity           Mult            ....    1
 Number of Electrons    NEL             ....   46
 Basis Dimension        Dim             ....  124

MULLIKEN ATOMIC CHARGES
-----------------------
   0 C :   -0.037222
   1 C :   -0.103104
   2 C :    0.072337
   3 C :   -0.041616
   4 C :    0.078235
   5 O :   -0.158207
   6 H :    0.024503
   7 H :    0.010668
   8 H :    0.008593
   9 H :    0.033296
  10 H :    0.031150
  11 H :    0.045036
  12 H :    0.043351
  13 H :   -0.007019
Sum of atomic charges:   -0.0000000

LOEWDIN ATOMIC CHARGES
----------------------
   0 C :   -0.076993
   1 C :   -0.027671
   2 C :   -0.041333
   3 C :   -0.083240
   4 C :    0.092406
   5 O :   -0.108496
   6 H :    0.026982
   7 H :    0.017434
   8 H :    0.028599
   9 H :    0.043457
  10 H :    0.043252
  11 H :    0.048328
  12 H :    0.048230
  13 H :   -0.010953

  Mayer bond orders larger than 0.1
B(  0-C ,  1-C ) :   2.0164 B(  0-C ,  6-H ) :   0.9414 B(  0-C ,  7-H ) :   0.9349
B(  1-C ,  2-C ) :   1.0503 B(  1-C ,  8-H ) :   0.9559 B(  2-C ,  3-C ) :   1.0970
B(  2-C ,  9-H ) :   0.9121 B(  2-C , 10-H ) :   0.9109 B(  3-C ,  4-C ) :   0.9650
B(  3-C , 11-H ) :   0.8991 B(  3-C , 12-H ) :   0.8986 B(  4-C ,  5-O ) :   2.1934
B(  4-C , 13-H ) :   0.9325

FINAL SINGLE POINT ENERGY      -269.988982786085

DIPOLE MOMENT
-------------
                                X             Y             Z
Electronic contribution:      2.05019      -3.97868      -2.61553
Nuclear contribution   :     -1.94395       4.61567       3.01123
                        -----------------------------------------
Total Dipole Moment    :      0.10624       0.63698       0.39570
                        -----------------------------------------
Magnitude (a.u.)       :      0.75737
Magnitude (Debye)      :      1.92508

                             ****ORCA TERMINATED NORMALLY****
TOTAL RUN TIME: 0 days 0 hours 0 minutes 5 seconds 821 msec
