                         Program Version 3.0.3 - RELEASE   -
|  1> ! RI PBE def2-SVP def2-SVP/J NBO PAL2
|  2> % maxcore 2000
|  3> % output
|  4>     # printlevel mini
|  5>     print[ P_Basis ] 0
|  6>     print[ P_SCFInfo ] 1
|  7>     print[ P_SCFIterInfo ] 1
|  8>     print[ P_OrbEn ] 0
|  9>     print[ P_Cartesian ] 0
| 10> end
| 11> *xyz 0 1
| 12>  C        0.4993450000    -0.3896210000     0.0961700000
| 13>  C        1.9493400000    -0.1358320000    -0.1365400000
| 14>  C        2.9460810000    -0.8619440000     0.3614800000
| 15>  C        4.3960840000    -0.6190390000     0.0999030000
| 16>  C        4.9848380000    -1.6897350000    -0.8133800000
| 17>  O        4.3812910000    -1.6943860000    -2.0848970000
| 18>  H        0.0269310000     0.4635140000     0.5935280000
| 19>  H        0.3419310000    -1.2747790000     0.7155090000
| 20>  H       -0.0346760000    -0.5331070000    -0.8484220000
| 21>  H        2.1981640000     0.7290370000    -0.7510740000
| 22>  H        2.7036710000    -1.7274060000     0.9794850000
| 23>  H        4.9564900000    -0.6195630000     1.0421140000
| 24>  H        4.5351690000     0.3599720000    -0.3683410000
| 25>  H        4.8959550000    -2.6753440000    -0.3317580000
| 26>  H        6.0482330000    -1.4992990000    -0.9761890000
| 27>  H        3.4278640000    -1.6646600000    -1.9470990000
| 28> *
| 29>
| 30>                          ****END OF INPUT****
 Total Charge           Charge          ....    0
 Multiplicity           Mult            ....    1
 Number of Electrons    NEL             ....   48
 Basis Dimension        Dim             ....  134

MULLIKEN ATOMIC CHARGES
-----------------------
   0 C :    0.038488
   1 C :   -0.102292
   2 C :   -0.119704
   3 C :    0.037844
   4 C :    0.160774
   5 O :   -0.286592
   6 H :    0.037948
   7 H :    0.022072
   8 H :    0.034317
   9 H :    0.000840
  10 H :   -0.005120
  11 H :    0.014533
  12 H :    0.011105
  13 H :   -0.005190
  14 H :    0.015261
  15 H :    0.145715
Sum of atomic charges:    0.0000000

LOEWDIN ATOMIC CHARGES
----------------------
   0 C :   -0.066404
   1 C :   -0.046209
   2 C :   -0.056962
   3 C :   -0.060979
   4 C :    0.057861
   5 O :   -0.124043
   6 H :    0.038938
   7 H :    0.031492
   8 H :    0.037484
   9 H :    0.023417
  10 H :    0.021709
  11 H :    0.035533
  12 H :    0.029181
  13 H :    0.000476
  14 H :    0.020375
  15 H :    0.058133

  Mayer bond orders larger than 0.1
B(  0-C ,  1-C ) :   1.0881 B(  0-C ,  6-H ) :   0.9456 B(  0-C ,  7-H ) :   0.9600
B(  0-C ,  8-H ) :   0.9466 B(  1-C ,  2-C ) :   1.9001 B(  1-C ,  9-H ) :   0.9519
B(  2-C ,  3-C ) :   1.0559 B(  2-C , 10-H ) :   0.9528 B(  3-C ,  4-C ) :   1.0616
B(  3-C , 11-H ) :   0.9009 B(  3-C , 12-H ) :   0.9258 B(  4-C ,  5-O ) :   1.0717
B(  4-C , 13-H ) :   0.9341 B(  4-C , 14-H ) :   0.9371 B(  5-O , 15-H ) :   0.9779

FINAL SINGLE POINT ENERGY      -271.191099060706

DIPOLE MOMENT
-------------
                                X             Y             Z
Electronic contribution:      2.39068      -0.65673      -2.02122
Nuclear contribution   :     -2.84213       0.78393       2.55502
                        -----------------------------------------
Total Dipole Moment    :     -0.45144       0.12720       0.53380
                        -----------------------------------------
Magnitude (a.u.)       :      0.71058
Magnitude (Debye)      :      1.80615

                             ****ORCA TERMINATED NORMALLY****
TOTAL RUN TIME: 0 days 0 hours 0 minutes 6 seconds 445 msec
