                         Program Version 3.0.3 - RELEASE   -
|  1> ! RI PBE def2-SVP def2-SVP/J NBO PAL2
|  2> % maxcore 2000
|  3> % output
|  4>     # printlevel mini
|  5>     print[ P_Basis ] 0
|  6>     print[ P_SCFInfo ] 1
|  7>     print[ P_SCFIterInfo ] 1
|  8>     print[ P_OrbEn ] 0
|  9>     print[ P_Cartesian ] 0
| 10> end
| 11> *xyz 0 1
| 12>  C        0.9178270000    -0.2338090000     0.1247160000
| 13>  C        2.3833130000    -0.0899860000    -0.0571140000
| 14>  C        3.0454940000     0.8237880000    -0.7793970000
| 15>  C        2.4608550000     1.9325490000    -1.5862910000
| 16>  C        4.5126980000     0.7165400000    -0.7719750000
| 17>  O        5.2553520000     1.4568810000    -1.3674930000
| 18>  H        0.6587450000    -0.1695780000     1.1865880000
| 19>  H        0.5887290000    -1.2227320000    -0.2107800000
| 20>  H        0.3439030000     0.5189220000    -0.4138450000
| 21>  H        2.9939220000    -0.8253390000     0.4668730000
| 22>  H        1.3729340000     1.9518910000    -1.5469110000
| 23>  H        2.7734570000     1.8442690000    -2.6298000000
| 24>  H        2.8425690000     2.8949240000    -1.2362010000
| 25>  H        4.9122930000    -0.1216210000    -0.1598730000
| 26> *
| 27>
| 28>                          ****END OF INPUT****
 Total Charge           Charge          ....    0
 Multiplicity           Mult            ....    1
 Number of Electrons    NEL             ....   46
 Basis Dimension        Dim             ....  124

MULLIKEN ATOMIC CHARGES
-----------------------
   0 C :    0.057804
   1 C :   -0.118916
   2 C :   -0.138214
   3 C :    0.070037
   4 C :    0.117702
   5 O :   -0.168754
   6 H :    0.044164
   7 H :    0.041674
   8 H :    0.026887
   9 H :    0.003222
  10 H :    0.014085
  11 H :    0.044313
  12 H :    0.038852
  13 H :   -0.032857
Sum of atomic charges:   -0.0000000

LOEWDIN ATOMIC CHARGES
----------------------
   0 C :   -0.064016
   1 C :    0.000183
   2 C :   -0.087718
   3 C :   -0.056350
   4 C :    0.072568
   5 O :   -0.121974
   6 H :    0.046758
   7 H :    0.046529
   8 H :    0.032483
   9 H :    0.026021
  10 H :    0.028052
  11 H :    0.046377
  12 H :    0.045413
  13 H :   -0.014325

  Mayer bond orders larger than 0.1
B(  0-C ,  1-C ) :   1.0993 B(  0-C ,  6-H ) :   0.9369 B(  0-C ,  7-H ) :   0.9355
B(  0-C ,  8-H ) :   0.9549 B(  1-C ,  2-C ) :   1.7669 B(  1-C ,  9-H ) :   0.9349
B(  2-C ,  3-C ) :   1.1027 B(  2-C ,  4-C ) :   1.0095 B(  3-C , 10-H ) :   0.9471
B(  3-C , 11-H ) :   0.9344 B(  3-C , 12-H ) :   0.9335 B(  4-C ,  5-O ) :   2.1362
B(  4-C , 13-H ) :   0.9292

FINAL SINGLE POINT ENERGY      -270.006878183982

DIPOLE MOMENT
-------------
                                X             Y             Z
Electronic contribution:      6.61804       0.79398      -0.93154
Nuclear contribution   :     -7.76061      -1.31304       1.37879
                        -----------------------------------------
Total Dipole Moment    :     -1.14257      -0.51906       0.44724
                        -----------------------------------------
Magnitude (a.u.)       :      1.33226
Magnitude (Debye)      :      3.38634

                             ****ORCA TERMINATED NORMALLY****
TOTAL RUN TIME: 0 days 0 hours 0 minutes 5 seconds 834 msec
