                         Program Version 3.0.3 - RELEASE   -
|  1> ! RI PBE def2-SVP def2-SVP/J NBO PAL2
|  2> % maxcore 2000
|  3> % output
|  4>     # printlevel mini
|  5>     print[ P_Basis ] 0
|  6>     print[ P_SCFInfo ] 1
|  7>     print[ P_SCFIterInfo ] 1
|  8>     print[ P_OrbEn ] 0
|  9>     print[ P_Cartesian ] 0
| 10> end
| 11> *xyz 0 1
| 12>  C        0.8099510000     0.1510940000    -0.0779930000
| 13>  C        2.2971940000     0.2070980000    -0.1386650000
| 14>  C        3.0862920000    -0.7680750000    -0.5699610000
| 15>  C        4.5804610000    -0.6984770000    -0.6259420000
| 16>  C        5.2304580000    -1.7946820000     0.2017200000
| 17>  O        5.0513120000    -0.7318680000    -1.9686410000
| 18>  H        0.4506470000     0.2973750000     0.9456410000
| 19>  H        0.4299680000    -0.8064000000    -0.4393040000
| 20>  H        0.3629970000     0.9469400000    -0.6822950000
| 21>  H        2.7607980000     1.1327890000     0.2012430000
| 22>  H        2.6405370000    -1.7031900000    -0.9153500000
| 23>  H        4.9003000000     0.2772360000    -0.2482520000
| 24>  H        4.9161740000    -2.7822980000    -0.1526500000
| 25>  H        4.9461190000    -1.7130150000     1.2531870000
| 26>  H        6.3176310000    -1.7322420000     0.1231440000
| 27>  H        4.8034420000    -1.5789740000    -2.3508720000
| 28> *
| 29>
| 30>                          ****END OF INPUT****
 Total Charge           Charge          ....    0
 Multiplicity           Mult            ....    1
 Number of Electrons    NEL             ....   48
 Basis Dimension        Dim             ....  134

MULLIKEN ATOMIC CHARGES
-----------------------
   0 C :    0.040820
   1 C :   -0.107518
   2 C :   -0.028710
   3 C :    0.127742
   4 C :   -0.008010
   5 O :   -0.282719
   6 H :    0.031280
   7 H :    0.017651
   8 H :    0.035116
   9 H :   -0.002980
  10 H :   -0.025477
  11 H :   -0.008203
  12 H :    0.004349
  13 H :    0.025136
  14 H :    0.034443
  15 H :    0.147080
Sum of atomic charges:   -0.0000000

LOEWDIN ATOMIC CHARGES
----------------------
   0 C :   -0.064266
   1 C :   -0.037123
   2 C :   -0.062385
   3 C :    0.042483
   4 C :   -0.078226
   5 O :   -0.113119
   6 H :    0.036542
   7 H :    0.030165
   8 H :    0.038113
   9 H :    0.023379
  10 H :    0.015802
  11 H :    0.023839
  12 H :    0.020500
  13 H :    0.031959
  14 H :    0.030071
  15 H :    0.062267

  Mayer bond orders larger than 0.1
B(  0-C ,  1-C ) :   1.0826 B(  0-C ,  6-H ) :   0.9479 B(  0-C ,  7-H ) :   0.9615
B(  0-C ,  8-H ) :   0.9462 B(  1-C ,  2-C ) :   1.9292 B(  1-C ,  9-H ) :   0.9511
B(  2-C ,  3-C ) :   1.0170 B(  2-C , 10-H ) :   0.9349 B(  3-C ,  4-C ) :   1.0682
B(  3-C ,  5-O ) :   0.9956 B(  3-C , 11-H ) :   0.9120 B(  4-C , 12-H ) :   0.9536
B(  4-C , 13-H ) :   0.9515 B(  4-C , 14-H ) :   0.9547 B(  5-O , 15-H ) :   0.9854

FINAL SINGLE POINT ENERGY      -271.191469545436

DIPOLE MOMENT
-------------
                                X             Y             Z
Electronic contribution:      2.37866       0.90336      -2.84288
Nuclear contribution   :     -2.77174      -1.27514       3.11714
                        -----------------------------------------
Total Dipole Moment    :     -0.39308      -0.37178       0.27426
                        -----------------------------------------
Magnitude (a.u.)       :      0.60660
Magnitude (Debye)      :      1.54184

                             ****ORCA TERMINATED NORMALLY****
TOTAL RUN TIME: 0 days 0 hours 0 minutes 6 seconds 369 msec
