                         Program Version 3.0.3 - RELEASE   -
|  1> ! RI PBE def2-SVP def2-SVP/J NBO PAL2
|  2> % maxcore 2000
|  3> % output
|  4>     # printlevel mini
|  5>     print[ P_Basis ] 0
|  6>     print[ P_SCFInfo ] 1
|  7>     print[ P_SCFIterInfo ] 1
|  8>     print[ P_OrbEn ] 0
|  9>     print[ P_Cartesian ] 0
| 10> end
| 11> *xyz 0 1
| 12>  C        0.8296900000    -0.0249910000    -0.1773980000
| 13>  C        2.3056700000    -0.1236360000    -0.0410170000
| 14>  C        3.1276390000    -0.6153570000    -0.9678040000
| 15>  C        4.5938260000    -0.7156810000    -0.8376290000
| 16>  C        5.2588020000    -0.2353070000     0.4281620000
| 17>  O        5.2472480000    -1.1814590000    -1.7468020000
| 18>  H        0.5006150000     1.0143990000    -0.0771320000
| 19>  H        0.3293670000    -0.5848020000     0.6194480000
| 20>  H        0.4859550000    -0.4071500000    -1.1392600000
| 21>  H        2.7253150000     0.2391560000     0.8950310000
| 22>  H        2.7409240000    -0.9859220000    -1.9136110000
| 23>  H        4.8841660000    -0.7826590000     1.2969310000
| 24>  H        5.0561980000     0.8255460000     0.5962410000
| 25>  H        6.3323950000    -0.3888380000     0.3393600000
| 26> *
| 27>
| 28>                          ****END OF INPUT****
 Total Charge           Charge          ....    0
 Multiplicity           Mult            ....    1
 Number of Electrons    NEL             ....   46
 Basis Dimension        Dim             ....  124

MULLIKEN ATOMIC CHARGES
-----------------------
   0 C :    0.050097
   1 C :   -0.084679
   2 C :    0.002875
   3 C :   -0.046787
   4 C :    0.016048
   5 O :   -0.167726
   6 H :    0.041196
   7 H :    0.043414
   8 H :    0.030562
   9 H :    0.006042
  10 H :   -0.010774
  11 H :    0.039802
  12 H :    0.041671
  13 H :    0.038259
Sum of atomic charges:   -0.0000000

LOEWDIN ATOMIC CHARGES
----------------------
   0 C :   -0.059786
   1 C :    0.002223
   2 C :   -0.071662
   3 C :    0.042345
   4 C :   -0.092864
   5 O :   -0.127681
   6 H :    0.044036
   7 H :    0.044724
   8 H :    0.035458
   9 H :    0.026223
  10 H :    0.031979
  11 H :    0.042433
  12 H :    0.042637
  13 H :    0.039936

  Mayer bond orders larger than 0.1
B(  0-C ,  1-C ) :   1.0886 B(  0-C ,  6-H ) :   0.9413 B(  0-C ,  7-H ) :   0.9406
B(  0-C ,  8-H ) :   0.9627 B(  1-C ,  2-C ) :   1.7905 B(  1-C ,  9-H ) :   0.9355
B(  2-C ,  3-C ) :   1.0172 B(  2-C , 10-H ) :   0.9596 B(  3-C ,  4-C ) :   1.0585
B(  3-C ,  5-O ) :   2.1179 B(  4-C , 11-H ) :   0.9313 B(  4-C , 12-H ) :   0.9318
B(  4-C , 13-H ) :   0.9436

FINAL SINGLE POINT ENERGY      -270.008480511945

DIPOLE MOMENT
-------------
                                X             Y             Z
Electronic contribution:      4.22915      -2.10959      -3.79896
Nuclear contribution   :     -5.18047       2.60626       4.70935
                        -----------------------------------------
Total Dipole Moment    :     -0.95132       0.49667       0.91039
                        -----------------------------------------
Magnitude (a.u.)       :      1.40730
Magnitude (Debye)      :      3.57708

                             ****ORCA TERMINATED NORMALLY****
TOTAL RUN TIME: 0 days 0 hours 0 minutes 5 seconds 858 msec
