                         Program Version 3.0.3 - RELEASE   -
|  1> ! RI PBE def2-SVP def2-SVP/J NBO PAL2
|  2> % maxcore 2000
|  3> % output
|  4>     # printlevel mini
|  5>     print[ P_Basis ] 0
|  6>     print[ P_SCFInfo ] 1
|  7>     print[ P_SCFIterInfo ] 1
|  8>     print[ P_OrbEn ] 0
|  9>     print[ P_Cartesian ] 0
| 10> end
| 11> *xyz 0 1
| 12>  C        0.7595560000     0.0309940000     0.0109440000
| 13>  C        2.2459880000    -0.0336540000     0.0705500000
| 14>  C        3.0224090000     0.8317380000     0.7127850000
| 15>  C        4.5180600000     0.7742240000     0.7514250000
| 16>  C        5.1078170000     1.8933910000    -0.0710570000
| 17>  O        5.7904950000     2.7776540000     0.3643820000
| 18>  H        0.4109640000     0.1020080000    -1.0241780000
| 19>  H        0.3734700000     0.8910480000     0.5609660000
| 20>  H        0.3102170000    -0.8746300000     0.4303380000
| 21>  H        2.7163230000    -0.8674150000    -0.4499900000
| 22>  H        2.5635120000     1.6678560000     1.2377340000
| 23>  H        4.8608220000    -0.1728600000     0.3189370000
| 24>  H        4.9031540000     0.8603960000     1.7704580000
| 25>  H        4.8426220000     1.8567590000    -1.1507840000
| 26> *
| 27>
| 28>                          ****END OF INPUT****
 Total Charge           Charge          ....    0
 Multiplicity           Mult            ....    1
 Number of Electrons    NEL             ....   46
 Basis Dimension        Dim             ....  124

MULLIKEN ATOMIC CHARGES
-----------------------
   0 C :    0.041847
   1 C :   -0.097231
   2 C :   -0.096125
   3 C :    0.096749
   4 C :    0.069241
   5 O :   -0.155035
   6 H :    0.035861
   7 H :    0.024486
   8 H :    0.035756
   9 H :   -0.001237
  10 H :    0.006155
  11 H :    0.024345
  12 H :    0.025298
  13 H :   -0.010111
Sum of atomic charges:   -0.0000000

LOEWDIN ATOMIC CHARGES
----------------------
   0 C :   -0.062726
   1 C :   -0.037075
   2 C :   -0.047189
   3 C :   -0.073017
   4 C :    0.092258
   5 O :   -0.103581
   6 H :    0.038941
   7 H :    0.032982
   8 H :    0.038920
   9 H :    0.022874
  10 H :    0.025984
  11 H :    0.044681
  12 H :    0.039266
  13 H :   -0.012318

  Mayer bond orders larger than 0.1
B(  0-C ,  1-C ) :   1.0861 B(  0-C ,  6-H ) :   0.9468 B(  0-C ,  7-H ) :   0.9623
B(  0-C ,  8-H ) :   0.9458 B(  1-C ,  2-C ) :   1.9126 B(  1-C ,  9-H ) :   0.9532
B(  2-C ,  3-C ) :   1.0417 B(  2-C , 10-H ) :   0.9511 B(  3-C ,  4-C ) :   0.9558
B(  3-C , 11-H ) :   0.9083 B(  3-C , 12-H ) :   0.9055 B(  4-C ,  5-O ) :   2.1818
B(  4-C , 13-H ) :   0.9156

FINAL SINGLE POINT ENERGY      -269.992508190595

DIPOLE MOMENT
-------------
                                X             Y             Z
Electronic contribution:      6.48163       3.94552       0.46079
Nuclear contribution   :     -7.21233      -4.74960      -0.66308
                        -----------------------------------------
Total Dipole Moment    :     -0.73071      -0.80408      -0.20229
                        -----------------------------------------
Magnitude (a.u.)       :      1.10517
Magnitude (Debye)      :      2.80911

                             ****ORCA TERMINATED NORMALLY****
TOTAL RUN TIME: 0 days 0 hours 0 minutes 5 seconds 704 msec
