                         Program Version 3.0.3 - RELEASE   -
|  1> ! RI PBE def2-SVP def2-SVP/J NBO PAL2
|  2> % maxcore 2000
|  3> % output
|  4>     # printlevel mini
|  5>     print[ P_Basis ] 0
|  6>     print[ P_SCFInfo ] 1
|  7>     print[ P_SCFIterInfo ] 1
|  8>     print[ P_OrbEn ] 0
|  9>     print[ P_Cartesian ] 0
| 10> end
| 11> *xyz 0 1
| 12>  C        0.7325250000    -0.3369150000    -0.0999400000
| 13>  C        2.1831110000    -0.2746510000     0.2620680000
| 14>  C        2.6595450000    -0.8249200000     1.3779110000
| 15>  C        3.0760740000     0.4879210000    -0.6738110000
| 16>  C        2.9803650000     1.9943740000    -0.4374070000
| 17>  O        3.4095870000     2.3602790000     0.8505760000
| 18>  H        0.1422100000    -0.8278480000     0.6745040000
| 19>  H        0.5971550000    -0.8872100000    -1.0369980000
| 20>  H        0.3196550000     0.6632520000    -0.2648190000
| 21>  H        2.0118590000    -1.3449820000     2.0757450000
| 22>  H        3.7180520000    -0.7946100000     1.6140300000
| 23>  H        2.8014270000     0.2790690000    -1.7139430000
| 24>  H        4.1165140000     0.1839620000    -0.5335160000
| 25>  H        1.9526260000     2.3401880000    -0.6225560000
| 26>  H        3.6309180000     2.5172680000    -1.1422290000
| 27>  H        2.9928870000     1.7547240000     1.4750650000
| 28> *
| 29>
| 30>                          ****END OF INPUT****
 Total Charge           Charge          ....    0
 Multiplicity           Mult            ....    1
 Number of Electrons    NEL             ....   48
 Basis Dimension        Dim             ....  134

MULLIKEN ATOMIC CHARGES
-----------------------
   0 C :    0.075104
   1 C :   -0.235302
   2 C :   -0.048357
   3 C :    0.026888
   4 C :    0.184348
   5 O :   -0.287598
   6 H :    0.018669
   7 H :    0.032222
   8 H :    0.026779
   9 H :    0.014811
  10 H :    0.019321
  11 H :    0.006381
  12 H :    0.014822
  13 H :   -0.009738
  14 H :    0.014751
  15 H :    0.146897
Sum of atomic charges:    0.0000000

LOEWDIN ATOMIC CHARGES
----------------------
   0 C :   -0.056313
   1 C :   -0.036153
   2 C :   -0.085917
   3 C :   -0.053291
   4 C :    0.062870
   5 O :   -0.121969
   6 H :    0.032109
   7 H :    0.039569
   8 H :    0.033945
   9 H :    0.021009
  10 H :    0.021678
  11 H :    0.031728
  12 H :    0.031621
  13 H :   -0.000881
  14 H :    0.021482
  15 H :    0.058513

  Mayer bond orders larger than 0.1
B(  0-C ,  1-C ) :   1.0883 B(  0-C ,  6-H ) :   0.9494 B(  0-C ,  7-H ) :   0.9380
B(  0-C ,  8-H ) :   0.9410 B(  1-C ,  2-C ) :   1.9508 B(  1-C ,  3-C ) :   1.0575
B(  2-C ,  9-H ) :   0.9369 B(  2-C , 10-H ) :   0.9376 B(  3-C ,  4-C ) :   1.0640
B(  3-C , 11-H ) :   0.9073 B(  3-C , 12-H ) :   0.9151 B(  4-C ,  5-O ) :   1.0790
B(  4-C , 13-H ) :   0.9285 B(  4-C , 14-H ) :   0.9359 B(  5-O , 15-H ) :   0.9735

FINAL SINGLE POINT ENERGY      -271.190699909563

DIPOLE MOMENT
-------------
                                X             Y             Z
Electronic contribution:      2.23012       1.78195       1.32777
Nuclear contribution   :     -2.68627      -2.23836      -1.59883
                        -----------------------------------------
Total Dipole Moment    :     -0.45614      -0.45641      -0.27106
                        -----------------------------------------
Magnitude (a.u.)       :      0.69989
Magnitude (Debye)      :      1.77899

                             ****ORCA TERMINATED NORMALLY****
TOTAL RUN TIME: 0 days 0 hours 0 minutes 6 seconds 588 msec
