                         Program Version 3.0.3 - RELEASE   -
|  1> ! RI PBE def2-SVP def2-SVP/J NBO PAL2
|  2> % maxcore 2000
|  3> % output
|  4>     # printlevel mini
|  5>     print[ P_Basis ] 0
|  6>     print[ P_SCFInfo ] 1
|  7>     print[ P_SCFIterInfo ] 1
|  8>     print[ P_OrbEn ] 0
|  9>     print[ P_Cartesian ] 0
| 10> end
| 11> *xyz 0 1
| 12>  C        1.0625820000    -0.1277450000    -0.0661870000
| 13>  C        2.5502110000    -0.0012920000    -0.0837590000
| 14>  C        3.2426800000     0.3218350000    -1.1758850000
| 15>  C        3.2365110000    -0.2620530000     1.2168450000
| 16>  C        4.7381320000    -0.1596770000     1.3029430000
| 17>  O        2.5790950000    -0.5537350000     2.1914040000
| 18>  H        0.6402470000     0.0775280000    -1.0501580000
| 19>  H        0.6264380000     0.5602980000     0.6617380000
| 20>  H        0.7652920000    -1.1304990000     0.2494100000
| 21>  H        2.7449070000     0.5113210000    -2.1207600000
| 22>  H        4.3221470000     0.4089110000    -1.1694830000
| 23>  H        5.0780170000     0.8434390000     1.0345200000
| 24>  H        5.2182130000    -0.8631420000     0.6184900000
| 25>  H        5.0420290000    -0.3835080000     2.3234930000
| 26> *
| 27>
| 28>                          ****END OF INPUT****
 Total Charge           Charge          ....    0
 Multiplicity           Mult            ....    1
 Number of Electrons    NEL             ....   46
 Basis Dimension        Dim             ....  124

MULLIKEN ATOMIC CHARGES
-----------------------
   0 C :    0.081780
   1 C :   -0.145323
   2 C :   -0.030488
   3 C :   -0.029454
   4 C :    0.023743
   5 O :   -0.155746
   6 H :    0.008447
   7 H :    0.042171
   8 H :    0.038951
   9 H :    0.022271
  10 H :    0.022366
  11 H :    0.042889
  12 H :    0.047184
  13 H :    0.031211
Sum of atomic charges:   -0.0000000

LOEWDIN ATOMIC CHARGES
----------------------
   0 C :   -0.051714
   1 C :   -0.062160
   2 C :   -0.026740
   3 C :    0.053253
   4 C :   -0.088327
   5 O :   -0.119642
   6 H :    0.028823
   7 H :    0.044088
   8 H :    0.043493
   9 H :    0.026843
  10 H :    0.024192
  11 H :    0.043846
  12 H :    0.044730
  13 H :    0.039315

  Mayer bond orders larger than 0.1
B(  0-C ,  1-C ) :   1.0863 B(  0-C ,  6-H ) :   0.9481 B(  0-C ,  7-H ) :   0.9411
B(  0-C ,  8-H ) :   0.9414 B(  1-C ,  2-C ) :   1.9173 B(  1-C ,  3-C ) :   0.9410
B(  2-C ,  9-H ) :   0.9311 B(  2-C , 10-H ) :   0.9271 B(  3-C ,  4-C ) :   1.0656
B(  3-C ,  5-O ) :   2.1627 B(  4-C , 11-H ) :   0.9349 B(  4-C , 12-H ) :   0.9354
B(  4-C , 13-H ) :   0.9416

FINAL SINGLE POINT ENERGY      -270.007265725239

DIPOLE MOMENT
-------------
                                X             Y             Z
Electronic contribution:     -0.72818      -0.81041       3.09484
Nuclear contribution   :      1.14907       1.05030      -3.91996
                        -----------------------------------------
Total Dipole Moment    :      0.42089       0.23989      -0.82512
                        -----------------------------------------
Magnitude (a.u.)       :      0.95683
Magnitude (Debye)      :      2.43207

                             ****ORCA TERMINATED NORMALLY****
TOTAL RUN TIME: 0 days 0 hours 0 minutes 5 seconds 874 msec
