                         Program Version 3.0.3 - RELEASE   -
|  1> ! RI PBE def2-SVP def2-SVP/J NBO PAL2
|  2> % maxcore 2000
|  3> % output
|  4>     # printlevel mini
|  5>     print[ P_Basis ] 0
|  6>     print[ P_SCFInfo ] 1
|  7>     print[ P_SCFIterInfo ] 1
|  8>     print[ P_OrbEn ] 0
|  9>     print[ P_Cartesian ] 0
| 10> end
| 11> *xyz 0 1
| 12>  C        0.9676290000    -0.0268610000    -0.1116800000
| 13>  C        2.4377870000    -0.2767430000    -0.2220090000
| 14>  C        2.9461890000    -1.3191130000    -0.8719610000
| 15>  C        3.3230700000     0.7119570000     0.4921290000
| 16>  C        3.3000400000     0.4339080000     1.9752460000
| 17>  O        2.8149710000     1.1556290000     2.8007510000
| 18>  H        0.3904410000    -0.8186470000    -0.5898470000
| 19>  H        0.7032240000     0.9262770000    -0.5810450000
| 20>  H        0.6567440000     0.0479860000     0.9352120000
| 21>  H        2.3055880000    -2.0451490000    -1.3602450000
| 22>  H        4.0166120000    -1.4766350000    -0.9462830000
| 23>  H        2.9903600000     1.7398880000     0.3285320000
| 24>  H        4.3553650000     0.6028410000     0.1456420000
| 25>  H        3.7576800000    -0.5373580000     2.2648680000
| 26> *
| 27>
| 28>                          ****END OF INPUT****
 Total Charge           Charge          ....    0
 Multiplicity           Mult            ....    1
 Number of Electrons    NEL             ....   46
 Basis Dimension        Dim             ....  124

MULLIKEN ATOMIC CHARGES
-----------------------
   0 C :    0.079109
   1 C :   -0.239756
   2 C :   -0.025845
   3 C :    0.107420
   4 C :    0.082727
   5 O :   -0.156947
   6 H :    0.020567
   7 H :    0.032978
   8 H :    0.037197
   9 H :    0.016421
  10 H :    0.012841
  11 H :    0.018514
  12 H :    0.024709
  13 H :   -0.009935
Sum of atomic charges:   -0.0000000

LOEWDIN ATOMIC CHARGES
----------------------
   0 C :   -0.054041
   1 C :   -0.031017
   2 C :   -0.071898
   3 C :   -0.064532
   4 C :    0.096094
   5 O :   -0.102568
   6 H :    0.033343
   7 H :    0.040216
   8 H :    0.038726
   9 H :    0.023852
  10 H :    0.021104
  11 H :    0.036712
  12 H :    0.044682
  13 H :   -0.010673

  Mayer bond orders larger than 0.1
B(  0-C ,  1-C ) :   1.0825 B(  0-C ,  6-H ) :   0.9521 B(  0-C ,  7-H ) :   0.9387
B(  0-C ,  8-H ) :   0.9413 B(  1-C ,  2-C ) :   1.9722 B(  1-C ,  3-C ) :   1.0425
B(  2-C ,  9-H ) :   0.9342 B(  2-C , 10-H ) :   0.9407 B(  3-C ,  4-C ) :   0.9643
B(  3-C , 11-H ) :   0.9078 B(  3-C , 12-H ) :   0.9004 B(  4-C ,  5-O ) :   2.1684
B(  4-C , 13-H ) :   0.9170

FINAL SINGLE POINT ENERGY      -269.992294769287

DIPOLE MOMENT
-------------
                                X             Y             Z
Electronic contribution:      1.79995       2.10875       4.45586
Nuclear contribution   :     -1.65439      -2.44744      -5.15245
                        -----------------------------------------
Total Dipole Moment    :      0.14557      -0.33869      -0.69660
                        -----------------------------------------
Magnitude (a.u.)       :      0.78813
Magnitude (Debye)      :      2.00326

                             ****ORCA TERMINATED NORMALLY****
TOTAL RUN TIME: 0 days 0 hours 0 minutes 6 seconds 53 msec
