                         Program Version 3.0.3 - RELEASE   -
|  1> ! RI PBE def2-SVP def2-SVP/J NBO PAL2
|  2> % maxcore 2000
|  3> % output
|  4>     # printlevel mini
|  5>     print[ P_Basis ] 0
|  6>     print[ P_SCFInfo ] 1
|  7>     print[ P_SCFIterInfo ] 1
|  8>     print[ P_OrbEn ] 0
|  9>     print[ P_Cartesian ] 0
| 10> end
| 11> *xyz 0 1
| 12>  C        0.8291310000     0.2563210000    -0.1213180000
| 13>  C        2.3222080000    -0.0000170000    -0.2241720000
| 14>  C        2.6617820000    -1.4591140000    -0.3190930000
| 15>  C        3.5758910000    -2.0800550000     0.4129540000
| 16>  C        2.9410620000     0.7019820000    -1.4177730000
| 17>  O        2.3303430000     1.3221440000    -2.2418380000
| 18>  H        0.4218840000    -0.2119500000     0.7761720000
| 19>  H        0.3074200000    -0.1494110000    -0.9902800000
| 20>  H        0.6199050000     1.3265220000    -0.0878840000
| 21>  H        2.8473690000     0.4070960000     0.6514430000
| 22>  H        2.1079250000    -2.0176990000    -1.0718450000
| 23>  H        4.1447090000    -1.5577060000     1.1761280000
| 24>  H        3.7828450000    -3.1358360000     0.2823800000
| 25>  H        4.0448260000     0.5898220000    -1.4870850000
| 26> *
| 27>
| 28>                          ****END OF INPUT****
 Total Charge           Charge          ....    0
 Multiplicity           Mult            ....    1
 Number of Electrons    NEL             ....   46
 Basis Dimension        Dim             ....  124

MULLIKEN ATOMIC CHARGES
-----------------------
   0 C :    0.035319
   1 C :   -0.084369
   2 C :   -0.058306
   3 C :   -0.027932
   4 C :    0.112036
   5 O :   -0.146381
   6 H :    0.022416
   7 H :    0.030626
   8 H :    0.029848
   9 H :    0.022237
  10 H :    0.013793
  11 H :    0.023305
  12 H :    0.033323
  13 H :   -0.005916
Sum of atomic charges:   -0.0000000

LOEWDIN ATOMIC CHARGES
----------------------
   0 C :   -0.050568
   1 C :   -0.086511
   2 C :   -0.020296
   3 C :   -0.054908
   4 C :    0.098944
   5 O :   -0.099191
   6 H :    0.029894
   7 H :    0.031708
   8 H :    0.032946
   9 H :    0.044760
  10 H :    0.029790
  11 H :    0.023821
  12 H :    0.029174
  13 H :   -0.009562

  Mayer bond orders larger than 0.1
B(  0-C ,  1-C ) :   1.0689 B(  0-C ,  6-H ) :   0.9605 B(  0-C ,  7-H ) :   0.9606
B(  0-C ,  8-H ) :   0.9551 B(  1-C ,  2-C ) :   1.0070 B(  1-C ,  4-C ) :   0.9009
B(  1-C ,  9-H ) :   0.8876 B(  2-C ,  3-C ) :   1.9961 B(  2-C , 10-H ) :   0.9536
B(  3-C , 11-H ) :   0.9499 B(  3-C , 12-H ) :   0.9418 B(  4-C ,  5-O ) :   2.2024
B(  4-C , 13-H ) :   0.9297

FINAL SINGLE POINT ENERGY      -269.988784594887

DIPOLE MOMENT
-------------
                                X             Y             Z
Electronic contribution:      1.27244       2.66127      -3.65609
Nuclear contribution   :     -1.03869      -3.12778       4.32911
                        -----------------------------------------
Total Dipole Moment    :      0.23375      -0.46652       0.67302
                        -----------------------------------------
Magnitude (a.u.)       :      0.85161
Magnitude (Debye)      :      2.16462

                             ****ORCA TERMINATED NORMALLY****
TOTAL RUN TIME: 0 days 0 hours 0 minutes 6 seconds 46 msec
