                         Program Version 3.0.3 - RELEASE   -
|  1> ! RI PBE def2-SVP def2-SVP/J NBO PAL2
|  2> % maxcore 2000
|  3> % output
|  4>     # printlevel mini
|  5>     print[ P_Basis ] 0
|  6>     print[ P_SCFInfo ] 1
|  7>     print[ P_SCFIterInfo ] 1
|  8>     print[ P_OrbEn ] 0
|  9>     print[ P_Cartesian ] 0
| 10> end
| 11> *xyz 0 1
| 12>  C        0.7904170000    -0.6086550000     0.2390130000
| 13>  C        2.2055180000    -0.2455340000    -0.1898940000
| 14>  C        2.5475450000    -0.9130130000    -1.5167240000
| 15>  C        2.3720250000     1.2720670000    -0.2374270000
| 16>  C        3.7914810000     1.7529920000    -0.4743360000
| 17>  O        3.9193310000     3.1557220000    -0.3507860000
| 18>  H        0.6665920000    -1.6915110000     0.3214960000
| 19>  H        0.0594940000    -0.2465890000    -0.4911960000
| 20>  H        0.5405730000    -0.1661050000     1.2066330000
| 21>  H        2.8968780000    -0.6306140000     0.5720170000
| 22>  H        1.9089110000    -0.5269990000    -2.3183150000
| 23>  H        2.3893310000    -1.9931280000    -1.4613610000
| 24>  H        3.5865050000    -0.7485100000    -1.8094410000
| 25>  H        2.0290840000     1.7041280000     0.7088080000
| 26>  H        1.7159910000     1.6773120000    -1.0214150000
| 27>  H        4.1593870000     1.4184420000    -1.4532140000
| 28>  H        4.4583370000     1.3297630000     0.2824610000
| 29>  H        3.3436280000     3.5672120000    -1.0003100000
| 30> *
| 31>
| 32>                          ****END OF INPUT****
 Total Charge           Charge          ....    0
 Multiplicity           Mult            ....    1
 Number of Electrons    NEL             ....   50
 Basis Dimension        Dim             ....  144

MULLIKEN ATOMIC CHARGES
-----------------------
   0 C :    0.026228
   1 C :   -0.163501
   2 C :    0.002909
   3 C :   -0.019518
   4 C :    0.182433
   5 O :   -0.286413
   6 H :    0.017698
   7 H :    0.011178
   8 H :    0.013281
   9 H :    0.010367
  10 H :    0.011309
  11 H :    0.021006
  12 H :    0.022269
  13 H :    0.004986
  14 H :   -0.009396
  15 H :   -0.003820
  16 H :    0.008362
  17 H :    0.150620
Sum of atomic charges:    0.0000000

LOEWDIN ATOMIC CHARGES
----------------------
   0 C :   -0.058705
   1 C :   -0.046556
   2 C :   -0.063168
   3 C :   -0.059343
   4 C :    0.053138
   5 O :   -0.123500
   6 H :    0.024765
   7 H :    0.023566
   8 H :    0.024672
   9 H :    0.024442
  10 H :    0.023879
  11 H :    0.026946
  12 H :    0.022554
  13 H :    0.023755
  14 H :    0.015570
  15 H :    0.001729
  16 H :    0.020659
  17 H :    0.065598

  Mayer bond orders larger than 0.1
B(  0-C ,  1-C ) :   1.0870 B(  0-C ,  6-H ) :   0.9603 B(  0-C ,  7-H ) :   0.9594
B(  0-C ,  8-H ) :   0.9569 B(  1-C ,  2-C ) :   1.0755 B(  1-C ,  3-C ) :   1.0455
B(  1-C ,  9-H ) :   0.9130 B(  2-C , 10-H ) :   0.9590 B(  2-C , 11-H ) :   0.9595
B(  2-C , 12-H ) :   0.9593 B(  3-C ,  4-C ) :   1.0745 B(  3-C , 13-H ) :   0.9271
B(  3-C , 14-H ) :   0.9233 B(  4-C ,  5-O ) :   1.0598 B(  4-C , 15-H ) :   0.9362
B(  4-C , 16-H ) :   0.9326 B(  5-O , 17-H ) :   0.9873

FINAL SINGLE POINT ENERGY      -272.406219426556

DIPOLE MOMENT
-------------
                                X             Y             Z
Electronic contribution:      3.10645       5.08220       0.80905
Nuclear contribution   :     -3.48194      -5.35306      -1.17095
                        -----------------------------------------
Total Dipole Moment    :     -0.37549      -0.27087      -0.36190
                        -----------------------------------------
Magnitude (a.u.)       :      0.58765
Magnitude (Debye)      :      1.49369

                             ****ORCA TERMINATED NORMALLY****
TOTAL RUN TIME: 0 days 0 hours 0 minutes 6 seconds 529 msec
