                         Program Version 3.0.3 - RELEASE   -
|  1> ! RI PBE def2-SVP def2-SVP/J NBO PAL2
|  2> % maxcore 2000
|  3> % output
|  4>     # printlevel mini
|  5>     print[ P_Basis ] 0
|  6>     print[ P_SCFInfo ] 1
|  7>     print[ P_SCFIterInfo ] 1
|  8>     print[ P_OrbEn ] 0
|  9>     print[ P_Cartesian ] 0
| 10> end
| 11> *xyz 0 1
| 12>  C        0.9900150000     0.0151970000     0.0084950000
| 13>  C        2.4809460000    -0.0216640000    -0.1288060000
| 14>  C        2.9795600000    -0.9475910000    -1.1943530000
| 15>  C        3.2563420000     0.7178440000     0.6682670000
| 16>  C        4.7436400000     0.8170530000     0.6691490000
| 17>  O        5.1848910000     2.1536250000     0.4830000000
| 18>  H        0.5957160000    -0.9804400000     0.2394380000
| 19>  H        0.5200250000     0.3241130000    -0.9315280000
| 20>  H        0.6715610000     0.7004200000     0.7949720000
| 21>  H        2.4922460000    -0.7237170000    -2.1489760000
| 22>  H        2.7191130000    -1.9832530000    -0.9509070000
| 23>  H        4.0573150000    -0.9008950000    -1.3417280000
| 24>  H        2.7689310000     1.3538450000     1.4054470000
| 25>  H        5.1956780000     0.1512310000    -0.0747340000
| 26>  H        5.1392080000     0.5210640000     1.6456100000
| 27>  H        4.7490140000     2.4933890000    -0.3032680000
| 28> *
| 29>
| 30>                          ****END OF INPUT****
 Total Charge           Charge          ....    0
 Multiplicity           Mult            ....    1
 Number of Electrons    NEL             ....   48
 Basis Dimension        Dim             ....  134

MULLIKEN ATOMIC CHARGES
-----------------------
   0 C :    0.051235
   1 C :   -0.184930
   2 C :    0.052048
   3 C :   -0.165825
   4 C :    0.279412
   5 O :   -0.301264
   6 H :    0.026662
   7 H :    0.024987
   8 H :    0.019235
   9 H :    0.021668
  10 H :    0.032707
  11 H :    0.014668
  12 H :   -0.014174
  13 H :   -0.009386
  14 H :    0.005952
  15 H :    0.147005
Sum of atomic charges:    0.0000000

LOEWDIN ATOMIC CHARGES
----------------------
   0 C :   -0.054720
   1 C :   -0.038805
   2 C :   -0.060512
   3 C :   -0.089932
   4 C :    0.054892
   5 O :   -0.127045
   6 H :    0.034436
   7 H :    0.033266
   8 H :    0.030272
   9 H :    0.034772
  10 H :    0.038804
  11 H :    0.026105
  12 H :    0.022283
  13 H :    0.005023
  14 H :    0.027121
  15 H :    0.064040

  Mayer bond orders larger than 0.1
B(  0-C ,  1-C ) :   1.0804 B(  0-C ,  6-H ) :   0.9472 B(  0-C ,  7-H ) :   0.9460
B(  0-C ,  8-H ) :   0.9544 B(  1-C ,  2-C ) :   1.1005 B(  1-C ,  3-C ) :   1.8480
B(  2-C ,  9-H ) :   0.9397 B(  2-C , 10-H ) :   0.9426 B(  2-C , 11-H ) :   0.9458
B(  3-C ,  4-C ) :   1.0758 B(  3-C , 12-H ) :   0.9408 B(  4-C ,  5-O ) :   1.0192
B(  4-C , 13-H ) :   0.9310 B(  4-C , 14-H ) :   0.9079 B(  5-O , 15-H ) :   0.9864

FINAL SINGLE POINT ENERGY      -271.190971642451

DIPOLE MOMENT
-------------
                                X             Y             Z
Electronic contribution:      3.42913       3.30123       1.76072
Nuclear contribution   :     -3.96485      -3.69652      -2.24521
                        -----------------------------------------
Total Dipole Moment    :     -0.53572      -0.39530      -0.48449
                        -----------------------------------------
Magnitude (a.u.)       :      0.82340
Magnitude (Debye)      :      2.09292

                             ****ORCA TERMINATED NORMALLY****
TOTAL RUN TIME: 0 days 0 hours 0 minutes 6 seconds 433 msec
