                         Program Version 3.0.3 - RELEASE   -
|  1> ! RI PBE def2-SVP def2-SVP/J NBO PAL2
|  2> % maxcore 2000
|  3> % output
|  4>     # printlevel mini
|  5>     print[ P_Basis ] 0
|  6>     print[ P_SCFInfo ] 1
|  7>     print[ P_SCFIterInfo ] 1
|  8>     print[ P_OrbEn ] 0
|  9>     print[ P_Cartesian ] 0
| 10> end
| 11> *xyz 0 1
| 12>  C        0.9753580000     0.0426140000    -0.0827520000
| 13>  C        2.4669550000    -0.0359020000    -0.0808200000
| 14>  C        3.0705990000    -0.3862630000    -1.4025600000
| 15>  C        3.1579040000     0.1991190000     1.0466560000
| 16>  C        4.6075780000     0.1575870000     1.1930830000
| 17>  O        5.1750340000     0.3797050000     2.2377440000
| 18>  H        0.5430220000    -0.9134910000    -0.3968650000
| 19>  H        0.6331950000     0.7894550000    -0.8072320000
| 20>  H        0.5767460000     0.3001450000     0.8983660000
| 21>  H        2.6796260000    -1.3502750000    -1.7442740000
| 22>  H        4.1564570000    -0.4420310000    -1.3943640000
| 23>  H        2.7701180000     0.3513160000    -2.1539870000
| 24>  H        2.6235900000     0.4473580000     1.9596120000
| 25>  H        5.1982080000    -0.0910260000     0.2891930000
| 26> *
| 27>
| 28>                          ****END OF INPUT****
 Total Charge           Charge          ....    0
 Multiplicity           Mult            ....    1
 Number of Electrons    NEL             ....   46
 Basis Dimension        Dim             ....  124

MULLIKEN ATOMIC CHARGES
-----------------------
   0 C :    0.050928
   1 C :   -0.173590
   2 C :    0.053703
   3 C :   -0.035726
   4 C :    0.113093
   5 O :   -0.181844
   6 H :    0.038118
   7 H :    0.039505
   8 H :    0.027249
   9 H :    0.034841
  10 H :    0.027893
  11 H :    0.041337
  12 H :   -0.007062
  13 H :   -0.028444
Sum of atomic charges:   -0.0000000

LOEWDIN ATOMIC CHARGES
----------------------
   0 C :   -0.051858
   1 C :    0.010564
   2 C :   -0.057603
   3 C :   -0.095435
   4 C :    0.063812
   5 O :   -0.124846
   6 H :    0.042111
   7 H :    0.042361
   8 H :    0.034575
   9 H :    0.043872
  10 H :    0.029592
  11 H :    0.044690
  12 H :    0.032194
  13 H :   -0.014029

  Mayer bond orders larger than 0.1
B(  0-C ,  1-C ) :   1.0832 B(  0-C ,  6-H ) :   0.9422 B(  0-C ,  7-H ) :   0.9424
B(  0-C ,  8-H ) :   0.9550 B(  1-C ,  2-C ) :   1.1085 B(  1-C ,  3-C ) :   1.7078
B(  2-C ,  9-H ) :   0.9352 B(  2-C , 10-H ) :   0.9426 B(  2-C , 11-H ) :   0.9363
B(  3-C ,  4-C ) :   1.0605 B(  3-C , 12-H ) :   0.9458 B(  4-C ,  5-O ) :   2.0865
B(  4-C , 13-H ) :   0.9334

FINAL SINGLE POINT ENERGY      -270.003575842139

DIPOLE MOMENT
-------------
                                X             Y             Z
Electronic contribution:      5.33877       1.05344       5.53952
Nuclear contribution   :     -6.39081      -1.28346      -6.73153
                        -----------------------------------------
Total Dipole Moment    :     -1.05204      -0.23001      -1.19201
                        -----------------------------------------
Magnitude (a.u.)       :      1.60642
Magnitude (Debye)      :      4.08320

                             ****ORCA TERMINATED NORMALLY****
TOTAL RUN TIME: 0 days 0 hours 0 minutes 6 seconds 41 msec
