                         Program Version 3.0.3 - RELEASE   -
|  1> ! RI PBE def2-SVP def2-SVP/J NBO PAL2
|  2> % maxcore 2000
|  3> % output
|  4>     # printlevel mini
|  5>     print[ P_Basis ] 0
|  6>     print[ P_SCFInfo ] 1
|  7>     print[ P_SCFIterInfo ] 1
|  8>     print[ P_OrbEn ] 0
|  9>     print[ P_Cartesian ] 0
| 10> end
| 11> *xyz 0 1
| 12>  C        1.0488320000     0.0942720000    -0.0055260000
| 13>  C        2.5730770000     0.0808750000    -0.0642200000
| 14>  C        3.0503070000    -1.2298170000    -0.6849520000
| 15>  C        3.0750570000     1.2600650000    -0.8911210000
| 16>  C        3.0939720000     0.1976190000     1.3718650000
| 17>  O        4.5003550000     0.2081700000     1.4875640000
| 18>  H        0.6211150000     0.0315660000    -1.0096120000
| 19>  H        0.6804450000     1.0153560000     0.4556720000
| 20>  H        0.6638640000    -0.7498800000     0.5743310000
| 21>  H        2.6362000000    -1.3563170000    -1.6886730000
| 22>  H        2.7368770000    -2.0913980000    -0.0864940000
| 23>  H        4.1394870000    -1.2555080000    -0.7843160000
| 24>  H        2.7487840000     1.1737730000    -1.9312410000
| 25>  H        4.1655660000     1.3089070000    -0.8751120000
| 26>  H        2.6908890000     2.2049580000    -0.4963200000
| 27>  H        2.6593640000    -0.6107400000     1.9785200000
| 28>  H        2.7545270000     1.1447650000     1.8012680000
| 29>  H        4.8286940000    -0.6685550000     1.2752770000
| 30> *
| 31>
| 32>                          ****END OF INPUT****
 Total Charge           Charge          ....    0
 Multiplicity           Mult            ....    1
 Number of Electrons    NEL             ....   50
 Basis Dimension        Dim             ....  144

MULLIKEN ATOMIC CHARGES
-----------------------
   0 C :    0.060066
   1 C :   -0.354801
   2 C :    0.033229
   3 C :    0.065990
   4 C :    0.221228
   5 O :   -0.274727
   6 H :    0.011822
   7 H :    0.012251
   8 H :    0.009683
   9 H :    0.014890
  10 H :    0.010006
  11 H :    0.008553
  12 H :    0.007851
  13 H :    0.021269
  14 H :    0.005590
  15 H :   -0.007648
  16 H :    0.001535
  17 H :    0.153214
Sum of atomic charges:   -0.0000000

LOEWDIN ATOMIC CHARGES
----------------------
   0 C :   -0.046494
   1 C :   -0.090702
   2 C :   -0.056717
   3 C :   -0.049981
   4 C :    0.063507
   5 O :   -0.113185
   6 H :    0.024769
   7 H :    0.024066
   8 H :    0.021895
   9 H :    0.027527
  10 H :    0.022010
  11 H :    0.018594
  12 H :    0.021936
  13 H :    0.023943
  14 H :    0.023569
  15 H :    0.002129
  16 H :    0.018070
  17 H :    0.065063

  Mayer bond orders larger than 0.1
B(  0-C ,  1-C ) :   1.0420 B(  0-C ,  6-H ) :   0.9568 B(  0-C ,  7-H ) :   0.9582
B(  0-C ,  8-H ) :   0.9575 B(  1-C ,  2-C ) :   1.0416 B(  1-C ,  3-C ) :   1.0388
B(  1-C ,  4-C ) :   0.9850 B(  2-C ,  9-H ) :   0.9560 B(  2-C , 10-H ) :   0.9586
B(  2-C , 11-H ) :   0.9528 B(  3-C , 12-H ) :   0.9598 B(  3-C , 13-H ) :   0.9536
B(  3-C , 14-H ) :   0.9585 B(  4-C ,  5-O ) :   1.0829 B(  4-C , 15-H ) :   0.9391
B(  4-C , 16-H ) :   0.9375 B(  5-O , 17-H ) :   0.9832

FINAL SINGLE POINT ENERGY      -272.410018937119

DIPOLE MOMENT
-------------
                                X             Y             Z
Electronic contribution:      3.26495       0.44405       3.05717
Nuclear contribution   :     -3.51436      -0.92297      -3.23742
                        -----------------------------------------
Total Dipole Moment    :     -0.24941      -0.47892      -0.18025
                        -----------------------------------------
Magnitude (a.u.)       :      0.56926
Magnitude (Debye)      :      1.44695

                             ****ORCA TERMINATED NORMALLY****
TOTAL RUN TIME: 0 days 0 hours 0 minutes 7 seconds 198 msec
