                         Program Version 3.0.3 - RELEASE   -
|  1> ! RI PBE def2-SVP def2-SVP/J NBO PAL2
|  2> % maxcore 2000
|  3> % output
|  4>     # printlevel mini
|  5>     print[ P_Basis ] 0
|  6>     print[ P_SCFInfo ] 1
|  7>     print[ P_SCFIterInfo ] 1
|  8>     print[ P_OrbEn ] 0
|  9>     print[ P_Cartesian ] 0
| 10> end
| 11> *xyz 0 1
| 12>  C        0.9041360000    -0.0314480000     0.0350100000
| 13>  C        2.4335130000    -0.0140020000    -0.0358300000
| 14>  C        2.9159310000     0.3321200000    -1.4339820000
| 15>  C        2.9810010000     0.9717470000     0.9999620000
| 16>  C        2.9091110000    -1.3911290000     0.3722370000
| 17>  O        3.5763800000    -2.1316000000    -0.2942050000
| 18>  H        0.5113180000     0.9681720000    -0.1675260000
| 19>  H        0.5524450000    -0.3330370000     1.0258610000
| 20>  H        0.4806040000    -0.7185460000    -0.7014890000
| 21>  H        2.5675710000     1.3279110000    -1.7194780000
| 22>  H        2.5443400000    -0.3872200000    -2.1659740000
| 23>  H        4.0060550000     0.3188480000    -1.4868340000
| 24>  H        2.5937820000     1.9740760000     0.8000500000
| 25>  H        4.0722630000     1.0163650000     0.9672540000
| 26>  H        2.6803900000     0.6948090000     2.0145400000
| 27>  H        2.5802710000    -1.6934550000     1.3944440000
| 28> *
| 29>
| 30>                          ****END OF INPUT****
 Total Charge           Charge          ....    0
 Multiplicity           Mult            ....    1
 Number of Electrons    NEL             ....   48
 Basis Dimension        Dim             ....  134

MULLIKEN ATOMIC CHARGES
-----------------------
   0 C :    0.053086
   1 C :   -0.358720
   2 C :    0.079285
   3 C :    0.040873
   4 C :    0.150925
   5 O :   -0.146723
   6 H :    0.022905
   7 H :    0.017201
   8 H :    0.029546
   9 H :    0.008035
  10 H :    0.022631
  11 H :    0.025135
  12 H :    0.024428
  13 H :    0.033500
  14 H :    0.019633
  15 H :   -0.021739
Sum of atomic charges:   -0.0000000

LOEWDIN ATOMIC CHARGES
----------------------
   0 C :   -0.039287
   1 C :   -0.112473
   2 C :   -0.046353
   3 C :   -0.041675
   4 C :    0.101101
   5 O :   -0.102298
   6 H :    0.029802
   7 H :    0.025250
   8 H :    0.029681
   9 H :    0.025132
  10 H :    0.029623
  11 H :    0.029982
  12 H :    0.030309
  13 H :    0.030291
  14 H :    0.025771
  15 H :   -0.014856

  Mayer bond orders larger than 0.1
B(  0-C ,  1-C ) :   1.0299 B(  0-C ,  6-H ) :   0.9565 B(  0-C ,  7-H ) :   0.9571
B(  0-C ,  8-H ) :   0.9620 B(  1-C ,  2-C ) :   1.0615 B(  1-C ,  3-C ) :   1.0265
B(  1-C ,  4-C ) :   0.8865 B(  2-C ,  9-H ) :   0.9573 B(  2-C , 10-H ) :   0.9524
B(  2-C , 11-H ) :   0.9534 B(  3-C , 12-H ) :   0.9560 B(  3-C , 13-H ) :   0.9623
B(  3-C , 14-H ) :   0.9572 B(  4-C ,  5-O ) :   2.2191 B(  4-C , 15-H ) :   0.9277

FINAL SINGLE POINT ENERGY      -271.214434634085

DIPOLE MOMENT
-------------
                                X             Y             Z
Electronic contribution:      2.87765      -5.75265      -0.22547
Nuclear contribution   :     -3.39267       6.48650       0.55875
                        -----------------------------------------
Total Dipole Moment    :     -0.51502       0.73385       0.33328
                        -----------------------------------------
Magnitude (a.u.)       :      0.95648
Magnitude (Debye)      :      2.43118

                             ****ORCA TERMINATED NORMALLY****
TOTAL RUN TIME: 0 days 0 hours 0 minutes 6 seconds 471 msec
