                         Program Version 3.0.3 - RELEASE   -
|  1> ! RI PBE def2-SVP def2-SVP/J NBO PAL2
|  2> % maxcore 2000
|  3> % output
|  4>     # printlevel mini
|  5>     print[ P_Basis ] 0
|  6>     print[ P_SCFInfo ] 1
|  7>     print[ P_SCFIterInfo ] 1
|  8>     print[ P_OrbEn ] 0
|  9>     print[ P_Cartesian ] 0
| 10> end
| 11> *xyz 0 1
| 12>  C        1.0140690000    -0.0481520000     0.0951110000
| 13>  C        2.5284480000     0.0722080000     0.0004890000
| 14>  C        3.0054930000    -0.2341790000    -1.4134480000
| 15>  C        2.9905020000     1.4484790000     0.5004950000
| 16>  C        4.4927540000     1.5598050000     0.6826420000
| 17>  O        2.4972330000     2.5028520000    -0.3113900000
| 18>  H        0.6738190000    -1.0289880000    -0.2464610000
| 19>  H        0.5313620000     0.7138210000    -0.5215450000
| 20>  H        0.6681540000     0.0879060000     1.1233100000
| 21>  H        2.9760770000    -0.6662850000     0.6783990000
| 22>  H        2.5644580000     0.4597860000    -2.1358930000
| 23>  H        2.6979110000    -1.2389770000    -1.7117390000
| 24>  H        4.0927530000    -0.1846890000    -1.5082070000
| 25>  H        2.5139850000     1.6154320000     1.4729470000
| 26>  H        5.0218850000     1.4542870000    -0.2695950000
| 27>  H        4.8664530000     0.7860990000     1.3580220000
| 28>  H        4.7473660000     2.5352110000     1.1010630000
| 29>  H        2.9905790000     2.4992940000    -1.1364000000
| 30> *
| 31>
| 32>                          ****END OF INPUT****
 Total Charge           Charge          ....    0
 Multiplicity           Mult            ....    1
 Number of Electrons    NEL             ....   50
 Basis Dimension        Dim             ....  144

MULLIKEN ATOMIC CHARGES
-----------------------
   0 C :    0.046419
   1 C :   -0.119826
   2 C :   -0.014425
   3 C :    0.066449
   4 C :    0.027951
   5 O :   -0.276578
   6 H :    0.007521
   7 H :    0.017641
   8 H :    0.006719
   9 H :    0.002222
  10 H :    0.008897
  11 H :    0.017327
  12 H :    0.019232
  13 H :   -0.004248
  14 H :    0.005692
  15 H :    0.014643
  16 H :    0.025580
  17 H :    0.148784
Sum of atomic charges:   -0.0000000

LOEWDIN ATOMIC CHARGES
----------------------
   0 C :   -0.057029
   1 C :   -0.062395
   2 C :   -0.066981
   3 C :    0.045039
   4 C :   -0.077128
   5 O :   -0.109108
   6 H :    0.022032
   7 H :    0.024715
   8 H :    0.023272
   9 H :    0.024778
  10 H :    0.019908
  11 H :    0.029362
  12 H :    0.022086
  13 H :    0.020852
  14 H :    0.019932
  15 H :    0.029906
  16 H :    0.029757
  17 H :    0.061001

  Mayer bond orders larger than 0.1
B(  0-C ,  1-C ) :   1.0800 B(  0-C ,  6-H ) :   0.9611 B(  0-C ,  7-H ) :   0.9559
B(  0-C ,  8-H ) :   0.9592 B(  1-C ,  2-C ) :   1.0661 B(  1-C ,  3-C ) :   0.9984
B(  1-C ,  9-H ) :   0.9039 B(  2-C , 10-H ) :   0.9544 B(  2-C , 11-H ) :   0.9565
B(  2-C , 12-H ) :   0.9609 B(  3-C ,  4-C ) :   1.0965 B(  3-C ,  5-O ) :   1.0315
B(  3-C , 13-H ) :   0.9117 B(  4-C , 14-H ) :   0.9452 B(  4-C , 15-H ) :   0.9482
B(  4-C , 16-H ) :   0.9537 B(  5-O , 17-H ) :   0.9829

FINAL SINGLE POINT ENERGY      -272.412573094161

DIPOLE MOMENT
-------------
                                X             Y             Z
Electronic contribution:     -0.73170       3.34963       0.46441
Nuclear contribution   :      1.16971      -3.69031      -0.61411
                        -----------------------------------------
Total Dipole Moment    :      0.43801      -0.34068      -0.14970
                        -----------------------------------------
Magnitude (a.u.)       :      0.57474
Magnitude (Debye)      :      1.46086

                             ****ORCA TERMINATED NORMALLY****
TOTAL RUN TIME: 0 days 0 hours 0 minutes 7 seconds 390 msec
