                         Program Version 3.0.3 - RELEASE   -
|  1> ! RI PBE def2-SVP def2-SVP/J NBO PAL2
|  2> % maxcore 2000
|  3> % output
|  4>     # printlevel mini
|  5>     print[ P_Basis ] 0
|  6>     print[ P_SCFInfo ] 1
|  7>     print[ P_SCFIterInfo ] 1
|  8>     print[ P_OrbEn ] 0
|  9>     print[ P_Cartesian ] 0
| 10> end
| 11> *xyz 0 1
| 12>  C        1.0247710000     0.0661810000    -0.1337160000
| 13>  C        2.5280070000    -0.0743920000     0.1112400000
| 14>  C        2.8395950000    -0.3602980000     1.5676920000
| 15>  C        3.1253670000    -1.1274930000    -0.8080080000
| 16>  C        2.9553820000    -0.9230860000    -2.2937680000
| 17>  O        3.7045930000    -2.0946860000    -0.3785660000
| 18>  H        0.6109840000     0.8432580000     0.5123440000
| 19>  H        0.5073260000    -0.8689920000     0.0976730000
| 20>  H        0.7956890000     0.3356820000    -1.1663480000
| 21>  H        2.9998230000     0.8745880000    -0.1815980000
| 22>  H        2.3813260000    -1.2998120000     1.8835560000
| 23>  H        2.4561330000     0.4409400000     2.2036180000
| 24>  H        3.9135060000    -0.4531140000     1.7333950000
| 25>  H        3.0020790000     0.1314000000    -2.5732270000
| 26>  H        1.9733430000    -1.2983070000    -2.5973420000
| 27>  H        3.7159560000    -1.4918900000    -2.8264540000
| 28> *
| 29>
| 30>                          ****END OF INPUT****
 Total Charge           Charge          ....    0
 Multiplicity           Mult            ....    1
 Number of Electrons    NEL             ....   48
 Basis Dimension        Dim             ....  134

MULLIKEN ATOMIC CHARGES
-----------------------
   0 C :   -0.005011
   1 C :   -0.140983
   2 C :    0.044962
   3 C :   -0.051032
   4 C :    0.032063
   5 O :   -0.159277
   6 H :    0.029004
   7 H :    0.030142
   8 H :    0.020681
   9 H :    0.023125
  10 H :    0.020473
  11 H :    0.011707
  12 H :    0.025428
  13 H :    0.028537
  14 H :    0.051683
  15 H :    0.038499
Sum of atomic charges:   -0.0000000

LOEWDIN ATOMIC CHARGES
----------------------
   0 C :   -0.050993
   1 C :   -0.079029
   2 C :   -0.055928
   3 C :    0.061111
   4 C :   -0.088276
   5 O :   -0.120638
   6 H :    0.030714
   7 H :    0.029428
   8 H :    0.024773
   9 H :    0.037295
  10 H :    0.029386
  11 H :    0.024749
  12 H :    0.030614
  13 H :    0.034472
  14 H :    0.051062
  15 H :    0.041261

  Mayer bond orders larger than 0.1
B(  0-C ,  1-C ) :   1.0655 B(  0-C ,  6-H ) :   0.9615 B(  0-C ,  7-H ) :   0.9648
B(  0-C ,  8-H ) :   0.9573 B(  1-C ,  2-C ) :   1.0976 B(  1-C ,  3-C ) :   0.9172
B(  1-C ,  9-H ) :   0.8869 B(  2-C , 10-H ) :   0.9578 B(  2-C , 11-H ) :   0.9565
B(  2-C , 12-H ) :   0.9560 B(  3-C ,  4-C ) :   1.0348 B(  3-C ,  5-O ) :   2.2034
B(  4-C , 13-H ) :   0.9481 B(  4-C , 14-H ) :   0.9342 B(  4-C , 15-H ) :   0.9431

FINAL SINGLE POINT ENERGY      -271.223353223545

DIPOLE MOMENT
-------------
                                X             Y             Z
Electronic contribution:      3.70761      -3.70939      -0.63687
Nuclear contribution   :     -4.23908       4.48716       0.28098
                        -----------------------------------------
Total Dipole Moment    :     -0.53147       0.77778      -0.35589
                        -----------------------------------------
Magnitude (a.u.)       :      1.00701
Magnitude (Debye)      :      2.55960

                             ****ORCA TERMINATED NORMALLY****
TOTAL RUN TIME: 0 days 0 hours 0 minutes 6 seconds 601 msec
