                         Program Version 3.0.3 - RELEASE   -
|  1> ! RI PBE def2-SVP def2-SVP/J NBO PAL2
|  2> % maxcore 2000
|  3> % output
|  4>     # printlevel mini
|  5>     print[ P_Basis ] 0
|  6>     print[ P_SCFInfo ] 1
|  7>     print[ P_SCFIterInfo ] 1
|  8>     print[ P_OrbEn ] 0
|  9>     print[ P_Cartesian ] 0
| 10> end
| 11> *xyz 0 1
| 12>  C        0.9923270000     0.2088940000     0.0693700000
| 13>  C        2.4765940000    -0.1213210000     0.1514400000
| 14>  C        2.9365910000    -0.2371940000     1.5970120000
| 15>  C        2.7984880000    -1.4026370000    -0.6219890000
| 16>  C        2.5664410000    -1.2595400000    -2.0954040000
| 17>  O        1.9187370000    -2.0087030000    -2.7735280000
| 18>  H        0.7696030000     1.1416860000     0.5927710000
| 19>  H        0.3948620000    -0.5839480000     0.5296450000
| 20>  H        0.6540070000     0.3163880000    -0.9644790000
| 21>  H        3.0368280000     0.6988720000    -0.3174980000
| 22>  H        2.4194980000    -1.0572460000     2.1044070000
| 23>  H        2.7241030000     0.6808970000     2.1501560000
| 24>  H        4.0106440000    -0.4289630000     1.6617440000
| 25>  H        2.2174260000    -2.2512800000    -0.2506890000
| 26>  H        3.8633770000    -1.6401220000    -0.4927880000
| 27>  H        3.0582640000    -0.3709830000    -2.5556500000
| 28> *
| 29>
| 30>                          ****END OF INPUT****
 Total Charge           Charge          ....    0
 Multiplicity           Mult            ....    1
 Number of Electrons    NEL             ....   48
 Basis Dimension        Dim             ....  134

MULLIKEN ATOMIC CHARGES
-----------------------
   0 C :    0.019310
   1 C :   -0.195832
   2 C :    0.026435
   3 C :    0.052182
   4 C :    0.076250
   5 O :   -0.155914
   6 H :    0.021084
   7 H :    0.021364
   8 H :    0.028173
   9 H :    0.017117
  10 H :    0.018373
  11 H :    0.022191
  12 H :    0.018388
  13 H :    0.015476
  14 H :    0.033194
  15 H :   -0.017790
Sum of atomic charges:    0.0000000

LOEWDIN ATOMIC CHARGES
----------------------
   0 C :   -0.058204
   1 C :   -0.043698
   2 C :   -0.058018
   3 C :   -0.072667
   4 C :    0.086659
   5 O :   -0.105262
   6 H :    0.027952
   7 H :    0.027994
   8 H :    0.027451
   9 H :    0.024714
  10 H :    0.026489
  11 H :    0.027565
  12 H :    0.025758
  13 H :    0.032337
  14 H :    0.045767
  15 H :   -0.014837

  Mayer bond orders larger than 0.1
B(  0-C ,  1-C ) :   1.0792 B(  0-C ,  6-H ) :   0.9616 B(  0-C ,  7-H ) :   0.9598
B(  0-C ,  8-H ) :   0.9566 B(  1-C ,  2-C ) :   1.0873 B(  1-C ,  3-C ) :   1.0432
B(  1-C ,  9-H ) :   0.9143 B(  2-C , 10-H ) :   0.9597 B(  2-C , 11-H ) :   0.9605
B(  2-C , 12-H ) :   0.9592 B(  3-C ,  4-C ) :   0.9783 B(  3-C , 13-H ) :   0.9167
B(  3-C , 14-H ) :   0.9017 B(  4-C ,  5-O ) :   2.1851 B(  4-C , 15-H ) :   0.9138

FINAL SINGLE POINT ENERGY      -271.211878525930

DIPOLE MOMENT
-------------
                                X             Y             Z
Electronic contribution:      0.00064      -3.72631      -7.25232
Nuclear contribution   :      0.42853       4.26619       8.01395
                        -----------------------------------------
Total Dipole Moment    :      0.42917       0.53988       0.76163
                        -----------------------------------------
Magnitude (a.u.)       :      1.02749
Magnitude (Debye)      :      2.61167

                             ****ORCA TERMINATED NORMALLY****
TOTAL RUN TIME: 0 days 0 hours 0 minutes 5 seconds 895 msec
