                         Program Version 3.0.3 - RELEASE   -
|  1> ! RI PBE def2-SVP def2-SVP/J NBO PAL2
|  2> % maxcore 2000
|  3> % output
|  4>     # printlevel mini
|  5>     print[ P_Basis ] 0
|  6>     print[ P_SCFInfo ] 1
|  7>     print[ P_SCFIterInfo ] 1
|  8>     print[ P_OrbEn ] 0
|  9>     print[ P_Cartesian ] 0
| 10> end
| 11> *xyz 0 1
| 12>  C        0.9236650000    -0.0665370000     0.0521950000
| 13>  C        2.3746960000    -0.0876030000     0.0642340000
| 14>  C        3.5769870000    -0.1067260000     0.0859080000
| 15>  C        5.0299640000    -0.1328270000     0.0662240000
| 16>  C        5.5891830000    -0.2328550000    -1.3525740000
| 17>  O        6.9956800000    -0.3075800000    -1.3670860000
| 18>  H        0.5453040000     0.4244210000    -0.8479420000
| 19>  H        0.5324190000     0.4744100000     0.9175770000
| 20>  H        0.5152020000    -1.0799220000     0.0778580000
| 21>  H        5.4033300000    -0.9809090000     0.6492750000
| 22>  H        5.4208280000     0.7735500000     0.5452340000
| 23>  H        5.2217260000     0.6090990000    -1.9527720000
| 24>  H        5.2292630000    -1.1502430000    -1.8216160000
| 25>  H        7.3505620000     0.5299040000    -1.0586050000
| 26> *
| 27>
| 28>                          ****END OF INPUT****
 Total Charge           Charge          ....    0
 Multiplicity           Mult            ....    1
 Number of Electrons    NEL             ....   46
 Basis Dimension        Dim             ....  124

MULLIKEN ATOMIC CHARGES
-----------------------
   0 C :    0.054137
   1 C :   -0.229056
   2 C :   -0.114367
   3 C :    0.055853
   4 C :    0.131079
   5 O :   -0.277531
   6 H :    0.045528
   7 H :    0.046623
   8 H :    0.044886
   9 H :    0.035188
  10 H :    0.016184
  11 H :    0.013020
  12 H :    0.023954
  13 H :    0.154503
Sum of atomic charges:   -0.0000000

LOEWDIN ATOMIC CHARGES
----------------------
   0 C :   -0.068036
   1 C :   -0.070556
   2 C :   -0.071088
   3 C :   -0.068554
   4 C :    0.061833
   5 O :   -0.118309
   6 H :    0.049593
   7 H :    0.049933
   8 H :    0.049363
   9 H :    0.046272
  10 H :    0.038100
  11 H :    0.008154
  12 H :    0.024852
  13 H :    0.068442

  Mayer bond orders larger than 0.1
B(  0-C ,  1-C ) :   1.1343 B(  0-C ,  6-H ) :   0.9320 B(  0-C ,  7-H ) :   0.9348
B(  0-C ,  8-H ) :   0.9329 B(  1-C ,  2-C ) :   2.6116 B(  2-C ,  3-C ) :   1.0332
B(  3-C ,  4-C ) :   1.0486 B(  3-C ,  9-H ) :   0.8911 B(  3-C , 10-H ) :   0.8953
B(  4-C ,  5-O ) :   1.0702 B(  4-C , 11-H ) :   0.9480 B(  4-C , 12-H ) :   0.9424
B(  5-O , 13-H ) :   0.9852

FINAL SINGLE POINT ENERGY      -269.951852457623

DIPOLE MOMENT
-------------
                                X             Y             Z
Electronic contribution:      2.74553      -0.28006       0.02276
Nuclear contribution   :     -3.06080       0.76921       0.13858
                        -----------------------------------------
Total Dipole Moment    :     -0.31527       0.48915       0.16134
                        -----------------------------------------
Magnitude (a.u.)       :      0.60390
Magnitude (Debye)      :      1.53499

                             ****ORCA TERMINATED NORMALLY****
TOTAL RUN TIME: 0 days 0 hours 0 minutes 5 seconds 587 msec
