                         Program Version 3.0.3 - RELEASE   -
|  1> ! RI PBE def2-SVP def2-SVP/J NBO PAL2
|  2> % maxcore 2000
|  3> % output
|  4>     # printlevel mini
|  5>     print[ P_Basis ] 0
|  6>     print[ P_SCFInfo ] 1
|  7>     print[ P_SCFIterInfo ] 1
|  8>     print[ P_OrbEn ] 0
|  9>     print[ P_Cartesian ] 0
| 10> end
| 11> *xyz 0 1
| 12>  C        1.1287790000    -0.0304750000    -0.3942790000
| 13>  C        2.5402410000    -0.1299090000    -0.0767070000
| 14>  C        3.7133530000    -0.2097630000     0.1709830000
| 15>  C        5.1278800000    -0.3115040000     0.5113080000
| 16>  C        5.4778050000     0.5629930000     1.7082480000
| 17>  O        5.8867400000     0.0475780000    -0.6343630000
| 18>  H        0.9875910000     0.4008490000    -1.3884440000
| 19>  H        0.6065540000     0.6058880000     0.3244780000
| 20>  H        0.6520420000    -1.0138060000    -0.3844870000
| 21>  H        5.3316610000    -1.3618560000     0.7713930000
| 22>  H        5.2829330000     1.6104280000     1.4734000000
| 23>  H        4.8851730000     0.2805460000     2.5802450000
| 24>  H        6.5356090000     0.4485100000     1.9632700000
| 25>  H        6.8158380000    -0.0211880000    -0.3970460000
| 26> *
| 27>
| 28>                          ****END OF INPUT****
 Total Charge           Charge          ....    0
 Multiplicity           Mult            ....    1
 Number of Electrons    NEL             ....   46
 Basis Dimension        Dim             ....  124

MULLIKEN ATOMIC CHARGES
-----------------------
   0 C :    0.055024
   1 C :   -0.242460
   2 C :   -0.025992
   3 C :    0.091225
   4 C :   -0.008088
   5 O :   -0.249490
   6 H :    0.049035
   7 H :    0.048610
   8 H :    0.046447
   9 H :    0.011334
  10 H :    0.038874
  11 H :    0.024271
  12 H :    0.012065
  13 H :    0.149146
Sum of atomic charges:   -0.0000000

LOEWDIN ATOMIC CHARGES
----------------------
   0 C :   -0.068211
   1 C :   -0.054425
   2 C :   -0.064502
   3 C :    0.036211
   4 C :   -0.068342
   5 O :   -0.111396
   6 H :    0.053479
   7 H :    0.050227
   8 H :    0.049880
   9 H :    0.023305
  10 H :    0.032814
  11 H :    0.033434
  12 H :    0.021812
  13 H :    0.065713

  Mayer bond orders larger than 0.1
B(  0-C ,  1-C ) :   1.1374 B(  0-C ,  6-H ) :   0.9261 B(  0-C ,  7-H ) :   0.9334
B(  0-C ,  8-H ) :   0.9340 B(  1-C ,  2-C ) :   2.6611 B(  2-C ,  3-C ) :   0.9643
B(  3-C ,  4-C ) :   1.0826 B(  3-C ,  5-O ) :   1.1314 B(  3-C ,  9-H ) :   0.8990
B(  4-C , 10-H ) :   0.9561 B(  4-C , 11-H ) :   0.9485 B(  4-C , 12-H ) :   0.9527
B(  5-O , 13-H ) :   0.9797

FINAL SINGLE POINT ENERGY      -269.950116588156

DIPOLE MOMENT
-------------
                                X             Y             Z
Electronic contribution:      1.33567      -0.97778      -2.54508
Nuclear contribution   :     -1.27579       0.86519       3.02856
                        -----------------------------------------
Total Dipole Moment    :      0.05987      -0.11259       0.48348
                        -----------------------------------------
Magnitude (a.u.)       :      0.50002
Magnitude (Debye)      :      1.27094

                             ****ORCA TERMINATED NORMALLY****
TOTAL RUN TIME: 0 days 0 hours 0 minutes 5 seconds 638 msec
