                         Program Version 3.0.3 - RELEASE   -
|  1> ! RI PBE def2-SVP def2-SVP/J NBO PAL2
|  2> % maxcore 2000
|  3> % output
|  4>     # printlevel mini
|  5>     print[ P_Basis ] 0
|  6>     print[ P_SCFInfo ] 1
|  7>     print[ P_SCFIterInfo ] 1
|  8>     print[ P_OrbEn ] 0
|  9>     print[ P_Cartesian ] 0
| 10> end
| 11> *xyz 0 1
| 12>  C        0.9252120000    -0.0070490000    -0.0699600000
| 13>  C        2.3751870000     0.0251320000    -0.0916130000
| 14>  C        3.5765030000     0.0664250000    -0.1044010000
| 15>  C        5.0269990000     0.0755500000    -0.1564840000
| 16>  C        5.5855730000    -1.1187110000    -0.9059520000
| 17>  O        6.5440810000    -1.0631030000    -1.6202660000
| 18>  H        0.5158000000     1.0026070000     0.0144860000
| 19>  H        0.5575400000    -0.5909850000     0.7772740000
| 20>  H        0.5295590000    -0.4539330000    -0.9852140000
| 21>  H        5.4392920000     0.0241630000     0.8612750000
| 22>  H        5.4201150000     0.9862920000    -0.6151910000
| 23>  H        5.0431500000    -2.0716900000    -0.7337540000
| 24> *
| 25>
| 26>                          ****END OF INPUT****
 Total Charge           Charge          ....    0
 Multiplicity           Mult            ....    1
 Number of Electrons    NEL             ....   44
 Basis Dimension        Dim             ....  114

MULLIKEN ATOMIC CHARGES
-----------------------
   0 C :    0.052271
   1 C :   -0.203414
   2 C :   -0.141108
   3 C :    0.110146
   4 C :    0.073840
   5 O :   -0.152552
   6 H :    0.049729
   7 H :    0.050225
   8 H :    0.050377
   9 H :    0.063262
  10 H :    0.044296
  11 H :    0.002929
Sum of atomic charges:    0.0000000

LOEWDIN ATOMIC CHARGES
----------------------
   0 C :   -0.067165
   1 C :   -0.055548
   2 C :   -0.078709
   3 C :   -0.080709
   4 C :    0.104167
   5 O :   -0.095911
   6 H :    0.052745
   7 H :    0.051576
   8 H :    0.052066
   9 H :    0.068652
  10 H :    0.055482
  11 H :   -0.006647

  Mayer bond orders larger than 0.1
B(  0-C ,  1-C ) :   1.1353 B(  0-C ,  6-H ) :   0.9329 B(  0-C ,  7-H ) :   0.9326
B(  0-C ,  8-H ) :   0.9312 B(  1-C ,  2-C ) :   2.6447 B(  2-C ,  3-C ) :   1.0200
B(  3-C ,  4-C ) :   0.9356 B(  3-C ,  9-H ) :   0.8826 B(  3-C , 10-H ) :   0.8902
B(  4-C ,  5-O ) :   2.1890 B(  4-C , 11-H ) :   0.9280

FINAL SINGLE POINT ENERGY      -268.754341098399

DIPOLE MOMENT
-------------
                                X             Y             Z
Electronic contribution:      5.47336      -0.87417      -1.68476
Nuclear contribution   :     -6.33053       0.98615       2.26300
                        -----------------------------------------
Total Dipole Moment    :     -0.85717       0.11198       0.57824
                        -----------------------------------------
Magnitude (a.u.)       :      1.04002
Magnitude (Debye)      :      2.64352

                             ****ORCA TERMINATED NORMALLY****
TOTAL RUN TIME: 0 days 0 hours 0 minutes 5 seconds 43 msec
