                         Program Version 3.0.3 - RELEASE   -
|  1> ! RI PBE def2-SVP def2-SVP/J NBO PAL2
|  2> % maxcore 2000
|  3> % output
|  4>     # printlevel mini
|  5>     print[ P_Basis ] 0
|  6>     print[ P_SCFInfo ] 1
|  7>     print[ P_SCFIterInfo ] 1
|  8>     print[ P_OrbEn ] 0
|  9>     print[ P_Cartesian ] 0
| 10> end
| 11> *xyz 0 1
| 12>  C        2.1106270000     1.5046590000    -0.1284750000
| 13>  C        2.8813650000     0.1927880000    -0.2372800000
| 14>  C        3.1318010000    -0.4361260000     1.0925440000
| 15>  C        4.3261910000    -0.6929590000     1.6148090000
| 16>  C        4.5395880000    -1.3184650000     2.9517440000
| 17>  O        5.2695680000    -2.5305850000     2.8698000000
| 18>  H        1.9117720000     1.9267120000    -1.1160960000
| 19>  H        2.6736300000     2.2412000000     0.4492220000
| 20>  H        1.1492800000     1.3562110000     0.3704490000
| 21>  H        3.8340110000     0.3576080000    -0.7491930000
| 22>  H        2.3065980000    -0.5036850000    -0.8602020000
| 23>  H        2.2456570000    -0.6788950000     1.6813660000
| 24>  H        5.2266820000    -0.4632080000     1.0465190000
| 25>  H        3.5728030000    -1.4681460000     3.4520730000
| 26>  H        5.1416190000    -0.6651520000     3.5901980000
| 27>  H        4.8177070000    -3.0974670000     2.2387200000
| 28> *
| 29>
| 30>                          ****END OF INPUT****
 Total Charge           Charge          ....    0
 Multiplicity           Mult            ....    1
 Number of Electrons    NEL             ....   48
 Basis Dimension        Dim             ....  134

MULLIKEN ATOMIC CHARGES
-----------------------
   0 C :   -0.038947
   1 C :    0.026802
   2 C :   -0.066070
   3 C :   -0.136670
   4 C :    0.249870
   5 O :   -0.292394
   6 H :    0.023545
   7 H :    0.030236
   8 H :    0.023403
   9 H :    0.010431
  10 H :    0.027043
  11 H :   -0.008700
  12 H :   -0.003693
  13 H :   -0.009609
  14 H :    0.016862
  15 H :    0.147890
Sum of atomic charges:    0.0000000

LOEWDIN ATOMIC CHARGES
----------------------
   0 C :   -0.062505
   1 C :   -0.047257
   2 C :   -0.033070
   3 C :   -0.072810
   4 C :    0.053934
   5 O :   -0.124096
   6 H :    0.027564
   7 H :    0.027663
   8 H :    0.025881
   9 H :    0.028678
  10 H :    0.034629
  11 H :    0.020293
  12 H :    0.023020
  13 H :    0.005784
  14 H :    0.027422
  15 H :    0.064869

  Mayer bond orders larger than 0.1
B(  0-C ,  1-C ) :   1.1036 B(  0-C ,  6-H ) :   0.9598 B(  0-C ,  7-H ) :   0.9692
B(  0-C ,  8-H ) :   0.9670 B(  1-C ,  2-C ) :   1.0602 B(  1-C ,  9-H ) :   0.9338
B(  1-C , 10-H ) :   0.9193 B(  2-C ,  3-C ) :   1.8834 B(  2-C , 11-H ) :   0.9469
B(  3-C ,  4-C ) :   1.0646 B(  3-C , 12-H ) :   0.9551 B(  4-C ,  5-O ) :   1.0314
B(  4-C , 13-H ) :   0.9326 B(  4-C , 14-H ) :   0.9184 B(  5-O , 15-H ) :   0.9864

FINAL SINGLE POINT ENERGY      -271.187536245023

DIPOLE MOMENT
-------------
                                X             Y             Z
Electronic contribution:      3.59849      -4.38222       3.08687
Nuclear contribution   :     -4.14957       4.53832      -3.53485
                        -----------------------------------------
Total Dipole Moment    :     -0.55107       0.15610      -0.44798
                        -----------------------------------------
Magnitude (a.u.)       :      0.72714
Magnitude (Debye)      :      1.84825

                             ****ORCA TERMINATED NORMALLY****
TOTAL RUN TIME: 0 days 0 hours 0 minutes 6 seconds 325 msec
