                         Program Version 3.0.3 - RELEASE   -
|  1> ! RI PBE def2-SVP def2-SVP/J NBO PAL2
|  2> % maxcore 2000
|  3> % output
|  4>     # printlevel mini
|  5>     print[ P_Basis ] 0
|  6>     print[ P_SCFInfo ] 1
|  7>     print[ P_SCFIterInfo ] 1
|  8>     print[ P_OrbEn ] 0
|  9>     print[ P_Cartesian ] 0
| 10> end
| 11> *xyz 0 1
| 12>  C        0.8349820000     0.0277390000    -0.5062800000
| 13>  C        2.2760350000    -0.0014510000    -0.0039630000
| 14>  C        2.3636230000     0.1567280000     1.4714640000
| 15>  C        2.9279640000    -0.7011360000     2.3230980000
| 16>  C        2.9393190000    -0.4286430000     3.7587480000
| 17>  O        3.4292230000    -1.1499740000     4.5915480000
| 18>  H        0.8033590000    -0.0552010000    -1.5942720000
| 19>  H        0.3379770000     0.9601490000    -0.2270630000
| 20>  H        0.2571540000    -0.7978540000    -0.0856890000
| 21>  H        2.8310030000     0.8201620000    -0.4740430000
| 22>  H        2.7677670000    -0.9292870000    -0.3078530000
| 23>  H        1.9101900000     1.0588420000     1.8858870000
| 24>  H        3.3965630000    -1.6231500000     1.9905830000
| 25>  H        2.4465440000     0.5258870000     4.0500370000
| 26> *
| 27>
| 28>                          ****END OF INPUT****
 Total Charge           Charge          ....    0
 Multiplicity           Mult            ....    1
 Number of Electrons    NEL             ....   46
 Basis Dimension        Dim             ....  124

MULLIKEN ATOMIC CHARGES
-----------------------
   0 C :   -0.054604
   1 C :    0.037626
   2 C :   -0.056327
   3 C :   -0.017453
   4 C :    0.115894
   5 O :   -0.170219
   6 H :    0.038045
   7 H :    0.030131
   8 H :    0.036398
   9 H :    0.039958
  10 H :    0.019653
  11 H :    0.007087
  12 H :    0.003001
  13 H :   -0.029191
Sum of atomic charges:    0.0000000

LOEWDIN ATOMIC CHARGES
----------------------
   0 C :   -0.059713
   1 C :   -0.044060
   2 C :    0.021979
   3 C :   -0.078919
   4 C :    0.065895
   5 O :   -0.118200
   6 H :    0.032845
   7 H :    0.028141
   8 H :    0.030614
   9 H :    0.044208
  10 H :    0.032732
  11 H :    0.026564
  12 H :    0.032836
  13 H :   -0.014922

  Mayer bond orders larger than 0.1
B(  0-C ,  1-C ) :   1.0903 B(  0-C ,  6-H ) :   0.9616 B(  0-C ,  7-H ) :   0.9693
B(  0-C ,  8-H ) :   0.9700 B(  1-C ,  2-C ) :   1.0634 B(  1-C ,  9-H ) :   0.9112
B(  1-C , 10-H ) :   0.9376 B(  2-C ,  3-C ) :   1.7561 B(  2-C ,  5-O ) :   0.1035
B(  2-C , 11-H ) :   0.9497 B(  3-C ,  4-C ) :   1.0401 B(  3-C , 12-H ) :   0.9631
B(  4-C ,  5-O ) :   2.1052 B(  4-C , 13-H ) :   0.9285

FINAL SINGLE POINT ENERGY      -269.999680877147

DIPOLE MOMENT
-------------
                                X             Y             Z
Electronic contribution:      4.03768      -2.05102       8.32334
Nuclear contribution   :     -4.52366       2.61014      -9.62047
                        -----------------------------------------
Total Dipole Moment    :     -0.48598       0.55912      -1.29712
                        -----------------------------------------
Magnitude (a.u.)       :      1.49376
Magnitude (Debye)      :      3.79684

                             ****ORCA TERMINATED NORMALLY****
TOTAL RUN TIME: 0 days 0 hours 0 minutes 5 seconds 883 msec
