                         Program Version 3.0.3 - RELEASE   -
|  1> ! RI PBE def2-SVP def2-SVP/J NBO PAL2
|  2> % maxcore 2000
|  3> % output
|  4>     # printlevel mini
|  5>     print[ P_Basis ] 0
|  6>     print[ P_SCFInfo ] 1
|  7>     print[ P_SCFIterInfo ] 1
|  8>     print[ P_OrbEn ] 0
|  9>     print[ P_Cartesian ] 0
| 10> end
| 11> *xyz 0 1
| 12>  C        0.9712130000     0.0974920000     0.1291200000
| 13>  C        2.4625730000    -0.1477270000     0.0093500000
| 14>  C        2.8768650000    -1.5233970000    -0.4218270000
| 15>  C        2.0363190000    -2.5331880000    -0.6279090000
| 16>  C        4.3533190000    -1.7137500000    -0.6325900000
| 17>  O        4.8682420000    -0.8881930000    -1.6631390000
| 18>  H        0.7759060000     1.1261160000     0.4387410000
| 19>  H        0.5121900000    -0.5632130000     0.8687750000
| 20>  H        0.4623120000    -0.0647100000    -0.8243950000
| 21>  H        2.9510470000     0.0604120000     0.9708600000
| 22>  H        2.9087080000     0.5694780000    -0.6886860000
| 23>  H        0.9659110000    -2.4348070000    -0.4908930000
| 24>  H        2.4021150000    -3.5070630000    -0.9366440000
| 25>  H        4.5675920000    -2.7716730000    -0.8292060000
| 26>  H        4.9037680000    -1.4245250000     0.2681720000
| 27>  H        4.4028310000    -1.1129410000    -2.4737300000
| 28> *
| 29>
| 30>                          ****END OF INPUT****
 Total Charge           Charge          ....    0
 Multiplicity           Mult            ....    1
 Number of Electrons    NEL             ....   48
 Basis Dimension        Dim             ....  134

MULLIKEN ATOMIC CHARGES
-----------------------
   0 C :   -0.021058
   1 C :    0.056893
   2 C :   -0.247585
   3 C :   -0.033152
   4 C :    0.261438
   5 O :   -0.290264
   6 H :    0.017957
   7 H :    0.027705
   8 H :    0.024794
   9 H :    0.013783
  10 H :    0.018432
  11 H :    0.015136
  12 H :    0.004027
  13 H :   -0.007655
  14 H :    0.006909
  15 H :    0.152639
Sum of atomic charges:    0.0000000

LOEWDIN ATOMIC CHARGES
----------------------
   0 C :   -0.065661
   1 C :   -0.042672
   2 C :   -0.054828
   3 C :   -0.076060
   4 C :    0.065064
   5 O :   -0.120113
   6 H :    0.029301
   7 H :    0.026242
   8 H :    0.026826
   9 H :    0.037016
  10 H :    0.033833
  11 H :    0.020235
  12 H :    0.019781
  13 H :    0.007433
  14 H :    0.024822
  15 H :    0.068781

  Mayer bond orders larger than 0.1
B(  0-C ,  1-C ) :   1.1412 B(  0-C ,  6-H ) :   0.9555 B(  0-C ,  7-H ) :   0.9577
B(  0-C ,  8-H ) :   0.9600 B(  1-C ,  2-C ) :   1.0300 B(  1-C ,  9-H ) :   0.9064
B(  1-C , 10-H ) :   0.9070 B(  2-C ,  3-C ) :   1.9722 B(  2-C ,  4-C ) :   1.0531
B(  3-C , 11-H ) :   0.9262 B(  3-C , 12-H ) :   0.9254 B(  4-C ,  5-O ) :   1.0390
B(  4-C , 13-H ) :   0.9296 B(  4-C , 14-H ) :   0.9186 B(  5-O , 15-H ) :   0.9820

FINAL SINGLE POINT ENERGY      -271.188109592884

DIPOLE MOMENT
-------------
                                X             Y             Z
Electronic contribution:      4.13078      -0.96025      -1.91862
Nuclear contribution   :     -4.48313       0.77990       1.83921
                        -----------------------------------------
Total Dipole Moment    :     -0.35235      -0.18036      -0.07940
                        -----------------------------------------
Magnitude (a.u.)       :      0.40371
Magnitude (Debye)      :      1.02615

                             ****ORCA TERMINATED NORMALLY****
TOTAL RUN TIME: 0 days 0 hours 0 minutes 6 seconds 301 msec
