                         Program Version 3.0.3 - RELEASE   -
|  1> ! RI PBE def2-SVP def2-SVP/J NBO PAL2
|  2> % maxcore 2000
|  3> % output
|  4>     # printlevel mini
|  5>     print[ P_Basis ] 0
|  6>     print[ P_SCFInfo ] 1
|  7>     print[ P_SCFIterInfo ] 1
|  8>     print[ P_OrbEn ] 0
|  9>     print[ P_Cartesian ] 0
| 10> end
| 11> *xyz 0 1
| 12>  C        1.0344030000     0.2382720000     0.0869280000
| 13>  C        2.5048120000    -0.1713740000     0.0632670000
| 14>  C        2.7205090000    -1.5024600000    -0.5842640000
| 15>  C        2.9857890000    -2.6357070000     0.0667180000
| 16>  C        2.6390340000    -1.5824440000    -2.0571780000
| 17>  O        2.4528140000    -0.6393550000    -2.7829470000
| 18>  H        0.9177830000     1.2188400000     0.5533090000
| 19>  H        0.4371860000    -0.4797000000     0.6540280000
| 20>  H        0.6302190000     0.2973350000    -0.9247510000
| 21>  H        2.9025860000    -0.1980240000     1.0810800000
| 22>  H        3.0733880000     0.5798510000    -0.4930330000
| 23>  H        3.0838950000    -2.6727040000     1.1460860000
| 24>  H        3.1164600000    -3.5684130000    -0.4737530000
| 25>  H        2.7760110000    -2.6045270000    -2.4714800000
| 26> *
| 27>
| 28>                          ****END OF INPUT****
 Total Charge           Charge          ....    0
 Multiplicity           Mult            ....    1
 Number of Electrons    NEL             ....   46
 Basis Dimension        Dim             ....  124

MULLIKEN ATOMIC CHARGES
-----------------------
   0 C :   -0.026293
   1 C :    0.060929
   2 C :   -0.160562
   3 C :   -0.003132
   4 C :    0.140548
   5 O :   -0.161671
   6 H :    0.026367
   7 H :    0.020698
   8 H :    0.037783
   9 H :    0.003578
  10 H :    0.030256
  11 H :    0.030282
  12 H :    0.028580
  13 H :   -0.027363
Sum of atomic charges:   -0.0000000

LOEWDIN ATOMIC CHARGES
----------------------
   0 C :   -0.057471
   1 C :   -0.035951
   2 C :   -0.069917
   3 C :   -0.004987
   4 C :    0.081730
   5 O :   -0.110456
   6 H :    0.029926
   7 H :    0.024973
   8 H :    0.030321
   9 H :    0.028895
  10 H :    0.039080
  11 H :    0.028490
  12 H :    0.026791
  13 H :   -0.011423

  Mayer bond orders larger than 0.1
B(  0-C ,  1-C ) :   1.1023 B(  0-C ,  6-H ) :   0.9606 B(  0-C ,  7-H ) :   0.9660
B(  0-C ,  8-H ) :   0.9676 B(  1-C ,  2-C ) :   1.0645 B(  1-C ,  9-H ) :   0.9224
B(  1-C , 10-H ) :   0.9076 B(  2-C ,  3-C ) :   1.8764 B(  2-C ,  4-C ) :   0.9925
B(  3-C , 11-H ) :   0.9381 B(  3-C , 12-H ) :   0.9332 B(  4-C ,  5-O ) :   2.1212
B(  4-C , 13-H ) :   0.9293

FINAL SINGLE POINT ENERGY      -269.998865440733

DIPOLE MOMENT
-------------
                                X             Y             Z
Electronic contribution:      1.97734      -1.18399      -4.91464
Nuclear contribution   :     -1.86950       0.67710       5.75535
                        -----------------------------------------
Total Dipole Moment    :      0.10784      -0.50689       0.84071
                        -----------------------------------------
Magnitude (a.u.)       :      0.98761
Magnitude (Debye)      :      2.51029

                             ****ORCA TERMINATED NORMALLY****
TOTAL RUN TIME: 0 days 0 hours 0 minutes 5 seconds 908 msec
