                         Program Version 3.0.3 - RELEASE   -
|  1> ! RI PBE def2-SVP def2-SVP/J NBO PAL2
|  2> % maxcore 2000
|  3> % output
|  4>     # printlevel mini
|  5>     print[ P_Basis ] 0
|  6>     print[ P_SCFInfo ] 1
|  7>     print[ P_SCFIterInfo ] 1
|  8>     print[ P_OrbEn ] 0
|  9>     print[ P_Cartesian ] 0
| 10> end
| 11> *xyz 0 1
| 12>  C        3.2620900000     1.1056310000     0.3055230000
| 13>  C        2.7897520000     0.0051160000    -0.6324990000
| 14>  C        3.2200230000    -1.4102280000    -0.2473430000
| 15>  C        2.4609860000    -2.4515340000    -1.0560270000
| 16>  C        4.7237860000    -1.6004360000    -0.4035850000
| 17>  O        5.1801960000    -2.8684140000     0.0240850000
| 18>  H        2.8531210000     2.0738700000     0.0077450000
| 19>  H        4.3495530000     1.2048920000     0.3172440000
| 20>  H        2.9360500000     0.9124870000     1.3317480000
| 21>  H        3.1334810000     0.2132980000    -1.6537080000
| 22>  H        1.6956960000     0.0254880000    -0.6789770000
| 23>  H        2.9801310000    -1.5539710000     0.8177650000
| 24>  H        2.6112530000    -2.2870210000    -2.1280600000
| 25>  H        1.3873190000    -2.3992900000    -0.8589050000
| 26>  H        2.8066770000    -3.4597440000    -0.8229970000
| 27>  H        5.2675490000    -0.8030860000     0.1184030000
| 28>  H        4.9889230000    -1.5338280000    -1.4638530000
| 29>  H        5.0256140000    -2.9386280000     0.9695420000
| 30> *
| 31>
| 32>                          ****END OF INPUT****
 Total Charge           Charge          ....    0
 Multiplicity           Mult            ....    1
 Number of Electrons    NEL             ....   50
 Basis Dimension        Dim             ....  144

MULLIKEN ATOMIC CHARGES
-----------------------
   0 C :   -0.008252
   1 C :   -0.033928
   2 C :   -0.174003
   3 C :    0.031801
   4 C :    0.207097
   5 O :   -0.282940
   6 H :    0.016885
   7 H :    0.026780
   8 H :    0.014690
   9 H :    0.004805
  10 H :    0.014678
  11 H :   -0.010983
  12 H :    0.014654
  13 H :    0.016011
  14 H :    0.016027
  15 H :   -0.004964
  16 H :   -0.000428
  17 H :    0.152072
Sum of atomic charges:   -0.0000000

LOEWDIN ATOMIC CHARGES
----------------------
   0 C :   -0.069368
   1 C :   -0.041598
   2 C :   -0.068573
   3 C :   -0.061360
   4 C :    0.057936
   5 O :   -0.118763
   6 H :    0.028464
   7 H :    0.022270
   8 H :    0.024393
   9 H :    0.022895
  10 H :    0.026143
  11 H :    0.015848
  12 H :    0.025277
  13 H :    0.023624
  14 H :    0.023624
  15 H :    0.003020
  16 H :    0.019246
  17 H :    0.066921

  Mayer bond orders larger than 0.1
B(  0-C ,  1-C ) :   1.1123 B(  0-C ,  6-H ) :   0.9562 B(  0-C ,  7-H ) :   0.9634
B(  0-C ,  8-H ) :   0.9626 B(  1-C ,  2-C ) :   1.0475 B(  1-C ,  9-H ) :   0.9319
B(  1-C , 10-H ) :   0.9343 B(  2-C ,  3-C ) :   1.0734 B(  2-C ,  4-C ) :   1.0304
B(  2-C , 11-H ) :   0.9069 B(  3-C , 12-H ) :   0.9617 B(  3-C , 13-H ) :   0.9598
B(  3-C , 14-H ) :   0.9497 B(  4-C ,  5-O ) :   1.0597 B(  4-C , 15-H ) :   0.9423
B(  4-C , 16-H ) :   0.9298 B(  5-O , 17-H ) :   0.9858

FINAL SINGLE POINT ENERGY      -272.407124916178

DIPOLE MOMENT
-------------
                                X             Y             Z
Electronic contribution:      3.15157      -3.59473       0.60276
Nuclear contribution   :     -3.40015       3.97603      -0.19752
                        -----------------------------------------
Total Dipole Moment    :     -0.24858       0.38130       0.40524
                        -----------------------------------------
Magnitude (a.u.)       :      0.60942
Magnitude (Debye)      :      1.54903

                             ****ORCA TERMINATED NORMALLY****
TOTAL RUN TIME: 0 days 0 hours 0 minutes 6 seconds 475 msec
