                         Program Version 3.0.3 - RELEASE   -
|  1> ! RI PBE def2-SVP def2-SVP/J NBO PAL2
|  2> % maxcore 2000
|  3> % output
|  4>     # printlevel mini
|  5>     print[ P_Basis ] 0
|  6>     print[ P_SCFInfo ] 1
|  7>     print[ P_SCFIterInfo ] 1
|  8>     print[ P_OrbEn ] 0
|  9>     print[ P_Cartesian ] 0
| 10> end
| 11> *xyz 0 1
| 12>  C        3.8219880000     0.4435690000    -0.6276520000
| 13>  C        3.0387720000    -0.5479250000     0.2158590000
| 14>  C        2.5498880000    -1.7918990000    -0.5251220000
| 15>  C        1.7581260000    -2.6775360000     0.4287150000
| 16>  C        3.6972550000    -2.5787580000    -1.1460950000
| 17>  O        1.6853360000    -1.3093880000    -1.5532100000
| 18>  H        4.0336180000     1.3490890000    -0.0544720000
| 19>  H        3.2538780000     0.7294740000    -1.5143080000
| 20>  H        4.7809380000     0.0358790000    -0.9556240000
| 21>  H        2.1532920000    -0.0532590000     0.6279330000
| 22>  H        3.6405850000    -0.8748570000     1.0701890000
| 23>  H        1.3604050000    -3.5520150000    -0.0958880000
| 24>  H        0.9185610000    -2.1213340000     0.8508370000
| 25>  H        2.3842860000    -3.0386730000     1.2484200000
| 26>  H        3.3176510000    -3.4788110000    -1.6400070000
| 27>  H        4.2202560000    -1.9794660000    -1.8923560000
| 28>  H        4.4164700000    -2.8969060000    -0.3870380000
| 29>  H        1.3626860000    -2.0653950000    -2.0512900000
| 30> *
| 31>
| 32>                          ****END OF INPUT****
 Total Charge           Charge          ....    0
 Multiplicity           Mult            ....    1
 Number of Electrons    NEL             ....   50
 Basis Dimension        Dim             ....  144

MULLIKEN ATOMIC CHARGES
-----------------------
   0 C :   -0.000401
   1 C :    0.018523
   2 C :   -0.160719
   3 C :    0.072517
   4 C :    0.061388
   5 O :   -0.257266
   6 H :    0.014028
   7 H :    0.028833
   8 H :    0.011513
   9 H :    0.006450
  10 H :    0.004846
  11 H :   -0.002950
  12 H :    0.018026
  13 H :    0.007992
  14 H :   -0.001926
  15 H :    0.022666
  16 H :    0.009983
  17 H :    0.146497
Sum of atomic charges:   -0.0000000

LOEWDIN ATOMIC CHARGES
----------------------
   0 C :   -0.067244
   1 C :   -0.042479
   2 C :    0.013587
   3 C :   -0.065483
   4 C :   -0.067030
   5 O :   -0.108350
   6 H :    0.026768
   7 H :    0.028383
   8 H :    0.021144
   9 H :    0.026481
  10 H :    0.024315
  11 H :    0.018975
  12 H :    0.026886
  13 H :    0.026641
  14 H :    0.019746
  15 H :    0.026510
  16 H :    0.028201
  17 H :    0.062949

  Mayer bond orders larger than 0.1
B(  0-C ,  1-C ) :   1.1267 B(  0-C ,  6-H ) :   0.9568 B(  0-C ,  7-H ) :   0.9579
B(  0-C ,  8-H ) :   0.9586 B(  1-C ,  2-C ) :   1.0226 B(  1-C ,  9-H ) :   0.9242
B(  1-C , 10-H ) :   0.9334 B(  2-C ,  3-C ) :   1.0647 B(  2-C ,  4-C ) :   1.0577
B(  2-C ,  5-O ) :   1.0260 B(  3-C , 11-H ) :   0.9467 B(  3-C , 12-H ) :   0.9526
B(  3-C , 13-H ) :   0.9475 B(  4-C , 14-H ) :   0.9468 B(  4-C , 15-H ) :   0.9495
B(  4-C , 16-H ) :   0.9488 B(  5-O , 17-H ) :   0.9821

FINAL SINGLE POINT ENERGY      -272.415493356550

DIPOLE MOMENT
-------------
                                X             Y             Z
Electronic contribution:     -2.66117       0.35680      -1.76204
Nuclear contribution   :      2.74879      -0.87738       1.81659
                        -----------------------------------------
Total Dipole Moment    :      0.08762      -0.52058       0.05455
                        -----------------------------------------
Magnitude (a.u.)       :      0.53071
Magnitude (Debye)      :      1.34896

                             ****ORCA TERMINATED NORMALLY****
TOTAL RUN TIME: 0 days 0 hours 0 minutes 7 seconds 429 msec
