                         Program Version 3.0.3 - RELEASE   -
|  1> ! RI PBE def2-SVP def2-SVP/J NBO PAL2
|  2> % maxcore 2000
|  3> % output
|  4>     # printlevel mini
|  5>     print[ P_Basis ] 0
|  6>     print[ P_SCFInfo ] 1
|  7>     print[ P_SCFIterInfo ] 1
|  8>     print[ P_OrbEn ] 0
|  9>     print[ P_Cartesian ] 0
| 10> end
| 11> *xyz 0 1
| 12>  C        3.0597820000     1.3415670000     0.3127180000
| 13>  C        2.6417330000    -0.0411620000    -0.1592280000
| 14>  C        3.1609970000    -1.1763840000     0.7245980000
| 15>  C        2.6004900000    -2.5265960000     0.2842320000
| 16>  C        4.6619010000    -1.2350160000     0.6463860000
| 17>  O        5.4175370000    -1.1518540000     1.5743690000
| 18>  H        2.6562310000     2.1183060000    -0.3401100000
| 19>  H        4.1471610000     1.4531750000     0.3275120000
| 20>  H        2.6996060000     1.5359200000     1.3262510000
| 21>  H        2.9853520000    -0.2072960000    -1.1878920000
| 22>  H        1.5495360000    -0.1093820000    -0.1937070000
| 23>  H        2.8977550000    -0.9841500000     1.7693390000
| 24>  H        2.9104230000    -2.7662670000    -0.7374960000
| 25>  H        1.5085590000    -2.5063760000     0.3024680000
| 26>  H        2.9370160000    -3.3336390000     0.9382200000
| 27>  H        5.0543020000    -1.3796370000    -0.3891690000
| 28> *
| 29>
| 30>                          ****END OF INPUT****
 Total Charge           Charge          ....    0
 Multiplicity           Mult            ....    1
 Number of Electrons    NEL             ....   48
 Basis Dimension        Dim             ....  134

MULLIKEN ATOMIC CHARGES
-----------------------
   0 C :   -0.003821
   1 C :   -0.058487
   2 C :   -0.097395
   3 C :    0.008805
   4 C :    0.111266
   5 O :   -0.156010
   6 H :    0.026214
   7 H :    0.034172
   8 H :    0.023760
   9 H :    0.013983
  10 H :    0.023572
  11 H :    0.008635
  12 H :    0.020305
  13 H :    0.033726
  14 H :    0.036808
  15 H :   -0.025532
Sum of atomic charges:   -0.0000000

LOEWDIN ATOMIC CHARGES
----------------------
   0 C :   -0.066940
   1 C :   -0.038028
   2 C :   -0.080517
   3 C :   -0.050542
   4 C :    0.096046
   5 O :   -0.105529
   6 H :    0.030374
   7 H :    0.028603
   8 H :    0.029178
   9 H :    0.023744
  10 H :    0.028439
  11 H :    0.029716
  12 H :    0.027522
  13 H :    0.032479
  14 H :    0.032362
  15 H :   -0.016908

  Mayer bond orders larger than 0.1
B(  0-C ,  1-C ) :   1.1181 B(  0-C ,  6-H ) :   0.9585 B(  0-C ,  7-H ) :   0.9607
B(  0-C ,  8-H ) :   0.9605 B(  1-C ,  2-C ) :   1.0405 B(  1-C ,  9-H ) :   0.9322
B(  1-C , 10-H ) :   0.9354 B(  2-C ,  3-C ) :   1.0656 B(  2-C ,  4-C ) :   0.9326
B(  2-C , 11-H ) :   0.9008 B(  3-C , 12-H ) :   0.9563 B(  3-C , 13-H ) :   0.9566
B(  3-C , 14-H ) :   0.9600 B(  4-C ,  5-O ) :   2.1909 B(  4-C , 15-H ) :   0.9136

FINAL SINGLE POINT ENERGY      -271.211577890680

DIPOLE MOMENT
-------------
                                X             Y             Z
Electronic contribution:      5.38997      -1.64686       3.00236
Nuclear contribution   :     -6.19940       1.64193      -3.59098
                        -----------------------------------------
Total Dipole Moment    :     -0.80943      -0.00493      -0.58862
                        -----------------------------------------
Magnitude (a.u.)       :      1.00084
Magnitude (Debye)      :      2.54393

                             ****ORCA TERMINATED NORMALLY****
TOTAL RUN TIME: 0 days 0 hours 0 minutes 6 seconds 426 msec
