                         Program Version 3.0.3 - RELEASE   -
|  1> ! RI PBE def2-SVP def2-SVP/J NBO PAL2
|  2> % maxcore 2000
|  3> % output
|  4>     # printlevel mini
|  5>     print[ P_Basis ] 0
|  6>     print[ P_SCFInfo ] 1
|  7>     print[ P_SCFIterInfo ] 1
|  8>     print[ P_OrbEn ] 0
|  9>     print[ P_Cartesian ] 0
| 10> end
| 11> *xyz 0 1
| 12>  C        0.9311420000    -0.1409680000    -0.1457920000
| 13>  C        2.4292250000     0.1009840000     0.0187850000
| 14>  C        2.9058710000     1.2773330000    -0.6912930000
| 15>  C        3.2965970000     2.2483830000    -1.2856730000
| 16>  C        3.7411720000     3.4466840000    -1.9866010000
| 17>  O        3.9452870000     4.5574150000    -1.1364360000
| 18>  H        0.6265490000    -1.0347890000     0.4025780000
| 19>  H        0.6731180000    -0.2787450000    -1.1971510000
| 20>  H        0.3566230000     0.7061480000     0.2328570000
| 21>  H        2.9885920000    -0.7727320000    -0.3327400000
| 22>  H        2.6754490000     0.2079770000     1.0807320000
| 23>  H        3.0199580000     3.6858050000    -2.7808520000
| 24>  H        4.7017100000     3.2585410000    -2.4734340000
| 25>  H        3.1733970000     4.6383630000    -0.5698910000
| 26> *
| 27>
| 28>                          ****END OF INPUT****
 Total Charge           Charge          ....    0
 Multiplicity           Mult            ....    1
 Number of Electrons    NEL             ....   46
 Basis Dimension        Dim             ....  124

MULLIKEN ATOMIC CHARGES
-----------------------
   0 C :   -0.034574
   1 C :    0.035893
   2 C :   -0.156165
   3 C :   -0.201970
   4 C :    0.266142
   5 O :   -0.283886
   6 H :    0.023505
   7 H :    0.034756
   8 H :    0.034305
   9 H :    0.036632
  10 H :    0.040496
  11 H :    0.023693
  12 H :    0.027294
  13 H :    0.153879
Sum of atomic charges:   -0.0000000

LOEWDIN ATOMIC CHARGES
----------------------
   0 C :   -0.055131
   1 C :   -0.051571
   2 C :   -0.049808
   3 C :   -0.097157
   4 C :    0.050293
   5 O :   -0.117344
   6 H :    0.028180
   7 H :    0.030409
   8 H :    0.030030
   9 H :    0.048719
  10 H :    0.049068
  11 H :    0.024585
  12 H :    0.040919
  13 H :    0.068808

  Mayer bond orders larger than 0.1
B(  0-C ,  1-C ) :   1.1036 B(  0-C ,  6-H ) :   0.9596 B(  0-C ,  7-H ) :   0.9711
B(  0-C ,  8-H ) :   0.9700 B(  1-C ,  2-C ) :   1.0829 B(  1-C ,  9-H ) :   0.9013
B(  1-C , 10-H ) :   0.9022 B(  2-C ,  3-C ) :   2.6631 B(  3-C ,  4-C ) :   1.0225
B(  4-C ,  5-O ) :   1.0664 B(  4-C , 11-H ) :   0.9207 B(  4-C , 12-H ) :   0.8985
B(  5-O , 13-H ) :   0.9843

FINAL SINGLE POINT ENERGY      -269.947387866281

DIPOLE MOMENT
-------------
                                X             Y             Z
Electronic contribution:      3.83820       4.57729      -1.08256
Nuclear contribution   :     -4.42264      -5.06633       1.21980
                        -----------------------------------------
Total Dipole Moment    :     -0.58443      -0.48904       0.13724
                        -----------------------------------------
Magnitude (a.u.)       :      0.77431
Magnitude (Debye)      :      1.96814

                             ****ORCA TERMINATED NORMALLY****
TOTAL RUN TIME: 0 days 0 hours 0 minutes 5 seconds 763 msec
