                         Program Version 3.0.3 - RELEASE   -
|  1> ! RI PBE def2-SVP def2-SVP/J NBO PAL2
|  2> % maxcore 2000
|  3> % output
|  4>     # printlevel mini
|  5>     print[ P_Basis ] 0
|  6>     print[ P_SCFInfo ] 1
|  7>     print[ P_SCFIterInfo ] 1
|  8>     print[ P_OrbEn ] 0
|  9>     print[ P_Cartesian ] 0
| 10> end
| 11> *xyz 0 1
| 12>  C        0.9057010000     0.1516080000     0.0670170000
| 13>  C        2.4234240000     0.0045770000     0.0019480000
| 14>  C        2.9463120000    -1.0135450000     0.8915740000
| 15>  C        3.3869360000    -1.8597380000     1.6301460000
| 16>  C        3.8537200000    -2.8794850000     2.5287900000
| 17>  O        5.0099470000    -3.1886510000     2.6689940000
| 18>  H        0.5723510000     0.9295800000    -0.6220440000
| 19>  H        0.5841930000     0.4234190000     1.0734550000
| 20>  H        0.4125570000    -0.7826740000    -0.2051570000
| 21>  H        2.9095080000     0.9554340000     0.2469160000
| 22>  H        2.7396460000    -0.2378080000    -1.0186990000
| 23>  H        3.0526050000    -3.3814170000     3.1053630000
| 24> *
| 25>
| 26>                          ****END OF INPUT****
 Total Charge           Charge          ....    0
 Multiplicity           Mult            ....    1
 Number of Electrons    NEL             ....   44
 Basis Dimension        Dim             ....  114

MULLIKEN ATOMIC CHARGES
-----------------------
   0 C :   -0.032979
   1 C :    0.025518
   2 C :   -0.068610
   3 C :   -0.066280
   4 C :    0.067607
   5 O :   -0.155917
   6 H :    0.032199
   7 H :    0.040024
   8 H :    0.041107
   9 H :    0.051922
  10 H :    0.053162
  11 H :    0.012245
Sum of atomic charges:   -0.0000000

LOEWDIN ATOMIC CHARGES
----------------------
   0 C :   -0.052043
   1 C :   -0.049947
   2 C :    0.014133
   3 C :   -0.096468
   4 C :    0.065722
   5 O :   -0.097750
   6 H :    0.032117
   7 H :    0.033217
   8 H :    0.033490
   9 H :    0.057908
  10 H :    0.057963
  11 H :    0.001657

  Mayer bond orders larger than 0.1
B(  0-C ,  1-C ) :   1.1022 B(  0-C ,  6-H ) :   0.9606 B(  0-C ,  7-H ) :   0.9706
B(  0-C ,  8-H ) :   0.9702 B(  1-C ,  2-C ) :   1.0749 B(  1-C ,  9-H ) :   0.8960
B(  1-C , 10-H ) :   0.8982 B(  2-C ,  3-C ) :   2.5741 B(  2-C ,  5-O ) :   0.1189
B(  3-C ,  4-C ) :   0.8996 B(  4-C ,  5-O ) :   2.1390 B(  4-C , 11-H ) :   0.9443

FINAL SINGLE POINT ENERGY      -268.752868588965

DIPOLE MOMENT
-------------
                                X             Y             Z
Electronic contribution:      6.54856      -5.44115       4.25567
Nuclear contribution   :     -7.67135       6.26161      -4.88125
                        -----------------------------------------
Total Dipole Moment    :     -1.12279       0.82047      -0.62558
                        -----------------------------------------
Magnitude (a.u.)       :      1.52485
Magnitude (Debye)      :      3.87586

                             ****ORCA TERMINATED NORMALLY****
TOTAL RUN TIME: 0 days 0 hours 0 minutes 5 seconds 43 msec
