                         Program Version 3.0.3 - RELEASE   -
|  1> ! RI PBE def2-SVP def2-SVP/J NBO PAL2
|  2> % maxcore 2000
|  3> % output
|  4>     # printlevel mini
|  5>     print[ P_Basis ] 0
|  6>     print[ P_SCFInfo ] 1
|  7>     print[ P_SCFIterInfo ] 1
|  8>     print[ P_OrbEn ] 0
|  9>     print[ P_Cartesian ] 0
| 10> end
| 11> *xyz 0 1
| 12>  C        1.1971720000    -0.1343860000    -0.1373190000
| 13>  C        2.7139950000    -0.0548150000    -0.1055750000
| 14>  C        3.2380560000     0.8043520000     1.0331680000
| 15>  C        4.7568800000     0.8543470000     1.1201810000
| 16>  C        5.2397870000     1.8122340000     2.1928980000
| 17>  O        5.3118400000    -0.4391610000     1.3073240000
| 18>  H        0.8459840000    -0.7516060000    -0.9674480000
| 19>  H        0.7487810000     0.8572240000    -0.2487310000
| 20>  H        0.8049710000    -0.5690760000     0.7867420000
| 21>  H        3.0810330000     0.3506580000    -1.0556330000
| 22>  H        3.1417000000    -1.0576480000    -0.0199230000
| 23>  H        2.8465320000     0.4309410000     1.9906510000
| 24>  H        2.8562840000     1.8274420000     0.9306600000
| 25>  H        5.1525010000     1.1766890000     0.1502610000
| 26>  H        4.8547630000     1.5166190000     3.1751220000
| 27>  H        4.8991360000     2.8318070000     1.9967050000
| 28>  H        6.3302230000     1.8136150000     2.2396090000
| 29>  H        5.0385610000    -0.7537250000     2.1744990000
| 30> *
| 31>
| 32>                          ****END OF INPUT****
 Total Charge           Charge          ....    0
 Multiplicity           Mult            ....    1
 Number of Electrons    NEL             ....   50
 Basis Dimension        Dim             ....  144

MULLIKEN ATOMIC CHARGES
-----------------------
   0 C :    0.002505
   1 C :   -0.021097
   2 C :   -0.023606
   3 C :    0.082808
   4 C :    0.014373
   5 O :   -0.285547
   6 H :    0.018991
   7 H :    0.011931
   8 H :    0.012850
   9 H :    0.003037
  10 H :    0.007975
  11 H :   -0.016196
  12 H :    0.000095
  13 H :   -0.007327
  14 H :    0.002405
  15 H :    0.015602
  16 H :    0.032770
  17 H :    0.148431
Sum of atomic charges:   -0.0000000

LOEWDIN ATOMIC CHARGES
----------------------
   0 C :   -0.065864
   1 C :   -0.047003
   2 C :   -0.057278
   3 C :    0.042888
   4 C :   -0.078600
   5 O :   -0.114133
   6 H :    0.026323
   7 H :    0.022147
   8 H :    0.022735
   9 H :    0.022850
  10 H :    0.021541
  11 H :    0.015764
  12 H :    0.024434
  13 H :    0.020540
  14 H :    0.020732
  15 H :    0.029486
  16 H :    0.029680
  17 H :    0.063759

  Mayer bond orders larger than 0.1
B(  0-C ,  1-C ) :   1.1155 B(  0-C ,  6-H ) :   0.9620 B(  0-C ,  7-H ) :   0.9637
B(  0-C ,  8-H ) :   0.9654 B(  1-C ,  2-C ) :   1.0913 B(  1-C ,  9-H ) :   0.9365
B(  1-C , 10-H ) :   0.9288 B(  2-C ,  3-C ) :   1.0483 B(  2-C , 11-H ) :   0.9206
B(  2-C , 12-H ) :   0.9235 B(  3-C ,  4-C ) :   1.0926 B(  3-C ,  5-O ) :   1.0132
B(  3-C , 13-H ) :   0.9039 B(  4-C , 14-H ) :   0.9502 B(  4-C , 15-H ) :   0.9484
B(  4-C , 16-H ) :   0.9573 B(  5-O , 17-H ) :   0.9850

FINAL SINGLE POINT ENERGY      -272.413291410719

DIPOLE MOMENT
-------------
                                X             Y             Z
Electronic contribution:      3.98047      -1.81002       0.31595
Nuclear contribution   :     -4.26892       2.06075       0.06717
                        -----------------------------------------
Total Dipole Moment    :     -0.28845       0.25073       0.38311
                        -----------------------------------------
Magnitude (a.u.)       :      0.54115
Magnitude (Debye)      :      1.37550

                             ****ORCA TERMINATED NORMALLY****
TOTAL RUN TIME: 0 days 0 hours 0 minutes 7 seconds 205 msec
