                         Program Version 3.0.3 - RELEASE   -
|  1> ! RI PBE def2-SVP def2-SVP/J NBO PAL2
|  2> % maxcore 2000
|  3> % output
|  4>     # printlevel mini
|  5>     print[ P_Basis ] 0
|  6>     print[ P_SCFInfo ] 1
|  7>     print[ P_SCFIterInfo ] 1
|  8>     print[ P_OrbEn ] 0
|  9>     print[ P_Cartesian ] 0
| 10> end
| 11> *xyz 0 1
| 12>  C        1.2077610000    -0.0660810000     0.4511240000
| 13>  C        2.6931640000    -0.2168790000     0.1715550000
| 14>  C        3.2723480000     0.9818360000    -0.5528420000
| 15>  C        4.7500610000     0.8777990000    -0.8534170000
| 16>  C        5.3686000000     2.0485950000    -1.5736620000
| 17>  O        5.4017660000    -0.0863950000    -0.5363530000
| 18>  H        0.8124890000    -0.9402830000     0.9729580000
| 19>  H        0.6371840000     0.0516520000    -0.4748040000
| 20>  H        1.0057690000     0.8098590000     1.0745740000
| 21>  H        2.8773490000    -1.1156660000    -0.4232840000
| 22>  H        3.2410930000    -0.3674090000     1.1057330000
| 23>  H        3.1137550000     1.9032640000     0.0234660000
| 24>  H        2.7505330000     1.1560420000    -1.5034580000
| 25>  H        4.8694590000     2.2094540000    -2.5334350000
| 26>  H        6.4293790000     1.8674760000    -1.7371430000
| 27>  H        5.2361010000     2.9646430000    -0.9910120000
| 28> *
| 29>
| 30>                          ****END OF INPUT****
 Total Charge           Charge          ....    0
 Multiplicity           Mult            ....    1
 Number of Electrons    NEL             ....   48
 Basis Dimension        Dim             ....  134

MULLIKEN ATOMIC CHARGES
-----------------------
   0 C :   -0.016776
   1 C :   -0.023200
   2 C :   -0.026325
   3 C :   -0.062292
   4 C :    0.025025
   5 O :   -0.164268
   6 H :    0.022756
   7 H :    0.016118
   8 H :    0.017271
   9 H :    0.021390
  10 H :    0.021162
  11 H :    0.025906
  12 H :    0.026276
  13 H :    0.038646
  14 H :    0.037938
  15 H :    0.040373
Sum of atomic charges:   -0.0000000

LOEWDIN ATOMIC CHARGES
----------------------
   0 C :   -0.067831
   1 C :   -0.043124
   2 C :   -0.075617
   3 C :    0.057207
   4 C :   -0.089688
   5 O :   -0.121439
   6 H :    0.028382
   7 H :    0.023739
   8 H :    0.023663
   9 H :    0.029035
  10 H :    0.029242
  11 H :    0.039527
  12 H :    0.039952
  13 H :    0.044489
  14 H :    0.038217
  15 H :    0.044247

  Mayer bond orders larger than 0.1
B(  0-C ,  1-C ) :   1.1155 B(  0-C ,  6-H ) :   0.9617 B(  0-C ,  7-H ) :   0.9635
B(  0-C ,  8-H ) :   0.9654 B(  1-C ,  2-C ) :   1.0934 B(  1-C ,  9-H ) :   0.9386
B(  1-C , 10-H ) :   0.9365 B(  2-C ,  3-C ) :   0.9445 B(  2-C , 11-H ) :   0.9160
B(  2-C , 12-H ) :   0.9117 B(  3-C ,  4-C ) :   1.0389 B(  3-C ,  5-O ) :   2.1873
B(  4-C , 13-H ) :   0.9413 B(  4-C , 14-H ) :   0.9461 B(  4-C , 15-H ) :   0.9448

FINAL SINGLE POINT ENERGY      -271.224424990362

DIPOLE MOMENT
-------------
                                X             Y             Z
Electronic contribution:      5.80308      -1.70144      -0.55036
Nuclear contribution   :     -6.35364       2.47142       0.30122
                        -----------------------------------------
Total Dipole Moment    :     -0.55056       0.76998      -0.24914
                        -----------------------------------------
Magnitude (a.u.)       :      0.97880
Magnitude (Debye)      :      2.48792

                             ****ORCA TERMINATED NORMALLY****
TOTAL RUN TIME: 0 days 0 hours 0 minutes 6 seconds 434 msec
