                         Program Version 3.0.3 - RELEASE   -
|  1> ! RI PBE def2-SVP def2-SVP/J NBO PAL2
|  2> % maxcore 2000
|  3> % output
|  4>     # printlevel mini
|  5>     print[ P_Basis ] 0
|  6>     print[ P_SCFInfo ] 1
|  7>     print[ P_SCFIterInfo ] 1
|  8>     print[ P_OrbEn ] 0
|  9>     print[ P_Cartesian ] 0
| 10> end
| 11> *xyz 0 1
| 12>  C        0.9772480000    -0.0008740000     0.1258230000
| 13>  C        2.4957750000     0.0419950000     0.1117660000
| 14>  C        3.0447450000     1.3811810000    -0.3544740000
| 15>  C        4.5592570000     1.4252890000    -0.3689990000
| 16>  C        5.1508670000     2.7251840000    -0.8214660000
| 17>  O        4.5205650000     3.6897830000    -1.1578460000
| 18>  H        0.6059340000    -0.9709260000     0.4636040000
| 19>  H        0.5688400000     0.1826960000    -0.8717150000
| 20>  H        0.5678800000     0.7626890000     0.7928820000
| 21>  H        2.8793360000    -0.7538920000    -0.5374970000
| 22>  H        2.8783770000    -0.1780320000     1.1154100000
| 23>  H        2.6686620000     2.1831010000     0.2885990000
| 24>  H        2.6695700000     1.6098160000    -1.3569860000
| 25>  H        4.9802410000     0.6419410000    -1.0153030000
| 26>  H        4.9793250000     1.2131650000     0.6245380000
| 27>  H        6.2639900000     2.7515650000    -0.8301270000
| 28> *
| 29>
| 30>                          ****END OF INPUT****
 Total Charge           Charge          ....    0
 Multiplicity           Mult            ....    1
 Number of Electrons    NEL             ....   48
 Basis Dimension        Dim             ....  134

MULLIKEN ATOMIC CHARGES
-----------------------
   0 C :    0.002580
   1 C :   -0.050098
   2 C :   -0.028914
   3 C :   -0.001226
   4 C :    0.073176
   5 O :   -0.157489
   6 H :    0.017008
   7 H :    0.017577
   8 H :    0.019237
   9 H :    0.009224
  10 H :    0.005732
  11 H :    0.021014
  12 H :    0.017752
  13 H :    0.031691
  14 H :    0.029276
  15 H :   -0.006538
Sum of atomic charges:   -0.0000000

LOEWDIN ATOMIC CHARGES
----------------------
   0 C :   -0.064603
   1 C :   -0.047051
   2 C :   -0.039465
   3 C :   -0.085188
   4 C :    0.088368
   5 O :   -0.108113
   6 H :    0.026368
   7 H :    0.025183
   8 H :    0.025619
   9 H :    0.022210
  10 H :    0.021512
  11 H :    0.028912
  12 H :    0.028243
  13 H :    0.045349
  14 H :    0.044870
  15 H :   -0.012215

  Mayer bond orders larger than 0.1
B(  0-C ,  1-C ) :   1.1207 B(  0-C ,  6-H ) :   0.9606 B(  0-C ,  7-H ) :   0.9655
B(  0-C ,  8-H ) :   0.9656 B(  1-C ,  2-C ) :   1.0959 B(  1-C ,  9-H ) :   0.9366
B(  1-C , 10-H ) :   0.9358 B(  2-C ,  3-C ) :   1.0767 B(  2-C , 11-H ) :   0.9378
B(  2-C , 12-H ) :   0.9377 B(  3-C ,  4-C ) :   0.9671 B(  3-C , 13-H ) :   0.9023
B(  3-C , 14-H ) :   0.9018 B(  4-C ,  5-O ) :   2.1924 B(  4-C , 15-H ) :   0.9292

FINAL SINGLE POINT ENERGY      -271.213429760607

DIPOLE MOMENT
-------------
                                X             Y             Z
Electronic contribution:      5.25199       6.67086      -2.32114
Nuclear contribution   :     -5.01711      -7.52385       2.61807
                        -----------------------------------------
Total Dipole Moment    :      0.23488      -0.85300       0.29693
                        -----------------------------------------
Magnitude (a.u.)       :      0.93324
Magnitude (Debye)      :      2.37211

                             ****ORCA TERMINATED NORMALLY****
TOTAL RUN TIME: 0 days 0 hours 0 minutes 5 seconds 771 msec
