                         Program Version 3.0.3 - RELEASE   -
|  1> ! RI PBE def2-SVP def2-SVP/J NBO PAL2
|  2> % maxcore 2000
|  3> % output
|  4>     # printlevel mini
|  5>     print[ P_Basis ] 0
|  6>     print[ P_SCFInfo ] 1
|  7>     print[ P_SCFIterInfo ] 1
|  8>     print[ P_OrbEn ] 0
|  9>     print[ P_Cartesian ] 0
| 10> end
| 11> *xyz 0 1
| 12>  C        0.8750770000     0.7315900000     0.1354420000
| 13>  C        2.3401060000     0.3304210000     0.1754160000
| 14>  C        2.6688130000    -0.7977310000    -0.7897730000
| 15>  C        4.1256580000    -1.1939220000    -0.7473360000
| 16>  O        4.3522480000    -2.2362570000    -1.6612600000
| 17>  C        5.6867270000    -2.6562920000    -1.6760590000
| 18>  H        0.6620800000     1.5423970000     0.8356900000
| 19>  H        0.2289710000    -0.1112840000     0.3956270000
| 20>  H        0.5868400000     1.0701540000    -0.8634980000
| 21>  H        2.6085930000     0.0283160000     1.1942730000
| 22>  H        2.9639520000     1.2014680000    -0.0559170000
| 23>  H        2.4148860000    -0.5014830000    -1.8130580000
| 24>  H        2.0585240000    -1.6775100000    -0.5597950000
| 25>  H        4.4046210000    -1.5164600000     0.2694740000
| 26>  H        4.7641970000    -0.3297820000    -0.9948770000
| 27>  H        5.7731090000    -3.4598810000    -2.4078940000
| 28>  H        6.0029450000    -3.0347400000    -0.6933830000
| 29>  H        6.3649640000    -1.8398050000    -1.9627810000
| 30> *
| 31>
| 32>                          ****END OF INPUT****
 Total Charge           Charge          ....    0
 Multiplicity           Mult            ....    1
 Number of Electrons    NEL             ....   50
 Basis Dimension        Dim             ....  144

MULLIKEN ATOMIC CHARGES
-----------------------
   0 C :   -0.003902
   1 C :   -0.073123
   2 C :   -0.023411
   3 C :    0.182755
   4 O :   -0.344610
   5 C :    0.150372
   6 H :    0.020552
   7 H :    0.018791
   8 H :    0.017315
   9 H :    0.010933
  10 H :    0.012034
  11 H :    0.014813
  12 H :    0.014761
  13 H :   -0.014552
  14 H :   -0.015543
  15 H :    0.031861
  16 H :   -0.000738
  17 H :    0.001693
Sum of atomic charges:   -0.0000000

LOEWDIN ATOMIC CHARGES
----------------------
   0 C :   -0.065876
   1 C :   -0.045417
   2 C :   -0.050600
   3 C :    0.059388
   4 O :   -0.150060
   5 C :    0.048544
   6 H :    0.026386
   7 H :    0.025368
   8 H :    0.024916
   9 H :    0.021842
  10 H :    0.022480
  11 H :    0.025941
  12 H :    0.026296
  13 H :    0.000893
  14 H :    0.000895
  15 H :    0.022498
  16 H :    0.003019
  17 H :    0.003486

  Mayer bond orders larger than 0.1
B(  0-C ,  1-C ) :   1.1223 B(  0-C ,  6-H ) :   0.9623 B(  0-C ,  7-H ) :   0.9636
B(  0-C ,  8-H ) :   0.9648 B(  1-C ,  2-C ) :   1.0768 B(  1-C ,  9-H ) :   0.9406
B(  1-C , 10-H ) :   0.9384 B(  2-C ,  3-C ) :   1.0819 B(  2-C , 11-H ) :   0.9356
B(  2-C , 12-H ) :   0.9325 B(  3-C ,  4-O ) :   1.0339 B(  3-C , 13-H ) :   0.9248
B(  3-C , 14-H ) :   0.9225 B(  4-O ,  5-C ) :   1.0240 B(  5-C , 15-H ) :   0.9764
B(  5-C , 16-H ) :   0.9543 B(  5-C , 17-H ) :   0.9547

FINAL SINGLE POINT ENERGY      -272.396702123115

DIPOLE MOMENT
-------------
                                X             Y             Z
Electronic contribution:      1.78793      -2.88908      -2.20425
Nuclear contribution   :     -1.52314       3.06746       2.44572
                        -----------------------------------------
Total Dipole Moment    :      0.26480       0.17838       0.24147
                        -----------------------------------------
Magnitude (a.u.)       :      0.40030
Magnitude (Debye)      :      1.01749

                             ****ORCA TERMINATED NORMALLY****
TOTAL RUN TIME: 0 days 0 hours 0 minutes 6 seconds 963 msec
