                         Program Version 3.0.3 - RELEASE   -
|  1> ! RI PBE def2-SVP def2-SVP/J NBO PAL2
|  2> % maxcore 2000
|  3> % output
|  4>     # printlevel mini
|  5>     print[ P_Basis ] 0
|  6>     print[ P_SCFInfo ] 1
|  7>     print[ P_SCFIterInfo ] 1
|  8>     print[ P_OrbEn ] 0
|  9>     print[ P_Cartesian ] 0
| 10> end
| 11> *xyz 0 1
| 12>  C        2.5405320000     0.8361490000    -1.5647570000
| 13>  C        3.4473890000    -0.0673560000    -0.7364090000
| 14>  C        3.2559490000     0.1037340000     0.7364580000
| 15>  C        4.2333160000     0.5062080000     1.5457240000
| 16>  O        4.1879950000     0.7056130000     2.8789130000
| 17>  C        2.9550840000     0.4650650000     3.5100330000
| 18>  H        2.6821450000     0.6660980000    -2.6350530000
| 19>  H        2.7440280000     1.8891490000    -1.3562680000
| 20>  H        1.4873600000     0.6518160000    -1.3353560000
| 21>  H        4.4944280000     0.1256150000    -0.9920270000
| 22>  H        3.2543370000    -1.1112050000    -1.0134020000
| 23>  H        2.2655730000    -0.1043740000     1.1302550000
| 24>  H        5.2285160000     0.7219850000     1.1683440000
| 25>  H        3.1008440000     0.6738640000     4.5687040000
| 26>  H        2.6419890000    -0.5775500000     3.3826500000
| 27>  H        2.1722350000     1.1209780000     3.1123830000
| 28> *
| 29>
| 30>                          ****END OF INPUT****
 Total Charge           Charge          ....    0
 Multiplicity           Mult            ....    1
 Number of Electrons    NEL             ....   48
 Basis Dimension        Dim             ....  134

MULLIKEN ATOMIC CHARGES
-----------------------
   0 C :   -0.045457
   1 C :    0.036183
   2 C :   -0.152428
   3 C :    0.129498
   4 O :   -0.268019
   5 C :    0.127462
   6 H :    0.022929
   7 H :    0.025880
   8 H :    0.020817
   9 H :    0.002590
  10 H :    0.015620
  11 H :   -0.008510
  12 H :   -0.000076
  13 H :    0.040023
  14 H :    0.025440
  15 H :    0.028048
Sum of atomic charges:   -0.0000000

LOEWDIN ATOMIC CHARGES
----------------------
   0 C :   -0.068774
   1 C :   -0.038100
   2 C :   -0.122471
   3 C :    0.018289
   4 O :   -0.071778
   5 C :    0.058170
   6 H :    0.025462
   7 H :    0.025575
   8 H :    0.023663
   9 H :    0.026078
  10 H :    0.028092
  11 H :    0.019686
  12 H :    0.019760
  13 H :    0.026849
  14 H :    0.014394
  15 H :    0.015105

  Mayer bond orders larger than 0.1
B(  0-C ,  1-C ) :   1.0937 B(  0-C ,  6-H ) :   0.9611 B(  0-C ,  7-H ) :   0.9682
B(  0-C ,  8-H ) :   0.9705 B(  1-C ,  2-C ) :   1.0645 B(  1-C ,  9-H ) :   0.9354
B(  1-C , 10-H ) :   0.9233 B(  2-C ,  3-C ) :   1.7784 B(  2-C , 11-H ) :   0.9529
B(  3-C ,  4-O ) :   1.1519 B(  3-C , 12-H ) :   0.9669 B(  4-O ,  5-C ) :   0.9948
B(  5-C , 13-H ) :   0.9726 B(  5-C , 14-H ) :   0.9571 B(  5-C , 15-H ) :   0.9578

FINAL SINGLE POINT ENERGY      -271.185334544126

DIPOLE MOMENT
-------------
                                X             Y             Z
Electronic contribution:      3.52112       0.18464       4.66541
Nuclear contribution   :     -3.87345      -0.27753      -4.56222
                        -----------------------------------------
Total Dipole Moment    :     -0.35233      -0.09288       0.10318
                        -----------------------------------------
Magnitude (a.u.)       :      0.37870
Magnitude (Debye)      :      0.96258

                             ****ORCA TERMINATED NORMALLY****
TOTAL RUN TIME: 0 days 0 hours 0 minutes 6 seconds 366 msec
