                         Program Version 3.0.3 - RELEASE   -
|  1> ! RI PBE def2-SVP def2-SVP/J NBO PAL2
|  2> % maxcore 2000
|  3> % output
|  4>     # printlevel mini
|  5>     print[ P_Basis ] 0
|  6>     print[ P_SCFInfo ] 1
|  7>     print[ P_SCFIterInfo ] 1
|  8>     print[ P_OrbEn ] 0
|  9>     print[ P_Cartesian ] 0
| 10> end
| 11> *xyz 0 1
| 12>  C        3.1579660000     0.2494560000     1.0948970000
| 13>  C        2.3387110000     0.2005650000    -0.1823340000
| 14>  C        2.9192100000    -0.7196880000    -1.2413160000
| 15>  C        2.0076930000    -0.8370900000    -2.4509560000
| 16>  O        4.1898000000    -0.2016250000    -1.5911200000
| 17>  C        5.0355000000    -1.1148170000    -2.2306580000
| 18>  H        2.7137800000     0.9321490000     1.8227260000
| 19>  H        4.1747870000     0.5871180000     0.8892030000
| 20>  H        3.2198780000    -0.7381530000     1.5614750000
| 21>  H        2.2563940000     1.2033940000    -0.6161530000
| 22>  H        1.3182920000    -0.1311400000     0.0353980000
| 23>  H        3.0611250000    -1.7211150000    -0.7993030000
| 24>  H        1.8452960000     0.1476820000    -2.8962250000
| 25>  H        1.0385700000    -1.2494950000    -2.1604330000
| 26>  H        2.4290600000    -1.4935650000    -3.2147360000
| 27>  H        6.0037890000    -0.6282560000    -2.3549580000
| 28>  H        4.6682490000    -1.4093470000    -3.2221990000
| 29>  H        5.1728110000    -2.0246640000    -1.6290180000
| 30> *
| 31>
| 32>                          ****END OF INPUT****
 Total Charge           Charge          ....    0
 Multiplicity           Mult            ....    1
 Number of Electrons    NEL             ....   50
 Basis Dimension        Dim             ....  144

MULLIKEN ATOMIC CHARGES
-----------------------
   0 C :   -0.008743
   1 C :   -0.008484
   2 C :    0.032601
   3 C :    0.034368
   4 O :   -0.342361
   5 C :    0.159948
   6 H :    0.019491
   7 H :    0.027988
   8 H :    0.009873
   9 H :    0.013820
  10 H :    0.002962
  11 H :   -0.017368
  12 H :    0.018524
  13 H :    0.012924
  14 H :    0.016392
  15 H :    0.028771
  16 H :   -0.000323
  17 H :   -0.000384
Sum of atomic charges:   -0.0000000

LOEWDIN ATOMIC CHARGES
----------------------
   0 C :   -0.068987
   1 C :   -0.050017
   2 C :    0.045321
   3 C :   -0.073323
   4 O :   -0.144684
   5 C :    0.050119
   6 H :    0.026154
   7 H :    0.027126
   8 H :    0.022663
   9 H :    0.027228
  10 H :    0.025950
  11 H :    0.002784
  12 H :    0.028361
  13 H :    0.029383
  14 H :    0.024178
  15 H :    0.022553
  16 H :    0.001156
  17 H :    0.004037

  Mayer bond orders larger than 0.1
B(  0-C ,  1-C ) :   1.1225 B(  0-C ,  6-H ) :   0.9613 B(  0-C ,  7-H ) :   0.9600
B(  0-C ,  8-H ) :   0.9625 B(  1-C ,  2-C ) :   1.0545 B(  1-C ,  9-H ) :   0.9281
B(  1-C , 10-H ) :   0.9290 B(  2-C ,  3-C ) :   1.0941 B(  2-C ,  4-O ) :   0.9978
B(  2-C , 11-H ) :   0.9064 B(  3-C , 12-H ) :   0.9517 B(  3-C , 13-H ) :   0.9482
B(  3-C , 14-H ) :   0.9490 B(  4-O ,  5-C ) :   1.0239 B(  5-C , 15-H ) :   0.9752
B(  5-C , 16-H ) :   0.9529 B(  5-C , 17-H ) :   0.9535

FINAL SINGLE POINT ENERGY      -272.400663637690

DIPOLE MOMENT
-------------
                                X             Y             Z
Electronic contribution:      1.47070       1.07755      -0.86500
Nuclear contribution   :     -1.58263      -1.45891       0.74382
                        -----------------------------------------
Total Dipole Moment    :     -0.11193      -0.38136      -0.12118
                        -----------------------------------------
Magnitude (a.u.)       :      0.41551
Magnitude (Debye)      :      1.05614

                             ****ORCA TERMINATED NORMALLY****
TOTAL RUN TIME: 0 days 0 hours 0 minutes 7 seconds 233 msec
