                         Program Version 3.0.3 - RELEASE   -
|  1> ! RI PBE def2-SVP def2-SVP/J NBO PAL2
|  2> % maxcore 2000
|  3> % output
|  4>     # printlevel mini
|  5>     print[ P_Basis ] 0
|  6>     print[ P_SCFInfo ] 1
|  7>     print[ P_SCFIterInfo ] 1
|  8>     print[ P_OrbEn ] 0
|  9>     print[ P_Cartesian ] 0
| 10> end
| 11> *xyz 0 1
| 12>  C        0.9100000000     0.1025010000    -0.0900780000
| 13>  C        2.3904350000     0.1704140000    -0.1696660000
| 14>  C        3.1751240000     0.7356120000     0.7453540000
| 15>  C        4.6388140000     0.7962740000     0.6550810000
| 16>  O        5.1460260000     0.2218660000    -0.4549750000
| 17>  O        5.3435820000     1.3102420000     1.4867250000
| 18>  H        0.5718880000    -0.9385170000    -0.1124590000
| 19>  H        0.4562630000     0.5914380000    -0.9581820000
| 20>  H        0.5271580000     0.5742720000     0.8157080000
| 21>  H        2.8588240000    -0.2768420000    -1.0426460000
| 22>  H        2.7695790000     1.1986490000     1.6382690000
| 23>  H        6.1047050000     0.3291820000    -0.3931410000
| 24> *
| 25>
| 26>                          ****END OF INPUT****
 Total Charge           Charge          ....    0
 Multiplicity           Mult            ....    1
 Number of Electrons    NEL             ....   46
 Basis Dimension        Dim             ....  114

MULLIKEN ATOMIC CHARGES
-----------------------
   0 C :    0.040806
   1 C :   -0.059464
   2 C :   -0.058758
   3 C :    0.096702
   4 O :   -0.144801
   5 O :   -0.184808
   6 H :    0.044007
   7 H :    0.045155
   8 H :    0.029464
   9 H :    0.022797
  10 H :    0.005944
  11 H :    0.162956
Sum of atomic charges:   -0.0000000

LOEWDIN ATOMIC CHARGES
----------------------
   0 C :   -0.060779
   1 C :    0.015721
   2 C :   -0.081702
   3 C :    0.031353
   4 O :   -0.023393
   5 O :   -0.158551
   6 H :    0.045131
   7 H :    0.045571
   8 H :    0.034940
   9 H :    0.031865
  10 H :    0.036320
  11 H :    0.083523

  Mayer bond orders larger than 0.1
B(  0-C ,  1-C ) :   1.0877 B(  0-C ,  6-H ) :   0.9416 B(  0-C ,  7-H ) :   0.9410
B(  0-C ,  8-H ) :   0.9619 B(  1-C ,  2-C ) :   1.8041 B(  1-C ,  9-H ) :   0.9463
B(  2-C ,  3-C ) :   1.0239 B(  2-C , 10-H ) :   0.9624 B(  3-C ,  4-O ) :   1.2477
B(  3-C ,  5-O ) :   2.0778 B(  4-O , 11-H ) :   0.9484

FINAL SINGLE POINT ENERGY      -305.900123989572

DIPOLE MOMENT
-------------
                                X             Y             Z
Electronic contribution:      7.43612       1.31643       1.36522
Nuclear contribution   :     -8.06384      -1.72450      -2.01601
                        -----------------------------------------
Total Dipole Moment    :     -0.62772      -0.40807      -0.65079
                        -----------------------------------------
Magnitude (a.u.)       :      0.99201
Magnitude (Debye)      :      2.52149

                             ****ORCA TERMINATED NORMALLY****
TOTAL RUN TIME: 0 days 0 hours 0 minutes 5 seconds 177 msec
