                         Program Version 3.0.3 - RELEASE   -
|  1> ! RI PBE def2-SVP def2-SVP/J NBO PAL2
|  2> % maxcore 2000
|  3> % output
|  4>     # printlevel mini
|  5>     print[ P_Basis ] 0
|  6>     print[ P_SCFInfo ] 1
|  7>     print[ P_SCFIterInfo ] 1
|  8>     print[ P_OrbEn ] 0
|  9>     print[ P_Cartesian ] 0
| 10> end
| 11> *xyz 0 1
| 12>  C        0.9991120000    -0.0464520000    -0.0104470000
| 13>  C        2.5013490000    -0.0864130000    -0.0001940000
| 14>  C        3.2442560000     0.1015950000    -1.0879170000
| 15>  C        3.2455530000    -0.3459980000     1.2655350000
| 16>  O        2.4336310000    -0.5272210000     2.3244600000
| 17>  O        4.4434310000    -0.3962090000     1.3719440000
| 18>  H        0.6419150000     0.9250320000    -0.3595580000
| 19>  H        0.5821920000    -0.2222240000     0.9780480000
| 20>  H        0.5980680000    -0.8056950000    -0.6857130000
| 21>  H        2.7899810000     0.2966490000    -2.0529770000
| 22>  H        4.3246220000     0.0622990000    -1.0253610000
| 23>  H        3.0156900000    -0.6856830000     3.0803700000
| 24> *
| 25>
| 26>                          ****END OF INPUT****
 Total Charge           Charge          ....    0
 Multiplicity           Mult            ....    1
 Number of Electrons    NEL             ....   46
 Basis Dimension        Dim             ....  114

MULLIKEN ATOMIC CHARGES
-----------------------
   0 C :    0.076335
   1 C :   -0.222140
   2 C :    0.009584
   3 C :    0.110249
   4 O :   -0.135345
   5 O :   -0.176033
   6 H :    0.036632
   7 H :    0.029555
   8 H :    0.040311
   9 H :    0.019612
  10 H :    0.045498
  11 H :    0.165742
Sum of atomic charges:   -0.0000000

LOEWDIN ATOMIC CHARGES
----------------------
   0 C :   -0.060772
   1 C :   -0.077068
   2 C :    0.004118
   3 C :    0.040797
   4 O :   -0.011620
   5 O :   -0.157373
   6 H :    0.041238
   7 H :    0.032562
   8 H :    0.041874
   9 H :    0.026627
  10 H :    0.033548
  11 H :    0.086068

  Mayer bond orders larger than 0.1
B(  0-C ,  1-C ) :   1.0670 B(  0-C ,  6-H ) :   0.9479 B(  0-C ,  7-H ) :   0.9453
B(  0-C ,  8-H ) :   0.9487 B(  1-C ,  2-C ) :   1.9682 B(  1-C ,  3-C ) :   0.9388
B(  2-C ,  9-H ) :   0.9389 B(  2-C , 10-H ) :   0.9260 B(  3-C ,  4-O ) :   1.2458
B(  3-C ,  5-O ) :   2.1108 B(  4-O , 11-H ) :   0.9466

FINAL SINGLE POINT ENERGY      -305.895112895392

DIPOLE MOMENT
-------------
                                X             Y             Z
Electronic contribution:      3.94453      -0.85971       3.99512
Nuclear contribution   :     -4.59569       0.88067      -4.02115
                        -----------------------------------------
Total Dipole Moment    :     -0.65116       0.02096      -0.02603
                        -----------------------------------------
Magnitude (a.u.)       :      0.65202
Magnitude (Debye)      :      1.65730

                             ****ORCA TERMINATED NORMALLY****
TOTAL RUN TIME: 0 days 0 hours 0 minutes 5 seconds 310 msec
