                         Program Version 3.0.3 - RELEASE   -
|  1> ! RI PBE def2-SVP def2-SVP/J NBO PAL2
|  2> % maxcore 2000
|  3> % output
|  4>     # printlevel mini
|  5>     print[ P_Basis ] 0
|  6>     print[ P_SCFInfo ] 1
|  7>     print[ P_SCFIterInfo ] 1
|  8>     print[ P_OrbEn ] 0
|  9>     print[ P_Cartesian ] 0
| 10> end
| 11> *xyz 0 1
| 12>  C        0.9533280000     0.0298860000    -0.1342850000
| 13>  C        2.4783530000     0.0121720000    -0.0074070000
| 14>  C        2.9432450000     0.5361940000     1.3388000000
| 15>  C        2.9765180000    -1.3924060000    -0.2419650000
| 16>  O        2.9119460000    -1.7356570000    -1.5427990000
| 17>  O        3.3698210000    -2.1526090000     0.6006510000
| 18>  H        0.5821010000     1.0484360000    -0.0038660000
| 19>  H        0.4962750000    -0.5958050000     0.6366520000
| 20>  H        0.6281800000    -0.3312560000    -1.1109230000
| 21>  H        2.8914510000     0.6283870000    -0.8131030000
| 22>  H        2.5604640000    -0.0878430000     2.1481900000
| 23>  H        2.5838930000     1.5566180000     1.4878920000
| 24>  H        4.0319560000     0.5401870000     1.4126790000
| 25>  H        3.2148590000    -2.6527050000    -1.5998260000
| 26> *
| 27>
| 28>                          ****END OF INPUT****
 Total Charge           Charge          ....    0
 Multiplicity           Mult            ....    1
 Number of Electrons    NEL             ....   48
 Basis Dimension        Dim             ....  124

MULLIKEN ATOMIC CHARGES
-----------------------
   0 C :    0.013516
   1 C :   -0.150553
   2 C :    0.034362
   3 C :    0.075386
   4 O :   -0.141741
   5 O :   -0.179353
   6 H :    0.026711
   7 H :    0.026750
   8 H :    0.029466
   9 H :    0.031898
  10 H :    0.029148
  11 H :    0.012180
  12 H :    0.028577
  13 H :    0.163653
Sum of atomic charges:   -0.0000000

LOEWDIN ATOMIC CHARGES
----------------------
   0 C :   -0.045416
   1 C :   -0.075616
   2 C :   -0.053166
   3 C :    0.047422
   4 O :   -0.018772
   5 O :   -0.153278
   6 H :    0.029324
   7 H :    0.029361
   8 H :    0.028666
   9 H :    0.039099
  10 H :    0.030908
  11 H :    0.026498
  12 H :    0.031104
  13 H :    0.083866

  Mayer bond orders larger than 0.1
B(  0-C ,  1-C ) :   1.0696 B(  0-C ,  6-H ) :   0.9658 B(  0-C ,  7-H ) :   0.9636
B(  0-C ,  8-H ) :   0.9596 B(  1-C ,  2-C ) :   1.0934 B(  1-C ,  3-C ) :   0.9312
B(  1-C ,  9-H ) :   0.8984 B(  2-C , 10-H ) :   0.9556 B(  2-C , 11-H ) :   0.9558
B(  2-C , 12-H ) :   0.9614 B(  3-C ,  4-O ) :   1.2477 B(  3-C ,  5-O ) :   2.1242
B(  4-O , 13-H ) :   0.9489

FINAL SINGLE POINT ENERGY      -307.116461236638

DIPOLE MOMENT
-------------
                                X             Y             Z
Electronic contribution:      3.40915      -5.91894      -2.59916
Nuclear contribution   :     -3.63377       6.18930       2.13234
                        -----------------------------------------
Total Dipole Moment    :     -0.22462       0.27036      -0.46682
                        -----------------------------------------
Magnitude (a.u.)       :      0.58435
Magnitude (Debye)      :      1.48530

                             ****ORCA TERMINATED NORMALLY****
TOTAL RUN TIME: 0 days 0 hours 0 minutes 6 seconds 337 msec
