                         Program Version 3.0.3 - RELEASE   -
|  1> ! RI PBE def2-SVP def2-SVP/J NBO PAL2
|  2> % maxcore 2000
|  3> % output
|  4>     # printlevel mini
|  5>     print[ P_Basis ] 0
|  6>     print[ P_SCFInfo ] 1
|  7>     print[ P_SCFIterInfo ] 1
|  8>     print[ P_OrbEn ] 0
|  9>     print[ P_Cartesian ] 0
| 10> end
| 11> *xyz 0 1
| 12>  C        0.9733730000    -0.0422220000     0.0838310000
| 13>  C        2.4188940000    -0.0436440000     0.0992250000
| 14>  C        3.6211700000    -0.0464900000     0.1117060000
| 15>  C        5.0584120000    -0.0435980000     0.0581740000
| 16>  O        5.6068800000    -0.1455030000     1.2794290000
| 17>  O        5.7044370000     0.0394420000    -0.9519070000
| 18>  H        0.5922560000     0.3042530000    -0.8792410000
| 19>  H        0.5791370000     0.6078860000     0.8683760000
| 20>  H        0.5915910000    -1.0510890000     0.2596840000
| 21>  H        6.5657500000    -0.1352540000     1.1461220000
| 22> *
| 23>
| 24>                          ****END OF INPUT****
 Total Charge           Charge          ....    0
 Multiplicity           Mult            ....    1
 Number of Electrons    NEL             ....   44
 Basis Dimension        Dim             ....  104

MULLIKEN ATOMIC CHARGES
-----------------------
   0 C :    0.052420
   1 C :   -0.174472
   2 C :    0.002992
   3 C :    0.064397
   4 O :   -0.129740
   5 O :   -0.167889
   6 H :    0.061087
   7 H :    0.062206
   8 H :    0.061211
   9 H :    0.167788
Sum of atomic charges:   -0.0000000

LOEWDIN ATOMIC CHARGES
----------------------
   0 C :   -0.063646
   1 C :    0.004198
   2 C :   -0.087278
   3 C :    0.021805
   4 O :   -0.002850
   5 O :   -0.136557
   6 H :    0.057301
   7 H :    0.059072
   8 H :    0.061060
   9 H :    0.086895

  Mayer bond orders larger than 0.1
B(  0-C ,  1-C ) :   1.1300 B(  0-C ,  6-H ) :   0.9306 B(  0-C ,  7-H ) :   0.9292
B(  0-C ,  8-H ) :   0.9260 B(  1-C ,  2-C ) :   2.6172 B(  2-C ,  3-C ) :   0.8746
B(  3-C ,  4-O ) :   1.2764 B(  3-C ,  5-O ) :   2.0957 B(  4-O ,  9-H ) :   0.9511

FINAL SINGLE POINT ENERGY      -304.653566786117

DIPOLE MOMENT
-------------
                                X             Y             Z
Electronic contribution:      6.32661       0.02450      -0.28853
Nuclear contribution   :     -7.06094      -0.07497       0.82384
                        -----------------------------------------
Total Dipole Moment    :     -0.73433      -0.05047       0.53531
                        -----------------------------------------
Magnitude (a.u.)       :      0.91014
Magnitude (Debye)      :      2.31338

                             ****ORCA TERMINATED NORMALLY****
TOTAL RUN TIME: 0 days 0 hours 0 minutes 4 seconds 581 msec
