                         Program Version 3.0.3 - RELEASE   -
|  1> ! RI PBE def2-SVP def2-SVP/J NBO PAL2
|  2> % maxcore 2000
|  3> % output
|  4>     # printlevel mini
|  5>     print[ P_Basis ] 0
|  6>     print[ P_SCFInfo ] 1
|  7>     print[ P_SCFIterInfo ] 1
|  8>     print[ P_OrbEn ] 0
|  9>     print[ P_Cartesian ] 0
| 10> end
| 11> *xyz 0 1
| 12>  C        0.8240410000     0.2843070000    -0.4789850000
| 13>  C        2.2851190000    -0.0365810000    -0.2166480000
| 14>  C        2.4600580000    -1.0177170000     0.9259350000
| 15>  C        3.8933780000    -1.3575370000     1.2129490000
| 16>  O        4.0008560000    -2.2304810000     2.2327410000
| 17>  O        4.8524190000    -0.9284070000     0.6317180000
| 18>  H        0.7179470000     0.9914840000    -1.3041160000
| 19>  H        0.3489590000     0.7283460000     0.4004840000
| 20>  H        0.2585520000    -0.6150410000    -0.7392400000
| 21>  H        2.8387670000     0.8786950000     0.0094760000
| 22>  H        2.7494350000    -0.4486540000    -1.1166470000
| 23>  H        1.9327620000    -1.9580910000     0.7291490000
| 24>  H        2.0219000000    -0.6325530000     1.8537000000
| 25>  H        4.9462970000    -2.3962490000     2.3533730000
| 26> *
| 27>
| 28>                          ****END OF INPUT****
 Total Charge           Charge          ....    0
 Multiplicity           Mult            ....    1
 Number of Electrons    NEL             ....   48
 Basis Dimension        Dim             ....  124

MULLIKEN ATOMIC CHARGES
-----------------------
   0 C :   -0.019036
   1 C :   -0.038907
   2 C :   -0.033872
   3 C :    0.059636
   4 O :   -0.141996
   5 O :   -0.182758
   6 H :    0.026504
   7 H :    0.018527
   8 H :    0.017860
   9 H :    0.025161
  10 H :    0.024461
  11 H :    0.041093
  12 H :    0.039626
  13 H :    0.163703
Sum of atomic charges:   -0.0000000

LOEWDIN ATOMIC CHARGES
----------------------
   0 C :   -0.067588
   1 C :   -0.041070
   2 C :   -0.071637
   3 C :    0.042287
   4 O :   -0.021549
   5 O :   -0.153752
   6 H :    0.029595
   7 H :    0.024739
   8 H :    0.024894
   9 H :    0.029899
  10 H :    0.029602
  11 H :    0.045741
  12 H :    0.045339
  13 H :    0.083501

  Mayer bond orders larger than 0.1
B(  0-C ,  1-C ) :   1.1203 B(  0-C ,  6-H ) :   0.9624 B(  0-C ,  7-H ) :   0.9637
B(  0-C ,  8-H ) :   0.9624 B(  1-C ,  2-C ) :   1.0906 B(  1-C ,  9-H ) :   0.9391
B(  1-C , 10-H ) :   0.9401 B(  2-C ,  3-C ) :   0.9665 B(  2-C , 11-H ) :   0.9143
B(  2-C , 12-H ) :   0.9162 B(  3-C ,  4-O ) :   1.2512 B(  3-C ,  5-O ) :   2.1123
B(  4-O , 13-H ) :   0.9488

FINAL SINGLE POINT ENERGY      -307.116530684204

DIPOLE MOMENT
-------------
                                X             Y             Z
Electronic contribution:      7.84188      -3.75193       3.79852
Nuclear contribution   :     -8.22911       3.51982      -3.49693
                        -----------------------------------------
Total Dipole Moment    :     -0.38723      -0.23211       0.30160
                        -----------------------------------------
Magnitude (a.u.)       :      0.54294
Magnitude (Debye)      :      1.38003

                             ****ORCA TERMINATED NORMALLY****
TOTAL RUN TIME: 0 days 0 hours 0 minutes 5 seconds 828 msec
