                         Program Version 3.0.3 - RELEASE   -
|  1> ! RI PBE def2-SVP def2-SVP/J NBO PAL2
|  2> % maxcore 2000
|  3> % output
|  4>     # printlevel mini
|  5>     print[ P_Basis ] 0
|  6>     print[ P_SCFInfo ] 1
|  7>     print[ P_SCFIterInfo ] 1
|  8>     print[ P_OrbEn ] 0
|  9>     print[ P_Cartesian ] 0
| 10> end
| 11> *xyz 0 1
| 12>  C       -0.2870200000     1.3999030000    -0.7245410000
| 13>  C        0.5939110000     0.5390000000     0.1642710000
| 14>  C        1.9272110000     0.2328180000    -0.4772530000
| 15>  O        2.6910580000    -0.5623600000     0.3909490000
| 16>  C        3.9512200000    -0.8926890000    -0.1349700000
| 17>  C        4.6924340000    -1.7430600000     0.8655220000
| 18>  H       -1.2448030000     1.6103270000    -0.2447780000
| 19>  H       -0.4969480000     0.9056970000    -1.6772740000
| 20>  H        0.1878030000     2.3594200000    -0.9478760000
| 21>  H        0.0930830000    -0.4059850000     0.3956130000
| 22>  H        0.7738620000     1.0392160000     1.1206960000
| 23>  H        2.4634990000     1.1692050000    -0.7047070000
| 24>  H        1.7763230000    -0.2898890000    -1.4365070000
| 25>  H        4.5180660000     0.0254950000    -0.3565160000
| 26>  H        3.8307300000    -1.4332790000    -1.0871810000
| 27>  H        4.8262060000    -1.2026770000     1.8046530000
| 28>  H        5.6774160000    -2.0137810000     0.4788680000
| 29>  H        4.1389400000    -2.6605590000     1.0746120000
| 30> *
| 31>
| 32>                          ****END OF INPUT****
 Total Charge           Charge          ....    0
 Multiplicity           Mult            ....    1
 Number of Electrons    NEL             ....   50
 Basis Dimension        Dim             ....  144

MULLIKEN ATOMIC CHARGES
-----------------------
   0 C :   -0.037577
   1 C :   -0.037567
   2 C :    0.159444
   3 O :   -0.342242
   4 C :    0.128172
   5 C :   -0.012723
   6 H :    0.024064
   7 H :    0.019422
   8 H :    0.020788
   9 H :    0.021732
  10 H :    0.021329
  11 H :   -0.011852
  12 H :   -0.015068
  13 H :   -0.005927
  14 H :   -0.006684
  15 H :    0.029894
  16 H :    0.015900
  17 H :    0.028895
Sum of atomic charges:   -0.0000000

LOEWDIN ATOMIC CHARGES
----------------------
   0 C :   -0.065069
   1 C :   -0.055910
   2 C :    0.057826
   3 O :   -0.149161
   4 C :    0.055818
   5 C :   -0.073517
   6 H :    0.029170
   7 H :    0.024462
   8 H :    0.024837
   9 H :    0.027358
  10 H :    0.027296
  11 H :    0.001270
  12 H :    0.000603
  13 H :    0.002469
  14 H :    0.002126
  15 H :    0.029616
  16 H :    0.031182
  17 H :    0.029623

  Mayer bond orders larger than 0.1
B(  0-C ,  1-C ) :   1.1062 B(  0-C ,  6-H ) :   0.9613 B(  0-C ,  7-H ) :   0.9667
B(  0-C ,  8-H ) :   0.9666 B(  1-C ,  2-C ) :   1.0797 B(  1-C ,  9-H ) :   0.9359
B(  1-C , 10-H ) :   0.9359 B(  2-C ,  3-O ) :   1.0303 B(  2-C , 11-H ) :   0.9285
B(  2-C , 12-H ) :   0.9267 B(  3-O ,  4-C ) :   1.0080 B(  4-C ,  5-C ) :   1.1210
B(  4-C , 13-H ) :   0.9300 B(  4-C , 14-H ) :   0.9303 B(  5-C , 15-H ) :   0.9643
B(  5-C , 16-H ) :   0.9511 B(  5-C , 17-H ) :   0.9632

FINAL SINGLE POINT ENERGY      -272.402106091378

DIPOLE MOMENT
-------------
                                X             Y             Z
Electronic contribution:      0.79803      -1.01873       1.28811
Nuclear contribution   :     -0.69300       1.12926      -1.60156
                        -----------------------------------------
Total Dipole Moment    :      0.10503       0.11053      -0.31345
                        -----------------------------------------
Magnitude (a.u.)       :      0.34857
Magnitude (Debye)      :      0.88599

                             ****ORCA TERMINATED NORMALLY****
TOTAL RUN TIME: 0 days 0 hours 0 minutes 6 seconds 980 msec
