                         Program Version 3.0.3 - RELEASE   -
|  1> ! RI PBE def2-SVP def2-SVP/J NBO PAL2
|  2> % maxcore 2000
|  3> % output
|  4>     # printlevel mini
|  5>     print[ P_Basis ] 0
|  6>     print[ P_SCFInfo ] 1
|  7>     print[ P_SCFIterInfo ] 1
|  8>     print[ P_OrbEn ] 0
|  9>     print[ P_Cartesian ] 0
| 10> end
| 11> *xyz 0 1
| 12>  C        0.9078230000     0.0263480000    -0.0274070000
| 13>  C        2.2445490000     0.0489630000    -0.0941310000
| 14>  C        2.9958950000     0.2205530000     1.1791490000
| 15>  O        4.1893210000     0.2598290000     1.2772210000
| 16>  C        2.9758340000    -0.0809480000    -1.3042540000
| 17>  C        3.6202850000    -0.1881640000    -2.3121490000
| 18>  H        0.4124790000     0.1312550000     0.9320520000
| 19>  H        0.2890810000    -0.0944930000    -0.9071090000
| 20>  H        2.3336480000     0.3128670000     2.0664510000
| 21>  H        4.1923730000    -0.2818090000    -3.2050230000
| 22> *
| 23>
| 24>                          ****END OF INPUT****
 Total Charge           Charge          ....    0
 Multiplicity           Mult            ....    1
 Number of Electrons    NEL             ....   42
 Basis Dimension        Dim             ....  104

MULLIKEN ATOMIC CHARGES
-----------------------
   0 C :    0.034228
   1 C :   -0.133085
   2 C :    0.148579
   3 O :   -0.125778
   4 C :    0.417215
   5 C :   -0.419050
   6 H :    0.037391
   7 H :    0.048659
   8 H :   -0.022208
   9 H :    0.014048
Sum of atomic charges:   -0.0000000

LOEWDIN ATOMIC CHARGES
----------------------
   0 C :    0.028095
   1 C :   -0.092554
   2 C :    0.089423
   3 O :   -0.086163
   4 C :   -0.008755
   5 C :   -0.031588
   6 H :    0.031366
   7 H :    0.038395
   8 H :   -0.008823
   9 H :    0.040605

  Mayer bond orders larger than 0.1
B(  0-C ,  1-C ) :   1.8337 B(  0-C ,  5-C ) :   0.1188 B(  0-C ,  6-H ) :   0.9272
B(  0-C ,  7-H ) :   0.9431 B(  1-C ,  2-C ) :   0.9558 B(  1-C ,  4-C ) :   0.9781
B(  2-C ,  3-O ) :   2.1999 B(  2-C ,  8-H ) :   0.9239 B(  4-C ,  5-C ) :   2.2929
B(  4-C ,  9-H ) :  -0.1006 B(  5-C ,  9-H ) :   1.0904

FINAL SINGLE POINT ENERGY      -267.529709399218

DIPOLE MOMENT
-------------
                                X             Y             Z
Electronic contribution:      2.86151       0.08662       0.17458
Nuclear contribution   :     -3.85411      -0.14642      -0.48857
                        -----------------------------------------
Total Dipole Moment    :     -0.99260      -0.05980      -0.31399
                        -----------------------------------------
Magnitude (a.u.)       :      1.04280
Magnitude (Debye)      :      2.65058

                             ****ORCA TERMINATED NORMALLY****
TOTAL RUN TIME: 0 days 0 hours 0 minutes 4 seconds 533 msec
