                         Program Version 3.0.3 - RELEASE   -
|  1> ! RI PBE def2-SVP def2-SVP/J NBO PAL2
|  2> % maxcore 2000
|  3> % output
|  4>     # printlevel mini
|  5>     print[ P_Basis ] 0
|  6>     print[ P_SCFInfo ] 1
|  7>     print[ P_SCFIterInfo ] 1
|  8>     print[ P_OrbEn ] 0
|  9>     print[ P_Cartesian ] 0
| 10> end
| 11> *xyz 0 1
| 12>  C        1.7217100000    -0.7296250000    -0.3509650000
| 13>  C        2.9961870000    -0.3932720000    -0.1895310000
| 14>  C        3.3839380000     0.8255330000     0.5679440000
| 15>  O        2.5588200000     1.5607910000     1.0681590000
| 16>  C        4.8427050000     1.0898170000     0.6763850000
| 17>  C        5.3058460000     2.1490170000     1.3299000000
| 18>  H        1.4292150000    -1.6158260000    -0.9012940000
| 19>  H        0.9414520000    -0.1077850000     0.0753860000
| 20>  H        3.7921880000    -1.0017610000    -0.6080440000
| 21>  H        5.5196530000     0.3857570000     0.2019690000
| 22>  H        4.6123170000     2.8404610000     1.7970030000
| 23>  H        6.3670700000     2.3500920000     1.4143990000
| 24> *
| 25>
| 26>                          ****END OF INPUT****
 Total Charge           Charge          ....    0
 Multiplicity           Mult            ....    1
 Number of Electrons    NEL             ....   44
 Basis Dimension        Dim             ....  114

MULLIKEN ATOMIC CHARGES
-----------------------
   0 C :    0.036380
   1 C :   -0.069460
   2 C :    0.074667
   3 O :   -0.164769
   4 C :   -0.069051
   5 C :    0.036062
   6 H :    0.035143
   7 H :    0.044022
   8 H :   -0.001133
   9 H :   -0.001575
  10 H :    0.044667
  11 H :    0.035047
Sum of atomic charges:   -0.0000000

LOEWDIN ATOMIC CHARGES
----------------------
   0 C :    0.022801
   1 C :   -0.070994
   2 C :    0.040540
   3 O :   -0.128099
   4 C :   -0.071824
   5 C :    0.023161
   6 H :    0.031185
   7 H :    0.033991
   8 H :    0.027069
   9 H :    0.026892
  10 H :    0.034049
  11 H :    0.031230

  Mayer bond orders larger than 0.1
B(  0-C ,  1-C ) :   1.9387 B(  0-C ,  6-H ) :   0.9403 B(  0-C ,  7-H ) :   0.9293
B(  1-C ,  2-C ) :   0.9852 B(  1-C ,  8-H ) :   0.9515 B(  2-C ,  3-O ) :   2.1192
B(  2-C ,  4-C ) :   0.9858 B(  4-C ,  5-C ) :   1.9382 B(  4-C ,  9-H ) :   0.9511
B(  5-C , 10-H ) :   0.9300 B(  5-C , 11-H ) :   0.9407

FINAL SINGLE POINT ENERGY      -268.778825568131

DIPOLE MOMENT
-------------
                                X             Y             Z
Electronic contribution:     -1.24761       1.10932       0.75805
Nuclear contribution   :      1.84562      -1.64499      -1.11825
                        -----------------------------------------
Total Dipole Moment    :      0.59801      -0.53567      -0.36020
                        -----------------------------------------
Magnitude (a.u.)       :      0.87995
Magnitude (Debye)      :      2.23665

                             ****ORCA TERMINATED NORMALLY****
TOTAL RUN TIME: 0 days 0 hours 0 minutes 5 seconds 41 msec
