                         Program Version 3.0.3 - RELEASE   -
|  1> ! RI PBE def2-SVP def2-SVP/J NBO PAL2
|  2> % maxcore 2000
|  3> % output
|  4>     # printlevel mini
|  5>     print[ P_Basis ] 0
|  6>     print[ P_SCFInfo ] 1
|  7>     print[ P_SCFIterInfo ] 1
|  8>     print[ P_OrbEn ] 0
|  9>     print[ P_Cartesian ] 0
| 10> end
| 11> *xyz 0 1
| 12>  C        0.9516010000    -0.0010510000     0.0726190000
| 13>  C        2.2700020000     0.1563750000     0.0246490000
| 14>  C        3.0252140000     1.0406570000     0.9305420000
| 15>  O        4.2285450000     1.1568730000     0.8541440000
| 16>  C        2.2722020000     1.7796920000     1.9326650000
| 17>  C        1.6751380000     2.4014700000     2.7693490000
| 18>  H        0.4369050000    -0.6625740000    -0.6140450000
| 19>  H        0.3500640000     0.5297500000     0.8029080000
| 20>  H        2.8883340000    -0.3657160000    -0.6983780000
| 21>  H        1.1615860000     2.9602240000     3.5171470000
| 22> *
| 23>
| 24>                          ****END OF INPUT****
 Total Charge           Charge          ....    0
 Multiplicity           Mult            ....    1
 Number of Electrons    NEL             ....   42
 Basis Dimension        Dim             ....  104

MULLIKEN ATOMIC CHARGES
-----------------------
   0 C :    0.028137
   1 C :   -0.032300
   2 C :    0.084734
   3 O :   -0.139544
   4 C :    0.357291
   5 C :   -0.425528
   6 H :    0.045153
   7 H :    0.048124
   8 H :    0.014078
   9 H :    0.019856
Sum of atomic charges:   -0.0000000

LOEWDIN ATOMIC CHARGES
----------------------
   0 C :    0.011885
   1 C :   -0.048112
   2 C :    0.029529
   3 O :   -0.093828
   4 C :   -0.033776
   5 C :   -0.018921
   6 H :    0.035454
   7 H :    0.035084
   8 H :    0.039888
   9 H :    0.042798

  Mayer bond orders larger than 0.1
B(  0-C ,  1-C ) :   1.8912 B(  0-C ,  6-H ) :   0.9403 B(  0-C ,  7-H ) :   0.9215
B(  1-C ,  2-C ) :   1.0444 B(  1-C ,  8-H ) :   0.9581 B(  2-C ,  3-O ) :   2.0914
B(  2-C ,  4-C ) :   0.8726 B(  3-O ,  5-C ) :   0.1024 B(  4-C ,  5-C ) :   2.3362
B(  4-C ,  9-H ) :  -0.1015 B(  5-C ,  9-H ) :   1.0895

FINAL SINGLE POINT ENERGY      -267.528602217696

DIPOLE MOMENT
-------------
                                X             Y             Z
Electronic contribution:      3.35947       1.55291       1.23250
Nuclear contribution   :     -4.57161      -1.69911      -1.18871
                        -----------------------------------------
Total Dipole Moment    :     -1.21213      -0.14621       0.04379
                        -----------------------------------------
Magnitude (a.u.)       :      1.22170
Magnitude (Debye)      :      3.10533

                             ****ORCA TERMINATED NORMALLY****
TOTAL RUN TIME: 0 days 0 hours 0 minutes 4 seconds 664 msec
