                         Program Version 3.0.3 - RELEASE   -
|  1> ! RI PBE def2-SVP def2-SVP/J NBO PAL2
|  2> % maxcore 2000
|  3> % output
|  4>     # printlevel mini
|  5>     print[ P_Basis ] 0
|  6>     print[ P_SCFInfo ] 1
|  7>     print[ P_SCFIterInfo ] 1
|  8>     print[ P_OrbEn ] 0
|  9>     print[ P_Cartesian ] 0
| 10> end
| 11> *xyz 0 1
| 12>  C        0.8777220000    -1.3957830000    -0.7070430000
| 13>  C        1.0908900000    -0.1476100000    -0.3220970000
| 14>  C        2.4155990000     0.5257680000    -0.2457550000
| 15>  O        3.4405050000    -0.3503740000    -0.6434390000
| 16>  C        4.6954370000     0.1335210000    -0.6214830000
| 17>  C        5.1031510000     1.3489090000    -0.2684090000
| 18>  H       -0.1241410000    -1.8068170000    -0.7326590000
| 19>  H        1.6947720000    -2.0405940000    -1.0065620000
| 20>  H        0.2560260000     0.4828660000    -0.0253240000
| 21>  H        2.6004850000     0.8746880000     0.7813590000
| 22>  H        2.4193940000     1.4200780000    -0.8869160000
| 23>  H        5.3938200000    -0.6301880000    -0.9469740000
| 24>  H        4.4369820000     2.1342020000     0.0606370000
| 25>  H        6.1600780000     1.5716340000    -0.3103340000
| 26> *
| 27>
| 28>                          ****END OF INPUT****
 Total Charge           Charge          ....    0
 Multiplicity           Mult            ....    1
 Number of Electrons    NEL             ....   46
 Basis Dimension        Dim             ....  124

MULLIKEN ATOMIC CHARGES
-----------------------
   0 C :   -0.013789
   1 C :   -0.131740
   2 C :    0.205086
   3 O :   -0.251667
   4 C :    0.108521
   5 C :   -0.116660
   6 H :    0.025343
   7 H :    0.032828
   8 H :    0.014393
   9 H :    0.029262
  10 H :    0.032251
  11 H :    0.015196
  12 H :    0.025152
  13 H :    0.025825
Sum of atomic charges:   -0.0000000

LOEWDIN ATOMIC CHARGES
----------------------
   0 C :   -0.055556
   1 C :   -0.049609
   2 C :    0.067463
   3 O :   -0.056051
   4 C :    0.033320
   5 C :   -0.156049
   6 H :    0.026497
   7 H :    0.026345
   8 H :    0.031609
   9 H :    0.025902
  10 H :    0.026536
  11 H :    0.024873
  12 H :    0.021992
  13 H :    0.032727

  Mayer bond orders larger than 0.1
B(  0-C ,  1-C ) :   2.0341 B(  0-C ,  6-H ) :   0.9439 B(  0-C ,  7-H ) :   0.9391
B(  1-C ,  2-C ) :   1.0428 B(  1-C ,  8-H ) :   0.9447 B(  2-C ,  3-O ) :   0.9976
B(  2-C ,  9-H ) :   0.9154 B(  2-C , 10-H ) :   0.9156 B(  3-O ,  4-C ) :   1.1573
B(  3-O ,  5-C ) :   0.1016 B(  4-C ,  5-C ) :   1.8620 B(  4-C , 11-H ) :   0.9643
B(  5-C , 12-H ) :   0.9517 B(  5-C , 13-H ) :   0.9377

FINAL SINGLE POINT ENERGY      -269.961131830481

DIPOLE MOMENT
-------------
                                X             Y             Z
Electronic contribution:      0.56344      -1.43241      -0.53150
Nuclear contribution   :     -0.73199       1.69796       0.63453
                        -----------------------------------------
Total Dipole Moment    :     -0.16855       0.26555       0.10302
                        -----------------------------------------
Magnitude (a.u.)       :      0.33097
Magnitude (Debye)      :      0.84125

                             ****ORCA TERMINATED NORMALLY****
TOTAL RUN TIME: 0 days 0 hours 0 minutes 5 seconds 954 msec
