                         Program Version 3.0.3 - RELEASE   -
|  1> ! RI PBE def2-SVP def2-SVP/J NBO PAL2
|  2> % maxcore 2000
|  3> % output
|  4>     # printlevel mini
|  5>     print[ P_Basis ] 0
|  6>     print[ P_SCFInfo ] 1
|  7>     print[ P_SCFIterInfo ] 1
|  8>     print[ P_OrbEn ] 0
|  9>     print[ P_Cartesian ] 0
| 10> end
| 11> *xyz 0 1
| 12>  C        0.2971010000     0.2272470000     0.0036760000
| 13>  C        1.7672420000     0.1249280000     0.2192000000
| 14>  C        2.6442710000     0.0462230000    -0.7702200000
| 15>  O        3.9824070000    -0.0463000000    -0.5392760000
| 16>  C        4.8082340000    -0.1241820000    -1.6087420000
| 17>  C        6.1228440000    -0.2154480000    -1.4811830000
| 18>  H       -0.2336120000    -0.6080870000     0.4713000000
| 19>  H        0.0475770000     0.2284260000    -1.0597180000
| 20>  H       -0.1075700000     1.1441800000     0.4436540000
| 21>  H        2.1410890000     0.1141770000     1.2390350000
| 22>  H        2.3514620000     0.0507160000    -1.8184120000
| 23>  H        4.3136080000    -0.1062540000    -2.5774680000
| 24>  H        6.5988360000    -0.2319610000    -0.5093360000
| 25>  H        6.7387000000    -0.2750650000    -2.3667910000
| 26> *
| 27>
| 28>                          ****END OF INPUT****
 Total Charge           Charge          ....    0
 Multiplicity           Mult            ....    1
 Number of Electrons    NEL             ....   46
 Basis Dimension        Dim             ....  124

MULLIKEN ATOMIC CHARGES
-----------------------
   0 C :    0.024754
   1 C :   -0.127761
   2 C :    0.123441
   3 O :   -0.194439
   4 C :    0.095958
   5 C :   -0.072868
   6 H :    0.036520
   7 H :    0.016595
   8 H :    0.034323
   9 H :    0.009692
  10 H :   -0.008933
  11 H :    0.001268
  12 H :    0.032337
  13 H :    0.029113
Sum of atomic charges:   -0.0000000

LOEWDIN ATOMIC CHARGES
----------------------
   0 C :   -0.058914
   1 C :   -0.085609
   2 C :    0.022354
   3 O :   -0.014557
   4 C :    0.035774
   5 C :   -0.118588
   6 H :    0.035566
   7 H :    0.029541
   8 H :    0.035085
   9 H :    0.030533
  10 H :    0.010829
  11 H :    0.013477
  12 H :    0.031109
  13 H :    0.033400

  Mayer bond orders larger than 0.1
B(  0-C ,  1-C ) :   1.0865 B(  0-C ,  6-H ) :   0.9496 B(  0-C ,  7-H ) :   0.9631
B(  0-C ,  8-H ) :   0.9497 B(  1-C ,  2-C ) :   1.8375 B(  1-C ,  9-H ) :   0.9599
B(  2-C ,  3-O ) :   1.0686 B(  2-C , 10-H ) :   0.9486 B(  3-O ,  4-C ) :   1.0861
B(  4-C ,  5-C ) :   1.9266 B(  4-C , 11-H ) :   0.9463 B(  5-C , 12-H ) :   0.9477
B(  5-C , 13-H ) :   0.9351

FINAL SINGLE POINT ENERGY      -269.969413199742

DIPOLE MOMENT
-------------
                                X             Y             Z
Electronic contribution:      3.52462      -0.25127       0.23243
Nuclear contribution   :     -3.90078       0.27053      -0.57007
                        -----------------------------------------
Total Dipole Moment    :     -0.37616       0.01927      -0.33763
                        -----------------------------------------
Magnitude (a.u.)       :      0.50583
Magnitude (Debye)      :      1.28571

                             ****ORCA TERMINATED NORMALLY****
TOTAL RUN TIME: 0 days 0 hours 0 minutes 5 seconds 814 msec
