                         Program Version 3.0.3 - RELEASE   -
|  1> ! RI PBE def2-SVP def2-SVP/J NBO PAL2
|  2> % maxcore 2000
|  3> % output
|  4>     # printlevel mini
|  5>     print[ P_Basis ] 0
|  6>     print[ P_SCFInfo ] 1
|  7>     print[ P_SCFIterInfo ] 1
|  8>     print[ P_OrbEn ] 0
|  9>     print[ P_Cartesian ] 0
| 10> end
| 11> *xyz 0 1
| 12>  C        0.6637530000     1.2507340000    -1.2071470000
| 13>  C        1.9889960000     0.8237740000    -0.6842550000
| 14>  C        3.0115670000     1.6337670000    -0.4226200000
| 15>  O        2.0245000000    -0.5334860000    -0.5319140000
| 16>  C        2.9800280000    -1.0796250000     0.2659110000
| 17>  C        3.4591680000    -2.2933560000     0.0498170000
| 18>  H       -0.1306790000     0.9760040000    -0.5081870000
| 19>  H        0.4528410000     0.7447650000    -2.1530610000
| 20>  H        0.6401170000     2.3268350000    -1.3705420000
| 21>  H        2.8937910000     2.6987240000    -0.5632680000
| 22>  H        3.9762890000     1.2703590000    -0.0960890000
| 23>  H        3.2704720000    -0.4641060000     1.1132790000
| 24>  H        3.1551080000    -2.8768520000    -0.8098760000
| 25>  H        4.1590570000    -2.7243360000     0.7518730000
| 26> *
| 27>
| 28>                          ****END OF INPUT****
 Total Charge           Charge          ....    0
 Multiplicity           Mult            ....    1
 Number of Electrons    NEL             ....   46
 Basis Dimension        Dim             ....  124

MULLIKEN ATOMIC CHARGES
-----------------------
   0 C :    0.065918
   1 C :   -0.012617
   2 C :   -0.091817
   3 O :   -0.215285
   4 C :    0.092238
   5 C :   -0.064550
   6 H :    0.041448
   7 H :    0.040374
   8 H :    0.021191
   9 H :    0.018990
  10 H :    0.024700
  11 H :    0.015466
  12 H :    0.032238
  13 H :    0.031705
Sum of atomic charges:   -0.0000000

LOEWDIN ATOMIC CHARGES
----------------------
   0 C :   -0.061886
   1 C :    0.031511
   2 C :   -0.140585
   3 O :   -0.025684
   4 C :    0.042862
   5 C :   -0.106462
   6 H :    0.041161
   7 H :    0.043297
   8 H :    0.037936
   9 H :    0.030254
  10 H :    0.025793
  11 H :    0.017234
  12 H :    0.030967
  13 H :    0.033602

  Mayer bond orders larger than 0.1
B(  0-C ,  1-C ) :   1.0957 B(  0-C ,  6-H ) :   0.9419 B(  0-C ,  7-H ) :   0.9374
B(  0-C ,  8-H ) :   0.9493 B(  1-C ,  2-C ) :   1.8814 B(  1-C ,  3-O ) :   1.0752
B(  2-C ,  9-H ) :   0.9236 B(  2-C , 10-H ) :   0.9338 B(  3-O ,  4-C ) :   1.0711
B(  4-C ,  5-C ) :   1.9393 B(  4-C , 11-H ) :   0.9384 B(  5-C , 12-H ) :   0.9498
B(  5-C , 13-H ) :   0.9401

FINAL SINGLE POINT ENERGY      -269.972894634636

DIPOLE MOMENT
-------------
                                X             Y             Z
Electronic contribution:      0.16830      -1.82678       0.26792
Nuclear contribution   :     -0.24365       2.05003      -0.18475
                        -----------------------------------------
Total Dipole Moment    :     -0.07535       0.22325       0.08317
                        -----------------------------------------
Magnitude (a.u.)       :      0.24987
Magnitude (Debye)      :      0.63513

                             ****ORCA TERMINATED NORMALLY****
TOTAL RUN TIME: 0 days 0 hours 0 minutes 5 seconds 933 msec
