                         Program Version 3.0.3 - RELEASE   -
|  1> ! RI PBE def2-SVP def2-SVP/J NBO PAL2
|  2> % maxcore 2000
|  3> % output
|  4>     # printlevel mini
|  5>     print[ P_Basis ] 0
|  6>     print[ P_SCFInfo ] 1
|  7>     print[ P_SCFIterInfo ] 1
|  8>     print[ P_OrbEn ] 0
|  9>     print[ P_Cartesian ] 0
| 10> end
| 11> *xyz 0 1
| 12>  C        0.9732880000     0.1398190000    -0.0035360000
| 13>  C        2.5030180000     0.0499360000     0.0818180000
| 14>  C        2.9474350000     0.4511130000     1.4784650000
| 15>  O        3.6219310000    -0.1981320000     2.2195850000
| 16>  C        3.0117980000    -1.2436250000    -0.3334180000
| 17>  C        3.4151920000    -2.3179940000    -0.6811720000
| 18>  H        0.6282300000     1.1235410000     0.3235210000
| 19>  H        0.5106580000    -0.6211620000     0.6266080000
| 20>  H        0.6434690000    -0.0172830000    -1.0301790000
| 21>  H        2.9206910000     0.8251750000    -0.5783590000
| 22>  H        2.5659640000     1.4539500000     1.7753070000
| 23>  H        3.7809060000    -3.2712370000    -0.9818400000
| 24> *
| 25>
| 26>                          ****END OF INPUT****
 Total Charge           Charge          ....    0
 Multiplicity           Mult            ....    1
 Number of Electrons    NEL             ....   44
 Basis Dimension        Dim             ....  114

MULLIKEN ATOMIC CHARGES
-----------------------
   0 C :   -0.000796
   1 C :   -0.064643
   2 C :    0.104127
   3 O :   -0.122228
   4 C :    0.408688
   5 C :   -0.495066
   6 H :    0.027143
   7 H :    0.048923
   8 H :    0.044315
   9 H :    0.056975
  10 H :   -0.008749
  11 H :    0.001311
Sum of atomic charges:   -0.0000000

LOEWDIN ATOMIC CHARGES
----------------------
   0 C :   -0.035389
   1 C :   -0.094748
   2 C :    0.100671
   3 O :   -0.082560
   4 C :   -0.016582
   5 C :   -0.065096
   6 H :    0.028805
   7 H :    0.036895
   8 H :    0.037493
   9 H :    0.064770
  10 H :   -0.011057
  11 H :    0.036797

  Mayer bond orders larger than 0.1
B(  0-C ,  1-C ) :   1.0513 B(  0-C ,  6-H ) :   0.9564 B(  0-C ,  7-H ) :   0.9658
B(  0-C ,  8-H ) :   0.9635 B(  1-C ,  2-C ) :   0.8828 B(  1-C ,  4-C ) :   0.9820
B(  1-C ,  9-H ) :   0.8570 B(  2-C ,  3-O ) :   2.2525 B(  2-C , 10-H ) :   0.9245
B(  4-C ,  5-C ) :   2.3243 B(  4-C , 11-H ) :  -0.1138 B(  5-C , 11-H ) :   1.1038

FINAL SINGLE POINT ENERGY      -268.741027596575

DIPOLE MOMENT
-------------
                                X             Y             Z
Electronic contribution:      4.32852      -1.69970       2.11813
Nuclear contribution   :     -4.93906       2.18598      -2.73856
                        -----------------------------------------
Total Dipole Moment    :     -0.61053       0.48628      -0.62044
                        -----------------------------------------
Magnitude (a.u.)       :      0.99708
Magnitude (Debye)      :      2.53437

                             ****ORCA TERMINATED NORMALLY****
TOTAL RUN TIME: 0 days 0 hours 0 minutes 5 seconds 113 msec
