                         Program Version 3.0.3 - RELEASE   -
|  1> ! RI PBE def2-SVP def2-SVP/J NBO PAL2
|  2> % maxcore 2000
|  3> % output
|  4>     # printlevel mini
|  5>     print[ P_Basis ] 0
|  6>     print[ P_SCFInfo ] 1
|  7>     print[ P_SCFIterInfo ] 1
|  8>     print[ P_OrbEn ] 0
|  9>     print[ P_Cartesian ] 0
| 10> end
| 11> *xyz 0 1
| 12>  C        0.9118270000     0.1236000000    -0.0228830000
| 13>  C        2.4317590000    -0.0237650000     0.0426600000
| 14>  C        2.8690360000    -1.3497790000    -0.5590700000
| 15>  O        3.0429580000     1.0549920000    -0.6669830000
| 16>  C        2.8802890000     0.1633040000     1.4662090000
| 17>  C        3.3364100000    -0.7705670000     2.2858610000
| 18>  H        0.5711330000     0.0717600000    -1.0624450000
| 19>  H        0.6062790000     1.0864730000     0.3909300000
| 20>  H        0.4147530000    -0.6706780000     0.5374630000
| 21>  H        2.5488380000    -1.4057280000    -1.6034610000
| 22>  H        2.4236740000    -2.1980280000    -0.0348790000
| 23>  H        3.9553840000    -1.4431910000    -0.5255730000
| 24>  H        2.7104700000     1.0396270000    -1.5692090000
| 25>  H        2.7857490000     1.1893280000     1.8147360000
| 26>  H        3.4576380000    -1.8037670000     1.9799240000
| 27>  H        3.6103950000    -0.5300910000     3.3064310000
| 28> *
| 29>
| 30>                          ****END OF INPUT****
 Total Charge           Charge          ....    0
 Multiplicity           Mult            ....    1
 Number of Electrons    NEL             ....   48
 Basis Dimension        Dim             ....  134

MULLIKEN ATOMIC CHARGES
-----------------------
   0 C :    0.064869
   1 C :   -0.098797
   2 C :    0.055485
   3 O :   -0.262809
   4 C :   -0.004281
   5 C :   -0.026592
   6 H :    0.003158
   7 H :    0.017399
   8 H :    0.018956
   9 H :   -0.001941
  10 H :    0.017318
  11 H :    0.029068
  12 H :    0.147009
  13 H :    0.003465
  14 H :    0.015348
  15 H :    0.022344
Sum of atomic charges:   -0.0000000

LOEWDIN ATOMIC CHARGES
----------------------
   0 C :   -0.059983
   1 C :    0.013628
   2 C :   -0.065033
   3 O :   -0.108451
   4 C :   -0.017221
   5 C :   -0.061941
   6 H :    0.020372
   7 H :    0.027731
   8 H :    0.030463
   9 H :    0.022227
  10 H :    0.027900
  11 H :    0.030507
  12 H :    0.062757
  13 H :    0.028911
  14 H :    0.021132
  15 H :    0.027000

  Mayer bond orders larger than 0.1
B(  0-C ,  1-C ) :   1.0488 B(  0-C ,  6-H ) :   0.9478 B(  0-C ,  7-H ) :   0.9510
B(  0-C ,  8-H ) :   0.9512 B(  1-C ,  2-C ) :   1.0946 B(  1-C ,  3-O ) :   1.0147
B(  1-C ,  4-C ) :   0.9696 B(  2-C ,  9-H ) :   0.9449 B(  2-C , 10-H ) :   0.9359
B(  2-C , 11-H ) :   0.9472 B(  3-O , 12-H ) :   0.9800 B(  4-C ,  5-C ) :   2.0267
B(  4-C , 13-H ) :   0.9501 B(  5-C , 14-H ) :   0.9305 B(  5-C , 15-H ) :   0.9358

FINAL SINGLE POINT ENERGY      -271.188023440914

DIPOLE MOMENT
-------------
                                X             Y             Z
Electronic contribution:      2.00964       2.93757       0.07057
Nuclear contribution   :     -2.43361      -3.25526      -0.37709
                        -----------------------------------------
Total Dipole Moment    :     -0.42397      -0.31769      -0.30653
                        -----------------------------------------
Magnitude (a.u.)       :      0.61208
Magnitude (Debye)      :      1.55578

                             ****ORCA TERMINATED NORMALLY****
TOTAL RUN TIME: 0 days 0 hours 0 minutes 6 seconds 652 msec
