                         Program Version 3.0.3 - RELEASE   -
|  1> ! RI PBE def2-SVP def2-SVP/J NBO PAL2
|  2> % maxcore 2000
|  3> % output
|  4>     # printlevel mini
|  5>     print[ P_Basis ] 0
|  6>     print[ P_SCFInfo ] 1
|  7>     print[ P_SCFIterInfo ] 1
|  8>     print[ P_OrbEn ] 0
|  9>     print[ P_Cartesian ] 0
| 10> end
| 11> *xyz 0 1
| 12>  C        1.0589190000     0.0472370000     0.0618080000
| 13>  C        2.5868400000     0.0684400000     0.0593450000
| 14>  C        3.1157870000     1.4898620000     0.2456150000
| 15>  O        3.0893570000    -0.7790520000     1.0877080000
| 16>  C        3.0832550000    -0.4780400000    -1.2070950000
| 17>  C        3.4680340000    -0.8920260000    -2.2649370000
| 18>  H        0.6866760000     0.4558600000     1.0062660000
| 19>  H        0.7007330000    -0.9768020000    -0.0455150000
| 20>  H        0.6562760000     0.6495280000    -0.7542400000
| 21>  H        2.7451110000     1.8996630000     1.1901780000
| 22>  H        2.7840930000     2.1418450000    -0.5641410000
| 23>  H        4.2057000000     1.4814690000     0.2678140000
| 24>  H        2.7698520000    -0.4301840000     1.9255150000
| 25>  H        3.8164670000    -1.2704010000    -3.1967210000
| 26> *
| 27>
| 28>                          ****END OF INPUT****
 Total Charge           Charge          ....    0
 Multiplicity           Mult            ....    1
 Number of Electrons    NEL             ....   46
 Basis Dimension        Dim             ....  124

MULLIKEN ATOMIC CHARGES
-----------------------
   0 C :    0.061342
   1 C :   -0.107137
   2 C :    0.045230
   3 O :   -0.241043
   4 C :    0.463383
   5 C :   -0.512376
   6 H :    0.004537
   7 H :    0.034678
   8 H :    0.025386
   9 H :    0.006551
  10 H :    0.028240
  11 H :    0.041274
  12 H :    0.150786
  13 H :   -0.000851
Sum of atomic charges:   -0.0000000

LOEWDIN ATOMIC CHARGES
----------------------
   0 C :   -0.052766
   1 C :    0.006989
   2 C :   -0.056181
   3 O :   -0.098102
   4 C :   -0.006634
   5 C :   -0.074607
   6 H :    0.022037
   7 H :    0.033441
   8 H :    0.033481
   9 H :    0.022487
  10 H :    0.034010
  11 H :    0.034727
  12 H :    0.065514
  13 H :    0.035605

  Mayer bond orders larger than 0.1
B(  0-C ,  1-C ) :   1.0619 B(  0-C ,  6-H ) :   0.9471 B(  0-C ,  7-H ) :   0.9555
B(  0-C ,  8-H ) :   0.9495 B(  1-C ,  2-C ) :   1.0645 B(  1-C ,  3-O ) :   1.0905
B(  1-C ,  4-C ) :   0.9019 B(  2-C ,  9-H ) :   0.9468 B(  2-C , 10-H ) :   0.9478
B(  2-C , 11-H ) :   0.9545 B(  3-O , 12-H ) :   0.9790 B(  4-C ,  5-C ) :   2.3553
B(  4-C , 13-H ) :  -0.1136 B(  5-C , 13-H ) :   1.1027

FINAL SINGLE POINT ENERGY      -269.941578632880

DIPOLE MOMENT
-------------
                                X             Y             Z
Electronic contribution:      2.67812      -3.64365      -1.42065
Nuclear contribution   :     -3.09372       4.20059       1.64983
                        -----------------------------------------
Total Dipole Moment    :     -0.41560       0.55694       0.22919
                        -----------------------------------------
Magnitude (a.u.)       :      0.73173
Magnitude (Debye)      :      1.85992

                             ****ORCA TERMINATED NORMALLY****
TOTAL RUN TIME: 0 days 0 hours 0 minutes 5 seconds 889 msec
