                         Program Version 3.0.3 - RELEASE   -
|  1> ! RI PBE def2-SVP def2-SVP/J NBO PAL2
|  2> % maxcore 2000
|  3> % output
|  4>     # printlevel mini
|  5>     print[ P_Basis ] 0
|  6>     print[ P_SCFInfo ] 1
|  7>     print[ P_SCFIterInfo ] 1
|  8>     print[ P_OrbEn ] 0
|  9>     print[ P_Cartesian ] 0
| 10> end
| 11> *xyz 0 1
| 12>  C        0.5851120000    -0.3826010000     0.5323180000
| 13>  C        1.9694040000    -0.8973870000     0.2093770000
| 14>  C        2.1989250000    -2.3059750000     0.7218940000
| 15>  O        2.0899550000    -0.8564940000    -1.2131450000
| 16>  C        3.3173940000    -0.8073640000    -1.7559980000
| 17>  C        4.5059220000    -0.7839080000    -1.1576220000
| 18>  H        0.4253890000    -0.3789290000     1.6125030000
| 19>  H       -0.1732760000    -1.0212380000     0.0735300000
| 20>  H        0.4528060000     0.6336330000     0.1577420000
| 21>  H        2.7162690000    -0.2161000000     0.6354510000
| 22>  H        1.4278310000    -2.9755880000     0.3332920000
| 23>  H        2.1515850000    -2.3240950000     1.8131900000
| 24>  H        3.1729280000    -2.6885130000     0.4146240000
| 25>  H        3.2387740000    -0.7774580000    -2.8383560000
| 26>  H        4.6463300000    -0.8234730000    -0.0862690000
| 27>  H        5.3904610000    -0.7216090000    -1.7759400000
| 28> *
| 29>
| 30>                          ****END OF INPUT****
 Total Charge           Charge          ....    0
 Multiplicity           Mult            ....    1
 Number of Electrons    NEL             ....   48
 Basis Dimension        Dim             ....  134

MULLIKEN ATOMIC CHARGES
-----------------------
   0 C :    0.013318
   1 C :    0.010088
   2 C :    0.008986
   3 O :   -0.253727
   4 C :    0.097682
   5 C :   -0.117269
   6 H :    0.023813
   7 H :    0.024835
   8 H :    0.028838
   9 H :    0.019655
  10 H :    0.023663
  11 H :    0.027926
  12 H :    0.025979
  13 H :    0.016445
  14 H :    0.027131
  15 H :    0.022636
Sum of atomic charges:    0.0000000

LOEWDIN ATOMIC CHARGES
----------------------
   0 C :   -0.064902
   1 C :    0.054452
   2 C :   -0.071521
   3 O :   -0.064426
   4 C :    0.031453
   5 C :   -0.163239
   6 H :    0.032382
   7 H :    0.030199
   8 H :    0.031407
   9 H :    0.015440
  10 H :    0.030113
  11 H :    0.033093
  12 H :    0.030814
  13 H :    0.023959
  14 H :    0.019786
  15 H :    0.030991

  Mayer bond orders larger than 0.1
B(  0-C ,  1-C ) :   1.0908 B(  0-C ,  6-H ) :   0.9590 B(  0-C ,  7-H ) :   0.9550
B(  0-C ,  8-H ) :   0.9560 B(  1-C ,  2-C ) :   1.0928 B(  1-C ,  3-O ) :   0.9412
B(  1-C ,  9-H ) :   0.9159 B(  2-C , 10-H ) :   0.9515 B(  2-C , 11-H ) :   0.9578
B(  2-C , 12-H ) :   0.9501 B(  3-O ,  4-C ) :   1.1723 B(  3-O ,  5-C ) :   0.1070
B(  4-C ,  5-C ) :   1.8483 B(  4-C , 13-H ) :   0.9650 B(  5-C , 14-H ) :   0.9530
B(  5-C , 15-H ) :   0.9380

FINAL SINGLE POINT ENERGY      -271.190114628717

DIPOLE MOMENT
-------------
                                X             Y             Z
Electronic contribution:      0.58130       1.05450      -3.88548
Nuclear contribution   :     -0.67544      -1.08730       4.28083
                        -----------------------------------------
Total Dipole Moment    :     -0.09413      -0.03280       0.39535
                        -----------------------------------------
Magnitude (a.u.)       :      0.40772
Magnitude (Debye)      :      1.03635

                             ****ORCA TERMINATED NORMALLY****
TOTAL RUN TIME: 0 days 0 hours 0 minutes 6 seconds 548 msec
