                         Program Version 3.0.3 - RELEASE   -
|  1> ! RI PBE def2-SVP def2-SVP/J NBO PAL2
|  2> % maxcore 2000
|  3> % output
|  4>     # printlevel mini
|  5>     print[ P_Basis ] 0
|  6>     print[ P_SCFInfo ] 1
|  7>     print[ P_SCFIterInfo ] 1
|  8>     print[ P_OrbEn ] 0
|  9>     print[ P_Cartesian ] 0
| 10> end
| 11> *xyz 0 1
| 12>  C        0.9432730000     0.2251130000    -0.0218100000
| 13>  C        2.4389940000    -0.0499870000     0.0682460000
| 14>  C        2.8758940000    -0.1627430000     1.5306210000
| 15>  O        4.2658310000    -0.3073010000     1.6777930000
| 16>  C        2.8143080000    -1.3029590000    -0.6573090000
| 17>  C        3.8237460000    -1.4227310000    -1.5113550000
| 18>  H        0.6822120000     1.1418550000     0.5126240000
| 19>  H        0.3669090000    -0.5943570000     0.4179440000
| 20>  H        0.6247500000     0.3358470000    -1.0600210000
| 21>  H        2.9937980000     0.7871500000    -0.3705160000
| 22>  H        2.3350530000    -0.9964700000     2.0061740000
| 23>  H        2.6008310000     0.7510670000     2.0641250000
| 24>  H        4.5493190000    -1.0004910000     1.0708080000
| 25>  H        2.2156520000    -2.1828330000    -0.4186940000
| 26>  H        4.4396840000    -0.5697850000    -1.7803900000
| 27>  H        4.0591650000    -2.3692750000    -1.9846280000
| 28> *
| 29>
| 30>                          ****END OF INPUT****
 Total Charge           Charge          ....    0
 Multiplicity           Mult            ....    1
 Number of Electrons    NEL             ....   48
 Basis Dimension        Dim             ....  134

MULLIKEN ATOMIC CHARGES
-----------------------
   0 C :    0.010716
   1 C :   -0.105323
   2 C :    0.207027
   3 O :   -0.278315
   4 C :   -0.082152
   5 C :   -0.032694
   6 H :    0.020443
   7 H :    0.019662
   8 H :    0.027913
   9 H :    0.004264
  10 H :   -0.009405
  11 H :    0.009925
  12 H :    0.147174
  13 H :    0.005121
  14 H :    0.027189
  15 H :    0.028455
Sum of atomic charges:    0.0000000

LOEWDIN ATOMIC CHARGES
----------------------
   0 C :   -0.052065
   1 C :   -0.066613
   2 C :    0.062606
   3 O :   -0.119672
   4 C :   -0.028053
   5 C :   -0.065511
   6 H :    0.028249
   7 H :    0.025287
   8 H :    0.030019
   9 H :    0.029082
  10 H :    0.000554
  11 H :    0.020008
  12 H :    0.059353
  13 H :    0.025984
  14 H :    0.024680
  15 H :    0.026093

  Mayer bond orders larger than 0.1
B(  0-C ,  1-C ) :   1.0559 B(  0-C ,  6-H ) :   0.9586 B(  0-C ,  7-H ) :   0.9603
B(  0-C ,  8-H ) :   0.9618 B(  1-C ,  2-C ) :   1.0137 B(  1-C ,  4-C ) :   1.0133
B(  1-C ,  9-H ) :   0.9041 B(  2-C ,  3-O ) :   1.0884 B(  2-C , 10-H ) :   0.9291
B(  2-C , 11-H ) :   0.9349 B(  3-O , 12-H ) :   0.9737 B(  4-C ,  5-C ) :   1.9823
B(  4-C , 13-H ) :   0.9525 B(  5-C , 14-H ) :   0.9451 B(  5-C , 15-H ) :   0.9432

FINAL SINGLE POINT ENERGY      -271.186317032105

DIPOLE MOMENT
-------------
                                X             Y             Z
Electronic contribution:      3.29144      -0.44286       1.33422
Nuclear contribution   :     -3.68491       0.19672      -1.74952
                        -----------------------------------------
Total Dipole Moment    :     -0.39347      -0.24613      -0.41530
                        -----------------------------------------
Magnitude (a.u.)       :      0.62280
Magnitude (Debye)      :      1.58303

                             ****ORCA TERMINATED NORMALLY****
TOTAL RUN TIME: 0 days 0 hours 0 minutes 6 seconds 669 msec
