                         Program Version 3.0.3 - RELEASE   -
|  1> ! RI PBE def2-SVP def2-SVP/J NBO PAL2
|  2> % maxcore 2000
|  3> % output
|  4>     # printlevel mini
|  5>     print[ P_Basis ] 0
|  6>     print[ P_SCFInfo ] 1
|  7>     print[ P_SCFIterInfo ] 1
|  8>     print[ P_OrbEn ] 0
|  9>     print[ P_Cartesian ] 0
| 10> end
| 11> *xyz 0 1
| 12>  C        0.8796010000     0.0083050000    -0.0449550000
| 13>  C        2.4056700000     0.0438750000    -0.0671100000
| 14>  C        2.9484360000    -0.3376520000    -1.4492910000
| 15>  O        4.3494570000    -0.3573160000    -1.5032990000
| 16>  C        2.9249990000     1.3518830000     0.3127880000
| 17>  C        3.3784390000     2.4327920000     0.5784640000
| 18>  H        0.5218590000    -0.9886630000    -0.3126210000
| 19>  H        0.4650230000     0.7261420000    -0.7559680000
| 20>  H        0.4966390000     0.2556500000     0.9456790000
| 21>  H        2.7951720000    -0.6896030000     0.6490670000
| 22>  H        2.5244760000     0.3478860000    -2.1971760000
| 23>  H        2.6130480000    -1.3486870000    -1.6929550000
| 24>  H        4.6633580000     0.5124790000    -1.2323850000
| 25>  H        3.7656140000     3.3909090000     0.8340520000
| 26> *
| 27>
| 28>                          ****END OF INPUT****
 Total Charge           Charge          ....    0
 Multiplicity           Mult            ....    1
 Number of Electrons    NEL             ....   46
 Basis Dimension        Dim             ....  124

MULLIKEN ATOMIC CHARGES
-----------------------
   0 C :    0.026002
   1 C :   -0.098991
   2 C :    0.200491
   3 O :   -0.277713
   4 C :    0.359432
   5 C :   -0.503121
   6 H :    0.022563
   7 H :    0.030679
   8 H :    0.032694
   9 H :    0.039545
  10 H :    0.001716
  11 H :    0.009522
  12 H :    0.156369
  13 H :    0.000810
Sum of atomic charges:   -0.0000000

LOEWDIN ATOMIC CHARGES
----------------------
   0 C :   -0.041737
   1 C :   -0.074632
   2 C :    0.068129
   3 O :   -0.114607
   4 C :   -0.019540
   5 C :   -0.091269
   6 H :    0.029000
   7 H :    0.030551
   8 H :    0.033369
   9 H :    0.049379
  10 H :    0.005946
  11 H :    0.021425
  12 H :    0.067589
  13 H :    0.036398

  Mayer bond orders larger than 0.1
B(  0-C ,  1-C ) :   1.0587 B(  0-C ,  6-H ) :   0.9591 B(  0-C ,  7-H ) :   0.9612
B(  0-C ,  8-H ) :   0.9608 B(  1-C ,  2-C ) :   1.0133 B(  1-C ,  4-C ) :   1.0033
B(  1-C ,  9-H ) :   0.8687 B(  2-C ,  3-O ) :   1.0876 B(  2-C , 10-H ) :   0.9282
B(  2-C , 11-H ) :   0.9361 B(  3-O , 12-H ) :   0.9758 B(  4-C ,  5-C ) :   2.3133
B(  4-C , 13-H ) :  -0.1161 B(  5-C , 13-H ) :   1.1066

FINAL SINGLE POINT ENERGY      -269.943109980741

DIPOLE MOMENT
-------------
                                X             Y             Z
Electronic contribution:      4.07799       1.66184       0.50751
Nuclear contribution   :     -4.48526      -1.38070      -0.34315
                        -----------------------------------------
Total Dipole Moment    :     -0.40727       0.28114       0.16436
                        -----------------------------------------
Magnitude (a.u.)       :      0.52146
Magnitude (Debye)      :      1.32545

                             ****ORCA TERMINATED NORMALLY****
TOTAL RUN TIME: 0 days 0 hours 0 minutes 5 seconds 872 msec
