                         Program Version 3.0.3 - RELEASE   -
|  1> ! RI PBE def2-SVP def2-SVP/J NBO PAL2
|  2> % maxcore 2000
|  3> % output
|  4>     # printlevel mini
|  5>     print[ P_Basis ] 0
|  6>     print[ P_SCFInfo ] 1
|  7>     print[ P_SCFIterInfo ] 1
|  8>     print[ P_OrbEn ] 0
|  9>     print[ P_Cartesian ] 0
| 10> end
| 11> *xyz 0 1
| 12>  C        1.1550870000     0.0976490000     0.2261720000
| 13>  C        2.6513490000    -0.0805110000     0.0784020000
| 14>  C        3.0452970000    -1.1002780000    -0.9673260000
| 15>  O        2.2224850000    -1.7029340000    -1.6114950000
| 16>  C        4.5294690000    -1.3216530000    -1.1594100000
| 17>  C        4.8625210000    -2.3517640000    -2.2178630000
| 18>  H        0.9271470000     0.8423650000     0.9911700000
| 19>  H        0.6760520000    -0.8419350000     0.5053230000
| 20>  H        0.7058750000     0.4200230000    -0.7143060000
| 21>  H        3.1117860000    -0.3841140000     1.0266490000
| 22>  H        3.1413050000     0.8659660000    -0.1813650000
| 23>  H        4.9511300000    -1.6004410000    -0.1858410000
| 24>  H        4.9814430000    -0.3498790000    -1.3933360000
| 25>  H        4.4282230000    -3.3211470000    -1.9690770000
| 26>  H        5.9431940000    -2.4719980000    -2.3151810000
| 27>  H        4.4589180000    -2.0586490000    -3.1881250000
| 28> *
| 29>
| 30>                          ****END OF INPUT****
 Total Charge           Charge          ....    0
 Multiplicity           Mult            ....    1
 Number of Electrons    NEL             ....   48
 Basis Dimension        Dim             ....  134

MULLIKEN ATOMIC CHARGES
-----------------------
   0 C :    0.005331
   1 C :   -0.024970
   2 C :   -0.066265
   3 O :   -0.164780
   4 C :   -0.022821
   5 C :    0.006713
   6 H :    0.016545
   7 H :    0.030541
   8 H :    0.030617
   9 H :    0.028334
  10 H :    0.029028
  11 H :    0.027962
  12 H :    0.028521
  13 H :    0.028170
  14 H :    0.019221
  15 H :    0.027853
Sum of atomic charges:   -0.0000000

LOEWDIN ATOMIC CHARGES
----------------------
   0 C :   -0.063413
   1 C :   -0.077532
   2 C :    0.058355
   3 O :   -0.120497
   4 C :   -0.077341
   5 C :   -0.063090
   6 H :    0.027016
   7 H :    0.031644
   8 H :    0.031626
   9 H :    0.040770
  10 H :    0.040926
  11 H :    0.040690
  12 H :    0.040824
  13 H :    0.031313
  14 H :    0.027497
  15 H :    0.031214

  Mayer bond orders larger than 0.1
B(  0-C ,  1-C ) :   1.1222 B(  0-C ,  6-H ) :   0.9572 B(  0-C ,  7-H ) :   0.9641
B(  0-C ,  8-H ) :   0.9643 B(  1-C ,  2-C ) :   0.9767 B(  1-C ,  9-H ) :   0.9154
B(  1-C , 10-H ) :   0.9152 B(  2-C ,  3-O ) :   2.1894 B(  2-C ,  4-C ) :   0.9763
B(  4-C ,  5-C ) :   1.1217 B(  4-C , 11-H ) :   0.9158 B(  4-C , 12-H ) :   0.9157
B(  5-C , 13-H ) :   0.9639 B(  5-C , 14-H ) :   0.9576 B(  5-C , 15-H ) :   0.9640

FINAL SINGLE POINT ENERGY      -271.225843847113

DIPOLE MOMENT
-------------
                                X             Y             Z
Electronic contribution:     -1.81055      -1.32838      -1.42000
Nuclear contribution   :      2.46975       1.80869       1.93378
                        -----------------------------------------
Total Dipole Moment    :      0.65920       0.48030       0.51378
                        -----------------------------------------
Magnitude (a.u.)       :      0.96395
Magnitude (Debye)      :      2.45017

                             ****ORCA TERMINATED NORMALLY****
TOTAL RUN TIME: 0 days 0 hours 0 minutes 6 seconds 432 msec
