                         Program Version 3.0.3 - RELEASE   -
|  1> ! RI PBE def2-SVP def2-SVP/J NBO PAL2
|  2> % maxcore 2000
|  3> % output
|  4>     # printlevel mini
|  5>     print[ P_Basis ] 0
|  6>     print[ P_SCFInfo ] 1
|  7>     print[ P_SCFIterInfo ] 1
|  8>     print[ P_OrbEn ] 0
|  9>     print[ P_Cartesian ] 0
| 10> end
| 11> *xyz 0 1
| 12>  C        1.1527400000    -0.9083120000    -0.1720550000
| 13>  C        2.3576160000    -0.0313550000     0.0992620000
| 14>  C        1.9986070000     1.2932530000     0.7331840000
| 15>  O        0.8506350000     1.5868730000     0.9838120000
| 16>  C        3.0791410000     2.2564790000     1.0560140000
| 17>  C        4.3747360000     2.0624280000     0.8350000000
| 18>  H        1.4595120000    -1.8513030000    -0.6285260000
| 19>  H        0.4504410000    -0.4118220000    -0.8430090000
| 20>  H        0.6142360000    -1.1298210000     0.7503590000
| 21>  H        2.9092350000     0.1742560000    -0.8254580000
| 22>  H        3.0720150000    -0.5391820000     0.7576100000
| 23>  H        2.7204840000     3.1766820000     1.5077720000
| 24>  H        4.7536740000     1.1513870000     0.3852740000
| 25>  H        5.1090380000     2.8150270000     1.0985510000
| 26> *
| 27>
| 28>                          ****END OF INPUT****
 Total Charge           Charge          ....    0
 Multiplicity           Mult            ....    1
 Number of Electrons    NEL             ....   46
 Basis Dimension        Dim             ....  124

MULLIKEN ATOMIC CHARGES
-----------------------
   0 C :    0.013651
   1 C :   -0.069856
   2 C :   -0.011130
   3 O :   -0.158503
   4 C :   -0.006096
   5 C :   -0.005197
   6 H :    0.012570
   7 H :    0.032664
   8 H :    0.029307
   9 H :    0.040092
  10 H :    0.040968
  11 H :    0.004800
  12 H :    0.033645
  13 H :    0.043086
Sum of atomic charges:   -0.0000000

LOEWDIN ATOMIC CHARGES
----------------------
   0 C :   -0.060376
   1 C :   -0.080411
   2 C :    0.047927
   3 O :   -0.115811
   4 C :   -0.051686
   5 C :   -0.010847
   6 H :    0.026710
   7 H :    0.031987
   8 H :    0.031759
   9 H :    0.042225
  10 H :    0.042014
  11 H :    0.035854
  12 H :    0.027077
  13 H :    0.033578

  Mayer bond orders larger than 0.1
B(  0-C ,  1-C ) :   1.1268 B(  0-C ,  6-H ) :   0.9535 B(  0-C ,  7-H ) :   0.9648
B(  0-C ,  8-H ) :   0.9629 B(  1-C ,  2-C ) :   0.9895 B(  1-C ,  9-H ) :   0.9049
B(  1-C , 10-H ) :   0.9070 B(  2-C ,  3-O ) :   2.1289 B(  2-C ,  4-C ) :   1.0349
B(  4-C ,  5-C ) :   1.9111 B(  4-C , 11-H ) :   0.9507 B(  5-C , 12-H ) :   0.9311
B(  5-C , 13-H ) :   0.9396

FINAL SINGLE POINT ENERGY      -270.001454357261

DIPOLE MOMENT
-------------
                                X             Y             Z
Electronic contribution:     -1.72129       4.15969       2.05368
Nuclear contribution   :      2.76096      -4.39267      -2.26438
                        -----------------------------------------
Total Dipole Moment    :      1.03967      -0.23298      -0.21069
                        -----------------------------------------
Magnitude (a.u.)       :      1.08609
Magnitude (Debye)      :      2.76061

                             ****ORCA TERMINATED NORMALLY****
TOTAL RUN TIME: 0 days 0 hours 0 minutes 6 seconds 16 msec
