                         Program Version 3.0.3 - RELEASE   -
|  1> ! RI PBE def2-SVP def2-SVP/J NBO PAL2
|  2> % maxcore 2000
|  3> % output
|  4>     # printlevel mini
|  5>     print[ P_Basis ] 0
|  6>     print[ P_SCFInfo ] 1
|  7>     print[ P_SCFIterInfo ] 1
|  8>     print[ P_OrbEn ] 0
|  9>     print[ P_Cartesian ] 0
| 10> end
| 11> *xyz 0 1
| 12>  C        0.9430600000    -0.1655800000    -0.0856390000
| 13>  C        2.4352630000     0.0515510000     0.1440950000
| 14>  C        2.9859810000     1.1845290000    -0.6809580000
| 15>  O        3.4458550000     2.1938130000    -0.2052170000
| 16>  C        2.9307450000     1.0010170000    -2.1248820000
| 17>  C        2.8883300000     0.8312660000    -3.3138650000
| 18>  H        0.5867370000    -1.0040230000     0.5149480000
| 19>  H        0.7309180000    -0.3866980000    -1.1334350000
| 20>  H        0.3709360000     0.7201510000     0.1980990000
| 21>  H        2.9841770000    -0.8578150000    -0.1250580000
| 22>  H        2.6470040000     0.2849010000     1.1888920000
| 23>  H        2.8592930000     0.6999980000    -4.3707800000
| 24> *
| 25>
| 26>                          ****END OF INPUT****
 Total Charge           Charge          ....    0
 Multiplicity           Mult            ....    1
 Number of Electrons    NEL             ....   44
 Basis Dimension        Dim             ....  114

MULLIKEN ATOMIC CHARGES
-----------------------
   0 C :   -0.044092
   1 C :    0.007707
   2 C :   -0.015758
   3 O :   -0.136530
   4 C :    0.399481
   5 C :   -0.413033
   6 H :    0.036656
   7 H :    0.039551
   8 H :    0.037391
   9 H :    0.041353
  10 H :    0.028279
  11 H :    0.018995
Sum of atomic charges:   -0.0000000

LOEWDIN ATOMIC CHARGES
----------------------
   0 C :   -0.056176
   1 C :   -0.059916
   2 C :    0.041237
   3 O :   -0.092096
   4 C :   -0.036187
   5 C :   -0.018327
   6 H :    0.033817
   7 H :    0.031153
   8 H :    0.032566
   9 H :    0.044562
  10 H :    0.036949
  11 H :    0.042419

  Mayer bond orders larger than 0.1
B(  0-C ,  1-C ) :   1.0996 B(  0-C ,  6-H ) :   0.9615 B(  0-C ,  7-H ) :   0.9655
B(  0-C ,  8-H ) :   0.9645 B(  1-C ,  2-C ) :   1.0209 B(  1-C ,  9-H ) :   0.9157
B(  1-C , 10-H ) :   0.9151 B(  2-C ,  3-O ) :   2.1680 B(  2-C ,  4-C ) :   0.8589
B(  3-O ,  5-C ) :   0.1090 B(  4-C ,  5-C ) :   2.3331 B(  4-C , 11-H ) :  -0.1034
B(  5-C , 11-H ) :   1.0920

FINAL SINGLE POINT ENERGY      -268.749607578933

DIPOLE MOMENT
-------------
                                X             Y             Z
Electronic contribution:      4.48411       4.34136      -2.41171
Nuclear contribution   :     -4.95368      -5.24925       1.98856
                        -----------------------------------------
Total Dipole Moment    :     -0.46957      -0.90789      -0.42315
                        -----------------------------------------
Magnitude (a.u.)       :      1.10626
Magnitude (Debye)      :      2.81189

                             ****ORCA TERMINATED NORMALLY****
TOTAL RUN TIME: 0 days 0 hours 0 minutes 5 seconds 401 msec
