                         Program Version 3.0.3 - RELEASE   -
|  1> ! RI PBE def2-SVP def2-SVP/J NBO PAL2
|  2> % maxcore 2000
|  3> % output
|  4>     # printlevel mini
|  5>     print[ P_Basis ] 0
|  6>     print[ P_SCFInfo ] 1
|  7>     print[ P_SCFIterInfo ] 1
|  8>     print[ P_OrbEn ] 0
|  9>     print[ P_Cartesian ] 0
| 10> end
| 11> *xyz 0 1
| 12>  C        1.3080460000     0.3470870000    -0.1849880000
| 13>  C        2.8000830000     0.0667750000    -0.2102020000
| 14>  C        3.2650670000    -0.8477820000     0.9142460000
| 15>  O        2.5990380000    -2.1011320000     0.8711070000
| 16>  C        4.7770870000    -1.0228820000     0.9254970000
| 17>  C        5.2829910000    -1.8435690000     2.0984950000
| 18>  H        1.0068420000     0.9715900000    -1.0289410000
| 19>  H        1.0235650000     0.8686740000     0.7331780000
| 20>  H        0.7357580000    -0.5813630000    -0.2257390000
| 21>  H        3.3604710000     1.0061830000    -0.1498650000
| 22>  H        3.0813720000    -0.3917130000    -1.1683170000
| 23>  H        2.9542040000    -0.4129940000     1.8725470000
| 24>  H        2.8379420000    -2.5312730000     0.0438940000
| 25>  H        5.2428810000    -0.0313370000     0.9313350000
| 26>  H        5.0784330000    -1.4925510000    -0.0210410000
| 27>  H        5.0530040000    -1.3519070000     3.0479080000
| 28>  H        6.3653570000    -1.9815980000     2.0493300000
| 29>  H        4.8135470000    -2.8286960000     2.1169470000
| 30> *
| 31>
| 32>                          ****END OF INPUT****
 Total Charge           Charge          ....    0
 Multiplicity           Mult            ....    1
 Number of Electrons    NEL             ....   50
 Basis Dimension        Dim             ....  144

MULLIKEN ATOMIC CHARGES
-----------------------
   0 C :    0.012908
   1 C :   -0.021424
   2 C :    0.061904
   3 O :   -0.280213
   4 C :   -0.015393
   5 C :    0.009334
   6 H :    0.017828
   7 H :    0.014929
   8 H :    0.016639
   9 H :    0.003716
  10 H :   -0.007689
  11 H :   -0.006922
  12 H :    0.149886
  13 H :    0.003131
  14 H :   -0.009313
  15 H :    0.013619
  16 H :    0.021175
  17 H :    0.015884
Sum of atomic charges:   -0.0000000

LOEWDIN ATOMIC CHARGES
----------------------
   0 C :   -0.067328
   1 C :   -0.060253
   2 C :    0.043519
   3 O :   -0.110040
   4 C :   -0.059923
   5 C :   -0.067461
   6 H :    0.025399
   7 H :    0.025554
   8 H :    0.023726
   9 H :    0.026305
  10 H :    0.017941
  11 H :    0.019307
  12 H :    0.064514
  13 H :    0.026098
  14 H :    0.017605
  15 H :    0.025259
  16 H :    0.026109
  17 H :    0.023668

  Mayer bond orders larger than 0.1
B(  0-C ,  1-C ) :   1.1144 B(  0-C ,  6-H ) :   0.9615 B(  0-C ,  7-H ) :   0.9646
B(  0-C ,  8-H ) :   0.9557 B(  1-C ,  2-C ) :   1.0563 B(  1-C ,  9-H ) :   0.9211
B(  1-C , 10-H ) :   0.9241 B(  2-C ,  3-O ) :   1.0097 B(  2-C ,  4-C ) :   1.0570
B(  2-C , 11-H ) :   0.9097 B(  3-O , 12-H ) :   0.9826 B(  4-C ,  5-C ) :   1.1177
B(  4-C , 13-H ) :   0.9212 B(  4-C , 14-H ) :   0.9234 B(  5-C , 15-H ) :   0.9639
B(  5-C , 16-H ) :   0.9609 B(  5-C , 17-H ) :   0.9558

FINAL SINGLE POINT ENERGY      -272.413941336274

DIPOLE MOMENT
-------------
                                X             Y             Z
Electronic contribution:     -1.23249      -2.08105       0.15504
Nuclear contribution   :      1.57110       2.25047      -0.57453
                        -----------------------------------------
Total Dipole Moment    :      0.33861       0.16942      -0.41949
                        -----------------------------------------
Magnitude (a.u.)       :      0.56509
Magnitude (Debye)      :      1.43635

                             ****ORCA TERMINATED NORMALLY****
TOTAL RUN TIME: 0 days 0 hours 0 minutes 6 seconds 773 msec
