                         Program Version 3.0.3 - RELEASE   -
|  1> ! RI PBE def2-SVP def2-SVP/J NBO PAL2
|  2> % maxcore 2000
|  3> % output
|  4>     # printlevel mini
|  5>     print[ P_Basis ] 0
|  6>     print[ P_SCFInfo ] 1
|  7>     print[ P_SCFIterInfo ] 1
|  8>     print[ P_OrbEn ] 0
|  9>     print[ P_Cartesian ] 0
| 10> end
| 11> *xyz 0 1
| 12>  C        1.4692590000     0.5811050000    -0.4640820000
| 13>  C        2.7780860000    -0.1717000000    -0.3000310000
| 14>  C        3.3061210000    -0.1268120000     1.1246080000
| 15>  O        2.3680080000    -0.6590920000     2.0539370000
| 16>  C        4.6364650000    -0.7892770000     1.3330340000
| 17>  C        5.3875950000    -1.3761320000     0.4113510000
| 18>  H        1.0965170000     0.5038870000    -1.4876550000
| 19>  H        1.5958520000     1.6430020000    -0.2355430000
| 20>  H        0.7060060000     0.1874320000     0.2089440000
| 21>  H        3.5358190000     0.2497030000    -0.9684340000
| 22>  H        2.6497420000    -1.2197660000    -0.5970710000
| 23>  H        3.4027820000     0.9254590000     1.4225430000
| 24>  H        2.3426080000    -1.6122070000     1.9237340000
| 25>  H        4.9675480000    -0.7860490000     2.3696810000
| 26>  H        5.1017100000    -1.4089350000    -0.6342090000
| 27>  H        6.3299920000    -1.8436260000     0.6727930000
| 28> *
| 29>
| 30>                          ****END OF INPUT****
 Total Charge           Charge          ....    0
 Multiplicity           Mult            ....    1
 Number of Electrons    NEL             ....   48
 Basis Dimension        Dim             ....  134

MULLIKEN ATOMIC CHARGES
-----------------------
   0 C :    0.000878
   1 C :   -0.039247
   2 C :    0.155040
   3 O :   -0.281113
   4 C :   -0.099847
   5 C :   -0.023926
   6 H :    0.017740
   7 H :    0.017520
   8 H :    0.020859
   9 H :    0.019655
  10 H :    0.002660
  11 H :    0.007736
  12 H :    0.148924
  13 H :    0.006728
  14 H :    0.023355
  15 H :    0.023038
Sum of atomic charges:   -0.0000000

LOEWDIN ATOMIC CHARGES
----------------------
   0 C :   -0.066511
   1 C :   -0.059716
   2 C :    0.041812
   3 O :   -0.106876
   4 C :   -0.048565
   5 C :   -0.059515
   6 H :    0.025793
   7 H :    0.026331
   8 H :    0.024961
   9 H :    0.028725
  10 H :    0.020288
  11 H :    0.030581
  12 H :    0.066097
  13 H :    0.027506
  14 H :    0.022248
  15 H :    0.026841

  Mayer bond orders larger than 0.1
B(  0-C ,  1-C ) :   1.1164 B(  0-C ,  6-H ) :   0.9610 B(  0-C ,  7-H ) :   0.9635
B(  0-C ,  8-H ) :   0.9570 B(  1-C ,  2-C ) :   1.0720 B(  1-C ,  9-H ) :   0.9153
B(  1-C , 10-H ) :   0.9170 B(  2-C ,  3-O ) :   0.9968 B(  2-C ,  4-C ) :   1.0216
B(  2-C , 11-H ) :   0.8862 B(  3-O , 12-H ) :   0.9849 B(  4-C ,  5-C ) :   1.9959
B(  4-C , 13-H ) :   0.9549 B(  5-C , 14-H ) :   0.9314 B(  5-C , 15-H ) :   0.9367

FINAL SINGLE POINT ENERGY      -271.186942725054

DIPOLE MOMENT
-------------
                                X             Y             Z
Electronic contribution:      1.07458      -1.12322       3.76122
Nuclear contribution   :     -0.85201       0.82398      -4.09725
                        -----------------------------------------
Total Dipole Moment    :      0.22257      -0.29924      -0.33603
                        -----------------------------------------
Magnitude (a.u.)       :      0.50200
Magnitude (Debye)      :      1.27597

                             ****ORCA TERMINATED NORMALLY****
TOTAL RUN TIME: 0 days 0 hours 0 minutes 6 seconds 10 msec
