                         Program Version 3.0.3 - RELEASE   -
|  1> ! RI PBE def2-SVP def2-SVP/J NBO PAL2
|  2> % maxcore 2000
|  3> % output
|  4>     # printlevel mini
|  5>     print[ P_Basis ] 0
|  6>     print[ P_SCFInfo ] 1
|  7>     print[ P_SCFIterInfo ] 1
|  8>     print[ P_OrbEn ] 0
|  9>     print[ P_Cartesian ] 0
| 10> end
| 11> *xyz 0 1
| 12>  C        1.0155110000     0.0422960000     0.1189790000
| 13>  C        2.5237370000     0.0204480000    -0.0514650000
| 14>  C        3.0561800000     1.1569820000    -0.9232440000
| 15>  O        4.4706070000     1.2133530000    -0.9072410000
| 16>  C        2.5422170000     1.0779430000    -2.2913270000
| 17>  C        2.1439370000     0.9773410000    -3.4197600000
| 18>  H        0.6852410000    -0.7752340000     0.7626040000
| 19>  H        0.5061940000    -0.0589930000    -0.8418390000
| 20>  H        0.6833360000     0.9785240000     0.5763910000
| 21>  H        2.8430500000    -0.9310320000    -0.4905640000
| 22>  H        3.0234010000     0.1115910000     0.9169120000
| 23>  H        2.7307860000     2.1094760000    -0.4896900000
| 24>  H        4.8023650000     0.4890270000    -1.4461660000
| 25>  H        1.7914190000     0.9027880000    -4.4214800000
| 26> *
| 27>
| 28>                          ****END OF INPUT****
 Total Charge           Charge          ....    0
 Multiplicity           Mult            ....    1
 Number of Electrons    NEL             ....   46
 Basis Dimension        Dim             ....  124

MULLIKEN ATOMIC CHARGES
-----------------------
   0 C :   -0.028850
   1 C :   -0.006937
   2 C :    0.161465
   3 O :   -0.262765
   4 C :    0.352279
   5 C :   -0.500556
   6 H :    0.026372
   7 H :    0.034593
   8 H :    0.019908
   9 H :    0.004316
  10 H :    0.019934
  11 H :    0.021717
  12 H :    0.156289
  13 H :    0.002234
Sum of atomic charges:    0.0000000

LOEWDIN ATOMIC CHARGES
----------------------
   0 C :   -0.065592
   1 C :   -0.049302
   2 C :    0.036926
   3 O :   -0.096768
   4 C :   -0.034909
   5 C :   -0.077483
   6 H :    0.030554
   7 H :    0.029989
   8 H :    0.026674
   9 H :    0.023024
  10 H :    0.029233
  11 H :    0.040822
  12 H :    0.070403
  13 H :    0.036430

  Mayer bond orders larger than 0.1
B(  0-C ,  1-C ) :   1.0940 B(  0-C ,  6-H ) :   0.9577 B(  0-C ,  7-H ) :   0.9632
B(  0-C ,  8-H ) :   0.9649 B(  1-C ,  2-C ) :   1.0512 B(  1-C ,  9-H ) :   0.9264
B(  1-C , 10-H ) :   0.9264 B(  2-C ,  3-O ) :   1.0403 B(  2-C ,  4-C ) :   0.9735
B(  2-C , 11-H ) :   0.8762 B(  3-O , 12-H ) :   0.9816 B(  4-C ,  5-C ) :   2.3393
B(  4-C , 13-H ) :  -0.1142 B(  5-C , 13-H ) :   1.1042

FINAL SINGLE POINT ENERGY      -269.941595637222

DIPOLE MOMENT
-------------
                                X             Y             Z
Electronic contribution:      3.71674       2.38589      -3.84864
Nuclear contribution   :     -3.96952      -2.83747       3.72740
                        -----------------------------------------
Total Dipole Moment    :     -0.25278      -0.45158      -0.12124
                        -----------------------------------------
Magnitude (a.u.)       :      0.53152
Magnitude (Debye)      :      1.35103

                             ****ORCA TERMINATED NORMALLY****
TOTAL RUN TIME: 0 days 0 hours 0 minutes 6 seconds 57 msec
