                         Program Version 3.0.3 - RELEASE   -
|  1> ! RI PBE def2-SVP def2-SVP/J NBO PAL2
|  2> % maxcore 2000
|  3> % output
|  4>     # printlevel mini
|  5>     print[ P_Basis ] 0
|  6>     print[ P_SCFInfo ] 1
|  7>     print[ P_SCFIterInfo ] 1
|  8>     print[ P_OrbEn ] 0
|  9>     print[ P_Cartesian ] 0
| 10> end
| 11> *xyz 0 1
| 12>  C        0.5408740000     0.1381100000    -0.9244420000
| 13>  C        2.0566760000     0.2238480000    -0.8825840000
| 14>  C        2.5834470000     0.1819380000     0.5315170000
| 15>  O        3.9940870000     0.2658440000     0.4903620000
| 16>  C        4.6416280000     0.2430830000     1.6676440000
| 17>  C        4.1260510000     0.1505490000     2.8904000000
| 18>  H        0.1743030000     0.1694820000    -1.9520110000
| 19>  H        0.0785890000     0.9686770000    -0.3837640000
| 20>  H        0.1806060000    -0.7909130000    -0.4738800000
| 21>  H        2.3989550000     1.1480820000    -1.3576730000
| 22>  H        2.5003940000    -0.6015390000    -1.4473180000
| 23>  H        2.2857220000    -0.7496740000     1.0319190000
| 24>  H        2.1832650000     1.0171660000     1.1224410000
| 25>  H        5.7124400000     0.3134550000     1.5059420000
| 26>  H        3.0660010000     0.0788420000     3.0901950000
| 27>  H        4.7990520000     0.1462400000     3.7363520000
| 28> *
| 29>
| 30>                          ****END OF INPUT****
 Total Charge           Charge          ....    0
 Multiplicity           Mult            ....    1
 Number of Electrons    NEL             ....   48
 Basis Dimension        Dim             ....  134

MULLIKEN ATOMIC CHARGES
-----------------------
   0 C :   -0.034199
   1 C :   -0.034731
   2 C :    0.120939
   3 O :   -0.255211
   4 C :    0.106094
   5 C :   -0.123348
   6 H :    0.026539
   7 H :    0.022949
   8 H :    0.021163
   9 H :    0.022838
  10 H :    0.024370
  11 H :    0.018096
  12 H :    0.020403
  13 H :    0.014609
  14 H :    0.025963
  15 H :    0.023527
Sum of atomic charges:   -0.0000000

LOEWDIN ATOMIC CHARGES
----------------------
   0 C :   -0.063174
   1 C :   -0.053350
   2 C :    0.066988
   3 O :   -0.064468
   4 C :    0.030899
   5 C :   -0.161312
   6 H :    0.030616
   7 H :    0.026049
   8 H :    0.025688
   9 H :    0.028755
  10 H :    0.029191
  11 H :    0.013487
  12 H :    0.014092
  13 H :    0.023298
  14 H :    0.021712
  15 H :    0.031529

  Mayer bond orders larger than 0.1
B(  0-C ,  1-C ) :   1.1030 B(  0-C ,  6-H ) :   0.9632 B(  0-C ,  7-H ) :   0.9673
B(  0-C ,  8-H ) :   0.9676 B(  1-C ,  2-C ) :   1.0788 B(  1-C ,  9-H ) :   0.9369
B(  1-C , 10-H ) :   0.9365 B(  2-C ,  3-O ) :   0.9800 B(  2-C , 11-H ) :   0.9340
B(  2-C , 12-H ) :   0.9337 B(  3-O ,  4-C ) :   1.1647 B(  3-O ,  5-C ) :   0.1047
B(  4-C ,  5-C ) :   1.8569 B(  4-C , 13-H ) :   0.9651 B(  5-C , 14-H ) :   0.9549
B(  5-C , 15-H ) :   0.9369

FINAL SINGLE POINT ENERGY      -271.187384880668

DIPOLE MOMENT
-------------
                                X             Y             Z
Electronic contribution:      5.43473       0.26327       1.00758
Nuclear contribution   :     -5.82610      -0.28070      -1.11452
                        -----------------------------------------
Total Dipole Moment    :     -0.39138      -0.01743      -0.10695
                        -----------------------------------------
Magnitude (a.u.)       :      0.40610
Magnitude (Debye)      :      1.03222

                             ****ORCA TERMINATED NORMALLY****
TOTAL RUN TIME: 0 days 0 hours 0 minutes 6 seconds 183 msec
