                         Program Version 3.0.3 - RELEASE   -
|  1> ! RI PBE def2-SVP def2-SVP/J NBO PAL2
|  2> % maxcore 2000
|  3> % output
|  4>     # printlevel mini
|  5>     print[ P_Basis ] 0
|  6>     print[ P_SCFInfo ] 1
|  7>     print[ P_SCFIterInfo ] 1
|  8>     print[ P_OrbEn ] 0
|  9>     print[ P_Cartesian ] 0
| 10> end
| 11> *xyz 0 1
| 12>  C        0.8745290000     0.0242410000    -0.0355960000
| 13>  C        2.2056950000     0.0970030000     0.0052840000
| 14>  C        2.8631720000     1.1811030000     0.7594190000
| 15>  O        4.0555430000     1.3189830000     0.8469060000
| 16>  C        3.0511140000    -0.9061260000    -0.7035010000
| 17>  O        2.5937200000    -1.8189930000    -1.3397090000
| 18>  H        0.2561540000     0.7527180000     0.4791810000
| 19>  H        0.3848480000    -0.7701160000    -0.5881110000
| 20>  H        2.1648330000     1.8866120000     1.2586700000
| 21>  H        4.1398100000    -0.7531060000    -0.6049430000
| 22> *
| 23>
| 24>                          ****END OF INPUT****
 Total Charge           Charge          ....    0
 Multiplicity           Mult            ....    1
 Number of Electrons    NEL             ....   44
 Basis Dimension        Dim             ....  104

MULLIKEN ATOMIC CHARGES
-----------------------
   0 C :    0.040904
   1 C :   -0.146796
   2 C :    0.144823
   3 O :   -0.144995
   4 C :    0.157145
   5 O :   -0.146548
   6 H :    0.046143
   7 H :    0.058592
   8 H :   -0.016886
   9 H :    0.007618
Sum of atomic charges:   -0.0000000

LOEWDIN ATOMIC CHARGES
----------------------
   0 C :    0.071059
   1 C :   -0.132959
   2 C :    0.084498
   3 O :   -0.096607
   4 C :    0.100631
   5 O :   -0.094505
   6 H :    0.035133
   7 H :    0.039988
   8 H :   -0.007393
   9 H :    0.000156

  Mayer bond orders larger than 0.1
B(  0-C ,  1-C ) :   1.8561 B(  0-C ,  6-H ) :   0.9346 B(  0-C ,  7-H ) :   0.9250
B(  1-C ,  2-C ) :   0.9731 B(  1-C ,  4-C ) :   0.9446 B(  2-C ,  3-O ) :   2.1471
B(  2-C ,  8-H ) :   0.9287 B(  4-C ,  5-O ) :   2.1682 B(  4-C ,  9-H ) :   0.9399

FINAL SINGLE POINT ENERGY      -304.654292721538

DIPOLE MOMENT
-------------
                                X             Y             Z
Electronic contribution:      2.39224      -0.71602      -0.51943
Nuclear contribution   :     -3.34638       1.13489       0.81998
                        -----------------------------------------
Total Dipole Moment    :     -0.95414       0.41887       0.30055
                        -----------------------------------------
Magnitude (a.u.)       :      1.08452
Magnitude (Debye)      :      2.75662

                             ****ORCA TERMINATED NORMALLY****
TOTAL RUN TIME: 0 days 0 hours 0 minutes 4 seconds 986 msec
