                         Program Version 3.0.3 - RELEASE   -
|  1> ! RI PBE def2-SVP def2-SVP/J NBO PAL2
|  2> % maxcore 2000
|  3> % output
|  4>     # printlevel mini
|  5>     print[ P_Basis ] 0
|  6>     print[ P_SCFInfo ] 1
|  7>     print[ P_SCFIterInfo ] 1
|  8>     print[ P_OrbEn ] 0
|  9>     print[ P_Cartesian ] 0
| 10> end
| 11> *xyz 0 1
| 12>  C        1.2515460000    -0.0288860000    -0.1303050000
| 13>  C        1.6898490000     1.0145180000     0.5721750000
| 14>  C        3.0946760000     1.3352950000     0.8426650000
| 15>  O        3.4155980000     2.3069130000     1.4922930000
| 16>  C        4.2638510000     0.4827740000     0.3331440000
| 17>  O        4.1894620000    -0.5144640000    -0.3245670000
| 18>  H        1.9301830000    -0.7464180000    -0.5714020000
| 19>  H        0.1878160000    -0.1811860000    -0.2756140000
| 20>  H        0.9969800000     1.7275200000     1.0097150000
| 21>  H        5.2304510000     0.9183340000     0.6591960000
| 22> *
| 23>
| 24>                          ****END OF INPUT****
 Total Charge           Charge          ....    0
 Multiplicity           Mult            ....    1
 Number of Electrons    NEL             ....   44
 Basis Dimension        Dim             ....  104

MULLIKEN ATOMIC CHARGES
-----------------------
   0 C :    0.020526
   1 C :   -0.048081
   2 C :    0.026180
   3 O :   -0.142318
   4 C :    0.134170
   5 O :   -0.114903
   6 H :    0.056414
   7 H :    0.044786
   8 H :    0.019377
   9 H :    0.003850
Sum of atomic charges:   -0.0000000

LOEWDIN ATOMIC CHARGES
----------------------
   0 C :    0.024943
   1 C :   -0.059134
   2 C :    0.004108
   3 O :   -0.085399
   4 C :    0.077988
   5 O :   -0.068525
   6 H :    0.031990
   7 H :    0.034414
   8 H :    0.039694
   9 H :   -0.000080

  Mayer bond orders larger than 0.1
B(  0-C ,  1-C ) :   1.8707 B(  0-C ,  3-O ) :   0.1035 B(  0-C ,  6-H ) :   0.9300
B(  0-C ,  7-H ) :   0.9351 B(  1-C ,  2-C ) :   1.0637 B(  1-C ,  8-H ) :   0.9520
B(  2-C ,  3-O ) :   2.0469 B(  2-C ,  4-C ) :   0.8742 B(  4-C ,  5-O ) :   2.1597
B(  4-C ,  9-H ) :   0.9072

FINAL SINGLE POINT ENERGY      -304.649709650075

DIPOLE MOMENT
-------------
                                X             Y             Z
Electronic contribution:      2.91121       1.00392       0.78246
Nuclear contribution   :     -3.47579      -1.24448      -0.96350
                        -----------------------------------------
Total Dipole Moment    :     -0.56458      -0.24056      -0.18104
                        -----------------------------------------
Magnitude (a.u.)       :      0.63984
Magnitude (Debye)      :      1.62635

                             ****ORCA TERMINATED NORMALLY****
TOTAL RUN TIME: 0 days 0 hours 0 minutes 4 seconds 878 msec
