                         Program Version 3.0.3 - RELEASE   -
|  1> ! RI PBE def2-SVP def2-SVP/J NBO PAL2
|  2> % maxcore 2000
|  3> % output
|  4>     # printlevel mini
|  5>     print[ P_Basis ] 0
|  6>     print[ P_SCFInfo ] 1
|  7>     print[ P_SCFIterInfo ] 1
|  8>     print[ P_OrbEn ] 0
|  9>     print[ P_Cartesian ] 0
| 10> end
| 11> *xyz 0 1
| 12>  C        0.9918980000    -0.9340520000     0.7946790000
| 13>  C        1.8373310000     0.0497410000     0.5290760000
| 14>  C        2.4749730000     0.2484980000    -0.8030620000
| 15>  O        3.9113980000     0.2512720000    -0.6904790000
| 16>  C        4.5231700000    -0.9207080000    -0.8589030000
| 17>  O        4.0029890000    -1.9634080000    -1.1253390000
| 18>  H        0.5270110000    -1.0350950000     1.7684580000
| 19>  H        0.7382460000    -1.6766350000     0.0451530000
| 20>  H        2.0946760000     0.7765720000     1.2956120000
| 21>  H        2.2340200000     1.2322750000    -1.2110500000
| 22>  H        2.1661270000    -0.5252460000    -1.5066000000
| 23>  H        5.6055510000    -0.7787150000    -0.7225450000
| 24> *
| 25>
| 26>                          ****END OF INPUT****
 Total Charge           Charge          ....    0
 Multiplicity           Mult            ....    1
 Number of Electrons    NEL             ....   46
 Basis Dimension        Dim             ....  114

MULLIKEN ATOMIC CHARGES
-----------------------
   0 C :   -0.012846
   1 C :   -0.116974
   2 C :    0.223070
   3 O :   -0.252768
   4 C :    0.202048
   5 O :   -0.202678
   6 H :    0.033622
   7 H :    0.036609
   8 H :    0.019975
   9 H :    0.031392
  10 H :    0.029222
  11 H :    0.009328
Sum of atomic charges:   -0.0000000

LOEWDIN ATOMIC CHARGES
----------------------
   0 C :   -0.032576
   1 C :   -0.049037
   2 C :    0.072672
   3 O :   -0.062243
   4 C :    0.071014
   5 O :   -0.140950
   6 H :    0.029266
   7 H :    0.029847
   8 H :    0.029932
   9 H :    0.032546
  10 H :    0.023316
  11 H :   -0.003785

  Mayer bond orders larger than 0.1
B(  0-C ,  1-C ) :   2.0104 B(  0-C ,  6-H ) :   0.9447 B(  0-C ,  7-H ) :   0.9472
B(  1-C ,  2-C ) :   1.0758 B(  1-C ,  8-H ) :   0.9568 B(  2-C ,  3-O ) :   0.9043
B(  2-C ,  9-H ) :   0.9278 B(  2-C , 10-H ) :   0.9296 B(  3-O ,  4-C ) :   1.2002
B(  3-O ,  5-O ) :   0.1057 B(  4-C ,  5-O ) :   2.0575 B(  4-C , 11-H ) :   0.9322

FINAL SINGLE POINT ENERGY      -305.867560667551

DIPOLE MOMENT
-------------
                                X             Y             Z
Electronic contribution:      4.04441      -0.63736      -1.67705
Nuclear contribution   :     -4.31043       1.25419       1.86109
                        -----------------------------------------
Total Dipole Moment    :     -0.26602       0.61683       0.18404
                        -----------------------------------------
Magnitude (a.u.)       :      0.69650
Magnitude (Debye)      :      1.77037

                             ****ORCA TERMINATED NORMALLY****
TOTAL RUN TIME: 0 days 0 hours 0 minutes 5 seconds 404 msec
