                         Program Version 3.0.3 - RELEASE   -
|  1> ! RI PBE def2-SVP def2-SVP/J NBO PAL2
|  2> % maxcore 2000
|  3> % output
|  4>     # printlevel mini
|  5>     print[ P_Basis ] 0
|  6>     print[ P_SCFInfo ] 1
|  7>     print[ P_SCFIterInfo ] 1
|  8>     print[ P_OrbEn ] 0
|  9>     print[ P_Cartesian ] 0
| 10> end
| 11> *xyz 0 1
| 12>  C        0.5969900000    -0.2517400000    -0.5004920000
| 13>  C        1.9275600000     0.1178740000     0.0546710000
| 14>  C        2.9320430000    -0.7350450000     0.1650550000
| 15>  O        4.1361460000    -0.3127710000     0.6914440000
| 16>  C        5.1300240000    -1.2099360000     0.7856600000
| 17>  O        5.0812120000    -2.3556940000     0.4560240000
| 18>  H       -0.1964710000    -0.0813990000     0.2335530000
| 19>  H        0.5637060000    -1.3012980000    -0.7981010000
| 20>  H        0.3531890000     0.3575970000    -1.3760990000
| 21>  H        2.0799970000     1.1415130000     0.3859090000
| 22>  H        2.9032260000    -1.7767380000    -0.1289080000
| 23>  H        6.0073680000    -0.7124750000     1.2210530000
| 24> *
| 25>
| 26>                          ****END OF INPUT****
 Total Charge           Charge          ....    0
 Multiplicity           Mult            ....    1
 Number of Electrons    NEL             ....   46
 Basis Dimension        Dim             ....  114

MULLIKEN ATOMIC CHARGES
-----------------------
   0 C :    0.020769
   1 C :   -0.101252
   2 C :    0.102632
   3 O :   -0.197577
   4 C :    0.218225
   5 O :   -0.194426
   6 H :    0.043049
   7 H :    0.025089
   8 H :    0.040445
   9 H :    0.015693
  10 H :    0.018864
  11 H :    0.008489
Sum of atomic charges:   -0.0000000

LOEWDIN ATOMIC CHARGES
----------------------
   0 C :   -0.059204
   1 C :   -0.057016
   2 C :    0.029171
   3 O :   -0.022016
   4 C :    0.078592
   5 O :   -0.130876
   6 H :    0.039661
   7 H :    0.033867
   8 H :    0.039345
   9 H :    0.032183
  10 H :    0.018247
  11 H :   -0.001952

  Mayer bond orders larger than 0.1
B(  0-C ,  1-C ) :   1.0985 B(  0-C ,  6-H ) :   0.9472 B(  0-C ,  7-H ) :   0.9617
B(  0-C ,  8-H ) :   0.9466 B(  1-C ,  2-C ) :   1.8610 B(  1-C ,  9-H ) :   0.9532
B(  2-C ,  3-O ) :   1.0093 B(  2-C , 10-H ) :   0.9544 B(  3-O ,  4-C ) :   1.1494
B(  4-C ,  5-O ) :   2.0573 B(  4-C , 11-H ) :   0.9393

FINAL SINGLE POINT ENERGY      -305.877466965726

DIPOLE MOMENT
-------------
                                X             Y             Z
Electronic contribution:      7.24700      -1.74325       1.99632
Nuclear contribution   :     -7.70347       2.33900      -1.99166
                        -----------------------------------------
Total Dipole Moment    :     -0.45647       0.59576       0.00466
                        -----------------------------------------
Magnitude (a.u.)       :      0.75054
Magnitude (Debye)      :      1.90772

                             ****ORCA TERMINATED NORMALLY****
TOTAL RUN TIME: 0 days 0 hours 0 minutes 5 seconds 144 msec
