                         Program Version 3.0.3 - RELEASE   -
|  1> ! RI PBE def2-SVP def2-SVP/J NBO PAL2
|  2> % maxcore 2000
|  3> % output
|  4>     # printlevel mini
|  5>     print[ P_Basis ] 0
|  6>     print[ P_SCFInfo ] 1
|  7>     print[ P_SCFIterInfo ] 1
|  8>     print[ P_OrbEn ] 0
|  9>     print[ P_Cartesian ] 0
| 10> end
| 11> *xyz 0 1
| 12>  C        0.4564920000     0.8128120000    -1.1120250000
| 13>  C        1.7964920000     0.5358210000    -0.5012310000
| 14>  C        2.9056290000     0.3006640000    -1.1895310000
| 15>  O        1.6867230000     0.5651880000     0.8832670000
| 16>  C        2.6983680000     0.3600840000     1.7407270000
| 17>  O        3.8387380000     0.1225680000     1.4885490000
| 18>  H        0.4919400000     1.7029930000    -1.7426700000
| 19>  H       -0.2896840000     0.9740630000    -0.3352280000
| 20>  H        0.1298900000    -0.0242010000    -1.7318290000
| 21>  H        2.8324900000     0.3107840000    -2.2702100000
| 22>  H        3.8596030000     0.1034520000    -0.7317260000
| 23>  H        2.2900180000     0.4499720000     2.7582070000
| 24> *
| 25>
| 26>                          ****END OF INPUT****
 Total Charge           Charge          ....    0
 Multiplicity           Mult            ....    1
 Number of Electrons    NEL             ....   46
 Basis Dimension        Dim             ....  114

MULLIKEN ATOMIC CHARGES
-----------------------
   0 C :    0.025084
   1 C :   -0.027174
   2 C :   -0.046949
   3 O :   -0.205867
   4 C :    0.222648
   5 O :   -0.180670
   6 H :    0.051335
   7 H :    0.033028
   8 H :    0.051808
   9 H :    0.018143
  10 H :    0.049188
  11 H :    0.009426
Sum of atomic charges:   -0.0000000

LOEWDIN ATOMIC CHARGES
----------------------
   0 C :   -0.067511
   1 C :    0.032901
   2 C :   -0.097696
   3 O :   -0.025829
   4 C :    0.086895
   5 O :   -0.115445
   6 H :    0.044973
   7 H :    0.037914
   8 H :    0.044903
   9 H :    0.031315
  10 H :    0.030218
  11 H :   -0.002639

  Mayer bond orders larger than 0.1
B(  0-C ,  1-C ) :   1.0677 B(  0-C ,  6-H ) :   0.9533 B(  0-C ,  7-H ) :   0.9475
B(  0-C ,  8-H ) :   0.9538 B(  1-C ,  2-C ) :   1.9397 B(  1-C ,  3-O ) :   1.0264
B(  2-C ,  9-H ) :   0.9267 B(  2-C , 10-H ) :   0.9219 B(  3-O ,  4-C ) :   1.1438
B(  4-C ,  5-O ) :   2.0692 B(  4-C , 11-H ) :   0.9340

FINAL SINGLE POINT ENERGY      -305.872953223601

DIPOLE MOMENT
-------------
                                X             Y             Z
Electronic contribution:      3.03999      -0.60998       4.93038
Nuclear contribution   :     -3.81047       0.76717      -5.15496
                        -----------------------------------------
Total Dipole Moment    :     -0.77047       0.15719      -0.22458
                        -----------------------------------------
Magnitude (a.u.)       :      0.81778
Magnitude (Debye)      :      2.07864

                             ****ORCA TERMINATED NORMALLY****
TOTAL RUN TIME: 0 days 0 hours 0 minutes 5 seconds 269 msec
