                         Program Version 3.0.3 - RELEASE   -
|  1> ! RI PBE def2-SVP def2-SVP/J NBO PAL2
|  2> % maxcore 2000
|  3> % output
|  4>     # printlevel mini
|  5>     print[ P_Basis ] 0
|  6>     print[ P_SCFInfo ] 1
|  7>     print[ P_SCFIterInfo ] 1
|  8>     print[ P_OrbEn ] 0
|  9>     print[ P_Cartesian ] 0
| 10> end
| 11> *xyz 0 1
| 12>  C        1.1475310000     0.0800750000    -0.2305390000
| 13>  C        2.5993000000    -0.0381780000     0.1771500000
| 14>  C        3.0243580000     0.9724590000     1.2233860000
| 15>  O        4.1661010000     1.1745720000     1.5270720000
| 16>  C        2.9633320000    -1.4193090000     0.6982490000
| 17>  O        2.1990080000    -2.3396920000     0.7297010000
| 18>  H        0.9389330000     1.0663640000    -0.6496990000
| 19>  H        0.4890760000    -0.0780110000     0.6261370000
| 20>  H        0.8938770000    -0.6742210000    -0.9749990000
| 21>  H        3.2809780000     0.1232390000    -0.6697220000
| 22>  H        2.1906120000     1.5108650000     1.7235430000
| 23>  H        4.0089720000    -1.5122620000     1.0528110000
| 24> *
| 25>
| 26>                          ****END OF INPUT****
 Total Charge           Charge          ....    0
 Multiplicity           Mult            ....    1
 Number of Electrons    NEL             ....   46
 Basis Dimension        Dim             ....  114

MULLIKEN ATOMIC CHARGES
-----------------------
   0 C :    0.016389
   1 C :   -0.146308
   2 C :    0.100769
   3 O :   -0.150602
   4 C :    0.112174
   5 O :   -0.136496
   6 H :    0.030292
   7 H :    0.040337
   8 H :    0.041206
   9 H :    0.069177
  10 H :    0.007020
  11 H :    0.016042
Sum of atomic charges:   -0.0000000

LOEWDIN ATOMIC CHARGES
----------------------
   0 C :   -0.056964
   1 C :   -0.128075
   2 C :    0.096527
   3 O :   -0.096793
   4 C :    0.105928
   5 O :   -0.086775
   6 H :    0.032420
   7 H :    0.035965
   8 H :    0.038918
   9 H :    0.065765
  10 H :   -0.005627
  11 H :   -0.001289

  Mayer bond orders larger than 0.1
B(  0-C ,  1-C ) :   1.0638 B(  0-C ,  6-H ) :   0.9602 B(  0-C ,  7-H ) :   0.9601
B(  0-C ,  8-H ) :   0.9521 B(  1-C ,  2-C ) :   0.8969 B(  1-C ,  4-C ) :   0.9013
B(  1-C ,  9-H ) :   0.8770 B(  2-C ,  3-O ) :   2.1645 B(  2-C , 10-H ) :   0.9347
B(  4-C ,  5-O ) :   2.1986 B(  4-C , 11-H ) :   0.9305

FINAL SINGLE POINT ENERGY      -305.870091569874

DIPOLE MOMENT
-------------
                                X             Y             Z
Electronic contribution:      3.63689      -1.49409       2.40290
Nuclear contribution   :     -3.99379       1.90785      -2.84864
                        -----------------------------------------
Total Dipole Moment    :     -0.35690       0.41376      -0.44573
                        -----------------------------------------
Magnitude (a.u.)       :      0.70516
Magnitude (Debye)      :      1.79238

                             ****ORCA TERMINATED NORMALLY****
TOTAL RUN TIME: 0 days 0 hours 0 minutes 5 seconds 123 msec
