                         Program Version 3.0.3 - RELEASE   -
|  1> ! RI PBE def2-SVP def2-SVP/J NBO PAL2
|  2> % maxcore 2000
|  3> % output
|  4>     # printlevel mini
|  5>     print[ P_Basis ] 0
|  6>     print[ P_SCFInfo ] 1
|  7>     print[ P_SCFIterInfo ] 1
|  8>     print[ P_OrbEn ] 0
|  9>     print[ P_Cartesian ] 0
| 10> end
| 11> *xyz 0 1
| 12>  C        1.0943830000    -0.0338420000    -0.0269630000
| 13>  C        2.6013450000     0.1408110000    -0.1144570000
| 14>  C        2.9943370000     1.6087260000    -0.1128080000
| 15>  O        3.2385100000    -0.5377850000     0.9726390000
| 16>  C        3.1410800000    -0.5745160000    -1.3501620000
| 17>  O        4.5427830000    -0.5443090000    -1.4167510000
| 18>  H        0.7004810000     0.4602370000     0.8655900000
| 19>  H        0.8371770000    -1.0934020000     0.0283290000
| 20>  H        0.5957550000     0.4024700000    -0.8963910000
| 21>  H        2.6914640000     2.0866530000     0.8245060000
| 22>  H        2.5047420000     2.1445210000    -0.9292070000
| 23>  H        4.0735290000     1.7129880000    -0.2305810000
| 24>  H        3.1248230000    -0.0147940000     1.7702960000
| 25>  H        2.7623010000    -0.0890110000    -2.2527990000
| 26>  H        2.7680660000    -1.6087210000    -1.3380700000
| 27>  H        4.8539160000    -0.8407370000    -0.5539710000
| 28> *
| 29>
| 30>                          ****END OF INPUT****
 Total Charge           Charge          ....    0
 Multiplicity           Mult            ....    1
 Number of Electrons    NEL             ....   50
 Basis Dimension        Dim             ....  134

MULLIKEN ATOMIC CHARGES
-----------------------
   0 C :    0.064400
   1 C :   -0.203576
   2 C :    0.067222
   3 O :   -0.272243
   4 C :    0.244508
   5 O :   -0.279967
   6 H :    0.004236
   7 H :    0.021713
   8 H :    0.013967
   9 H :    0.002949
  10 H :    0.012997
  11 H :    0.021221
  12 H :    0.155059
  13 H :    0.001941
  14 H :   -0.006179
  15 H :    0.151752
Sum of atomic charges:   -0.0000000

LOEWDIN ATOMIC CHARGES
----------------------
   0 C :   -0.063987
   1 C :   -0.009200
   2 C :   -0.066074
   3 O :   -0.109562
   4 C :    0.055327
   5 O :   -0.115854
   6 H :    0.023118
   7 H :    0.027501
   8 H :    0.029073
   9 H :    0.019563
  10 H :    0.030996
  11 H :    0.026250
  12 H :    0.067417
  13 H :    0.020334
  14 H :    0.005505
  15 H :    0.059593

  Mayer bond orders larger than 0.1
B(  0-C ,  1-C ) :   1.0509 B(  0-C ,  6-H ) :   0.9483 B(  0-C ,  7-H ) :   0.9521
B(  0-C ,  8-H ) :   0.9497 B(  1-C ,  2-C ) :   1.0550 B(  1-C ,  3-O ) :   1.0095
B(  1-C ,  4-C ) :   0.9954 B(  2-C ,  9-H ) :   0.9499 B(  2-C , 10-H ) :   0.9497
B(  2-C , 11-H ) :   0.9442 B(  3-O , 12-H ) :   0.9777 B(  4-C ,  5-O ) :   1.0873
B(  4-C , 13-H ) :   0.9342 B(  4-C , 14-H ) :   0.9261 B(  5-O , 15-H ) :   0.9657

FINAL SINGLE POINT ENERGY      -308.275253121955

DIPOLE MOMENT
-------------
                                X             Y             Z
Electronic contribution:      3.92176      -2.62794       0.13220
Nuclear contribution   :     -4.46703       2.99271       0.48871
                        -----------------------------------------
Total Dipole Moment    :     -0.54526       0.36477       0.62091
                        -----------------------------------------
Magnitude (a.u.)       :      0.90327
Magnitude (Debye)      :      2.29593

                             ****ORCA TERMINATED NORMALLY****
TOTAL RUN TIME: 0 days 0 hours 0 minutes 6 seconds 251 msec
