                         Program Version 3.0.3 - RELEASE   -
|  1> ! RI PBE def2-SVP def2-SVP/J NBO PAL2
|  2> % maxcore 2000
|  3> % output
|  4>     # printlevel mini
|  5>     print[ P_Basis ] 0
|  6>     print[ P_SCFInfo ] 1
|  7>     print[ P_SCFIterInfo ] 1
|  8>     print[ P_OrbEn ] 0
|  9>     print[ P_Cartesian ] 0
| 10> end
| 11> *xyz 0 1
| 12>  C        0.9221400000    -0.0612030000     0.0074860000
| 13>  C        2.4353550000     0.0149380000     0.1286180000
| 14>  C        2.9487510000     1.4378160000     0.0590650000
| 15>  O        2.7598640000    -0.6060200000     1.3661640000
| 16>  C        3.0254790000    -0.8485060000    -0.9800470000
| 17>  O        3.5630320000    -0.4392280000    -1.9700470000
| 18>  H        0.4690930000     0.4712050000     0.8461210000
| 19>  H        0.5857000000    -1.0997310000     0.0425980000
| 20>  H        0.5846250000     0.3897450000    -0.9270350000
| 21>  H        2.4895770000     2.0367850000     0.8472820000
| 22>  H        2.7223180000     1.8829500000    -0.9102160000
| 23>  H        4.0351660000     1.4659060000     0.1810350000
| 24>  H        3.6899790000    -0.4462180000     1.5520560000
| 25>  H        2.9155220000    -1.9381190000    -0.7825610000
| 26> *
| 27>
| 28>                          ****END OF INPUT****
 Total Charge           Charge          ....    0
 Multiplicity           Mult            ....    1
 Number of Electrons    NEL             ....   48
 Basis Dimension        Dim             ....  124

MULLIKEN ATOMIC CHARGES
-----------------------
   0 C :    0.050971
   1 C :   -0.129006
   2 C :    0.050694
   3 O :   -0.254804
   4 C :    0.111806
   5 O :   -0.143562
   6 H :    0.032799
   7 H :    0.026776
   8 H :    0.030022
   9 H :    0.027267
  10 H :    0.032622
  11 H :    0.015471
  12 H :    0.156084
  13 H :   -0.007138
Sum of atomic charges:    0.0000000

LOEWDIN ATOMIC CHARGES
----------------------
   0 C :   -0.047358
   1 C :   -0.030078
   2 C :   -0.063124
   3 O :   -0.092914
   4 C :    0.077599
   5 O :   -0.100809
   6 H :    0.035406
   7 H :    0.031642
   8 H :    0.034830
   9 H :    0.031006
  10 H :    0.037293
  11 H :    0.026825
  12 H :    0.070780
  13 H :   -0.011098

  Mayer bond orders larger than 0.1
B(  0-C ,  1-C ) :   1.0322 B(  0-C ,  6-H ) :   0.9465 B(  0-C ,  7-H ) :   0.9534
B(  0-C ,  8-H ) :   0.9578 B(  1-C ,  2-C ) :   1.0671 B(  1-C ,  3-O ) :   1.0141
B(  1-C ,  4-C ) :   0.8772 B(  2-C ,  9-H ) :   0.9547 B(  2-C , 10-H ) :   0.9402
B(  2-C , 11-H ) :   0.9499 B(  3-O , 12-H ) :   0.9809 B(  4-C ,  5-O ) :   2.2123
B(  4-C , 13-H ) :   0.9249

FINAL SINGLE POINT ENERGY      -307.073127161313

DIPOLE MOMENT
-------------
                                X             Y             Z
Electronic contribution:      3.15055      -2.97686      -1.82172
Nuclear contribution   :     -3.24081       3.21049       2.34713
                        -----------------------------------------
Total Dipole Moment    :     -0.09026       0.23362       0.52541
                        -----------------------------------------
Magnitude (a.u.)       :      0.58206
Magnitude (Debye)      :      1.47947

                             ****ORCA TERMINATED NORMALLY****
TOTAL RUN TIME: 0 days 0 hours 0 minutes 6 seconds 151 msec
