                         Program Version 3.0.3 - RELEASE   -
|  1> ! RI PBE def2-SVP def2-SVP/J NBO PAL2
|  2> % maxcore 2000
|  3> % output
|  4>     # printlevel mini
|  5>     print[ P_Basis ] 0
|  6>     print[ P_SCFInfo ] 1
|  7>     print[ P_SCFIterInfo ] 1
|  8>     print[ P_OrbEn ] 0
|  9>     print[ P_Cartesian ] 0
| 10> end
| 11> *xyz 0 1
| 12>  C        0.7771890000    -0.1546940000     0.5113360000
| 13>  C        2.2361690000     0.0480560000     0.1669750000
| 14>  C        3.1118340000    -1.1177060000     0.5583130000
| 15>  O        2.3766470000     0.1961370000    -1.2673340000
| 16>  C        2.1782100000     1.4074930000    -1.7740890000
| 17>  O        1.8933080000     2.3985660000    -1.1651870000
| 18>  H        0.6638610000    -0.2792080000     1.5905430000
| 19>  H        0.3889860000    -1.0501470000     0.0197850000
| 20>  H        0.1824600000     0.7062130000     0.2041980000
| 21>  H        2.5968770000     0.9723760000     0.6247380000
| 22>  H        2.7765630000    -2.0346570000     0.0682750000
| 23>  H        3.0670990000    -1.2693920000     1.6386800000
| 24>  H        4.1510630000    -0.9363950000     0.2792790000
| 25>  H        2.3219320000     1.3692490000    -2.8645100000
| 26> *
| 27>
| 28>                          ****END OF INPUT****
 Total Charge           Charge          ....    0
 Multiplicity           Mult            ....    1
 Number of Electrons    NEL             ....   48
 Basis Dimension        Dim             ....  124

MULLIKEN ATOMIC CHARGES
-----------------------
   0 C :   -0.001701
   1 C :    0.023955
   2 C :    0.007326
   3 O :   -0.242595
   4 C :    0.203264
   5 O :   -0.209916
   6 H :    0.030093
   7 H :    0.025039
   8 H :    0.041307
   9 H :    0.026251
  10 H :    0.025231
  11 H :    0.030633
  12 H :    0.033590
  13 H :    0.007525
Sum of atomic charges:   -0.0000000

LOEWDIN ATOMIC CHARGES
----------------------
   0 C :   -0.068191
   1 C :    0.058644
   2 C :   -0.065721
   3 O :   -0.057735
   4 C :    0.068125
   5 O :   -0.148144
   6 H :    0.036043
   7 H :    0.029276
   8 H :    0.034405
   9 H :    0.020020
  10 H :    0.030410
  11 H :    0.035377
  12 H :    0.032677
  13 H :   -0.005187

  Mayer bond orders larger than 0.1
B(  0-C ,  1-C ) :   1.1009 B(  0-C ,  6-H ) :   0.9583 B(  0-C ,  7-H ) :   0.9548
B(  0-C ,  8-H ) :   0.9531 B(  1-C ,  2-C ) :   1.0884 B(  1-C ,  3-O ) :   0.8853
B(  1-C ,  9-H ) :   0.9191 B(  2-C , 10-H ) :   0.9561 B(  2-C , 11-H ) :   0.9594
B(  2-C , 12-H ) :   0.9575 B(  3-O ,  4-C ) :   1.2156 B(  3-O ,  5-O ) :   0.1086
B(  4-C ,  5-O ) :   2.0277 B(  4-C , 13-H ) :   0.9341

FINAL SINGLE POINT ENERGY      -307.100148111148

DIPOLE MOMENT
-------------
                                X             Y             Z
Electronic contribution:      0.65376       5.10724      -4.94280
Nuclear contribution   :     -0.55022      -5.84863       5.17436
                        -----------------------------------------
Total Dipole Moment    :      0.10353      -0.74139       0.23155
                        -----------------------------------------
Magnitude (a.u.)       :      0.78358
Magnitude (Debye)      :      1.99171

                             ****ORCA TERMINATED NORMALLY****
TOTAL RUN TIME: 0 days 0 hours 0 minutes 6 seconds 73 msec
