                         Program Version 3.0.3 - RELEASE   -
|  1> ! RI PBE def2-SVP def2-SVP/J NBO PAL2
|  2> % maxcore 2000
|  3> % output
|  4>     # printlevel mini
|  5>     print[ P_Basis ] 0
|  6>     print[ P_SCFInfo ] 1
|  7>     print[ P_SCFIterInfo ] 1
|  8>     print[ P_OrbEn ] 0
|  9>     print[ P_Cartesian ] 0
| 10> end
| 11> *xyz 0 1
| 12>  C        1.2455370000    -0.2644000000     0.0730950000
| 13>  C        2.6618330000     0.2871890000     0.0005930000
| 14>  C        2.8537470000     1.1000160000    -1.2755020000
| 15>  O        4.1831520000     1.4948300000    -1.5080410000
| 16>  C        2.9536890000     1.1126840000     1.2463280000
| 17>  O        4.2716100000     1.6449080000     1.2932460000
| 18>  H        1.0282210000    -0.9032810000    -0.7854370000
| 19>  H        0.5088300000     0.5449190000     0.0784160000
| 20>  H        1.0916870000    -0.8574270000     0.9779520000
| 21>  H        3.3708420000    -0.5518040000    -0.0319030000
| 22>  H        2.1801910000     1.9730760000    -1.2405900000
| 23>  H        2.5519900000     0.4994130000    -2.1386200000
| 24>  H        4.4964570000     1.8969370000    -0.6879830000
| 25>  H        2.7507080000     0.5194920000     2.1474490000
| 26>  H        2.2880870000     1.9812240000     1.2738400000
| 27>  H        4.8855200000     0.9164150000     1.4215650000
| 28> *
| 29>
| 30>                          ****END OF INPUT****
 Total Charge           Charge          ....    0
 Multiplicity           Mult            ....    1
 Number of Electrons    NEL             ....   50
 Basis Dimension        Dim             ....  134

MULLIKEN ATOMIC CHARGES
-----------------------
   0 C :   -0.010066
   1 C :   -0.206547
   2 C :    0.225930
   3 O :   -0.291422
   4 C :    0.188147
   5 O :   -0.284515
   6 H :    0.028736
   7 H :    0.022553
   8 H :    0.021558
   9 H :    0.006232
  10 H :   -0.017517
  11 H :    0.001168
  12 H :    0.133097
  13 H :    0.006902
  14 H :    0.010733
  15 H :    0.165012
Sum of atomic charges:   -0.0000000

LOEWDIN ATOMIC CHARGES
----------------------
   0 C :   -0.056521
   1 C :   -0.089956
   2 C :    0.059127
   3 O :   -0.130080
   4 C :    0.057709
   5 O :   -0.103779
   6 H :    0.030362
   7 H :    0.027175
   8 H :    0.026527
   9 H :    0.021476
  10 H :    0.000081
  11 H :    0.016665
  12 H :    0.037218
  13 H :    0.008776
  14 H :    0.021939
  15 H :    0.073280

  Mayer bond orders larger than 0.1
B(  0-C ,  1-C ) :   1.0585 B(  0-C ,  6-H ) :   0.9593 B(  0-C ,  7-H ) :   0.9593
B(  0-C ,  8-H ) :   0.9585 B(  1-C ,  2-C ) :   1.0271 B(  1-C ,  4-C ) :   1.0341
B(  1-C ,  9-H ) :   0.8986 B(  2-C ,  3-O ) :   1.0945 B(  2-C , 10-H ) :   0.9225
B(  2-C , 11-H ) :   0.9416 B(  3-O , 12-H ) :   0.9546 B(  4-C ,  5-O ) :   1.0270
B(  4-C , 13-H ) :   0.9477 B(  4-C , 14-H ) :   0.9330 B(  5-O , 12-H ) :   0.1186
B(  5-O , 15-H ) :   0.9756

FINAL SINGLE POINT ENERGY      -308.268359789981

DIPOLE MOMENT
-------------
                                X             Y             Z
Electronic contribution:      4.90314       2.41846      -0.39851
Nuclear contribution   :     -5.23621      -2.99001       1.14501
                        -----------------------------------------
Total Dipole Moment    :     -0.33308      -0.57155       0.74650
                        -----------------------------------------
Magnitude (a.u.)       :      0.99743
Magnitude (Debye)      :      2.53526

                             ****ORCA TERMINATED NORMALLY****
TOTAL RUN TIME: 0 days 0 hours 0 minutes 6 seconds 173 msec
