                         Program Version 3.0.3 - RELEASE   -
|  1> ! RI PBE def2-SVP def2-SVP/J NBO PAL2
|  2> % maxcore 2000
|  3> % output
|  4>     # printlevel mini
|  5>     print[ P_Basis ] 0
|  6>     print[ P_SCFInfo ] 1
|  7>     print[ P_SCFIterInfo ] 1
|  8>     print[ P_OrbEn ] 0
|  9>     print[ P_Cartesian ] 0
| 10> end
| 11> *xyz 0 1
| 12>  C        0.9877730000     0.0450600000     0.3552710000
| 13>  C        2.3218750000     0.0439200000    -0.3853120000
| 14>  C        2.6732490000    -1.3222790000    -0.9568170000
| 15>  O        3.9481760000    -1.3620800000    -1.5425080000
| 16>  C        2.3205660000     1.1091220000    -1.4456580000
| 17>  O        2.6307910000     0.9387310000    -2.5964540000
| 18>  H        1.0227000000    -0.6361540000     1.2073070000
| 19>  H        0.1746040000    -0.2770460000    -0.3005040000
| 20>  H        0.7396330000     1.0394130000     0.7339270000
| 21>  H        3.1128030000     0.3415230000     0.3199480000
| 22>  H        1.8935940000    -1.6199160000    -1.6730050000
| 23>  H        2.6719090000    -2.0604490000    -0.1505600000
| 24>  H        3.9109770000    -0.7807830000    -2.3105220000
| 25>  H        2.0003710000     2.1167380000    -1.1002030000
| 26> *
| 27>
| 28>                          ****END OF INPUT****
 Total Charge           Charge          ....    0
 Multiplicity           Mult            ....    1
 Number of Electrons    NEL             ....   48
 Basis Dimension        Dim             ....  124

MULLIKEN ATOMIC CHARGES
-----------------------
   0 C :   -0.011460
   1 C :   -0.156978
   2 C :    0.202423
   3 O :   -0.283870
   4 C :    0.122856
   5 O :   -0.175962
   6 H :    0.040480
   7 H :    0.032300
   8 H :    0.027464
   9 H :    0.043402
  10 H :   -0.001031
  11 H :    0.010569
  12 H :    0.153869
  13 H :   -0.004063
Sum of atomic charges:   -0.0000000

LOEWDIN ATOMIC CHARGES
----------------------
   0 C :   -0.049313
   1 C :   -0.110027
   2 C :    0.058517
   3 O :   -0.120072
   4 C :    0.108327
   5 O :   -0.110719
   6 H :    0.035198
   7 H :    0.030496
   8 H :    0.029919
   9 H :    0.049821
  10 H :    0.006955
  11 H :    0.022484
  12 H :    0.055421
  13 H :   -0.007006

  Mayer bond orders larger than 0.1
B(  0-C ,  1-C ) :   1.0505 B(  0-C ,  6-H ) :   0.9601 B(  0-C ,  7-H ) :   0.9639
B(  0-C ,  8-H ) :   0.9558 B(  1-C ,  2-C ) :   1.0151 B(  1-C ,  4-C ) :   0.9404
B(  1-C ,  9-H ) :   0.8695 B(  2-C ,  3-O ) :   1.0918 B(  2-C , 10-H ) :   0.9330
B(  2-C , 11-H ) :   0.9387 B(  3-O , 12-H ) :   0.9693 B(  4-C ,  5-O ) :   2.1348
B(  4-C , 13-H ) :   0.9315

FINAL SINGLE POINT ENERGY      -307.071183687671

DIPOLE MOMENT
-------------
                                X             Y             Z
Electronic contribution:      3.52758       1.24850      -4.57645
Nuclear contribution   :     -4.20562      -0.89832       5.31165
                        -----------------------------------------
Total Dipole Moment    :     -0.67803       0.35017       0.73520
                        -----------------------------------------
Magnitude (a.u.)       :      1.05966
Magnitude (Debye)      :      2.69343

                             ****ORCA TERMINATED NORMALLY****
TOTAL RUN TIME: 0 days 0 hours 0 minutes 6 seconds 101 msec
