                         Program Version 3.0.3 - RELEASE   -
|  1> ! RI PBE def2-SVP def2-SVP/J NBO PAL2
|  2> % maxcore 2000
|  3> % output
|  4>     # printlevel mini
|  5>     print[ P_Basis ] 0
|  6>     print[ P_SCFInfo ] 1
|  7>     print[ P_SCFIterInfo ] 1
|  8>     print[ P_OrbEn ] 0
|  9>     print[ P_Cartesian ] 0
| 10> end
| 11> *xyz 0 1
| 12>  C        1.0391610000    -0.0557890000    -0.3335130000
| 13>  C        2.4933530000    -0.2384870000     0.0496690000
| 14>  C        2.7073980000    -0.5075890000     1.5130280000
| 15>  O        1.8032980000    -0.5709100000     2.3134230000
| 16>  C        4.1264970000    -0.7073350000     1.9975380000
| 17>  O        4.1680480000    -0.9450690000     3.3651320000
| 18>  H        0.9452350000     0.1356560000    -1.4037090000
| 19>  H        0.5948480000     0.7811620000     0.2067890000
| 20>  H        0.4561700000    -0.9449240000    -0.0898040000
| 21>  H        3.0890180000     0.6442540000    -0.2129660000
| 22>  H        2.9520710000    -1.0644450000    -0.5074360000
| 23>  H        4.7097650000     0.1870890000     1.7322530000
| 24>  H        4.5671980000    -1.5443440000     1.4355790000
| 25>  H        3.2421500000    -0.9190490000     3.6550150000
| 26> *
| 27>
| 28>                          ****END OF INPUT****
 Total Charge           Charge          ....    0
 Multiplicity           Mult            ....    1
 Number of Electrons    NEL             ....   48
 Basis Dimension        Dim             ....  124

MULLIKEN ATOMIC CHARGES
-----------------------
   0 C :   -0.000132
   1 C :   -0.032571
   2 C :   -0.091468
   3 O :   -0.184645
   4 C :    0.207736
   5 O :   -0.264924
   6 H :    0.023562
   7 H :    0.033240
   8 H :    0.036693
   9 H :    0.039990
  10 H :    0.042707
  11 H :    0.021454
  12 H :    0.021502
  13 H :    0.146856
Sum of atomic charges:   -0.0000000

LOEWDIN ATOMIC CHARGES
----------------------
   0 C :   -0.061135
   1 C :   -0.074493
   2 C :    0.048252
   3 O :   -0.116938
   4 C :    0.021930
   5 O :   -0.117646
   6 H :    0.030243
   7 H :    0.033294
   8 H :    0.033924
   9 H :    0.046617
  10 H :    0.047004
  11 H :    0.027863
  12 H :    0.027906
  13 H :    0.053179

  Mayer bond orders larger than 0.1
B(  0-C ,  1-C ) :   1.1195 B(  0-C ,  6-H ) :   0.9571 B(  0-C ,  7-H ) :   0.9650
B(  0-C ,  8-H ) :   0.9655 B(  1-C ,  2-C ) :   0.9736 B(  1-C ,  9-H ) :   0.9141
B(  1-C , 10-H ) :   0.9140 B(  2-C ,  3-O ) :   2.1120 B(  2-C ,  4-C ) :   0.9735
B(  3-O , 13-H ) :   0.1026 B(  4-C ,  5-O ) :   1.1575 B(  4-C , 11-H ) :   0.9051
B(  4-C , 12-H ) :   0.9053 B(  5-O , 13-H ) :   0.9441

FINAL SINGLE POINT ENERGY      -307.082369104553

DIPOLE MOMENT
-------------
                                X             Y             Z
Electronic contribution:      1.27404      -1.09712       5.79783
Nuclear contribution   :     -1.21699       1.28082      -6.89743
                        -----------------------------------------
Total Dipole Moment    :      0.05705       0.18370      -1.09960
                        -----------------------------------------
Magnitude (a.u.)       :      1.11630
Magnitude (Debye)      :      2.83741

                             ****ORCA TERMINATED NORMALLY****
TOTAL RUN TIME: 0 days 0 hours 0 minutes 5 seconds 604 msec
