                         Program Version 3.0.3 - RELEASE   -
|  1> ! RI PBE def2-SVP def2-SVP/J NBO PAL2
|  2> % maxcore 2000
|  3> % output
|  4>     # printlevel mini
|  5>     print[ P_Basis ] 0
|  6>     print[ P_SCFInfo ] 1
|  7>     print[ P_SCFIterInfo ] 1
|  8>     print[ P_OrbEn ] 0
|  9>     print[ P_Cartesian ] 0
| 10> end
| 11> *xyz 0 1
| 12>  C        1.0011930000    -0.0549470000     0.1381200000
| 13>  C        2.4822670000     0.1645080000    -0.0826460000
| 14>  C        2.7896710000     1.0676150000    -1.2348540000
| 15>  O        1.9699460000     1.5920750000    -1.9458730000
| 16>  C        4.2639200000     1.3487160000    -1.5347530000
| 17>  O        5.1687400000     0.8871490000    -0.9004760000
| 18>  H        0.8339160000    -0.7188720000     0.9875450000
| 19>  H        0.5347550000    -0.4994690000    -0.7425230000
| 20>  H        0.4894610000     0.8887710000     0.3336360000
| 21>  H        3.0194840000    -0.7757890000    -0.2572090000
| 22>  H        2.9749670000     0.5889890000     0.8006960000
| 23>  H        4.4102810000     2.0254630000    -2.4011520000
| 24> *
| 25>
| 26>                          ****END OF INPUT****
 Total Charge           Charge          ....    0
 Multiplicity           Mult            ....    1
 Number of Electrons    NEL             ....   46
 Basis Dimension        Dim             ....  114

MULLIKEN ATOMIC CHARGES
-----------------------
   0 C :   -0.003803
   1 C :   -0.034938
   2 C :   -0.046051
   3 O :   -0.133759
   4 C :    0.143994
   5 O :   -0.119277
   6 H :    0.026058
   7 H :    0.035594
   8 H :    0.034162
   9 H :    0.050117
  10 H :    0.048397
  11 H :   -0.000496
Sum of atomic charges:   -0.0000000

LOEWDIN ATOMIC CHARGES
----------------------
   0 C :   -0.061394
   1 C :   -0.074851
   2 C :    0.015469
   3 O :   -0.082691
   4 C :    0.072345
   5 O :   -0.071840
   6 H :    0.031465
   7 H :    0.033711
   8 H :    0.033574
   9 H :    0.053927
  10 H :    0.053530
  11 H :   -0.003244

  Mayer bond orders larger than 0.1
B(  0-C ,  1-C ) :   1.1223 B(  0-C ,  6-H ) :   0.9599 B(  0-C ,  7-H ) :   0.9638
B(  0-C ,  8-H ) :   0.9629 B(  1-C ,  2-C ) :   0.9738 B(  1-C ,  9-H ) :   0.9014
B(  1-C , 10-H ) :   0.9021 B(  2-C ,  3-O ) :   2.1461 B(  2-C ,  4-C ) :   0.8730
B(  4-C ,  5-O ) :   2.1935 B(  4-C , 11-H ) :   0.9141

FINAL SINGLE POINT ENERGY      -305.874740035127

DIPOLE MOMENT
-------------
                                X             Y             Z
Electronic contribution:      4.86803       2.99914      -3.66515
Nuclear contribution   :     -5.02798      -3.24881       3.97868
                        -----------------------------------------
Total Dipole Moment    :     -0.15995      -0.24967       0.31353
                        -----------------------------------------
Magnitude (a.u.)       :      0.43153
Magnitude (Debye)      :      1.09687

                             ****ORCA TERMINATED NORMALLY****
TOTAL RUN TIME: 0 days 0 hours 0 minutes 5 seconds 395 msec
