                         Program Version 3.0.3 - RELEASE   -
|  1> ! RI PBE def2-SVP def2-SVP/J NBO PAL2
|  2> % maxcore 2000
|  3> % output
|  4>     # printlevel mini
|  5>     print[ P_Basis ] 0
|  6>     print[ P_SCFInfo ] 1
|  7>     print[ P_SCFIterInfo ] 1
|  8>     print[ P_OrbEn ] 0
|  9>     print[ P_Cartesian ] 0
| 10> end
| 11> *xyz 0 1
| 12>  C        1.1429970000     0.1334870000    -0.1650560000
| 13>  C        2.6602370000     0.0775510000    -0.2169090000
| 14>  C        3.2060760000    -1.3193470000    -0.4464670000
| 15>  O        2.7793030000    -1.8684000000    -1.6901540000
| 16>  C        4.7210430000    -1.3775900000    -0.3733670000
| 17>  O        5.1977370000    -2.6754790000    -0.6163670000
| 18>  H        0.7889510000     1.1591590000    -0.0429140000
| 19>  H        0.7590660000    -0.4543170000     0.6727780000
| 20>  H        0.7032840000    -0.2709970000    -1.0786430000
| 21>  H        3.0826980000     0.4648030000     0.7167110000
| 22>  H        3.0354100000     0.7354640000    -1.0126890000
| 23>  H        2.7992100000    -2.0048640000     0.3051430000
| 24>  H        2.9779850000    -1.2265760000    -2.3802820000
| 25>  H        5.0635460000    -1.0816030000     0.6220420000
| 26>  H        5.1431510000    -0.6578750000    -1.0961330000
| 27>  H        4.6547060000    -3.0277980000    -1.3314850000
| 28> *
| 29>
| 30>                          ****END OF INPUT****
 Total Charge           Charge          ....    0
 Multiplicity           Mult            ....    1
 Number of Electrons    NEL             ....   50
 Basis Dimension        Dim             ....  134

MULLIKEN ATOMIC CHARGES
-----------------------
   0 C :    0.022751
   1 C :   -0.053222
   2 C :    0.018228
   3 O :   -0.285870
   4 C :    0.229045
   5 O :   -0.280001
   6 H :    0.019137
   7 H :    0.018505
   8 H :    0.014676
   9 H :    0.012778
  10 H :    0.001640
  11 H :    0.009150
  12 H :    0.155625
  13 H :   -0.002074
  14 H :   -0.026127
  15 H :    0.145760
Sum of atomic charges:   -0.0000000

LOEWDIN ATOMIC CHARGES
----------------------
   0 C :   -0.063097
   1 C :   -0.059845
   2 C :    0.022304
   3 O :   -0.107167
   4 C :    0.039288
   5 O :   -0.122775
   6 H :    0.026683
   7 H :    0.027559
   8 H :    0.023596
   9 H :    0.030722
  10 H :    0.019648
  11 H :    0.023829
  12 H :    0.068019
  13 H :    0.019725
  14 H :   -0.003321
  15 H :    0.054833

  Mayer bond orders larger than 0.1
B(  0-C ,  1-C ) :   1.1118 B(  0-C ,  6-H ) :   0.9620 B(  0-C ,  7-H ) :   0.9649
B(  0-C ,  8-H ) :   0.9587 B(  1-C ,  2-C ) :   1.0497 B(  1-C ,  9-H ) :   0.9269
B(  1-C , 10-H ) :   0.9222 B(  2-C ,  3-O ) :   0.9876 B(  2-C ,  4-C ) :   1.0459
B(  2-C , 11-H ) :   0.9011 B(  3-O , 12-H ) :   0.9787 B(  4-C ,  5-O ) :   1.0924
B(  4-C , 13-H ) :   0.9237 B(  4-C , 14-H ) :   0.9091 B(  5-O , 15-H ) :   0.9641

FINAL SINGLE POINT ENERGY      -308.270626680820

DIPOLE MOMENT
-------------
                                X             Y             Z
Electronic contribution:      3.40382      -4.55353      -1.72969
Nuclear contribution   :     -3.76194       5.34142       1.47433
                        -----------------------------------------
Total Dipole Moment    :     -0.35812       0.78789      -0.25536
                        -----------------------------------------
Magnitude (a.u.)       :      0.90235
Magnitude (Debye)      :      2.29358

                             ****ORCA TERMINATED NORMALLY****
TOTAL RUN TIME: 0 days 0 hours 0 minutes 6 seconds 141 msec
