                         Program Version 3.0.3 - RELEASE   -
|  1> ! RI PBE def2-SVP def2-SVP/J NBO PAL2
|  2> % maxcore 2000
|  3> % output
|  4>     # printlevel mini
|  5>     print[ P_Basis ] 0
|  6>     print[ P_SCFInfo ] 1
|  7>     print[ P_SCFIterInfo ] 1
|  8>     print[ P_OrbEn ] 0
|  9>     print[ P_Cartesian ] 0
| 10> end
| 11> *xyz 0 1
| 12>  C        1.0028070000     0.0641760000    -0.3500070000
| 13>  C        2.4771360000    -0.0907650000    -0.0211550000
| 14>  C        2.7575740000    -1.1631040000     1.0315010000
| 15>  O        2.1290310000    -0.8779390000     2.2423840000
| 16>  C        2.3623020000    -2.5280790000     0.5408170000
| 17>  O        1.6297330000    -3.2481220000     1.1666050000
| 18>  H        0.8473890000     0.8801720000    -1.0582730000
| 19>  H        0.4302350000     0.2850450000     0.5519560000
| 20>  H        0.5868200000    -0.8437700000    -0.7964280000
| 21>  H        2.8778960000     0.8509950000     0.3630260000
| 22>  H        3.0551430000    -0.3302470000    -0.9209360000
| 23>  H        3.8531270000    -1.2138920000     1.1722550000
| 24>  H        1.6367390000    -1.6762680000     2.4858980000
| 25>  H        2.7936580000    -2.8445930000    -0.4300520000
| 26> *
| 27>
| 28>                          ****END OF INPUT****
 Total Charge           Charge          ....    0
 Multiplicity           Mult            ....    1
 Number of Electrons    NEL             ....   48
 Basis Dimension        Dim             ....  124

MULLIKEN ATOMIC CHARGES
-----------------------
   0 C :   -0.043308
   1 C :   -0.017778
   2 C :    0.066772
   3 O :   -0.237522
   4 C :    0.096122
   5 O :   -0.174018
   6 H :    0.030221
   7 H :    0.036251
   8 H :    0.025630
   9 H :    0.029658
  10 H :    0.011020
  11 H :    0.029002
  12 H :    0.146714
  13 H :    0.001235
Sum of atomic charges:    0.0000000

LOEWDIN ATOMIC CHARGES
----------------------
   0 C :   -0.070152
   1 C :   -0.046181
   2 C :   -0.001424
   3 O :   -0.100829
   4 C :    0.085174
   5 O :   -0.101780
   6 H :    0.031283
   7 H :    0.030316
   8 H :    0.024755
   9 H :    0.034036
  10 H :    0.026220
  11 H :    0.033672
  12 H :    0.056443
  13 H :   -0.001535

  Mayer bond orders larger than 0.1
B(  0-C ,  1-C ) :   1.1021 B(  0-C ,  6-H ) :   0.9629 B(  0-C ,  7-H ) :   0.9611
B(  0-C ,  8-H ) :   0.9632 B(  1-C ,  2-C ) :   1.0177 B(  1-C ,  9-H ) :   0.9310
B(  1-C , 10-H ) :   0.9252 B(  2-C ,  3-O ) :   1.1737 B(  2-C ,  4-C ) :   0.9339
B(  2-C , 11-H ) :   0.8800 B(  3-O , 12-H ) :   0.9428 B(  4-C ,  5-O ) :   2.1196
B(  4-C , 13-H ) :   0.9240 B(  5-O , 12-H ) :   0.1002

FINAL SINGLE POINT ENERGY      -307.074826565473

DIPOLE MOMENT
-------------
                                X             Y             Z
Electronic contribution:      0.63733      -5.05318       4.02493
Nuclear contribution   :     -0.22061       5.23511      -4.68279
                        -----------------------------------------
Total Dipole Moment    :      0.41672       0.18193      -0.65786
                        -----------------------------------------
Magnitude (a.u.)       :      0.79971
Magnitude (Debye)      :      2.03269

                             ****ORCA TERMINATED NORMALLY****
TOTAL RUN TIME: 0 days 0 hours 0 minutes 5 seconds 312 msec
