                         Program Version 3.0.3 - RELEASE   -
|  1> ! RI PBE def2-SVP def2-SVP/J NBO PAL2
|  2> % maxcore 2000
|  3> % output
|  4>     # printlevel mini
|  5>     print[ P_Basis ] 0
|  6>     print[ P_SCFInfo ] 1
|  7>     print[ P_SCFIterInfo ] 1
|  8>     print[ P_OrbEn ] 0
|  9>     print[ P_Cartesian ] 0
| 10> end
| 11> *xyz 0 1
| 12>  C        1.1378480000    -1.3463960000     0.2163700000
| 13>  C        2.4204090000    -0.5376050000     0.1147550000
| 14>  C        2.1299250000     0.9333840000    -0.0844730000
| 15>  O        3.3365760000     1.6932400000    -0.2584270000
| 16>  C        3.9326690000     2.1262460000     0.8483320000
| 17>  O        3.5598760000     1.9503080000     1.9719740000
| 18>  H        1.3548310000    -2.4070640000     0.3541360000
| 19>  H        0.5304870000    -1.2475690000    -0.6876810000
| 20>  H        0.5291960000    -1.0206320000     1.0638900000
| 21>  H        3.0289100000    -0.8944370000    -0.7218320000
| 22>  H        3.0157550000    -0.6604130000     1.0235150000
| 23>  H        1.5731680000     1.3397350000     0.7625110000
| 24>  H        1.5618980000     1.1007710000    -1.0012500000
| 25>  H        4.8375510000     2.6878420000     0.5726790000
| 26> *
| 27>
| 28>                          ****END OF INPUT****
 Total Charge           Charge          ....    0
 Multiplicity           Mult            ....    1
 Number of Electrons    NEL             ....   48
 Basis Dimension        Dim             ....  124

MULLIKEN ATOMIC CHARGES
-----------------------
   0 C :   -0.047328
   1 C :   -0.062313
   2 C :    0.148421
   3 O :   -0.243012
   4 C :    0.210025
   5 O :   -0.212744
   6 H :    0.033540
   7 H :    0.025587
   8 H :    0.030922
   9 H :    0.026347
  10 H :    0.033600
  11 H :    0.028313
  12 H :    0.022924
  13 H :    0.005718
Sum of atomic charges:   -0.0000000

LOEWDIN ATOMIC CHARGES
----------------------
   0 C :   -0.064546
   1 C :   -0.057912
   2 C :    0.071074
   3 O :   -0.057495
   4 C :    0.070412
   5 O :   -0.147781
   6 H :    0.032784
   7 H :    0.026457
   8 H :    0.029281
   9 H :    0.027986
  10 H :    0.031767
  11 H :    0.019136
  12 H :    0.023725
  13 H :   -0.004888

  Mayer bond orders larger than 0.1
B(  0-C ,  1-C ) :   1.1162 B(  0-C ,  6-H ) :   0.9607 B(  0-C ,  7-H ) :   0.9670
B(  0-C ,  8-H ) :   0.9670 B(  1-C ,  2-C ) :   1.1025 B(  1-C ,  9-H ) :   0.9351
B(  1-C , 10-H ) :   0.9333 B(  2-C ,  3-O ) :   0.9190 B(  2-C , 11-H ) :   0.9337
B(  2-C , 12-H ) :   0.9449 B(  3-O ,  4-C ) :   1.2106 B(  3-O ,  5-O ) :   0.1068
B(  4-C ,  5-O ) :   2.0288 B(  4-C , 13-H ) :   0.9340

FINAL SINGLE POINT ENERGY      -307.095120428113

DIPOLE MOMENT
-------------
                                X             Y             Z
Electronic contribution:      4.98062       6.76704       1.65762
Nuclear contribution   :     -5.21734      -7.07773      -2.28025
                        -----------------------------------------
Total Dipole Moment    :     -0.23672      -0.31070      -0.62263
                        -----------------------------------------
Magnitude (a.u.)       :      0.73501
Magnitude (Debye)      :      1.86824

                             ****ORCA TERMINATED NORMALLY****
TOTAL RUN TIME: 0 days 0 hours 0 minutes 6 seconds 161 msec
