                         Program Version 3.0.3 - RELEASE   -
|  1> ! RI PBE def2-SVP def2-SVP/J NBO PAL2
|  2> % maxcore 2000
|  3> % output
|  4>     # printlevel mini
|  5>     print[ P_Basis ] 0
|  6>     print[ P_SCFInfo ] 1
|  7>     print[ P_SCFIterInfo ] 1
|  8>     print[ P_OrbEn ] 0
|  9>     print[ P_Cartesian ] 0
| 10> end
| 11> *xyz 0 1
| 12>  C        0.8158680000    -0.2849290000     0.2750020000
| 13>  C        2.2979280000    -0.0277630000     0.1002160000
| 14>  C        2.5896950000     1.1939120000    -0.7274850000
| 15>  O        1.7684650000     1.9202270000    -1.2189060000
| 16>  O        3.9114580000     1.3835910000    -0.8568060000
| 17>  C        4.2914240000     2.5191890000    -1.6262200000
| 18>  H        0.6520460000    -1.1782910000     0.8803410000
| 19>  H        0.3263090000    -0.4278250000    -0.6893000000
| 20>  H        0.3268530000     0.5578390000     0.7654810000
| 21>  H        2.8009540000    -0.8745070000    -0.3775690000
| 22>  H        2.8014810000     0.1017690000     1.0635210000
| 23>  H        5.3793040000     2.5252390000    -1.6314420000
| 24>  H        3.9078310000     3.4359570000    -1.1759500000
| 25>  H        3.9062940000     2.4417720000    -2.6440730000
| 26> *
| 27>
| 28>                          ****END OF INPUT****
 Total Charge           Charge          ....    0
 Multiplicity           Mult            ....    1
 Number of Electrons    NEL             ....   48
 Basis Dimension        Dim             ....  124

MULLIKEN ATOMIC CHARGES
-----------------------
   0 C :   -0.010738
   1 C :   -0.032383
   2 C :    0.080540
   3 O :   -0.193254
   4 O :   -0.261865
   5 C :    0.141275
   6 H :    0.018052
   7 H :    0.032527
   8 H :    0.034717
   9 H :    0.039496
  10 H :    0.040711
  11 H :    0.040041
  12 H :    0.033587
  13 H :    0.037296
Sum of atomic charges:   -0.0000000

LOEWDIN ATOMIC CHARGES
----------------------
   0 C :   -0.061580
   1 C :   -0.073936
   2 C :    0.042535
   3 O :   -0.150367
   4 O :   -0.071945
   5 C :    0.062096
   6 H :    0.028257
   7 H :    0.031775
   8 H :    0.032099
   9 H :    0.045060
  10 H :    0.045385
  11 H :    0.025681
  12 H :    0.022131
  13 H :    0.022806

  Mayer bond orders larger than 0.1
B(  0-C ,  1-C ) :   1.1200 B(  0-C ,  6-H ) :   0.9564 B(  0-C ,  7-H ) :   0.9658
B(  0-C ,  8-H ) :   0.9669 B(  1-C ,  2-C ) :   0.9898 B(  1-C ,  9-H ) :   0.9168
B(  1-C , 10-H ) :   0.9154 B(  2-C ,  3-O ) :   2.0807 B(  2-C ,  4-O ) :   1.1964
B(  4-O ,  5-C ) :   0.9459 B(  5-C , 11-H ) :   0.9757 B(  5-C , 12-H ) :   0.9686
B(  5-C , 13-H ) :   0.9691

FINAL SINGLE POINT ENERGY      -307.102295143678

DIPOLE MOMENT
-------------
                                X             Y             Z
Electronic contribution:      1.41050       2.14592      -1.45520
Nuclear contribution   :     -0.82893      -2.35692       1.59659
                        -----------------------------------------
Total Dipole Moment    :      0.58158      -0.21099       0.14139
                        -----------------------------------------
Magnitude (a.u.)       :      0.63462
Magnitude (Debye)      :      1.61307

                             ****ORCA TERMINATED NORMALLY****
TOTAL RUN TIME: 0 days 0 hours 0 minutes 5 seconds 760 msec
