                         Program Version 3.0.3 - RELEASE   -
|  1> ! RI PBE def2-SVP def2-SVP/J NBO PAL2
|  2> % maxcore 2000
|  3> % output
|  4>     # printlevel mini
|  5>     print[ P_Basis ] 0
|  6>     print[ P_SCFInfo ] 1
|  7>     print[ P_SCFIterInfo ] 1
|  8>     print[ P_OrbEn ] 0
|  9>     print[ P_Cartesian ] 0
| 10> end
| 11> *xyz 0 1
| 12>  C        1.6302040000     1.1972810000     0.0706840000
| 13>  C        2.8579130000     0.4499350000    -0.3836970000
| 14>  O        3.7322070000     0.3064890000     0.7152600000
| 15>  C        4.8980340000    -0.3667700000     0.3898540000
| 16>  C        5.5742060000    -1.0941700000     1.4909860000
| 17>  C        4.9002510000    -1.8648530000     0.3855950000
| 18>  H        0.9363910000     1.3291580000    -0.7624540000
| 19>  H        1.9000060000     2.1826740000     0.4553360000
| 20>  H        1.1173270000     0.6493170000     0.8635940000
| 21>  H        3.3649590000     0.9962530000    -1.1932390000
| 22>  H        2.5900380000    -0.5404130000    -0.7783760000
| 23>  H        5.5190210000     0.1403850000    -0.3484170000
| 24>  H        5.0763450000    -1.0767760000     2.4521290000
| 25>  H        6.6558090000    -1.0765050000     1.5340460000
| 26>  H        3.9648470000    -2.3522900000     0.6315160000
| 27>  H        5.5133420000    -2.3864170000    -0.3390170000
| 28> *
| 29>
| 30>                          ****END OF INPUT****
 Total Charge           Charge          ....    0
 Multiplicity           Mult            ....    1
 Number of Electrons    NEL             ....   48
 Basis Dimension        Dim             ....  134

MULLIKEN ATOMIC CHARGES
-----------------------
   0 C :   -0.031717
   1 C :    0.151624
   2 O :   -0.309143
   3 C :    0.052244
   4 C :   -0.041636
   5 C :   -0.068592
   6 H :    0.024398
   7 H :    0.032088
   8 H :    0.031731
   9 H :   -0.004383
  10 H :   -0.007762
  11 H :    0.007920
  12 H :    0.044781
  13 H :    0.039139
  14 H :    0.042138
  15 H :    0.037170
Sum of atomic charges:   -0.0000000

LOEWDIN ATOMIC CHARGES
----------------------
   0 C :   -0.076861
   1 C :    0.061475
   2 O :   -0.128998
   3 C :    0.033948
   4 C :   -0.052581
   5 C :   -0.067051
   6 H :    0.032976
   7 H :    0.030599
   8 H :    0.030063
   9 H :    0.004831
  10 H :    0.003530
  11 H :    0.007737
  12 H :    0.033721
  13 H :    0.029361
  14 H :    0.030823
  15 H :    0.026427

  Mayer bond orders larger than 0.1
B(  0-C ,  1-C ) :   1.1204 B(  0-C ,  6-H ) :   0.9537 B(  0-C ,  7-H ) :   0.9627
B(  0-C ,  8-H ) :   0.9629 B(  1-C ,  2-O ) :   0.9938 B(  1-C ,  9-H ) :   0.9335
B(  1-C , 10-H ) :   0.9282 B(  2-O ,  3-C ) :   1.0818 B(  3-C ,  4-C ) :   1.0013
B(  3-C ,  5-C ) :   0.9993 B(  3-C , 11-H ) :   0.9320 B(  4-C ,  5-C ) :   1.0312
B(  4-C , 12-H ) :   0.9473 B(  4-C , 13-H ) :   0.9424 B(  5-C , 14-H ) :   0.9420
B(  5-C , 15-H ) :   0.9450

FINAL SINGLE POINT ENERGY      -271.174474869909

DIPOLE MOMENT
-------------
                                X             Y             Z
Electronic contribution:      2.13544      -0.01487       1.33159
Nuclear contribution   :     -2.13829      -0.09886      -1.71435
                        -----------------------------------------
Total Dipole Moment    :     -0.00285      -0.11374      -0.38275
                        -----------------------------------------
Magnitude (a.u.)       :      0.39931
Magnitude (Debye)      :      1.01495

                             ****ORCA TERMINATED NORMALLY****
TOTAL RUN TIME: 0 days 0 hours 0 minutes 6 seconds 457 msec
