                         Program Version 3.0.3 - RELEASE   -
|  1> ! RI PBE def2-SVP def2-SVP/J NBO PAL2
|  2> % maxcore 2000
|  3> % output
|  4>     # printlevel mini
|  5>     print[ P_Basis ] 0
|  6>     print[ P_SCFInfo ] 1
|  7>     print[ P_SCFIterInfo ] 1
|  8>     print[ P_OrbEn ] 0
|  9>     print[ P_Cartesian ] 0
| 10> end
| 11> *xyz 0 1
| 12>  C        1.3624590000     0.1085960000     0.0009090000
| 13>  C        2.6575440000     0.1392120000     0.2795580000
| 14>  O        3.5528350000     0.7997130000    -0.4931530000
| 15>  C        4.8392260000     0.8945360000     0.0403140000
| 16>  C        5.7492320000    -0.2876990000    -0.0545090000
| 17>  C        5.9509680000     0.9133910000    -0.9394700000
| 18>  H        0.6933990000    -0.4514560000     0.6383080000
| 19>  H        0.9552730000     0.6277040000    -0.8575450000
| 20>  H        3.0815080000    -0.3772660000     1.1380670000
| 21>  H        4.9061890000     1.5335780000     0.9171560000
| 22>  H        5.3440550000    -1.1772950000    -0.5203180000
| 23>  H        6.4479390000    -0.4683190000     0.7527550000
| 24>  H        5.6720020000     0.8091420000    -1.9801600000
| 25>  H        6.7904900000     1.5700640000    -0.7513110000
| 26> *
| 27>
| 28>                          ****END OF INPUT****
 Total Charge           Charge          ....    0
 Multiplicity           Mult            ....    1
 Number of Electrons    NEL             ....   46
 Basis Dimension        Dim             ....  124

MULLIKEN ATOMIC CHARGES
-----------------------
   0 C :   -0.069819
   1 C :    0.095913
   2 O :   -0.232887
   3 C :    0.037347
   4 C :   -0.060269
   5 C :   -0.038535
   6 H :    0.024183
   7 H :    0.025446
   8 H :   -0.001054
   9 H :    0.028393
  10 H :    0.049662
  11 H :    0.043884
  12 H :    0.056017
  13 H :    0.041719
Sum of atomic charges:    0.0000000

LOEWDIN ATOMIC CHARGES
----------------------
   0 C :   -0.126841
   1 C :    0.033271
   2 O :   -0.060508
   3 C :    0.039374
   4 C :   -0.058660
   5 C :   -0.049135
   6 H :    0.030939
   7 H :    0.028089
   8 H :    0.012574
   9 H :    0.015681
  10 H :    0.035030
  11 H :    0.030104
  12 H :    0.038108
  13 H :    0.031975

  Mayer bond orders larger than 0.1
B(  0-C ,  1-C ) :   1.9338 B(  0-C ,  6-H ) :   0.9365 B(  0-C ,  7-H ) :   0.9474
B(  1-C ,  2-O ) :   1.0989 B(  1-C ,  8-H ) :   0.9434 B(  2-O ,  3-C ) :   1.0338
B(  3-C ,  4-C ) :   0.9998 B(  3-C ,  5-C ) :   1.0031 B(  3-C ,  9-H ) :   0.9402
B(  4-C ,  5-C ) :   1.0324 B(  4-C , 10-H ) :   0.9456 B(  4-C , 11-H ) :   0.9459
B(  5-C , 12-H ) :   0.9475 B(  5-C , 13-H ) :   0.9412

FINAL SINGLE POINT ENERGY      -269.955597470361

DIPOLE MOMENT
-------------
                                X             Y             Z
Electronic contribution:     -1.10963       1.15695      -0.52665
Nuclear contribution   :      1.63583      -1.27830       0.85864
                        -----------------------------------------
Total Dipole Moment    :      0.52620      -0.12135       0.33199
                        -----------------------------------------
Magnitude (a.u.)       :      0.63390
Magnitude (Debye)      :      1.61124

                             ****ORCA TERMINATED NORMALLY****
TOTAL RUN TIME: 0 days 0 hours 0 minutes 5 seconds 827 msec
