                         Program Version 3.0.3 - RELEASE   -
|  1> ! RI PBE def2-SVP def2-SVP/J NBO PAL2
|  2> % maxcore 2000
|  3> % output
|  4>     # printlevel mini
|  5>     print[ P_Basis ] 0
|  6>     print[ P_SCFInfo ] 1
|  7>     print[ P_SCFIterInfo ] 1
|  8>     print[ P_OrbEn ] 0
|  9>     print[ P_Cartesian ] 0
| 10> end
| 11> *xyz 0 1
| 12>  C        1.6102660000    -0.1890410000     1.1772400000
| 13>  C        1.6375210000     0.6515280000    -0.0695520000
| 14>  O        0.7441230000     0.6186300000    -0.8847670000
| 15>  C        2.8235660000     1.5275100000    -0.2479280000
| 16>  C        3.3021820000     1.7624940000    -1.6619650000
| 17>  C        2.6061170000     2.8514280000    -0.9433980000
| 18>  H        0.7024900000    -0.7885890000     1.2075020000
| 19>  H        1.6624680000     0.4531490000     2.0614850000
| 20>  H        2.4885150000    -0.8408330000     1.2072250000
| 21>  H        3.5739260000     1.4921470000     0.5326420000
| 22>  H        2.7469230000     1.2408730000    -2.4313970000
| 23>  H        4.3717890000     1.8329710000    -1.8121940000
| 24>  H        1.5833200000     3.0614160000    -1.2300780000
| 25>  H        3.1821130000     3.6943170000    -0.5837180000
| 26> *
| 27>
| 28>                          ****END OF INPUT****
 Total Charge           Charge          ....    0
 Multiplicity           Mult            ....    1
 Number of Electrons    NEL             ....   46
 Basis Dimension        Dim             ....  124

MULLIKEN ATOMIC CHARGES
-----------------------
   0 C :    0.013876
   1 C :    0.008059
   2 O :   -0.176844
   3 C :   -0.151446
   4 C :   -0.006674
   5 C :   -0.002951
   6 H :    0.032874
   7 H :    0.042870
   8 H :    0.046441
   9 H :    0.011132
  10 H :    0.050142
  11 H :    0.042626
  12 H :    0.050105
  13 H :    0.039789
Sum of atomic charges:   -0.0000000

LOEWDIN ATOMIC CHARGES
----------------------
   0 C :   -0.085714
   1 C :    0.059119
   2 O :   -0.140104
   3 C :   -0.082520
   4 C :   -0.017130
   5 C :   -0.016590
   6 H :    0.037216
   7 H :    0.045505
   8 H :    0.046074
   9 H :    0.026740
  10 H :    0.033151
  11 H :    0.030864
  12 H :    0.033078
  13 H :    0.030311

  Mayer bond orders larger than 0.1
B(  0-C ,  1-C ) :   1.0425 B(  0-C ,  6-H ) :   0.9462 B(  0-C ,  7-H ) :   0.9419
B(  0-C ,  8-H ) :   0.9427 B(  1-C ,  2-O ) :   2.1619 B(  1-C ,  3-C ) :   0.9672
B(  3-C ,  4-C ) :   0.9520 B(  3-C ,  5-C ) :   0.9476 B(  3-C ,  9-H ) :   0.9417
B(  4-C ,  5-C ) :   1.0682 B(  4-C , 10-H ) :   0.9417 B(  4-C , 11-H ) :   0.9474
B(  5-C , 12-H ) :   0.9424 B(  5-C , 13-H ) :   0.9481

FINAL SINGLE POINT ENERGY      -270.002679654221

DIPOLE MOMENT
-------------
                                X             Y             Z
Electronic contribution:     -2.47718      -0.49348      -1.64857
Nuclear contribution   :      3.30845       0.63704       2.23761
                        -----------------------------------------
Total Dipole Moment    :      0.83127       0.14356       0.58904
                        -----------------------------------------
Magnitude (a.u.)       :      1.02888
Magnitude (Debye)      :      2.61520

                             ****ORCA TERMINATED NORMALLY****
TOTAL RUN TIME: 0 days 0 hours 0 minutes 6 seconds 282 msec
