                         Program Version 3.0.3 - RELEASE   -
|  1> ! RI PBE def2-SVP def2-SVP/J NBO PAL2
|  2> % maxcore 2000
|  3> % output
|  4>     # printlevel mini
|  5>     print[ P_Basis ] 0
|  6>     print[ P_SCFInfo ] 1
|  7>     print[ P_SCFIterInfo ] 1
|  8>     print[ P_OrbEn ] 0
|  9>     print[ P_Cartesian ] 0
| 10> end
| 11> *xyz 0 1
| 12>  C        1.0051410000    -0.0489940000    -0.0992010000
| 13>  C        2.5077400000     0.1394070000    -0.0045370000
| 14>  O        3.1876560000    -1.0957390000    -0.1368800000
| 15>  C        3.0026730000     1.1778720000    -0.9891680000
| 16>  C        4.4407380000     1.2377430000    -1.3844230000
| 17>  C        3.4078210000     0.8030050000    -2.3821850000
| 18>  H        0.6650490000    -0.7858310000     0.6310190000
| 19>  H        0.7248370000    -0.3928790000    -1.1005400000
| 20>  H        0.4788880000     0.8905090000     0.0859740000
| 21>  H        2.7610100000     0.4821320000     1.0049930000
| 22>  H        2.8387540000    -1.5451220000    -0.9119970000
| 23>  H        2.4947290000     2.1328310000    -0.8907880000
| 24>  H        5.0866510000     0.4648780000    -0.9866530000
| 25>  H        4.9031340000     2.2088250000    -1.5090260000
| 26>  H        3.4053920000    -0.2448160000    -2.6597170000
| 27>  H        3.1475890000     1.4747980000    -3.1904700000
| 28> *
| 29>
| 30>                          ****END OF INPUT****
 Total Charge           Charge          ....    0
 Multiplicity           Mult            ....    1
 Number of Electrons    NEL             ....   48
 Basis Dimension        Dim             ....  134

MULLIKEN ATOMIC CHARGES
-----------------------
   0 C :    0.014616
   1 C :    0.149859
   2 O :   -0.279669
   3 C :   -0.141261
   4 C :   -0.007214
   5 C :   -0.053981
   6 H :    0.029416
   7 H :    0.003663
   8 H :    0.013834
   9 H :    0.001920
  10 H :    0.151235
  11 H :    0.012638
  12 H :    0.033352
  13 H :    0.029962
  14 H :    0.009018
  15 H :    0.032613
Sum of atomic charges:    0.0000000

LOEWDIN ATOMIC CHARGES
----------------------
   0 C :   -0.074962
   1 C :    0.049716
   2 O :   -0.104908
   3 C :   -0.062165
   4 C :   -0.044738
   5 C :   -0.050634
   6 H :    0.028265
   7 H :    0.022187
   8 H :    0.030554
   9 H :    0.023786
  10 H :    0.062580
  11 H :    0.027107
  12 H :    0.027278
  13 H :    0.024936
  14 H :    0.014830
  15 H :    0.026169

  Mayer bond orders larger than 0.1
B(  0-C ,  1-C ) :   1.1037 B(  0-C ,  6-H ) :   0.9569 B(  0-C ,  7-H ) :   0.9524
B(  0-C ,  8-H ) :   0.9470 B(  1-C ,  2-O ) :   1.0338 B(  1-C ,  3-C ) :   1.0064
B(  1-C ,  9-H ) :   0.9054 B(  2-O , 10-H ) :   0.9826 B(  3-C ,  4-C ) :   0.9950
B(  3-C ,  5-C ) :   0.9982 B(  3-C , 11-H ) :   0.9323 B(  4-C ,  5-C ) :   1.0421
B(  4-C , 12-H ) :   0.9352 B(  4-C , 13-H ) :   0.9482 B(  5-C , 14-H ) :   0.9425
B(  5-C , 15-H ) :   0.9473

FINAL SINGLE POINT ENERGY      -271.186435475260

DIPOLE MOMENT
-------------
                                X             Y             Z
Electronic contribution:      1.93256      -1.28171       0.97991
Nuclear contribution   :     -2.38529       1.44085      -1.28620
                        -----------------------------------------
Total Dipole Moment    :     -0.45273       0.15915      -0.30629
                        -----------------------------------------
Magnitude (a.u.)       :      0.56930
Magnitude (Debye)      :      1.44704

                             ****ORCA TERMINATED NORMALLY****
TOTAL RUN TIME: 0 days 0 hours 0 minutes 6 seconds 216 msec
