                         Program Version 3.0.3 - RELEASE   -
|  1> ! RI PBE def2-SVP def2-SVP/J NBO PAL2
|  2> % maxcore 2000
|  3> % output
|  4>     # printlevel mini
|  5>     print[ P_Basis ] 0
|  6>     print[ P_SCFInfo ] 1
|  7>     print[ P_SCFIterInfo ] 1
|  8>     print[ P_OrbEn ] 0
|  9>     print[ P_Cartesian ] 0
| 10> end
| 11> *xyz 0 1
| 12>  C        0.9827260000    -0.0573420000     0.1494670000
| 13>  C        2.4531680000     0.0010580000    -0.1508370000
| 14>  O        3.1840740000     0.8473850000     0.2935900000
| 15>  C        2.9683210000    -1.0669410000    -1.0763070000
| 16>  C        3.9046830000    -0.6750710000    -2.1394550000
| 17>  O        4.3451350000    -1.3648780000    -0.9977060000
| 18>  H        0.6816410000     0.8204080000     0.7176240000
| 19>  H        0.7617330000    -0.9616620000     0.7251990000
| 20>  H        0.4037280000    -0.1227270000    -0.7766210000
| 21>  H        2.3195070000    -1.9245700000    -1.2450250000
| 22>  H        4.2067360000     0.3676360000    -2.1919890000
| 23>  H        3.9110470000    -1.2396150000    -3.0686400000
| 24> *
| 25>
| 26>                          ****END OF INPUT****
 Total Charge           Charge          ....    0
 Multiplicity           Mult            ....    1
 Number of Electrons    NEL             ....   46
 Basis Dimension        Dim             ....  114

MULLIKEN ATOMIC CHARGES
-----------------------
   0 C :   -0.002999
   1 C :   -0.006180
   2 O :   -0.144551
   3 C :    0.001499
   4 C :    0.163439
   5 O :   -0.255004
   6 H :    0.041157
   7 H :    0.054812
   8 H :    0.047692
   9 H :    0.016225
  10 H :    0.045764
  11 H :    0.038145
Sum of atomic charges:    0.0000000

LOEWDIN ATOMIC CHARGES
----------------------
   0 C :   -0.089210
   1 C :    0.039133
   2 O :   -0.107746
   3 C :    0.000415
   4 C :    0.080095
   5 O :   -0.117857
   6 H :    0.041462
   7 H :    0.051531
   8 H :    0.045861
   9 H :    0.017143
  10 H :    0.021111
  11 H :    0.018061

  Mayer bond orders larger than 0.1
B(  0-C ,  1-C ) :   1.0248 B(  0-C ,  6-H ) :   0.9435 B(  0-C ,  7-H ) :   0.9379
B(  0-C ,  8-H ) :   0.9442 B(  1-C ,  2-O ) :   2.2158 B(  1-C ,  3-C ) :   0.8922
B(  3-C ,  4-C ) :   1.0585 B(  3-C ,  5-O ) :   0.9997 B(  3-C ,  9-H ) :   0.9375
B(  4-C ,  5-O ) :   0.9979 B(  4-C , 10-H ) :   0.9317 B(  4-C , 11-H ) :   0.9391

FINAL SINGLE POINT ENERGY      -305.844433098666

DIPOLE MOMENT
-------------
                                X             Y             Z
Electronic contribution:      4.19890       0.31713       1.09330
Nuclear contribution   :     -5.23398      -0.71229      -1.82166
                        -----------------------------------------
Total Dipole Moment    :     -1.03508      -0.39515      -0.72836
                        -----------------------------------------
Magnitude (a.u.)       :      1.32592
Magnitude (Debye)      :      3.37021

                             ****ORCA TERMINATED NORMALLY****
TOTAL RUN TIME: 0 days 0 hours 0 minutes 5 seconds 232 msec
