                         Program Version 3.0.3 - RELEASE   -
|  1> ! RI PBE def2-SVP def2-SVP/J NBO PAL2
|  2> % maxcore 2000
|  3> % output
|  4>     # printlevel mini
|  5>     print[ P_Basis ] 0
|  6>     print[ P_SCFInfo ] 1
|  7>     print[ P_SCFIterInfo ] 1
|  8>     print[ P_OrbEn ] 0
|  9>     print[ P_Cartesian ] 0
| 10> end
| 11> *xyz 0 1
| 12>  C        0.8772440000     0.0546920000     0.1845660000
| 13>  C        2.3731310000    -0.0475520000    -0.0639640000
| 14>  O        3.0722090000     1.0207800000     0.5297760000
| 15>  C        2.9103460000    -1.3737190000     0.4251930000
| 16>  C        4.2927770000    -1.5373680000     0.8500510000
| 17>  O        3.2438100000    -1.4058840000     1.8078050000
| 18>  H        0.5090480000     1.0245970000    -0.1522580000
| 19>  H        0.6594250000    -0.0470900000     1.2514100000
| 20>  H        0.3333370000    -0.7286930000    -0.3499880000
| 21>  H        2.5690130000     0.0241600000    -1.1396940000
| 22>  H        3.0973090000     0.8368130000     1.4770340000
| 23>  H        2.3704940000    -2.2533200000     0.0765490000
| 24>  H        4.9651680000    -0.6872270000     0.7881990000
| 25>  H        4.7528100000    -2.5208690000     0.8099300000
| 26> *
| 27>
| 28>                          ****END OF INPUT****
 Total Charge           Charge          ....    0
 Multiplicity           Mult            ....    1
 Number of Electrons    NEL             ....   48
 Basis Dimension        Dim             ....  124

MULLIKEN ATOMIC CHARGES
-----------------------
   0 C :    0.013098
   1 C :    0.130466
   2 O :   -0.272835
   3 C :   -0.031371
   4 C :    0.154983
   5 O :   -0.306576
   6 H :    0.029375
   7 H :    0.019161
   8 H :    0.013621
   9 H :    0.019145
  10 H :    0.153970
  11 H :    0.016434
  12 H :    0.028293
  13 H :    0.032237
Sum of atomic charges:   -0.0000000

LOEWDIN ATOMIC CHARGES
----------------------
   0 C :   -0.073602
   1 C :    0.030316
   2 O :   -0.102797
   3 C :    0.025145
   4 C :    0.057352
   5 O :   -0.161677
   6 H :    0.031064
   7 H :    0.028058
   8 H :    0.027901
   9 H :    0.028129
  10 H :    0.060372
  11 H :    0.017418
  12 H :    0.014831
  13 H :    0.017489

  Mayer bond orders larger than 0.1
B(  0-C ,  1-C ) :   1.0831 B(  0-C ,  6-H ) :   0.9572 B(  0-C ,  7-H ) :   0.9584
B(  0-C ,  8-H ) :   0.9479 B(  1-C ,  2-O ) :   1.0561 B(  1-C ,  3-C ) :   0.9721
B(  1-C ,  9-H ) :   0.9097 B(  2-O , 10-H ) :   0.9630 B(  3-C ,  4-C ) :   1.0876
B(  3-C ,  5-O ) :   0.9780 B(  3-C , 11-H ) :   0.9334 B(  4-C ,  5-O ) :   0.9768
B(  4-C , 12-H ) :   0.9235 B(  4-C , 13-H ) :   0.9387

FINAL SINGLE POINT ENERGY      -307.042039941063

DIPOLE MOMENT
-------------
                                X             Y             Z
Electronic contribution:      2.81853      -0.21901       1.90525
Nuclear contribution   :     -2.88038      -0.20329      -2.24523
                        -----------------------------------------
Total Dipole Moment    :     -0.06186      -0.42230      -0.33998
                        -----------------------------------------
Magnitude (a.u.)       :      0.54566
Magnitude (Debye)      :      1.38696

                             ****ORCA TERMINATED NORMALLY****
TOTAL RUN TIME: 0 days 0 hours 0 minutes 5 seconds 942 msec
