                         Program Version 3.0.3 - RELEASE   -
|  1> ! RI PBE def2-SVP def2-SVP/J NBO PAL2
|  2> % maxcore 2000
|  3> % output
|  4>     # printlevel mini
|  5>     print[ P_Basis ] 0
|  6>     print[ P_SCFInfo ] 1
|  7>     print[ P_SCFIterInfo ] 1
|  8>     print[ P_OrbEn ] 0
|  9>     print[ P_Cartesian ] 0
| 10> end
| 11> *xyz 0 1
| 12>  C        3.1459590000    -1.0939170000    -0.7160490000
| 13>  C        2.4807420000    -0.0876700000    -0.1572660000
| 14>  O        2.9779260000     0.9811070000     0.4948720000
| 15>  C        4.3860830000     1.0379760000     0.5967920000
| 16>  C        4.7755290000     2.2345960000     1.3183620000
| 17>  C        5.1327200000     3.2134240000     1.9107690000
| 18>  H        2.5826100000    -1.8770850000    -1.2036660000
| 19>  H        4.2237530000    -1.1808800000    -0.7145460000
| 20>  H        1.3977720000    -0.0339530000    -0.1784040000
| 21>  H        4.8337980000     1.0436470000    -0.4060210000
| 22>  H        4.7595170000     0.1475500000     1.1200630000
| 23>  H        5.4418000000     4.0852060000     2.4375850000
| 24> *
| 25>
| 26>                          ****END OF INPUT****
 Total Charge           Charge          ....    0
 Multiplicity           Mult            ....    1
 Number of Electrons    NEL             ....   44
 Basis Dimension        Dim             ....  114

MULLIKEN ATOMIC CHARGES
-----------------------
   0 C :   -0.115286
   1 C :    0.101833
   2 O :   -0.248564
   3 C :    0.206253
   4 C :    0.327593
   5 C :   -0.453560
   6 H :    0.026543
   7 H :    0.032023
   8 H :    0.023325
   9 H :    0.045879
  10 H :    0.044328
  11 H :    0.009634
Sum of atomic charges:   -0.0000000

LOEWDIN ATOMIC CHARGES
----------------------
   0 C :   -0.156434
   1 C :    0.033520
   2 O :   -0.057819
   3 C :    0.064916
   4 C :   -0.030749
   5 C :   -0.053857
   6 H :    0.034715
   7 H :    0.023154
   8 H :    0.027777
   9 H :    0.038370
  10 H :    0.037882
  11 H :    0.038526

  Mayer bond orders larger than 0.1
B(  0-C ,  1-C ) :   1.8572 B(  0-C ,  2-O ) :   0.1012 B(  0-C ,  6-H ) :   0.9339
B(  0-C ,  7-H ) :   0.9521 B(  1-C ,  2-O ) :   1.1586 B(  1-C ,  8-H ) :   0.9647
B(  2-O ,  3-C ) :   0.9962 B(  3-C ,  4-C ) :   1.0040 B(  3-C ,  9-H ) :   0.9073
B(  3-C , 10-H ) :   0.9091 B(  4-C ,  5-C ) :   2.3885 B(  4-C , 11-H ) :  -0.1000
B(  5-C , 11-H ) :   1.0904

FINAL SINGLE POINT ENERGY      -268.712361659845

DIPOLE MOMENT
-------------
                                X             Y             Z
Electronic contribution:     -0.20720       3.44295       2.01122
Nuclear contribution   :      0.51316      -3.54608      -2.05811
                        -----------------------------------------
Total Dipole Moment    :      0.30596      -0.10313      -0.04689
                        -----------------------------------------
Magnitude (a.u.)       :      0.32626
Magnitude (Debye)      :      0.82930

                             ****ORCA TERMINATED NORMALLY****
TOTAL RUN TIME: 0 days 0 hours 0 minutes 5 seconds 298 msec
