                         Program Version 3.0.3 - RELEASE   -
|  1> ! RI PBE def2-SVP def2-SVP/J NBO PAL2
|  2> % maxcore 2000
|  3> % output
|  4>     # printlevel mini
|  5>     print[ P_Basis ] 0
|  6>     print[ P_SCFInfo ] 1
|  7>     print[ P_SCFIterInfo ] 1
|  8>     print[ P_OrbEn ] 0
|  9>     print[ P_Cartesian ] 0
| 10> end
| 11> *xyz 0 1
| 12>  C        2.7670910000    -1.8311300000     0.0592050000
| 13>  C        2.9857390000    -0.4200240000    -0.4084760000
| 14>  O        2.8707520000    -0.0939340000    -1.5625020000
| 15>  C        3.3983400000     0.5901350000     0.6539850000
| 16>  C        4.8916990000     0.6300790000     0.7539480000
| 17>  C        5.5893630000     0.3011930000     1.8320270000
| 18>  H        2.6413970000    -2.4971280000    -0.7924030000
| 19>  H        1.8706450000    -1.8685800000     0.6862780000
| 20>  H        3.6044380000    -2.1599910000     0.6802850000
| 21>  H        2.9648500000     0.3309910000     1.6233460000
| 22>  H        3.0178380000     1.5642750000     0.3351760000
| 23>  H        5.4107070000     0.9427000000    -0.1491850000
| 24>  H        5.1041620000    -0.0132830000     2.7510780000
| 25>  H        6.6721990000     0.3450170000     1.8377580000
| 26> *
| 27>
| 28>                          ****END OF INPUT****
 Total Charge           Charge          ....    0
 Multiplicity           Mult            ....    1
 Number of Electrons    NEL             ....   46
 Basis Dimension        Dim             ....  124

MULLIKEN ATOMIC CHARGES
-----------------------
   0 C :    0.019590
   1 C :   -0.085292
   2 O :   -0.159249
   3 C :    0.109521
   4 C :   -0.097132
   5 C :   -0.030891
   6 H :    0.040234
   7 H :    0.046715
   8 H :    0.043041
   9 H :    0.008381
  10 H :    0.032096
  11 H :    0.020016
  12 H :    0.018268
  13 H :    0.034701
Sum of atomic charges:   -0.0000000

LOEWDIN ATOMIC CHARGES
----------------------
   0 C :   -0.089163
   1 C :    0.061654
   2 O :   -0.119277
   3 C :   -0.062552
   4 C :   -0.021447
   5 C :   -0.063639
   6 H :    0.038852
   7 H :    0.049488
   8 H :    0.045309
   9 H :    0.032031
  10 H :    0.046178
  11 H :    0.031517
  12 H :    0.022207
  13 H :    0.028843

  Mayer bond orders larger than 0.1
B(  0-C ,  1-C ) :   1.0332 B(  0-C ,  6-H ) :   0.9482 B(  0-C ,  7-H ) :   0.9337
B(  0-C ,  8-H ) :   0.9394 B(  1-C ,  2-O ) :   2.1891 B(  1-C ,  3-C ) :   0.9399
B(  3-C ,  4-C ) :   1.0669 B(  3-C ,  9-H ) :   0.9212 B(  3-C , 10-H ) :   0.8928
B(  4-C ,  5-C ) :   1.9987 B(  4-C , 11-H ) :   0.9514 B(  5-C , 12-H ) :   0.9479
B(  5-C , 13-H ) :   0.9453

FINAL SINGLE POINT ENERGY      -269.997907092989

DIPOLE MOMENT
-------------
                                X             Y             Z
Electronic contribution:     -1.32393       1.66432      -4.12393
Nuclear contribution   :      1.38808      -1.92953       5.02074
                        -----------------------------------------
Total Dipole Moment    :      0.06415      -0.26521       0.89681
                        -----------------------------------------
Magnitude (a.u.)       :      0.93740
Magnitude (Debye)      :      2.38268

                             ****ORCA TERMINATED NORMALLY****
TOTAL RUN TIME: 0 days 0 hours 0 minutes 6 seconds 3 msec
