                         Program Version 3.0.3 - RELEASE   -
|  1> ! RI PBE def2-SVP def2-SVP/J NBO PAL2
|  2> % maxcore 2000
|  3> % output
|  4>     # printlevel mini
|  5>     print[ P_Basis ] 0
|  6>     print[ P_SCFInfo ] 1
|  7>     print[ P_SCFIterInfo ] 1
|  8>     print[ P_OrbEn ] 0
|  9>     print[ P_Cartesian ] 0
| 10> end
| 11> *xyz 0 1
| 12>  C        1.0585800000    -0.1022830000     0.3644810000
| 13>  C        2.3942860000     0.2781290000    -0.1969190000
| 14>  O        2.6894860000     0.1205620000    -1.3521060000
| 15>  C        3.4035700000     0.9365700000     0.7491990000
| 16>  C        3.3139830000     0.5548500000     2.1447420000
| 17>  C        3.2427160000     0.2267460000     3.2970020000
| 18>  H        0.3945450000    -0.4110780000    -0.4402000000
| 19>  H        0.6251670000     0.7306120000     0.9246420000
| 20>  H        1.1853230000    -0.9193750000     1.0799980000
| 21>  H        3.2403220000     2.0183920000     0.6547760000
| 22>  H        4.4003490000     0.7386280000     0.3486140000
| 23>  H        3.1839630000    -0.0612330000     4.3200520000
| 24> *
| 25>
| 26>                          ****END OF INPUT****
 Total Charge           Charge          ....    0
 Multiplicity           Mult            ....    1
 Number of Electrons    NEL             ....   44
 Basis Dimension        Dim             ....  114

MULLIKEN ATOMIC CHARGES
-----------------------
   0 C :    0.035195
   1 C :   -0.100583
   2 O :   -0.150218
   3 C :    0.115342
   4 C :    0.282850
   5 C :   -0.466040
   6 H :    0.040303
   7 H :    0.045676
   8 H :    0.063881
   9 H :    0.076352
  10 H :    0.054182
  11 H :    0.003058
Sum of atomic charges:   -0.0000000

LOEWDIN ATOMIC CHARGES
----------------------
   0 C :   -0.086364
   1 C :    0.066532
   2 O :   -0.110962
   3 C :   -0.074737
   4 C :   -0.031283
   5 C :   -0.081205
   6 H :    0.040213
   7 H :    0.048452
   8 H :    0.057426
   9 H :    0.073479
  10 H :    0.062055
  11 H :    0.036393

  Mayer bond orders larger than 0.1
B(  0-C ,  1-C ) :   1.0629 B(  0-C ,  6-H ) :   0.9443 B(  0-C ,  7-H ) :   0.9381
B(  0-C ,  8-H ) :   0.9176 B(  1-C ,  2-O ) :   2.1909 B(  1-C ,  3-C ) :   0.9117
B(  3-C ,  4-C ) :   1.0275 B(  3-C ,  9-H ) :   0.8810 B(  3-C , 10-H ) :   0.8897
B(  4-C ,  5-C ) :   2.3637 B(  4-C , 11-H ) :  -0.1088 B(  5-C , 11-H ) :   1.1000

FINAL SINGLE POINT ENERGY      -268.754436729144

DIPOLE MOMENT
-------------
                                X             Y             Z
Electronic contribution:      2.36999       0.05211      -1.46832
Nuclear contribution   :     -2.67152       0.12652       2.20187
                        -----------------------------------------
Total Dipole Moment    :     -0.30153       0.17863       0.73355
                        -----------------------------------------
Magnitude (a.u.)       :      0.81298
Magnitude (Debye)      :      2.06642

                             ****ORCA TERMINATED NORMALLY****
TOTAL RUN TIME: 0 days 0 hours 0 minutes 5 seconds 406 msec
