                         Program Version 3.0.3 - RELEASE   -
|  1> ! RI PBE def2-SVP def2-SVP/J NBO PAL2
|  2> % maxcore 2000
|  3> % output
|  4>     # printlevel mini
|  5>     print[ P_Basis ] 0
|  6>     print[ P_SCFInfo ] 1
|  7>     print[ P_SCFIterInfo ] 1
|  8>     print[ P_OrbEn ] 0
|  9>     print[ P_Cartesian ] 0
| 10> end
| 11> *xyz 0 1
| 12>  C        1.2515390000     0.1267430000    -0.3610480000
| 13>  C        2.6397260000    -0.1468180000     0.2051260000
| 14>  O        2.8158160000     0.5254640000     1.4318420000
| 15>  C        2.9543430000    -1.6238930000     0.2812980000
| 16>  C        2.8064680000    -2.3972650000    -0.9927050000
| 17>  C        3.3642420000    -2.1951520000     1.4085390000
| 18>  H        1.0739750000     1.2030490000    -0.3789490000
| 19>  H        0.4842210000    -0.3432110000     0.2626850000
| 20>  H        1.1406460000    -0.2565860000    -1.3767300000
| 21>  H        3.3790840000     0.3088670000    -0.4665600000
| 22>  H        2.1615660000     0.1855630000     2.0503010000
| 23>  H        1.7581400000    -2.4876800000    -1.2917010000
| 24>  H        3.2148290000    -3.4029850000    -0.8892400000
| 25>  H        3.3283360000    -1.9000760000    -1.8173020000
| 26>  H        3.5086280000    -1.6223640000     2.3161090000
| 27>  H        3.5951510000    -3.2539560000     1.4461150000
| 28> *
| 29>
| 30>                          ****END OF INPUT****
 Total Charge           Charge          ....    0
 Multiplicity           Mult            ....    1
 Number of Electrons    NEL             ....   48
 Basis Dimension        Dim             ....  134

MULLIKEN ATOMIC CHARGES
-----------------------
   0 C :   -0.021369
   1 C :    0.141201
   2 O :   -0.268121
   3 C :   -0.193884
   4 C :    0.063527
   5 C :   -0.038008
   6 H :    0.034024
   7 H :    0.011610
   8 H :    0.019905
   9 H :    0.017794
  10 H :    0.151644
  11 H :    0.036079
  12 H :    0.012039
  13 H :    0.026397
  14 H :    0.000608
  15 H :    0.006557
Sum of atomic charges:   -0.0000000

LOEWDIN ATOMIC CHARGES
----------------------
   0 C :   -0.075475
   1 C :    0.045113
   2 O :   -0.099649
   3 C :   -0.050776
   4 C :   -0.055894
   5 C :   -0.080754
   6 H :    0.031128
   7 H :    0.024033
   8 H :    0.028238
   9 H :    0.032100
  10 H :    0.064889
  11 H :    0.035122
  12 H :    0.032568
  13 H :    0.034437
  14 H :    0.014802
  15 H :    0.020118

  Mayer bond orders larger than 0.1
B(  0-C ,  1-C ) :   1.0797 B(  0-C ,  6-H ) :   0.9568 B(  0-C ,  7-H ) :   0.9543
B(  0-C ,  8-H ) :   0.9435 B(  1-C ,  2-O ) :   1.0633 B(  1-C ,  3-C ) :   0.9735
B(  1-C ,  9-H ) :   0.8897 B(  2-O , 10-H ) :   0.9769 B(  3-C ,  4-C ) :   1.0825
B(  3-C ,  5-C ) :   1.9995 B(  4-C , 11-H ) :   0.9422 B(  4-C , 12-H ) :   0.9415
B(  4-C , 13-H ) :   0.9440 B(  5-C , 14-H ) :   0.9221 B(  5-C , 15-H ) :   0.9283

FINAL SINGLE POINT ENERGY      -271.192349812529

DIPOLE MOMENT
-------------
                                X             Y             Z
Electronic contribution:      1.88103       2.01963       3.03435
Nuclear contribution   :     -2.34566      -2.31967      -3.30738
                        -----------------------------------------
Total Dipole Moment    :     -0.46463      -0.30004      -0.27303
                        -----------------------------------------
Magnitude (a.u.)       :      0.61681
Magnitude (Debye)      :      1.56780

                             ****ORCA TERMINATED NORMALLY****
TOTAL RUN TIME: 0 days 0 hours 0 minutes 6 seconds 595 msec
