                         Program Version 3.0.3 - RELEASE   -
|  1> ! RI PBE def2-SVP def2-SVP/J NBO PAL2
|  2> % maxcore 2000
|  3> % output
|  4>     # printlevel mini
|  5>     print[ P_Basis ] 0
|  6>     print[ P_SCFInfo ] 1
|  7>     print[ P_SCFIterInfo ] 1
|  8>     print[ P_OrbEn ] 0
|  9>     print[ P_Cartesian ] 0
| 10> end
| 11> *xyz 0 1
| 12>  C        0.9382300000    -0.4472480000    -0.1332710000
| 13>  C        2.3933840000    -0.0105000000    -0.1319350000
| 14>  O        2.8930380000     0.1208220000    -1.4464870000
| 15>  C        2.6450060000     1.2734600000     0.6735020000
| 16>  C        1.9439920000     2.4599430000     0.0988160000
| 17>  C        2.5358460000     3.3971420000    -0.6330270000
| 18>  H        0.8317120000    -1.3750620000    -0.6975430000
| 19>  H        0.2988440000     0.3050460000    -0.6029300000
| 20>  H        0.5749880000    -0.6173190000     0.8840220000
| 21>  H        2.9964150000    -0.8037820000     0.3209760000
| 22>  H        2.5461750000     0.9456920000    -1.8061380000
| 23>  H        3.7232880000     1.4539830000     0.6849220000
| 24>  H        2.3236620000     1.1078550000     1.7073230000
| 25>  H        0.8720580000     2.5320960000     0.2705990000
| 26>  H        3.6052530000     3.3730380000    -0.8210930000
| 27>  H        1.9800280000     4.2285350000    -1.0515370000
| 28> *
| 29>
| 30>                          ****END OF INPUT****
 Total Charge           Charge          ....    0
 Multiplicity           Mult            ....    1
 Number of Electrons    NEL             ....   48
 Basis Dimension        Dim             ....  134

MULLIKEN ATOMIC CHARGES
-----------------------
   0 C :    0.018370
   1 C :    0.053707
   2 O :   -0.279131
   3 C :    0.068965
   4 C :   -0.128633
   5 C :   -0.041985
   6 H :    0.028042
   7 H :    0.009977
   8 H :    0.008608
   9 H :    0.006964
  10 H :    0.147975
  11 H :    0.020572
  12 H :    0.012598
  13 H :    0.017539
  14 H :    0.027693
  15 H :    0.028739
Sum of atomic charges:   -0.0000000

LOEWDIN ATOMIC CHARGES
----------------------
   0 C :   -0.079503
   1 C :    0.046258
   2 O :   -0.113973
   3 C :   -0.055872
   4 C :   -0.036382
   5 C :   -0.064819
   6 H :    0.030848
   7 H :    0.021912
   8 H :    0.026256
   9 H :    0.022169
  10 H :    0.058905
  11 H :    0.032869
  12 H :    0.034552
  13 H :    0.026613
  14 H :    0.024361
  15 H :    0.025804

  Mayer bond orders larger than 0.1
B(  0-C ,  1-C ) :   1.0795 B(  0-C ,  6-H ) :   0.9548 B(  0-C ,  7-H ) :   0.9507
B(  0-C ,  8-H ) :   0.9483 B(  1-C ,  2-O ) :   1.0457 B(  1-C ,  3-C ) :   1.0374
B(  1-C ,  9-H ) :   0.9119 B(  2-O , 10-H ) :   0.9742 B(  3-C ,  4-C ) :   1.0574
B(  3-C , 11-H ) :   0.9251 B(  3-C , 12-H ) :   0.9035 B(  4-C ,  5-C ) :   1.9906
B(  4-C , 13-H ) :   0.9553 B(  5-C , 14-H ) :   0.9437 B(  5-C , 15-H ) :   0.9471

FINAL SINGLE POINT ENERGY      -271.189368911163

DIPOLE MOMENT
-------------
                                X             Y             Z
Electronic contribution:      2.00130       0.06009      -1.43516
Nuclear contribution   :     -2.34862       0.28212       1.74777
                        -----------------------------------------
Total Dipole Moment    :     -0.34732       0.34221       0.31262
                        -----------------------------------------
Magnitude (a.u.)       :      0.57920
Magnitude (Debye)      :      1.47220

                             ****ORCA TERMINATED NORMALLY****
TOTAL RUN TIME: 0 days 0 hours 0 minutes 6 seconds 624 msec
