                         Program Version 3.0.3 - RELEASE   -
|  1> ! RI PBE def2-SVP def2-SVP/J NBO PAL2
|  2> % maxcore 2000
|  3> % output
|  4>     # printlevel mini
|  5>     print[ P_Basis ] 0
|  6>     print[ P_SCFInfo ] 1
|  7>     print[ P_SCFIterInfo ] 1
|  8>     print[ P_OrbEn ] 0
|  9>     print[ P_Cartesian ] 0
| 10> end
| 11> *xyz 0 1
| 12>  C        0.9304800000     0.0089740000     0.1504720000
| 13>  C        2.4420440000     0.0744310000     0.0395300000
| 14>  O        2.8495800000     0.5953520000    -1.2059410000
| 15>  C        3.0427440000     0.8630950000     1.2098000000
| 16>  C        4.4941760000     0.8838000000     1.2212980000
| 17>  C        5.6941450000     0.8889890000     1.2336460000
| 18>  H        0.5175690000    -0.5408970000    -0.6963780000
| 19>  H        0.4974330000     1.0150910000     0.1495220000
| 20>  H        0.6189450000    -0.4884320000     1.0722410000
| 21>  H        2.8543800000    -0.9383410000     0.0625620000
| 22>  H        2.5168430000     1.4946090000    -1.2848460000
| 23>  H        2.6801430000     0.4349610000     2.1507430000
| 24>  H        2.6613010000     1.8920830000     1.1751280000
| 25>  H        6.7581970000     0.8939660000     1.2372430000
| 26> *
| 27>
| 28>                          ****END OF INPUT****
 Total Charge           Charge          ....    0
 Multiplicity           Mult            ....    1
 Number of Electrons    NEL             ....   46
 Basis Dimension        Dim             ....  124

MULLIKEN ATOMIC CHARGES
-----------------------
   0 C :    0.031148
   1 C :    0.037032
   2 O :   -0.267034
   3 C :    0.059692
   4 C :    0.370956
   5 C :   -0.496670
   6 H :    0.035432
   7 H :    0.003645
   8 H :    0.016067
   9 H :    0.017867
  10 H :    0.149984
  11 H :    0.030091
  12 H :    0.016225
  13 H :   -0.004432
Sum of atomic charges:    0.0000000

LOEWDIN ATOMIC CHARGES
----------------------
   0 C :   -0.077261
   1 C :    0.049284
   2 O :   -0.104062
   3 C :   -0.063442
   4 C :   -0.021996
   5 C :   -0.085684
   6 H :    0.032983
   7 H :    0.021792
   8 H :    0.030235
   9 H :    0.027843
  10 H :    0.066306
  11 H :    0.050031
  12 H :    0.041076
  13 H :    0.032897

  Mayer bond orders larger than 0.1
B(  0-C ,  1-C ) :   1.0927 B(  0-C ,  6-H ) :   0.9572 B(  0-C ,  7-H ) :   0.9482
B(  0-C ,  8-H ) :   0.9477 B(  1-C ,  2-O ) :   1.0421 B(  1-C ,  3-C ) :   1.0224
B(  1-C ,  9-H ) :   0.9107 B(  2-O , 10-H ) :   0.9836 B(  3-C ,  4-C ) :   1.0549
B(  3-C , 11-H ) :   0.8915 B(  3-C , 12-H ) :   0.8859 B(  4-C ,  5-C ) :   2.3228
B(  4-C , 13-H ) :  -0.1127 B(  5-C , 13-H ) :   1.1040

FINAL SINGLE POINT ENERGY      -269.944116547171

DIPOLE MOMENT
-------------
                                X             Y             Z
Electronic contribution:      5.04159       0.83472      -0.55340
Nuclear contribution   :     -5.66041      -0.57140       0.84664
                        -----------------------------------------
Total Dipole Moment    :     -0.61883       0.26332       0.29324
                        -----------------------------------------
Magnitude (a.u.)       :      0.73367
Magnitude (Debye)      :      1.86484

                             ****ORCA TERMINATED NORMALLY****
TOTAL RUN TIME: 0 days 0 hours 0 minutes 5 seconds 832 msec
