                         Program Version 3.0.3 - RELEASE   -
|  1> ! RI PBE def2-SVP def2-SVP/J NBO PAL2
|  2> % maxcore 2000
|  3> % output
|  4>     # printlevel mini
|  5>     print[ P_Basis ] 0
|  6>     print[ P_SCFInfo ] 1
|  7>     print[ P_SCFIterInfo ] 1
|  8>     print[ P_OrbEn ] 0
|  9>     print[ P_Cartesian ] 0
| 10> end
| 11> *xyz 0 1
| 12>  C        1.2281640000     0.5010430000     0.5212570000
| 13>  C        2.5239120000    -0.2338300000     0.2968780000
| 14>  O        3.3682980000     0.5854960000    -0.4848160000
| 15>  C        4.5860670000     0.0947320000    -0.7935370000
| 16>  C        5.1163320000    -1.0794690000    -0.4578190000
| 17>  C        6.4896520000    -1.4868190000    -0.8774860000
| 18>  H        0.5520410000    -0.1085320000     1.1244110000
| 19>  H        0.7384910000     0.7214480000    -0.4291100000
| 20>  H        1.4028470000     1.4428660000     1.0447160000
| 21>  H        2.3532410000    -1.1852840000    -0.2242360000
| 22>  H        3.0179730000    -0.4634700000     1.2503580000
| 23>  H        5.1382620000     0.8122770000    -1.3936710000
| 24>  H        4.5512500000    -1.7848340000     0.1421740000
| 25>  H        6.9692710000    -0.7080200000    -1.4749430000
| 26>  H        6.4727520000    -2.4027330000    -1.4770840000
| 27>  H        7.1323470000    -1.6864510000    -0.0138930000
| 28> *
| 29>
| 30>                          ****END OF INPUT****
 Total Charge           Charge          ....    0
 Multiplicity           Mult            ....    1
 Number of Electrons    NEL             ....   48
 Basis Dimension        Dim             ....  134

MULLIKEN ATOMIC CHARGES
-----------------------
   0 C :   -0.022401
   1 C :    0.100316
   2 O :   -0.265411
   3 C :    0.122926
   4 C :   -0.181228
   5 C :    0.034541
   6 H :    0.027512
   7 H :    0.035297
   8 H :    0.035541
   9 H :    0.017561
  10 H :    0.018330
  11 H :    0.000404
  12 H :    0.002771
  13 H :    0.015605
  14 H :    0.029200
  15 H :    0.029035
Sum of atomic charges:   -0.0000000

LOEWDIN ATOMIC CHARGES
----------------------
   0 C :   -0.074628
   1 C :    0.064310
   2 O :   -0.072506
   3 C :    0.016728
   4 C :   -0.130131
   5 C :   -0.061253
   6 H :    0.034789
   7 H :    0.032317
   8 H :    0.032409
   9 H :    0.012551
  10 H :    0.012664
  11 H :    0.019092
  12 H :    0.020981
  13 H :    0.029439
  14 H :    0.031473
  15 H :    0.031763

  Mayer bond orders larger than 0.1
B(  0-C ,  1-C ) :   1.1161 B(  0-C ,  6-H ) :   0.9546 B(  0-C ,  7-H ) :   0.9612
B(  0-C ,  8-H ) :   0.9610 B(  1-C ,  2-O ) :   0.9780 B(  1-C ,  9-H ) :   0.9341
B(  1-C , 10-H ) :   0.9355 B(  2-O ,  3-C ) :   1.1514 B(  3-C ,  4-C ) :   1.7887
B(  3-C , 11-H ) :   0.9650 B(  4-C ,  5-C ) :   1.0867 B(  4-C , 12-H ) :   0.9551
B(  5-C , 13-H ) :   0.9595 B(  5-C , 14-H ) :   0.9487 B(  5-C , 15-H ) :   0.9481

FINAL SINGLE POINT ENERGY      -271.190744197414

DIPOLE MOMENT
-------------
                                X             Y             Z
Electronic contribution:      0.02965       2.30988      -1.14281
Nuclear contribution   :     -0.21796      -2.56636       1.35448
                        -----------------------------------------
Total Dipole Moment    :     -0.18830      -0.25647       0.21167
                        -----------------------------------------
Magnitude (a.u.)       :      0.38215
Magnitude (Debye)      :      0.97135

                             ****ORCA TERMINATED NORMALLY****
TOTAL RUN TIME: 0 days 0 hours 0 minutes 6 seconds 117 msec
