                         Program Version 3.0.3 - RELEASE   -
|  1> ! RI PBE def2-SVP def2-SVP/J NBO PAL2
|  2> % maxcore 2000
|  3> % output
|  4>     # printlevel mini
|  5>     print[ P_Basis ] 0
|  6>     print[ P_SCFInfo ] 1
|  7>     print[ P_SCFIterInfo ] 1
|  8>     print[ P_OrbEn ] 0
|  9>     print[ P_Cartesian ] 0
| 10> end
| 11> *xyz 0 1
| 12>  C        1.0068890000    -0.4667500000    -0.7446500000
| 13>  C        2.4874230000    -0.4113440000    -0.4603270000
| 14>  O        3.0557120000     0.6086650000    -1.2428160000
| 15>  C        4.4215180000     0.8725800000    -0.9817460000
| 16>  C        5.3300500000    -0.2150430000    -1.5317270000
| 17>  C        4.7262470000     2.2221290000    -1.5945600000
| 18>  H        0.5343900000    -1.2516480000    -0.1497530000
| 19>  H        0.8273290000    -0.6791260000    -1.8004130000
| 20>  H        0.5324130000     0.4861210000    -0.5024010000
| 21>  H        2.9485170000    -1.3836890000    -0.6845040000
| 22>  H        2.6669210000    -0.2061460000     0.6069570000
| 23>  H        4.5617750000     0.9344780000     0.1101930000
| 24>  H        5.1946030000    -0.3050840000    -2.6126730000
| 25>  H        5.1273540000    -1.1865140000    -1.0769470000
| 26>  H        6.3765220000     0.0294550000    -1.3346220000
| 27>  H        4.5716660000     2.1871120000    -2.6758510000
| 28>  H        5.7625590000     2.5084340000    -1.4031720000
| 29>  H        4.0691110000     2.9882700000    -1.1799880000
| 30> *
| 31>
| 32>                          ****END OF INPUT****
 Total Charge           Charge          ....    0
 Multiplicity           Mult            ....    1
 Number of Electrons    NEL             ....   50
 Basis Dimension        Dim             ....  144

MULLIKEN ATOMIC CHARGES
-----------------------
   0 C :   -0.021339
   1 C :    0.140503
   2 O :   -0.341742
   3 C :    0.028163
   4 C :   -0.005202
   5 C :    0.022199
   6 H :    0.017998
   7 H :    0.028923
   8 H :    0.027900
   9 H :   -0.007848
  10 H :   -0.005904
  11 H :   -0.006693
  12 H :    0.026374
  13 H :    0.020056
  14 H :    0.016402
  15 H :    0.025270
  16 H :    0.013587
  17 H :    0.021354
Sum of atomic charges:    0.0000000

LOEWDIN ATOMIC CHARGES
----------------------
   0 C :   -0.073722
   1 C :    0.056281
   2 O :   -0.146802
   3 C :    0.042954
   4 C :   -0.077484
   5 C :   -0.067084
   6 H :    0.030746
   7 H :    0.029782
   8 H :    0.028582
   9 H :    0.000344
  10 H :    0.003108
  11 H :    0.004998
  12 H :    0.029025
  13 H :    0.024068
  14 H :    0.029612
  15 H :    0.029123
  16 H :    0.028180
  17 H :    0.028288

  Mayer bond orders larger than 0.1
B(  0-C ,  1-C ) :   1.1192 B(  0-C ,  6-H ) :   0.9541 B(  0-C ,  7-H ) :   0.9638
B(  0-C ,  8-H ) :   0.9639 B(  1-C ,  2-O ) :   1.0108 B(  1-C ,  9-H ) :   0.9281
B(  1-C , 10-H ) :   0.9301 B(  2-O ,  3-C ) :   1.0087 B(  3-C ,  4-C ) :   1.0851
B(  3-C ,  5-C ) :   1.0853 B(  3-C , 11-H ) :   0.9146 B(  4-C , 12-H ) :   0.9546
B(  4-C , 13-H ) :   0.9520 B(  4-C , 14-H ) :   0.9527 B(  5-C , 15-H ) :   0.9584
B(  5-C , 16-H ) :   0.9562 B(  5-C , 17-H ) :   0.9544

FINAL SINGLE POINT ENERGY      -272.405179498786

DIPOLE MOMENT
-------------
                                X             Y             Z
Electronic contribution:     -0.91823       0.76579      -0.14131
Nuclear contribution   :      1.12666      -0.97522       0.40494
                        -----------------------------------------
Total Dipole Moment    :      0.20843      -0.20943       0.26363
                        -----------------------------------------
Magnitude (a.u.)       :      0.39599
Magnitude (Debye)      :      1.00651

                             ****ORCA TERMINATED NORMALLY****
TOTAL RUN TIME: 0 days 0 hours 0 minutes 6 seconds 400 msec
