                         Program Version 3.0.3 - RELEASE   -
|  1> ! RI PBE def2-SVP def2-SVP/J NBO PAL2
|  2> % maxcore 2000
|  3> % output
|  4>     # printlevel mini
|  5>     print[ P_Basis ] 0
|  6>     print[ P_SCFInfo ] 1
|  7>     print[ P_SCFIterInfo ] 1
|  8>     print[ P_OrbEn ] 0
|  9>     print[ P_Cartesian ] 0
| 10> end
| 11> *xyz 0 1
| 12>  C        1.9107550000     0.3297100000    -0.4442180000
| 13>  C        3.3154810000    -0.2086950000    -0.3606580000
| 14>  O        4.0465090000     0.6024210000     0.5364390000
| 15>  C        5.3434080000     0.2885880000     0.7570180000
| 16>  C        5.9484370000     1.2473770000     1.7244460000
| 17>  C        5.9991860000    -0.7293360000     0.1964440000
| 18>  H        1.3187440000    -0.2777360000    -1.1320250000
| 19>  H        1.9109540000     1.3593480000    -0.8067960000
| 20>  H        1.4288690000     0.3097950000     0.5350720000
| 21>  H        3.8020850000    -0.1959770000    -1.3442570000
| 22>  H        3.3198180000    -1.2458830000    -0.0020070000
| 23>  H        5.8821210000     2.2676490000     1.3373130000
| 24>  H        6.9936090000     1.0061640000     1.9112830000
| 25>  H        5.4027510000     1.2239530000     2.6714960000
| 26>  H        5.5444070000    -1.4153220000    -0.5036100000
| 27>  H        7.0386760000    -0.8871450000     0.4465710000
| 28> *
| 29>
| 30>                          ****END OF INPUT****
 Total Charge           Charge          ....    0
 Multiplicity           Mult            ....    1
 Number of Electrons    NEL             ....   48
 Basis Dimension        Dim             ....  134

MULLIKEN ATOMIC CHARGES
-----------------------
   0 C :   -0.021656
   1 C :    0.102988
   2 O :   -0.273633
   3 C :   -0.011522
   4 C :    0.068451
   5 C :   -0.110155
   6 H :    0.026665
   7 H :    0.032499
   8 H :    0.035414
   9 H :    0.022772
  10 H :    0.019606
  11 H :    0.036397
  12 H :    0.015806
  13 H :    0.035177
  14 H :    0.014522
  15 H :    0.006669
Sum of atomic charges:   -0.0000000

LOEWDIN ATOMIC CHARGES
----------------------
   0 C :   -0.073898
   1 C :    0.065063
   2 O :   -0.072871
   3 C :    0.025193
   4 C :   -0.061581
   5 C :   -0.166770
   6 H :    0.034815
   7 H :    0.031765
   8 H :    0.031791
   9 H :    0.014079
  10 H :    0.013834
  11 H :    0.038960
  12 H :    0.035521
  13 H :    0.038900
  14 H :    0.019283
  15 H :    0.025918

  Mayer bond orders larger than 0.1
B(  0-C ,  1-C ) :   1.1186 B(  0-C ,  6-H ) :   0.9538 B(  0-C ,  7-H ) :   0.9606
B(  0-C ,  8-H ) :   0.9627 B(  1-C ,  2-O ) :   0.9704 B(  1-C ,  9-H ) :   0.9373
B(  1-C , 10-H ) :   0.9347 B(  2-O ,  3-C ) :   1.1400 B(  3-C ,  4-C ) :   1.0909
B(  3-C ,  5-C ) :   1.8409 B(  4-C , 11-H ) :   0.9435 B(  4-C , 12-H ) :   0.9502
B(  4-C , 13-H ) :   0.9416 B(  5-C , 14-H ) :   0.9427 B(  5-C , 15-H ) :   0.9191

FINAL SINGLE POINT ENERGY      -271.195185250741

DIPOLE MOMENT
-------------
                                X             Y             Z
Electronic contribution:      0.96352       0.42900       0.68585
Nuclear contribution   :     -1.19072      -0.48165      -0.80434
                        -----------------------------------------
Total Dipole Moment    :     -0.22719      -0.05265      -0.11849
                        -----------------------------------------
Magnitude (a.u.)       :      0.26159
Magnitude (Debye)      :      0.66491

                             ****ORCA TERMINATED NORMALLY****
TOTAL RUN TIME: 0 days 0 hours 0 minutes 6 seconds 410 msec
