                         Program Version 3.0.3 - RELEASE   -
|  1> ! RI PBE def2-SVP def2-SVP/J NBO PAL2
|  2> % maxcore 2000
|  3> % output
|  4>     # printlevel mini
|  5>     print[ P_Basis ] 0
|  6>     print[ P_SCFInfo ] 1
|  7>     print[ P_SCFIterInfo ] 1
|  8>     print[ P_OrbEn ] 0
|  9>     print[ P_Cartesian ] 0
| 10> end
| 11> *xyz 0 1
| 12>  C        1.2906550000    -0.5976890000    -0.1097930000
| 13>  C        2.7303240000    -0.2073970000    -0.3274560000
| 14>  O        3.2048980000     0.4433040000     0.8253100000
| 15>  C        4.5423020000     0.8579030000     0.7014050000
| 16>  C        4.9412770000     1.6069270000     1.9248890000
| 17>  C        6.0435500000     1.3685660000     2.6188880000
| 18>  H        0.8980340000    -1.1075180000    -0.9923080000
| 19>  H        0.6778480000     0.2854000000     0.0807750000
| 20>  H        1.2000230000    -1.2688940000     0.7462770000
| 21>  H        2.8236110000     0.4598780000    -1.1989820000
| 22>  H        3.3445260000    -1.0974180000    -0.5358930000
| 23>  H        4.6452470000     1.5106160000    -0.1828430000
| 24>  H        5.2079100000    -0.0049780000     0.5465500000
| 25>  H        4.2655330000     2.4042550000     2.2246490000
| 26>  H        6.7245720000     0.5692320000     2.3428230000
| 27>  H        6.3094890000     1.9637020000     3.4846190000
| 28> *
| 29>
| 30>                          ****END OF INPUT****
 Total Charge           Charge          ....    0
 Multiplicity           Mult            ....    1
 Number of Electrons    NEL             ....   48
 Basis Dimension        Dim             ....  134

MULLIKEN ATOMIC CHARGES
-----------------------
   0 C :   -0.028285
   1 C :    0.133307
   2 O :   -0.350606
   3 C :    0.233391
   4 C :   -0.084905
   5 C :   -0.033012
   6 H :    0.020242
   7 H :    0.033129
   8 H :    0.035443
   9 H :   -0.007391
  10 H :   -0.006357
  11 H :    0.002909
  12 H :   -0.012728
  13 H :    0.014846
  14 H :    0.022140
  15 H :    0.027876
Sum of atomic charges:   -0.0000000

LOEWDIN ATOMIC CHARGES
----------------------
   0 C :   -0.075601
   1 C :    0.056575
   2 O :   -0.150244
   3 C :    0.059533
   4 C :   -0.034868
   5 C :   -0.053613
   6 H :    0.032028
   7 H :    0.030836
   8 H :    0.031329
   9 H :    0.002424
  10 H :    0.003146
  11 H :    0.012526
  12 H :    0.007225
  13 H :    0.029852
  14 H :    0.022661
  15 H :    0.026191

  Mayer bond orders larger than 0.1
B(  0-C ,  1-C ) :   1.1174 B(  0-C ,  6-H ) :   0.9531 B(  0-C ,  7-H ) :   0.9626
B(  0-C ,  8-H ) :   0.9646 B(  1-C ,  2-O ) :   1.0136 B(  1-C ,  9-H ) :   0.9301
B(  1-C , 10-H ) :   0.9297 B(  2-O ,  3-C ) :   0.9942 B(  3-C ,  4-C ) :   1.0482
B(  3-C , 11-H ) :   0.9069 B(  3-C , 12-H ) :   0.9240 B(  4-C ,  5-C ) :   2.0146
B(  4-C , 13-H ) :   0.9586 B(  5-C , 14-H ) :   0.9456 B(  5-C , 15-H ) :   0.9471

FINAL SINGLE POINT ENERGY      -271.174746684481

DIPOLE MOMENT
-------------
                                X             Y             Z
Electronic contribution:      1.40331       1.59347       1.95702
Nuclear contribution   :     -1.26458      -1.65898      -2.33178
                        -----------------------------------------
Total Dipole Moment    :      0.13873      -0.06551      -0.37476
                        -----------------------------------------
Magnitude (a.u.)       :      0.40495
Magnitude (Debye)      :      1.02930

                             ****ORCA TERMINATED NORMALLY****
TOTAL RUN TIME: 0 days 0 hours 0 minutes 6 seconds 65 msec
