                         Program Version 3.0.3 - RELEASE   -
|  1> ! RI PBE def2-SVP def2-SVP/J NBO PAL2
|  2> % maxcore 2000
|  3> % output
|  4>     # printlevel mini
|  5>     print[ P_Basis ] 0
|  6>     print[ P_SCFInfo ] 1
|  7>     print[ P_SCFIterInfo ] 1
|  8>     print[ P_OrbEn ] 0
|  9>     print[ P_Cartesian ] 0
| 10> end
| 11> *xyz 0 1
| 12>  C        0.7451470000    -0.0999880000    -0.9620310000
| 13>  C        2.1170490000    -0.1136930000    -0.3395500000
| 14>  O        1.9809670000    -0.3052810000     1.0496260000
| 15>  C        3.2248070000    -0.3293570000     1.6987600000
| 16>  C        3.0489190000    -0.5272840000     3.1275970000
| 17>  C        2.9339390000    -0.6894460000     4.3100960000
| 18>  H        0.8213870000     0.0475050000    -2.0414630000
| 19>  H        0.1415990000     0.7077510000    -0.5441070000
| 20>  H        0.2298800000    -1.0443040000    -0.7772660000
| 21>  H        2.6426150000     0.8338050000    -0.5366730000
| 22>  H        2.7309260000    -0.9203670000    -0.7699780000
| 23>  H        3.7687500000     0.6135380000     1.5287860000
| 24>  H        3.8558640000    -1.1381110000     1.2968880000
| 25>  H        2.8238510000    -0.8337660000     5.3588140000
| 26> *
| 27>
| 28>                          ****END OF INPUT****
 Total Charge           Charge          ....    0
 Multiplicity           Mult            ....    1
 Number of Electrons    NEL             ....   46
 Basis Dimension        Dim             ....  124

MULLIKEN ATOMIC CHARGES
-----------------------
   0 C :   -0.022331
   1 C :    0.123987
   2 O :   -0.337269
   3 C :    0.224604
   4 C :    0.315391
   5 C :   -0.445566
   6 H :    0.025816
   7 H :    0.035697
   8 H :    0.036732
   9 H :   -0.005147
  10 H :   -0.001059
  11 H :    0.020519
  12 H :    0.023778
  13 H :    0.004848
Sum of atomic charges:   -0.0000000

LOEWDIN ATOMIC CHARGES
----------------------
   0 C :   -0.074482
   1 C :    0.057209
   2 O :   -0.141323
   3 C :    0.053195
   4 C :   -0.027543
   5 C :   -0.064196
   6 H :    0.034107
   7 H :    0.032449
   8 H :    0.032429
   9 H :    0.003684
  10 H :    0.004577
  11 H :    0.026699
  12 H :    0.027184
  13 H :    0.036011

  Mayer bond orders larger than 0.1
B(  0-C ,  1-C ) :   1.1202 B(  0-C ,  6-H ) :   0.9521 B(  0-C ,  7-H ) :   0.9624
B(  0-C ,  8-H ) :   0.9631 B(  1-C ,  2-O ) :   1.0010 B(  1-C ,  9-H ) :   0.9309
B(  1-C , 10-H ) :   0.9318 B(  2-O ,  3-C ) :   1.0438 B(  3-C ,  4-C ) :   1.0101
B(  3-C , 11-H ) :   0.9043 B(  3-C , 12-H ) :   0.9055 B(  4-C ,  5-C ) :   2.4026
B(  4-C , 13-H ) :  -0.1002 B(  5-C , 13-H ) :   1.0911

FINAL SINGLE POINT ENERGY      -269.927803133839

DIPOLE MOMENT
-------------
                                X             Y             Z
Electronic contribution:      1.67738      -0.78385       6.51238
Nuclear contribution   :     -1.33498       0.85126      -6.91786
                        -----------------------------------------
Total Dipole Moment    :      0.34239       0.06742      -0.40548
                        -----------------------------------------
Magnitude (a.u.)       :      0.53497
Magnitude (Debye)      :      1.35979

                             ****ORCA TERMINATED NORMALLY****
TOTAL RUN TIME: 0 days 0 hours 0 minutes 5 seconds 670 msec
