                         Program Version 3.0.3 - RELEASE   -
|  1> ! RI PBE def2-SVP def2-SVP/J NBO PAL2
|  2> % maxcore 2000
|  3> % output
|  4>     # printlevel mini
|  5>     print[ P_Basis ] 0
|  6>     print[ P_SCFInfo ] 1
|  7>     print[ P_SCFIterInfo ] 1
|  8>     print[ P_OrbEn ] 0
|  9>     print[ P_Cartesian ] 0
| 10> end
| 11> *xyz 0 1
| 12>  C        1.0847400000    -0.0627690000    -0.0496720000
| 13>  C        2.5908290000    -0.0487690000    -0.1076120000
| 14>  O        3.0809310000     0.8065240000     0.8973440000
| 15>  C        4.4853680000     0.8783000000     0.9324750000
| 16>  C        4.8661980000     1.7220280000     2.1229450000
| 17>  O        4.4161250000     1.1557760000     3.3298500000
| 18>  H        0.6825530000    -0.7176770000    -0.8255230000
| 19>  H        0.6838040000     0.9408820000    -0.2033530000
| 20>  H        0.7387460000    -0.4264360000     0.9199470000
| 21>  H        2.9363920000     0.3003810000    -1.0925060000
| 22>  H        2.9947720000    -1.0621960000     0.0370800000
| 23>  H        4.8766620000     1.3256880000     0.0057320000
| 24>  H        4.9136420000    -0.1299950000     1.0353220000
| 25>  H        4.4649740000     2.7364550000     1.9877610000
| 26>  H        5.9544980000     1.7957800000     2.1861900000
| 27>  H        3.4815570000     0.9608290000     3.2065090000
| 28> *
| 29>
| 30>                          ****END OF INPUT****
 Total Charge           Charge          ....    0
 Multiplicity           Mult            ....    1
 Number of Electrons    NEL             ....   50
 Basis Dimension        Dim             ....  134

MULLIKEN ATOMIC CHARGES
-----------------------
   0 C :   -0.018596
   1 C :    0.139616
   2 O :   -0.367842
   3 C :    0.126111
   4 C :    0.172687
   5 O :   -0.291951
   6 H :    0.023124
   7 H :    0.030965
   8 H :    0.028085
   9 H :   -0.005182
  10 H :    0.000327
  11 H :   -0.007393
  12 H :   -0.000432
  13 H :    0.002258
  14 H :    0.016002
  15 H :    0.152219
Sum of atomic charges:   -0.0000000

LOEWDIN ATOMIC CHARGES
----------------------
   0 C :   -0.073008
   1 C :    0.059413
   2 O :   -0.155392
   3 C :    0.038487
   4 C :    0.043221
   5 O :   -0.122976
   6 H :    0.033712
   7 H :    0.030329
   8 H :    0.029224
   9 H :    0.004762
  10 H :    0.005438
  11 H :    0.006598
  12 H :    0.006047
  13 H :    0.007484
  14 H :    0.025273
  15 H :    0.061388

  Mayer bond orders larger than 0.1
B(  0-C ,  1-C ) :   1.1171 B(  0-C ,  6-H ) :   0.9544 B(  0-C ,  7-H ) :   0.9648
B(  0-C ,  8-H ) :   0.9645 B(  1-C ,  2-O ) :   0.9962 B(  1-C ,  9-H ) :   0.9324
B(  1-C , 10-H ) :   0.9348 B(  2-O ,  3-C ) :   1.0019 B(  3-C ,  4-C ) :   1.0816
B(  3-C , 11-H ) :   0.9186 B(  3-C , 12-H ) :   0.9189 B(  4-C ,  5-O ) :   1.0746
B(  4-C , 13-H ) :   0.9261 B(  4-C , 14-H ) :   0.9329 B(  5-O , 15-H ) :   0.9763

FINAL SINGLE POINT ENERGY      -308.258289252917

DIPOLE MOMENT
-------------
                                X             Y             Z
Electronic contribution:      2.11376       1.40469       3.80209
Nuclear contribution   :     -2.32847      -1.60384      -4.59065
                        -----------------------------------------
Total Dipole Moment    :     -0.21471      -0.19915      -0.78856
                        -----------------------------------------
Magnitude (a.u.)       :      0.84118
Magnitude (Debye)      :      2.13811

                             ****ORCA TERMINATED NORMALLY****
TOTAL RUN TIME: 0 days 0 hours 0 minutes 6 seconds 335 msec
