                         Program Version 3.0.3 - RELEASE   -
|  1> ! RI PBE def2-SVP def2-SVP/J NBO PAL2
|  2> % maxcore 2000
|  3> % output
|  4>     # printlevel mini
|  5>     print[ P_Basis ] 0
|  6>     print[ P_SCFInfo ] 1
|  7>     print[ P_SCFIterInfo ] 1
|  8>     print[ P_OrbEn ] 0
|  9>     print[ P_Cartesian ] 0
| 10> end
| 11> *xyz 0 1
| 12>  C        2.8568290000     1.4775070000     1.0513500000
| 13>  C        2.4860950000     0.5678570000     0.1569790000
| 14>  O        3.2077090000    -0.4683610000    -0.3159970000
| 15>  C        4.5086890000    -0.6157970000     0.1883010000
| 16>  C        5.1333990000    -1.8211130000    -0.4640570000
| 17>  O        6.2475560000    -2.1866860000    -0.2219500000
| 18>  H        2.1527220000     2.2506150000     1.3249630000
| 19>  H        3.8280920000     1.4923770000     1.5266040000
| 20>  H        1.5045130000     0.5781030000    -0.3035060000
| 21>  H        4.5030740000    -0.7607770000     1.2770420000
| 22>  H        5.1250380000     0.2675410000    -0.0265340000
| 23>  H        4.4794840000    -2.3479660000    -1.1901830000
| 24> *
| 25>
| 26>                          ****END OF INPUT****
 Total Charge           Charge          ....    0
 Multiplicity           Mult            ....    1
 Number of Electrons    NEL             ....   46
 Basis Dimension        Dim             ....  114

MULLIKEN ATOMIC CHARGES
-----------------------
   0 C :   -0.115034
   1 C :    0.108241
   2 O :   -0.265628
   3 C :    0.149822
   4 C :    0.074372
   5 O :   -0.158453
   6 H :    0.032600
   7 H :    0.032198
   8 H :    0.018689
   9 H :    0.057229
  10 H :    0.054786
  11 H :    0.011178
Sum of atomic charges:    0.0000000

LOEWDIN ATOMIC CHARGES
----------------------
   0 C :   -0.149445
   1 C :    0.035310
   2 O :   -0.064504
   3 C :    0.027860
   4 C :    0.088546
   5 O :   -0.094966
   6 H :    0.035796
   7 H :    0.024325
   8 H :    0.026519
   9 H :    0.038300
  10 H :    0.037873
  11 H :   -0.005614

  Mayer bond orders larger than 0.1
B(  0-C ,  1-C ) :   1.8688 B(  0-C ,  6-H ) :   0.9361 B(  0-C ,  7-H ) :   0.9519
B(  1-C ,  2-O ) :   1.1451 B(  1-C ,  8-H ) :   0.9645 B(  2-O ,  3-C ) :   0.9651
B(  3-C ,  4-C ) :   0.9274 B(  3-C ,  9-H ) :   0.9148 B(  3-C , 10-H ) :   0.9148
B(  4-C ,  5-O ) :   2.1786 B(  4-C , 11-H ) :   0.9309

FINAL SINGLE POINT ENERGY      -305.839278347342

DIPOLE MOMENT
-------------
                                X             Y             Z
Electronic contribution:      2.27399      -3.90935      -2.00124
Nuclear contribution   :     -2.80631       4.35226       2.09582
                        -----------------------------------------
Total Dipole Moment    :     -0.53232       0.44290       0.09457
                        -----------------------------------------
Magnitude (a.u.)       :      0.69891
Magnitude (Debye)      :      1.77648

                             ****ORCA TERMINATED NORMALLY****
TOTAL RUN TIME: 0 days 0 hours 0 minutes 5 seconds 336 msec
