                         Program Version 3.0.3 - RELEASE   -
|  1> ! RI PBE def2-SVP def2-SVP/J NBO PAL2
|  2> % maxcore 2000
|  3> % output
|  4>     # printlevel mini
|  5>     print[ P_Basis ] 0
|  6>     print[ P_SCFInfo ] 1
|  7>     print[ P_SCFIterInfo ] 1
|  8>     print[ P_OrbEn ] 0
|  9>     print[ P_Cartesian ] 0
| 10> end
| 11> *xyz 0 1
| 12>  C        1.7013000000    -0.2066690000    -0.9001980000
| 13>  C        3.1339740000     0.0545080000    -0.5304690000
| 14>  O        3.9951240000     0.1643480000    -1.3746080000
| 15>  C        3.4493940000     0.1733080000     0.9408940000
| 16>  C        4.9386240000     0.1713270000     1.2377350000
| 17>  O        5.6000700000     1.2735370000     0.6714540000
| 18>  H        1.5595070000    -0.0829520000    -1.9722850000
| 19>  H        1.0298020000     0.4557590000    -0.3483300000
| 20>  H        1.4388270000    -1.2311430000    -0.6181020000
| 21>  H        2.9369370000    -0.6310420000     1.4818160000
| 22>  H        2.9989940000     1.1094160000     1.2956290000
| 23>  H        5.3768930000    -0.7749960000     0.8909440000
| 24>  H        5.0963740000     0.2274730000     2.3173370000
| 25>  H        5.4924690000     1.1793260000    -0.2828960000
| 26> *
| 27>
| 28>                          ****END OF INPUT****
 Total Charge           Charge          ....    0
 Multiplicity           Mult            ....    1
 Number of Electrons    NEL             ....   48
 Basis Dimension        Dim             ....  124

MULLIKEN ATOMIC CHARGES
-----------------------
   0 C :    0.035910
   1 C :   -0.065798
   2 O :   -0.186055
   3 C :   -0.032628
   4 C :    0.187838
   5 O :   -0.294084
   6 H :    0.041868
   7 H :    0.039487
   8 H :    0.049310
   9 H :    0.023180
  10 H :    0.043105
  11 H :   -0.003596
  12 H :    0.011381
  13 H :    0.150082
Sum of atomic charges:    0.0000000

LOEWDIN ATOMIC CHARGES
----------------------
   0 C :   -0.084453
   1 C :    0.068211
   2 O :   -0.126508
   3 C :   -0.094870
   4 C :    0.057032
   5 O :   -0.125812
   6 H :    0.040385
   7 H :    0.044538
   8 H :    0.051847
   9 H :    0.040285
  10 H :    0.049298
  11 H :    0.006432
  12 H :    0.022160
  13 H :    0.051454

  Mayer bond orders larger than 0.1
B(  0-C ,  1-C ) :   1.0513 B(  0-C ,  6-H ) :   0.9470 B(  0-C ,  7-H ) :   0.9428
B(  0-C ,  8-H ) :   0.9358 B(  1-C ,  2-O ) :   2.1119 B(  1-C ,  3-C ) :   0.9693
B(  3-C ,  4-C ) :   1.0639 B(  3-C ,  9-H ) :   0.9083 B(  3-C , 10-H ) :   0.8888
B(  4-C ,  5-O ) :   1.0759 B(  4-C , 11-H ) :   0.9350 B(  4-C , 12-H ) :   0.9381
B(  5-O , 13-H ) :   0.9682

FINAL SINGLE POINT ENERGY      -307.083037504391

DIPOLE MOMENT
-------------
                                X             Y             Z
Electronic contribution:      3.33645       1.41229      -2.22580
Nuclear contribution   :     -4.47844      -1.92929       2.53833
                        -----------------------------------------
Total Dipole Moment    :     -1.14199      -0.51700       0.31254
                        -----------------------------------------
Magnitude (a.u.)       :      1.29194
Magnitude (Debye)      :      3.28384

                             ****ORCA TERMINATED NORMALLY****
TOTAL RUN TIME: 0 days 0 hours 0 minutes 5 seconds 845 msec
