                         Program Version 3.0.3 - RELEASE   -
|  1> ! RI PBE def2-SVP def2-SVP/J NBO PAL2
|  2> % maxcore 2000
|  3> % output
|  4>     # printlevel mini
|  5>     print[ P_Basis ] 0
|  6>     print[ P_SCFInfo ] 1
|  7>     print[ P_SCFIterInfo ] 1
|  8>     print[ P_OrbEn ] 0
|  9>     print[ P_Cartesian ] 0
| 10> end
| 11> *xyz 0 1
| 12>  C        0.9732380000    -0.0562650000     0.4052520000
| 13>  C        2.2007440000     0.0061650000    -0.4443070000
| 14>  O        2.8317450000    -0.9563860000    -0.8002410000
| 15>  C        2.6625940000     1.4149780000    -0.8772280000
| 16>  C        3.8909500000     1.4775080000    -1.7255500000
| 17>  O        2.0323440000     2.3776180000    -0.5202020000
| 18>  H        0.7446770000    -1.0920800000     0.6470320000
| 19>  H        0.1349950000     0.4111340000    -0.1174260000
| 20>  H        1.1215990000     0.5282040000     1.3166730000
| 21>  H        3.7430540000     0.8939570000    -2.6376310000
| 22>  H        4.7284810000     1.0091610000    -1.2025720000
| 23>  H        4.1202890000     2.5134150000    -1.9661980000
| 24> *
| 25>
| 26>                          ****END OF INPUT****
 Total Charge           Charge          ....    0
 Multiplicity           Mult            ....    1
 Number of Electrons    NEL             ....   46
 Basis Dimension        Dim             ....  114

MULLIKEN ATOMIC CHARGES
-----------------------
   0 C :    0.041341
   1 C :   -0.054170
   2 O :   -0.131309
   3 C :   -0.054169
   4 C :    0.041301
   5 O :   -0.131317
   6 H :    0.035907
   7 H :    0.053514
   8 H :    0.054722
   9 H :    0.054668
  10 H :    0.053589
  11 H :    0.035923
Sum of atomic charges:   -0.0000000

LOEWDIN ATOMIC CHARGES
----------------------
   0 C :   -0.084014
   1 C :    0.026941
   2 O :   -0.093843
   3 C :    0.026942
   4 C :   -0.084025
   5 O :   -0.093845
   6 H :    0.039552
   7 H :    0.055515
   8 H :    0.055849
   9 H :    0.055840
  10 H :    0.055532
  11 H :    0.039555

  Mayer bond orders larger than 0.1
B(  0-C ,  1-C ) :   1.0491 B(  0-C ,  6-H ) :   0.9447 B(  0-C ,  7-H ) :   0.9307
B(  0-C ,  8-H ) :   0.9298 B(  1-C ,  2-O ) :   2.1853 B(  1-C ,  3-C ) :   0.8005
B(  3-C ,  4-C ) :   1.0491 B(  3-C ,  5-O ) :   2.1853 B(  4-C ,  9-H ) :   0.9297
B(  4-C , 10-H ) :   0.9307 B(  4-C , 11-H ) :   0.9447

FINAL SINGLE POINT ENERGY      -305.887905350694

DIPOLE MOMENT
-------------
                                X             Y             Z
Electronic contribution:     -0.00144      -0.00017      -0.00209
Nuclear contribution   :      0.00124       0.00014       0.00180
                        -----------------------------------------
Total Dipole Moment    :     -0.00020      -0.00003      -0.00029
                        -----------------------------------------
Magnitude (a.u.)       :      0.00035
Magnitude (Debye)      :      0.00089

                             ****ORCA TERMINATED NORMALLY****
TOTAL RUN TIME: 0 days 0 hours 0 minutes 5 seconds 215 msec
