                         Program Version 3.0.3 - RELEASE   -
|  1> ! RI PBE def2-SVP def2-SVP/J NBO PAL2
|  2> % maxcore 2000
|  3> % output
|  4>     # printlevel mini
|  5>     print[ P_Basis ] 0
|  6>     print[ P_SCFInfo ] 1
|  7>     print[ P_SCFIterInfo ] 1
|  8>     print[ P_OrbEn ] 0
|  9>     print[ P_Cartesian ] 0
| 10> end
| 11> *xyz 0 1
| 12>  C        0.9037060000     0.1691530000     0.3530690000
| 13>  C        2.4015680000     0.1165350000     0.3107500000
| 14>  O        3.1025480000     0.7138000000     1.0876750000
| 15>  C        3.0265580000    -0.7652870000    -0.7589310000
| 16>  C        3.8675700000    -1.8450850000    -0.1199720000
| 17>  O        3.7960620000    -3.0038300000    -0.4151930000
| 18>  H        0.5710460000     0.8098500000     1.1674720000
| 19>  H        0.5014460000    -0.8407070000     0.4793360000
| 20>  H        0.5172490000     0.5430150000    -0.5997910000
| 21>  H        3.7099370000    -0.1259370000    -1.3299860000
| 22>  H        2.3011250000    -1.2184090000    -1.4339870000
| 23>  H        4.5649660000    -1.4821070000     0.6605660000
| 24> *
| 25>
| 26>                          ****END OF INPUT****
 Total Charge           Charge          ....    0
 Multiplicity           Mult            ....    1
 Number of Electrons    NEL             ....   46
 Basis Dimension        Dim             ....  114

MULLIKEN ATOMIC CHARGES
-----------------------
   0 C :    0.025377
   1 C :   -0.095230
   2 O :   -0.157652
   3 C :    0.047891
   4 C :    0.072112
   5 O :   -0.150458
   6 H :    0.046035
   7 H :    0.051341
   8 H :    0.050327
   9 H :    0.072680
  10 H :    0.020096
  11 H :    0.017481
Sum of atomic charges:   -0.0000000

LOEWDIN ATOMIC CHARGES
----------------------
   0 C :   -0.083696
   1 C :    0.054919
   2 O :   -0.118044
   3 C :   -0.102272
   4 C :    0.099875
   5 O :   -0.095060
   6 H :    0.041281
   7 H :    0.051001
   8 H :    0.049752
   9 H :    0.069692
  10 H :    0.034677
  11 H :   -0.002125

  Mayer bond orders larger than 0.1
B(  0-C ,  1-C ) :   1.0453 B(  0-C ,  6-H ) :   0.9508 B(  0-C ,  7-H ) :   0.9352
B(  0-C ,  8-H ) :   0.9364 B(  1-C ,  2-O ) :   2.1563 B(  1-C ,  3-C ) :   0.9235
B(  3-C ,  4-C ) :   0.9575 B(  3-C ,  9-H ) :   0.8921 B(  3-C , 10-H ) :   0.9215
B(  4-C ,  5-O ) :   2.1812 B(  4-C , 11-H ) :   0.9237

FINAL SINGLE POINT ENERGY      -305.879660687771

DIPOLE MOMENT
-------------
                                X             Y             Z
Electronic contribution:      3.93360      -1.76666       0.95043
Nuclear contribution   :     -4.59715       2.19173      -1.44852
                        -----------------------------------------
Total Dipole Moment    :     -0.66355       0.42507      -0.49810
                        -----------------------------------------
Magnitude (a.u.)       :      0.93225
Magnitude (Debye)      :      2.36958

                             ****ORCA TERMINATED NORMALLY****
TOTAL RUN TIME: 0 days 0 hours 0 minutes 5 seconds 238 msec
