                         Program Version 3.0.3 - RELEASE   -
|  1> ! RI PBE def2-SVP def2-SVP/J NBO PAL2
|  2> % maxcore 2000
|  3> % output
|  4>     # printlevel mini
|  5>     print[ P_Basis ] 0
|  6>     print[ P_SCFInfo ] 1
|  7>     print[ P_SCFIterInfo ] 1
|  8>     print[ P_OrbEn ] 0
|  9>     print[ P_Cartesian ] 0
| 10> end
| 11> *xyz 0 1
| 12>  C        0.9756460000     0.3410390000    -0.0622670000
| 13>  C        2.4526100000     0.0069400000    -0.0378200000
| 14>  O        2.9885070000     0.1887570000     1.2756430000
| 15>  C        2.7496280000    -1.3867890000    -0.5727910000
| 16>  C        4.2324170000    -1.7151870000    -0.6406550000
| 17>  O        4.8394130000    -1.8252820000     0.6243040000
| 18>  H        0.8025200000     1.3404790000     0.3408610000
| 19>  H        0.4074150000    -0.3776950000     0.5380930000
| 20>  H        0.5817570000     0.3048470000    -1.0804250000
| 21>  H        2.9968280000     0.7375380000    -0.6466130000
| 22>  H        2.4453010000    -0.3175970000     1.8884320000
| 23>  H        2.3227580000    -1.4698670000    -1.5789070000
| 24>  H        2.2414140000    -2.1332330000     0.0512170000
| 25>  H        4.7418880000    -0.9563820000    -1.2565220000
| 26>  H        4.3747310000    -2.6777360000    -1.1388770000
| 27>  H        4.5733770000    -1.0405200000     1.1205280000
| 28> *
| 29>
| 30>                          ****END OF INPUT****
 Total Charge           Charge          ....    0
 Multiplicity           Mult            ....    1
 Number of Electrons    NEL             ....   50
 Basis Dimension        Dim             ....  134

MULLIKEN ATOMIC CHARGES
-----------------------
   0 C :    0.023135
   1 C :    0.039246
   2 O :   -0.287457
   3 C :   -0.045758
   4 C :    0.207949
   5 O :   -0.299682
   6 H :    0.030644
   7 H :    0.010424
   8 H :    0.021876
   9 H :    0.010012
  10 H :    0.160075
  11 H :    0.004197
  12 H :    0.000224
  13 H :   -0.013761
  14 H :    0.004584
  15 H :    0.134292
Sum of atomic charges:   -0.0000000

LOEWDIN ATOMIC CHARGES
----------------------
   0 C :   -0.074754
   1 C :    0.041151
   2 O :   -0.101005
   3 C :   -0.077782
   4 C :    0.055798
   5 O :   -0.133856
   6 H :    0.030738
   7 H :    0.023801
   8 H :    0.033419
   9 H :    0.023895
  10 H :    0.068965
  11 H :    0.031404
  12 H :    0.021278
  13 H :    0.001070
  14 H :    0.018568
  15 H :    0.037310

  Mayer bond orders larger than 0.1
B(  0-C ,  1-C ) :   1.0991 B(  0-C ,  6-H ) :   0.9553 B(  0-C ,  7-H ) :   0.9500
B(  0-C ,  8-H ) :   0.9501 B(  1-C ,  2-O ) :   0.9869 B(  1-C ,  3-C ) :   1.0489
B(  1-C ,  9-H ) :   0.9134 B(  2-O , 10-H ) :   0.9734 B(  2-O , 15-H ) :   0.1146
B(  3-C ,  4-C ) :   1.0757 B(  3-C , 11-H ) :   0.9109 B(  3-C , 12-H ) :   0.9121
B(  4-C ,  5-O ) :   1.0806 B(  4-C , 13-H ) :   0.9252 B(  4-C , 14-H ) :   0.9378
B(  5-O , 15-H ) :   0.9568

FINAL SINGLE POINT ENERGY      -308.273046085850

DIPOLE MOMENT
-------------
                                X             Y             Z
Electronic contribution:      3.77298      -0.42193       2.74525
Nuclear contribution   :     -4.79113       0.67533      -2.96646
                        -----------------------------------------
Total Dipole Moment    :     -1.01815       0.25341      -0.22121
                        -----------------------------------------
Magnitude (a.u.)       :      1.07228
Magnitude (Debye)      :      2.72552

                             ****ORCA TERMINATED NORMALLY****
TOTAL RUN TIME: 0 days 0 hours 0 minutes 6 seconds 589 msec
