                         Program Version 3.0.3 - RELEASE   -
|  1> ! RI PBE def2-SVP def2-SVP/J NBO PAL2
|  2> % maxcore 2000
|  3> % output
|  4>     # printlevel mini
|  5>     print[ P_Basis ] 0
|  6>     print[ P_SCFInfo ] 1
|  7>     print[ P_SCFIterInfo ] 1
|  8>     print[ P_OrbEn ] 0
|  9>     print[ P_Cartesian ] 0
| 10> end
| 11> *xyz 0 1
| 12>  C        1.5655700000     1.0873030000     0.6716010000
| 13>  C        2.1393550000    -0.0689600000    -0.1199410000
| 14>  O        3.4852880000    -0.3262360000     0.2502250000
| 15>  C        1.3011190000    -1.3440330000     0.0266650000
| 16>  C        1.7095600000    -2.4144140000    -0.9633740000
| 17>  O        1.3746130000    -1.8239830000     1.3604510000
| 18>  H        2.2087860000     1.9650560000     0.5851030000
| 19>  H        1.4759380000     0.8143920000     1.7272320000
| 20>  H        0.5691890000     1.3540560000     0.3111780000
| 21>  H        2.1770580000     0.1954940000    -1.1822830000
| 22>  H        3.5262940000    -0.2832400000     1.2101810000
| 23>  H        0.2490140000    -1.0816320000    -0.1287300000
| 24>  H        1.5493930000    -2.0804840000    -1.9913210000
| 25>  H        2.7725780000    -2.6470560000    -0.8505050000
| 26>  H        1.1279490000    -3.3241630000    -0.8029240000
| 27>  H        2.1977150000    -2.3154920000     1.4377210000
| 28> *
| 29>
| 30>                          ****END OF INPUT****
 Total Charge           Charge          ....    0
 Multiplicity           Mult            ....    1
 Number of Electrons    NEL             ....   50
 Basis Dimension        Dim             ....  134

MULLIKEN ATOMIC CHARGES
-----------------------
   0 C :    0.014664
   1 C :    0.065782
   2 O :   -0.280958
   3 C :    0.074657
   4 C :    0.014653
   5 O :   -0.284484
   6 H :    0.027052
   7 H :    0.017815
   8 H :    0.013297
   9 H :   -0.003169
  10 H :    0.143110
  11 H :   -0.006073
  12 H :    0.014998
  13 H :    0.015035
  14 H :    0.028484
  15 H :    0.145137
Sum of atomic charges:    0.0000000

LOEWDIN ATOMIC CHARGES
----------------------
   0 C :   -0.079168
   1 C :    0.027420
   2 O :   -0.111545
   3 C :    0.028341
   4 C :   -0.078577
   5 O :   -0.112553
   6 H :    0.027909
   7 H :    0.024830
   8 H :    0.031397
   9 H :    0.019681
  10 H :    0.059254
  11 H :    0.019377
  12 H :    0.031238
  13 H :    0.024409
  14 H :    0.028164
  15 H :    0.059823

  Mayer bond orders larger than 0.1
B(  0-C ,  1-C ) :   1.1002 B(  0-C ,  6-H ) :   0.9579 B(  0-C ,  7-H ) :   0.9437
B(  0-C ,  8-H ) :   0.9450 B(  1-C ,  2-O ) :   1.0235 B(  1-C ,  3-C ) :   0.9556
B(  1-C ,  9-H ) :   0.9108 B(  2-O , 10-H ) :   0.9812 B(  3-C ,  4-C ) :   1.0997
B(  3-C ,  5-O ) :   1.0225 B(  3-C , 11-H ) :   0.9085 B(  4-C , 12-H ) :   0.9486
B(  4-C , 13-H ) :   0.9433 B(  4-C , 14-H ) :   0.9575 B(  5-O , 15-H ) :   0.9805

FINAL SINGLE POINT ENERGY      -308.273241879320

DIPOLE MOMENT
-------------
                                X             Y             Z
Electronic contribution:      1.60554      -0.83572       1.92436
Nuclear contribution   :     -1.60046       0.83149      -1.92135
                        -----------------------------------------
Total Dipole Moment    :      0.00508      -0.00423       0.00301
                        -----------------------------------------
Magnitude (a.u.)       :      0.00726
Magnitude (Debye)      :      0.01846

                             ****ORCA TERMINATED NORMALLY****
TOTAL RUN TIME: 0 days 0 hours 0 minutes 6 seconds 174 msec
