                         Program Version 3.0.3 - RELEASE   -
|  1> ! RI PBE def2-SVP def2-SVP/J NBO PAL2
|  2> % maxcore 2000
|  3> % output
|  4>     # printlevel mini
|  5>     print[ P_Basis ] 0
|  6>     print[ P_SCFInfo ] 1
|  7>     print[ P_SCFIterInfo ] 1
|  8>     print[ P_OrbEn ] 0
|  9>     print[ P_Cartesian ] 0
| 10> end
| 11> *xyz 0 1
| 12>  C        1.0615480000     0.2360090000     0.1353760000
| 13>  C        2.5060820000    -0.2102470000    -0.0427280000
| 14>  O        2.6778040000    -1.5119360000     0.4255040000
| 15>  C        2.9603880000    -0.1177210000    -1.4895940000
| 16>  C        2.8515790000     1.2005950000    -2.1940030000
| 17>  O        3.3959670000    -1.1068760000    -2.0323990000
| 18>  H        0.7782660000     0.1067480000     1.1804830000
| 19>  H        0.3960660000    -0.3781410000    -0.4754080000
| 20>  H        0.9249660000     1.2862250000    -0.1304810000
| 21>  H        3.1570000000     0.4801550000     0.5217610000
| 22>  H        3.0826690000    -1.9988400000    -0.3104560000
| 23>  H        1.8213210000     1.3367130000    -2.5368440000
| 24>  H        3.5093140000     1.2101870000    -3.0615380000
| 25>  H        3.0852200000     2.0337190000    -1.5283630000
| 26> *
| 27>
| 28>                          ****END OF INPUT****
 Total Charge           Charge          ....    0
 Multiplicity           Mult            ....    1
 Number of Electrons    NEL             ....   48
 Basis Dimension        Dim             ....  124

MULLIKEN ATOMIC CHARGES
-----------------------
   0 C :    0.005273
   1 C :    0.059894
   2 O :   -0.244897
   3 C :   -0.062263
   4 C :    0.032192
   5 O :   -0.181918
   6 H :    0.042626
   7 H :    0.022934
   8 H :    0.017225
   9 H :    0.018636
  10 H :    0.145576
  11 H :    0.059351
  12 H :    0.044971
  13 H :    0.040400
Sum of atomic charges:   -0.0000000

LOEWDIN ATOMIC CHARGES
----------------------
   0 C :   -0.064731
   1 C :    0.007694
   2 O :   -0.109958
   3 C :    0.052608
   4 C :   -0.082874
   5 O :   -0.116348
   6 H :    0.037419
   7 H :    0.029379
   8 H :    0.026028
   9 H :    0.025926
  10 H :    0.051817
  11 H :    0.056531
  12 H :    0.044932
  13 H :    0.041577

  Mayer bond orders larger than 0.1
B(  0-C ,  1-C ) :   1.0468 B(  0-C ,  6-H ) :   0.9579 B(  0-C ,  7-H ) :   0.9546
B(  0-C ,  8-H ) :   0.9454 B(  1-C ,  2-O ) :   1.1813 B(  1-C ,  3-C ) :   0.9286
B(  1-C ,  9-H ) :   0.8801 B(  2-O , 10-H ) :   0.9381 B(  3-C ,  4-C ) :   1.0444
B(  3-C ,  5-O ) :   2.1131 B(  4-C , 11-H ) :   0.9301 B(  4-C , 12-H ) :   0.9380
B(  4-C , 13-H ) :   0.9449 B(  5-O , 10-H ) :   0.1093

FINAL SINGLE POINT ENERGY      -307.086297519404

DIPOLE MOMENT
-------------
                                X             Y             Z
Electronic contribution:      3.31802      -4.82629      -0.68657
Nuclear contribution   :     -3.58084       5.87899       0.46131
                        -----------------------------------------
Total Dipole Moment    :     -0.26281       1.05270      -0.22525
                        -----------------------------------------
Magnitude (a.u.)       :      1.10814
Magnitude (Debye)      :      2.81668

                             ****ORCA TERMINATED NORMALLY****
TOTAL RUN TIME: 0 days 0 hours 0 minutes 5 seconds 924 msec
