                         Program Version 3.0.3 - RELEASE   -
|  1> ! RI PBE def2-SVP def2-SVP/J NBO PAL2
|  2> % maxcore 2000
|  3> % output
|  4>     # printlevel mini
|  5>     print[ P_Basis ] 0
|  6>     print[ P_SCFInfo ] 1
|  7>     print[ P_SCFIterInfo ] 1
|  8>     print[ P_OrbEn ] 0
|  9>     print[ P_Cartesian ] 0
| 10> end
| 11> *xyz 0 1
| 12>  C        0.9220940000     0.1207430000     0.0045780000
| 13>  C        2.4172340000    -0.1171360000     0.0689990000
| 14>  O        2.8395410000    -0.4366770000     1.3827660000
| 15>  C        2.8636340000    -1.1874830000    -0.9282620000
| 16>  C        4.3560090000    -1.3458020000    -0.9856790000
| 17>  O        4.9848480000    -1.4194880000    -2.0069480000
| 18>  H        0.6294860000     0.8797870000     0.7321410000
| 19>  H        0.3748950000    -0.8018750000     0.2272390000
| 20>  H        0.6170300000     0.4559860000    -0.9891230000
| 21>  H        2.9358720000     0.8188800000    -0.1636940000
| 22>  H        2.2958040000    -1.1617840000     1.7057600000
| 23>  H        2.4970530000    -0.9772370000    -1.9355860000
| 24>  H        2.4374950000    -2.1507780000    -0.6126080000
| 25>  H        4.8637050000    -1.3891440000    -0.0005730000
| 26> *
| 27>
| 28>                          ****END OF INPUT****
 Total Charge           Charge          ....    0
 Multiplicity           Mult            ....    1
 Number of Electrons    NEL             ....   48
 Basis Dimension        Dim             ....  124

MULLIKEN ATOMIC CHARGES
-----------------------
   0 C :    0.020463
   1 C :    0.023379
   2 O :   -0.275005
   3 C :    0.027538
   4 C :    0.093989
   5 O :   -0.163326
   6 H :    0.037109
   7 H :    0.007589
   8 H :    0.024688
   9 H :    0.016429
  10 H :    0.151507
  11 H :    0.019226
  12 H :    0.023293
  13 H :   -0.006878
Sum of atomic charges:    0.0000000

LOEWDIN ATOMIC CHARGES
----------------------
   0 C :   -0.074848
   1 C :    0.046129
   2 O :   -0.109915
   3 C :   -0.093068
   4 C :    0.092214
   5 O :   -0.108973
   6 H :    0.032542
   7 H :    0.022987
   8 H :    0.034460
   9 H :    0.026113
  10 H :    0.066045
  11 H :    0.036228
  12 H :    0.040622
  13 H :   -0.010535

  Mayer bond orders larger than 0.1
B(  0-C ,  1-C ) :   1.0964 B(  0-C ,  6-H ) :   0.9570 B(  0-C ,  7-H ) :   0.9503
B(  0-C ,  8-H ) :   0.9478 B(  1-C ,  2-O ) :   1.0178 B(  1-C ,  3-C ) :   1.0087
B(  1-C ,  9-H ) :   0.9162 B(  2-O , 10-H ) :   0.9825 B(  3-C ,  4-C ) :   0.9733
B(  3-C , 11-H ) :   0.9143 B(  3-C , 12-H ) :   0.8987 B(  4-C ,  5-O ) :   2.1803
B(  4-C , 13-H ) :   0.9240

FINAL SINGLE POINT ENERGY      -307.069191751043

DIPOLE MOMENT
-------------
                                X             Y             Z
Electronic contribution:      6.07526      -1.56463      -1.35039
Nuclear contribution   :     -7.24988       1.42500       1.85222
                        -----------------------------------------
Total Dipole Moment    :     -1.17461      -0.13963       0.50183
                        -----------------------------------------
Magnitude (a.u.)       :      1.28493
Magnitude (Debye)      :      3.26604

                             ****ORCA TERMINATED NORMALLY****
TOTAL RUN TIME: 0 days 0 hours 0 minutes 5 seconds 861 msec
