                         Program Version 3.0.3 - RELEASE   -
|  1> ! RI PBE def2-SVP def2-SVP/J NBO PAL2
|  2> % maxcore 2000
|  3> % output
|  4>     # printlevel mini
|  5>     print[ P_Basis ] 0
|  6>     print[ P_SCFInfo ] 1
|  7>     print[ P_SCFIterInfo ] 1
|  8>     print[ P_OrbEn ] 0
|  9>     print[ P_Cartesian ] 0
| 10> end
| 11> *xyz 0 1
| 12>  C        0.7966400000    -0.2779950000     0.1127160000
| 13>  C        2.2986750000    -0.1625190000     0.0945800000
| 14>  O        2.6560910000     1.0314200000    -0.5640040000
| 15>  C        4.0351470000     1.2273650000    -0.6306950000
| 16>  C        4.3098350000     2.5228580000    -1.3487310000
| 17>  O        5.4133620000     2.9443850000    -1.5494290000
| 18>  H        0.4951420000    -1.1973790000     0.6188590000
| 19>  H        0.3996770000    -0.2973790000    -0.9039090000
| 20>  H        0.3517550000     0.5681140000     0.6396480000
| 21>  H        2.7490860000    -1.0216280000    -0.4253200000
| 22>  H        2.7011610000    -0.1554970000     1.1188780000
| 23>  H        4.5431760000     0.4150870000    -1.1747170000
| 24>  H        4.4949150000     1.2807820000     0.3690900000
| 25>  H        3.3991380000     3.0641660000    -1.6820560000
| 26> *
| 27>
| 28>                          ****END OF INPUT****
 Total Charge           Charge          ....    0
 Multiplicity           Mult            ....    1
 Number of Electrons    NEL             ....   48
 Basis Dimension        Dim             ....  124

MULLIKEN ATOMIC CHARGES
-----------------------
   0 C :   -0.020002
   1 C :    0.135352
   2 O :   -0.353555
   3 C :    0.186846
   4 C :    0.066822
   5 O :   -0.164410
   6 H :    0.022654
   7 H :    0.032884
   8 H :    0.035692
   9 H :   -0.002791
  10 H :   -0.000673
  11 H :    0.026670
  12 H :    0.027361
  13 H :    0.007151
Sum of atomic charges:   -0.0000000

LOEWDIN ATOMIC CHARGES
----------------------
   0 C :   -0.072290
   1 C :    0.060952
   2 O :   -0.147390
   3 C :    0.018407
   4 C :    0.087749
   5 O :   -0.101817
   6 H :    0.034159
   7 H :    0.031326
   8 H :    0.031980
   9 H :    0.005614
  10 H :    0.005843
  11 H :    0.026213
  12 H :    0.026498
  13 H :   -0.007244

  Mayer bond orders larger than 0.1
B(  0-C ,  1-C ) :   1.1164 B(  0-C ,  6-H ) :   0.9532 B(  0-C ,  7-H ) :   0.9649
B(  0-C ,  8-H ) :   0.9653 B(  1-C ,  2-O ) :   0.9964 B(  1-C ,  9-H ) :   0.9319
B(  1-C , 10-H ) :   0.9336 B(  2-O ,  3-C ) :   1.0088 B(  3-C ,  4-C ) :   0.9292
B(  3-C , 11-H ) :   0.9095 B(  3-C , 12-H ) :   0.9086 B(  4-C ,  5-O ) :   2.1756
B(  4-C , 13-H ) :   0.9285

FINAL SINGLE POINT ENERGY      -307.055224862030

DIPOLE MOMENT
-------------
                                X             Y             Z
Electronic contribution:      5.80246       5.70926      -3.01778
Nuclear contribution   :     -6.37167      -6.51784       3.45438
                        -----------------------------------------
Total Dipole Moment    :     -0.56921      -0.80858       0.43660
                        -----------------------------------------
Magnitude (a.u.)       :      1.08094
Magnitude (Debye)      :      2.74752

                             ****ORCA TERMINATED NORMALLY****
TOTAL RUN TIME: 0 days 0 hours 0 minutes 5 seconds 683 msec
