                         Program Version 3.0.3 - RELEASE   -
|  1> ! RI PBE def2-SVP def2-SVP/J NBO PAL2
|  2> % maxcore 2000
|  3> % output
|  4>     # printlevel mini
|  5>     print[ P_Basis ] 0
|  6>     print[ P_SCFInfo ] 1
|  7>     print[ P_SCFIterInfo ] 1
|  8>     print[ P_OrbEn ] 0
|  9>     print[ P_Cartesian ] 0
| 10> end
| 11> *xyz 0 1
| 12>  C        0.7676420000    -0.2308680000    -0.1145180000
| 13>  C        2.2536890000    -0.1367290000     0.1176480000
| 14>  O        2.9203350000    -0.6716230000    -1.0111340000
| 15>  C        4.3063430000    -0.5783530000    -0.9397900000
| 16>  O        4.8823550000    -1.4023990000     0.0241440000
| 17>  C        4.7752540000    -2.7737050000    -0.2792810000
| 18>  H        0.2244230000     0.1796730000     0.7395100000
| 19>  H        0.4633420000    -1.2710990000    -0.2467290000
| 20>  H        0.4795770000     0.3257780000    -1.0083880000
| 21>  H        2.5435860000    -0.6856500000     1.0212100000
| 22>  H        2.5603660000     0.9105950000     0.2574950000
| 23>  H        4.6166850000     0.4406510000    -0.6756990000
| 24>  H        4.6703240000    -0.8403380000    -1.9417120000
| 25>  H        5.2968280000    -3.3191700000     0.5068540000
| 26>  H        5.2466490000    -3.0004710000    -1.2449560000
| 27>  H        3.7314120000    -3.1011830000    -0.3151460000
| 28> *
| 29>
| 30>                          ****END OF INPUT****
 Total Charge           Charge          ....    0
 Multiplicity           Mult            ....    1
 Number of Electrons    NEL             ....   50
 Basis Dimension        Dim             ....  134

MULLIKEN ATOMIC CHARGES
-----------------------
   0 C :   -0.018015
   1 C :    0.132524
   2 O :   -0.348237
   3 C :    0.328056
   4 O :   -0.350044
   5 C :    0.142773
   6 H :    0.021028
   7 H :    0.028376
   8 H :    0.028425
   9 H :    0.007711
  10 H :   -0.005735
  11 H :   -0.009915
  12 H :   -0.009210
  13 H :    0.033817
  14 H :    0.002437
  15 H :    0.016008
Sum of atomic charges:    0.0000000

LOEWDIN ATOMIC CHARGES
----------------------
   0 C :   -0.073446
   1 C :    0.058737
   2 O :   -0.145778
   3 C :    0.117265
   4 O :   -0.147293
   5 C :    0.049166
   6 H :    0.032343
   7 H :    0.029347
   8 H :    0.029166
   9 H :    0.007019
  10 H :    0.005863
  11 H :    0.000096
  12 H :   -0.000408
  13 H :    0.023137
  14 H :    0.007275
  15 H :    0.007512

  Mayer bond orders larger than 0.1
B(  0-C ,  1-C ) :   1.1157 B(  0-C ,  6-H ) :   0.9541 B(  0-C ,  7-H ) :   0.9662
B(  0-C ,  8-H ) :   0.9631 B(  1-C ,  2-O ) :   0.9830 B(  1-C ,  9-H ) :   0.9376
B(  1-C , 10-H ) :   0.9332 B(  2-O ,  3-C ) :   1.0651 B(  3-C ,  4-O ) :   1.0611
B(  3-C , 11-H ) :   0.9315 B(  3-C , 12-H ) :   0.9322 B(  4-O ,  5-C ) :   0.9988
B(  5-C , 13-H ) :   0.9777 B(  5-C , 14-H ) :   0.9572 B(  5-C , 15-H ) :   0.9603

FINAL SINGLE POINT ENERGY      -308.254342452574

DIPOLE MOMENT
-------------
                                X             Y             Z
Electronic contribution:      3.16683       0.47161      -0.70485
Nuclear contribution   :     -3.25324      -0.52992       0.73783
                        -----------------------------------------
Total Dipole Moment    :     -0.08641      -0.05831       0.03299
                        -----------------------------------------
Magnitude (a.u.)       :      0.10934
Magnitude (Debye)      :      0.27792

                             ****ORCA TERMINATED NORMALLY****
TOTAL RUN TIME: 0 days 0 hours 0 minutes 5 seconds 971 msec
