                         Program Version 3.0.3 - RELEASE   -
|  1> ! RI PBE def2-SVP def2-SVP/J NBO PAL2
|  2> % maxcore 2000
|  3> % output
|  4>     # printlevel mini
|  5>     print[ P_Basis ] 0
|  6>     print[ P_SCFInfo ] 1
|  7>     print[ P_SCFIterInfo ] 1
|  8>     print[ P_OrbEn ] 0
|  9>     print[ P_Cartesian ] 0
| 10> end
| 11> *xyz 0 1
| 12>  C        0.5140100000     0.2546060000    -0.1496580000
| 13>  C        1.9162540000    -0.1229540000     0.2035720000
| 14>  O        2.8164470000     0.6340000000     0.4246980000
| 15>  O        2.0417630000    -1.4761330000     0.2427170000
| 16>  C        3.2715330000    -1.9990610000     0.5537420000
| 17>  C        3.4455530000    -3.3074340000     0.6036290000
| 18>  H        0.4258190000     1.3374100000    -0.1785290000
| 19>  H       -0.1776200000    -0.1600580000     0.5863010000
| 20>  H        0.2490910000    -0.1708620000    -1.1195590000
| 21>  H        4.0401970000    -1.2607380000     0.7431300000
| 22>  H        2.6366040000    -3.9987490000     0.4038600000
| 23>  H        4.4202400000    -3.7044270000     0.8501880000
| 24> *
| 25>
| 26>                          ****END OF INPUT****
 Total Charge           Charge          ....    0
 Multiplicity           Mult            ....    1
 Number of Electrons    NEL             ....   46
 Basis Dimension        Dim             ....  114

MULLIKEN ATOMIC CHARGES
-----------------------
   0 C :    0.022476
   1 C :    0.061973
   2 O :   -0.174605
   3 O :   -0.213661
   4 C :    0.095594
   5 C :   -0.053990
   6 H :    0.048393
   7 H :    0.057516
   8 H :    0.053860
   9 H :    0.029479
  10 H :    0.036405
  11 H :    0.036561
Sum of atomic charges:   -0.0000000

LOEWDIN ATOMIC CHARGES
----------------------
   0 C :   -0.082701
   1 C :    0.053685
   2 O :   -0.132661
   3 O :   -0.033160
   4 C :    0.046357
   5 C :   -0.090768
   6 H :    0.045142
   7 H :    0.052966
   8 H :    0.052442
   9 H :    0.020833
  10 H :    0.031737
  11 H :    0.036130

  Mayer bond orders larger than 0.1
B(  0-C ,  1-C ) :   1.0526 B(  0-C ,  6-H ) :   0.9527 B(  0-C ,  7-H ) :   0.9394
B(  0-C ,  8-H ) :   0.9389 B(  1-C ,  2-O ) :   2.1022 B(  1-C ,  3-O ) :   1.0964
B(  3-O ,  4-C ) :   1.0295 B(  4-C ,  5-C ) :   1.9459 B(  4-C ,  9-H ) :   0.9504
B(  5-C , 10-H ) :   0.9447 B(  5-C , 11-H ) :   0.9406

FINAL SINGLE POINT ENERGY      -305.884037671467

DIPOLE MOMENT
-------------
                                X             Y             Z
Electronic contribution:      1.63203       1.63615       0.40187
Nuclear contribution   :     -2.14932      -1.97970      -0.52750
                        -----------------------------------------
Total Dipole Moment    :     -0.51729      -0.34356      -0.12563
                        -----------------------------------------
Magnitude (a.u.)       :      0.63357
Magnitude (Debye)      :      1.61040

                             ****ORCA TERMINATED NORMALLY****
TOTAL RUN TIME: 0 days 0 hours 0 minutes 5 seconds 161 msec
