                         Program Version 3.0.3 - RELEASE   -
|  1> ! RI PBE def2-SVP def2-SVP/J NBO PAL2
|  2> % maxcore 2000
|  3> % output
|  4>     # printlevel mini
|  5>     print[ P_Basis ] 0
|  6>     print[ P_SCFInfo ] 1
|  7>     print[ P_SCFIterInfo ] 1
|  8>     print[ P_OrbEn ] 0
|  9>     print[ P_Cartesian ] 0
| 10> end
| 11> *xyz 0 1
| 12>  C        2.5134630000     1.1402590000    -0.0644910000
| 13>  O        2.2357160000    -0.2356890000    -0.0039450000
| 14>  C        2.8099770000    -0.8421290000     1.1019470000
| 15>  C        3.1124090000    -2.2913750000     0.9827190000
| 16>  C        4.2387180000    -1.2907660000     1.0478100000
| 17>  C        5.1212410000    -1.2118110000     2.2599170000
| 18>  H        2.0250190000     1.5320970000    -0.9569600000
| 19>  H        3.5922200000     1.3307610000    -0.1314610000
| 20>  H        2.1213390000     1.6680690000     0.8154340000
| 21>  H        2.4403080000    -0.4714860000     2.0596110000
| 22>  H        2.9011610000    -2.7481330000     0.0240260000
| 23>  H        2.9350940000    -2.9254050000     1.8436340000
| 24>  H        4.7261330000    -1.1038250000     0.0955450000
| 25>  H        4.5412200000    -1.3619180000     3.1746210000
| 26>  H        5.6127660000    -0.2378400000     2.3351520000
| 27>  H        5.8996160000    -1.9797200000     2.2373420000
| 28> *
| 29>
| 30>                          ****END OF INPUT****
 Total Charge           Charge          ....    0
 Multiplicity           Mult            ....    1
 Number of Electrons    NEL             ....   48
 Basis Dimension        Dim             ....  134

MULLIKEN ATOMIC CHARGES
-----------------------
   0 C :    0.163306
   1 O :   -0.305948
   2 C :    0.058797
   3 C :    0.017288
   4 C :   -0.184261
   5 C :    0.075733
   6 H :    0.030649
   7 H :    0.003866
   8 H :    0.001773
   9 H :   -0.001838
  10 H :    0.036615
  11 H :    0.025378
  12 H :    0.027031
  13 H :    0.003978
  14 H :    0.020309
  15 H :    0.027324
Sum of atomic charges:   -0.0000000

LOEWDIN ATOMIC CHARGES
----------------------
   0 C :    0.053084
   1 O :   -0.128229
   2 C :    0.032574
   3 C :   -0.048002
   4 C :   -0.062821
   5 C :   -0.056984
   6 H :    0.022193
   7 H :    0.004990
   8 H :    0.005859
   9 H :    0.004729
  10 H :    0.033302
  11 H :    0.026664
  12 H :    0.028949
  13 H :    0.025684
  14 H :    0.028074
  15 H :    0.029934

  Mayer bond orders larger than 0.1
B(  0-C ,  1-O ) :   1.0078 B(  0-C ,  6-H ) :   0.9768 B(  0-C ,  7-H ) :   0.9556
B(  0-C ,  8-H ) :   0.9549 B(  1-O ,  2-C ) :   1.0894 B(  2-C ,  3-C ) :   0.9950
B(  2-C ,  4-C ) :   0.9457 B(  2-C ,  9-H ) :   0.9321 B(  3-C ,  4-C ) :   0.9966
B(  3-C , 10-H ) :   0.9361 B(  3-C , 11-H ) :   0.9367 B(  4-C ,  5-C ) :   1.0883
B(  4-C , 12-H ) :   0.9325 B(  5-C , 13-H ) :   0.9504 B(  5-C , 14-H ) :   0.9614
B(  5-C , 15-H ) :   0.9562

FINAL SINGLE POINT ENERGY      -271.172744532764

DIPOLE MOMENT
-------------
                                X             Y             Z
Electronic contribution:     -2.98456      -0.81624      -2.29944
Nuclear contribution   :      3.28688       1.08321       2.54754
                        -----------------------------------------
Total Dipole Moment    :      0.30232       0.26697       0.24810
                        -----------------------------------------
Magnitude (a.u.)       :      0.47352
Magnitude (Debye)      :      1.20359

                             ****ORCA TERMINATED NORMALLY****
TOTAL RUN TIME: 0 days 0 hours 0 minutes 5 seconds 832 msec
