                         Program Version 3.0.3 - RELEASE   -
|  1> ! RI PBE def2-SVP def2-SVP/J NBO PAL2
|  2> % maxcore 2000
|  3> % output
|  4>     # printlevel mini
|  5>     print[ P_Basis ] 0
|  6>     print[ P_SCFInfo ] 1
|  7>     print[ P_SCFIterInfo ] 1
|  8>     print[ P_OrbEn ] 0
|  9>     print[ P_Cartesian ] 0
| 10> end
| 11> *xyz 0 1
| 12>  C        2.6139290000     0.9881390000     0.1282760000
| 13>  O        2.1197540000    -0.3007650000    -0.1464320000
| 14>  C        2.7411690000    -1.2738430000     0.6148260000
| 15>  C        2.7543050000    -2.6588580000     0.0631170000
| 16>  C        4.0284670000    -1.8613800000     0.1511060000
| 17>  O        4.9729660000    -2.1645620000     1.1257190000
| 18>  H        2.0783800000     1.6844330000    -0.5170600000
| 19>  H        3.6892530000     1.0579730000    -0.0769100000
| 20>  H        2.4410050000     1.2669650000     1.1758650000
| 21>  H        2.6305420000    -1.1682270000     1.6941110000
| 22>  H        2.3228440000    -2.8033480000    -0.9195850000
| 23>  H        2.6161420000    -3.4718260000     0.7651880000
| 24>  H        4.4210030000    -1.4734580000    -0.7869770000
| 25>  H        5.3826400000    -3.0039430000     0.8990760000
| 26> *
| 27>
| 28>                          ****END OF INPUT****
 Total Charge           Charge          ....    0
 Multiplicity           Mult            ....    1
 Number of Electrons    NEL             ....   48
 Basis Dimension        Dim             ....  124

MULLIKEN ATOMIC CHARGES
-----------------------
   0 C :    0.162374
   1 O :   -0.307031
   2 C :    0.058800
   3 C :   -0.007199
   4 C :    0.025045
   5 O :   -0.234372
   6 H :    0.030426
   7 H :    0.010694
   8 H :    0.005127
   9 H :    0.014161
  10 H :    0.037470
  11 H :    0.028861
  12 H :    0.013940
  13 H :    0.161705
Sum of atomic charges:    0.0000000

LOEWDIN ATOMIC CHARGES
----------------------
   0 C :    0.055560
   1 O :   -0.127951
   2 C :    0.026200
   3 C :   -0.066421
   4 C :    0.013263
   5 O :   -0.099768
   6 H :    0.022333
   7 H :    0.007787
   8 H :    0.007753
   9 H :    0.012211
  10 H :    0.033831
  11 H :    0.030955
  12 H :    0.009888
  13 H :    0.074357

  Mayer bond orders larger than 0.1
B(  0-C ,  1-O ) :   1.0023 B(  0-C ,  6-H ) :   0.9755 B(  0-C ,  7-H ) :   0.9580
B(  0-C ,  8-H ) :   0.9569 B(  1-O ,  2-C ) :   1.0923 B(  2-C ,  3-C ) :   0.9945
B(  2-C ,  4-C ) :   0.9299 B(  2-C ,  9-H ) :   0.9244 B(  3-C ,  4-C ) :   0.9847
B(  3-C , 10-H ) :   0.9307 B(  3-C , 11-H ) :   0.9276 B(  4-C ,  5-O ) :   1.1349
B(  4-C , 12-H ) :   0.9318 B(  5-O , 13-H ) :   0.9787

FINAL SINGLE POINT ENERGY      -307.026231793584

DIPOLE MOMENT
-------------
                                X             Y             Z
Electronic contribution:      0.57263      -1.76855       0.28070
Nuclear contribution   :     -0.27294       1.53313      -0.40575
                        -----------------------------------------
Total Dipole Moment    :      0.29969      -0.23541      -0.12505
                        -----------------------------------------
Magnitude (a.u.)       :      0.40109
Magnitude (Debye)      :      1.01949

                             ****ORCA TERMINATED NORMALLY****
TOTAL RUN TIME: 0 days 0 hours 0 minutes 5 seconds 826 msec
