                         Program Version 3.0.3 - RELEASE   -
|  1> ! RI PBE def2-SVP def2-SVP/J NBO PAL2
|  2> % maxcore 2000
|  3> % output
|  4>     # printlevel mini
|  5>     print[ P_Basis ] 0
|  6>     print[ P_SCFInfo ] 1
|  7>     print[ P_SCFIterInfo ] 1
|  8>     print[ P_OrbEn ] 0
|  9>     print[ P_Cartesian ] 0
| 10> end
| 11> *xyz 0 1
| 12>  C        2.9152160000     0.4797670000    -0.8295850000
| 13>  O        2.1052560000    -0.0634960000     0.1775570000
| 14>  C        2.7049120000    -1.1389130000     0.8319160000
| 15>  C        1.8544570000    -1.7948880000     1.9178770000
| 16>  C        2.4334800000    -3.1526990000     1.4734150000
| 17>  C        2.8003700000    -2.5067230000     0.1223980000
| 18>  H        2.3747490000     1.3175220000    -1.2708460000
| 19>  H        3.1338230000    -0.2537310000    -1.6171370000
| 20>  H        3.8690740000     0.8461880000    -0.4240810000
| 21>  H        3.6907240000    -0.8428200000     1.2243270000
| 22>  H        0.7986560000    -1.7093330000     1.6517040000
| 23>  H        1.9936610000    -1.4710950000     2.9498680000
| 24>  H        1.7593020000    -4.0089520000     1.4572290000
| 25>  H        3.3225360000    -3.4213430000     2.0472700000
| 26>  H        1.9835590000    -2.6066220000    -0.5968800000
| 27>  H        3.7403150000    -2.7904720000    -0.3532230000
| 28> *
| 29>
| 30>                          ****END OF INPUT****
 Total Charge           Charge          ....    0
 Multiplicity           Mult            ....    1
 Number of Electrons    NEL             ....   48
 Basis Dimension        Dim             ....  134

MULLIKEN ATOMIC CHARGES
-----------------------
   0 C :    0.158921
   1 O :   -0.310621
   2 C :    0.021019
   3 C :    0.036439
   4 C :   -0.047816
   5 C :    0.019004
   6 H :    0.030322
   7 H :    0.006354
   8 H :   -0.002067
   9 H :   -0.018509
  10 H :    0.022746
  11 H :    0.016516
  12 H :    0.018171
  13 H :    0.022740
  14 H :    0.014345
  15 H :    0.012436
Sum of atomic charges:   -0.0000000

LOEWDIN ATOMIC CHARGES
----------------------
   0 C :    0.051446
   1 O :   -0.138293
   2 C :    0.042967
   3 C :   -0.038183
   4 C :   -0.034124
   5 C :   -0.053305
   6 H :    0.022429
   7 H :    0.005373
   8 H :    0.004225
   9 H :    0.002800
  10 H :    0.030957
  11 H :    0.017618
  12 H :    0.019533
  13 H :    0.024653
  14 H :    0.027947
  15 H :    0.013958

  Mayer bond orders larger than 0.1
B(  0-C ,  1-O ) :   1.0161 B(  0-C ,  6-H ) :   0.9768 B(  0-C ,  7-H ) :   0.9559
B(  0-C ,  8-H ) :   0.9513 B(  1-O ,  2-C ) :   1.0829 B(  2-C ,  3-C ) :   1.0708
B(  2-C ,  5-C ) :   1.0729 B(  2-C ,  9-H ) :   0.9043 B(  3-C ,  4-C ) :   1.0979
B(  3-C , 10-H ) :   0.9157 B(  3-C , 11-H ) :   0.9347 B(  4-C ,  5-C ) :   1.1177
B(  4-C , 12-H ) :   0.9331 B(  4-C , 13-H ) :   0.9407 B(  5-C , 14-H ) :   0.9051
B(  5-C , 15-H ) :   0.9370

FINAL SINGLE POINT ENERGY      -271.177358830594

DIPOLE MOMENT
-------------
                                X             Y             Z
Electronic contribution:     -1.42696       1.49989       0.57486
Nuclear contribution   :      1.79015      -1.63302      -0.71678
                        -----------------------------------------
Total Dipole Moment    :      0.36320      -0.13313      -0.14191
                        -----------------------------------------
Magnitude (a.u.)       :      0.41204
Magnitude (Debye)      :      1.04731

                             ****ORCA TERMINATED NORMALLY****
TOTAL RUN TIME: 0 days 0 hours 0 minutes 6 seconds 572 msec
