                         Program Version 3.0.3 - RELEASE   -
|  1> ! RI PBE def2-SVP def2-SVP/J NBO PAL2
|  2> % maxcore 2000
|  3> % output
|  4>     # printlevel mini
|  5>     print[ P_Basis ] 0
|  6>     print[ P_SCFInfo ] 1
|  7>     print[ P_SCFIterInfo ] 1
|  8>     print[ P_OrbEn ] 0
|  9>     print[ P_Cartesian ] 0
| 10> end
| 11> *xyz 0 1
| 12>  C        1.1508440000     0.8228530000    -0.1293230000
| 13>  O        1.9555780000     0.5996550000    -1.2597680000
| 14>  C        2.6866700000    -0.5898070000    -1.2166530000
| 15>  C        3.8206630000    -0.6101050000    -0.2303900000
| 16>  C        2.8560960000    -1.2326380000    -2.5467530000
| 17>  C        1.9351220000    -1.8507790000    -1.5247460000
| 18>  H        0.5493170000     1.7082640000    -0.3368450000
| 19>  H        1.7451190000     1.0099990000     0.7732620000
| 20>  H        0.4824530000    -0.0261380000     0.0623120000
| 21>  H        3.4643240000    -0.5355540000     0.8003450000
| 22>  H        4.5020330000     0.2231810000    -0.4205760000
| 23>  H        4.3837600000    -1.5410260000    -0.3168310000
| 24>  H        3.7969900000    -1.7237050000    -2.7631510000
| 25>  H        2.3926300000    -0.7314130000    -3.3867390000
| 26>  H        2.2387120000    -2.7705170000    -1.0390870000
| 27>  H        0.8714880000    -1.7601610000    -1.7076580000
| 28> *
| 29>
| 30>                          ****END OF INPUT****
 Total Charge           Charge          ....    0
 Multiplicity           Mult            ....    1
 Number of Electrons    NEL             ....   48
 Basis Dimension        Dim             ....  134

MULLIKEN ATOMIC CHARGES
-----------------------
   0 C :    0.165336
   1 O :   -0.311856
   2 C :   -0.122152
   3 C :    0.088924
   4 C :   -0.005055
   5 C :   -0.031607
   6 H :    0.029846
   7 H :    0.002995
   8 H :    0.001982
   9 H :    0.020343
  10 H :    0.031920
  11 H :    0.004253
  12 H :    0.026926
  13 H :    0.035277
  14 H :    0.024264
  15 H :    0.038603
Sum of atomic charges:   -0.0000000

LOEWDIN ATOMIC CHARGES
----------------------
   0 C :    0.052404
   1 O :   -0.128196
   2 C :    0.004964
   3 C :   -0.060392
   4 C :   -0.043251
   5 C :   -0.058416
   6 H :    0.022760
   7 H :    0.003694
   8 H :    0.005210
   9 H :    0.025976
  10 H :    0.032942
  11 H :    0.031569
  12 H :    0.025124
  13 H :    0.031820
  14 H :    0.023423
  15 H :    0.030371

  Mayer bond orders larger than 0.1
B(  0-C ,  1-O ) :   1.0087 B(  0-C ,  6-H ) :   0.9761 B(  0-C ,  7-H ) :   0.9563
B(  0-C ,  8-H ) :   0.9507 B(  1-O ,  2-C ) :   1.0592 B(  2-C ,  3-C ) :   1.0758
B(  2-C ,  4-C ) :   0.9797 B(  2-C ,  5-C ) :   0.9811 B(  3-C ,  9-H ) :   0.9496
B(  3-C , 10-H ) :   0.9527 B(  3-C , 11-H ) :   0.9357 B(  4-C ,  5-C ) :   1.0236
B(  4-C , 12-H ) :   0.9442 B(  4-C , 13-H ) :   0.9374 B(  5-C , 14-H ) :   0.9418
B(  5-C , 15-H ) :   0.9339

FINAL SINGLE POINT ENERGY      -271.173785916837

DIPOLE MOMENT
-------------
                                X             Y             Z
Electronic contribution:     -0.55085       1.35885      -2.30775
Nuclear contribution   :      0.53376      -1.59454       2.67745
                        -----------------------------------------
Total Dipole Moment    :     -0.01709      -0.23568       0.36970
                        -----------------------------------------
Magnitude (a.u.)       :      0.43877
Magnitude (Debye)      :      1.11527

                             ****ORCA TERMINATED NORMALLY****
TOTAL RUN TIME: 0 days 0 hours 0 minutes 6 seconds 631 msec
