                         Program Version 3.0.3 - RELEASE   -
|  1> ! RI PBE def2-SVP def2-SVP/J NBO PAL2
|  2> % maxcore 2000
|  3> % output
|  4>     # printlevel mini
|  5>     print[ P_Basis ] 0
|  6>     print[ P_SCFInfo ] 1
|  7>     print[ P_SCFIterInfo ] 1
|  8>     print[ P_OrbEn ] 0
|  9>     print[ P_Cartesian ] 0
| 10> end
| 11> *xyz 0 1
| 12>  C        2.7303960000    -1.0385020000     0.0657510000
| 13>  O        2.1575060000     0.2228900000     0.2937650000
| 14>  C        2.8340130000     1.2480480000    -0.3598500000
| 15>  C        2.2747480000     2.6368600000    -0.0763870000
| 16>  O        3.5719740000     3.1246120000     0.2962330000
| 17>  C        4.1196770000     1.7997260000     0.2783720000
| 18>  H        2.1234260000    -1.7733880000     0.5940470000
| 19>  H        3.7596910000    -1.0933300000     0.4444340000
| 20>  H        2.7399610000    -1.2854820000    -1.0047420000
| 21>  H        2.9449490000     1.0203520000    -1.4283140000
| 22>  H        1.5741490000     2.6366700000     0.7658150000
| 23>  H        1.8501410000     3.1928380000    -0.9160100000
| 24>  H        4.2912340000     1.4114860000     1.2898410000
| 25>  H        5.0441550000     1.7472300000    -0.3033670000
| 26> *
| 27>
| 28>                          ****END OF INPUT****
 Total Charge           Charge          ....    0
 Multiplicity           Mult            ....    1
 Number of Electrons    NEL             ....   48
 Basis Dimension        Dim             ....  124

MULLIKEN ATOMIC CHARGES
-----------------------
   0 C :    0.155261
   1 O :   -0.310399
   2 C :   -0.063807
   3 C :    0.243237
   4 O :   -0.367809
   5 C :    0.239846
   6 H :    0.036845
   7 H :    0.006233
   8 H :    0.007575
   9 H :    0.001225
  10 H :    0.017609
  11 H :    0.017988
  12 H :    0.002155
  13 H :    0.014042
Sum of atomic charges:   -0.0000000

LOEWDIN ATOMIC CHARGES
----------------------
   0 C :    0.052901
   1 O :   -0.133101
   2 C :    0.022634
   3 C :    0.080309
   4 O :   -0.184339
   5 C :    0.065840
   6 H :    0.025676
   7 H :    0.005945
   8 H :    0.007199
   9 H :    0.007336
  10 H :    0.015202
  11 H :    0.013492
  12 H :    0.010711
  13 H :    0.010196

  Mayer bond orders larger than 0.1
B(  0-C ,  1-O ) :   1.0093 B(  0-C ,  6-H ) :   0.9763 B(  0-C ,  7-H ) :   0.9565
B(  0-C ,  8-H ) :   0.9543 B(  1-O ,  2-C ) :   1.0693 B(  2-C ,  3-C ) :   1.0822
B(  2-C ,  5-C ) :   1.0799 B(  2-C ,  9-H ) :   0.8987 B(  3-C ,  4-O ) :   1.0350
B(  3-C , 10-H ) :   0.9163 B(  3-C , 11-H ) :   0.9349 B(  4-O ,  5-C ) :   1.0422
B(  5-C , 12-H ) :   0.9063 B(  5-C , 13-H ) :   0.9352

FINAL SINGLE POINT ENERGY      -307.021961058368

DIPOLE MOMENT
-------------
                                X             Y             Z
Electronic contribution:     -0.59972       3.53802       0.79653
Nuclear contribution   :      0.68762      -4.31382      -1.17958
                        -----------------------------------------
Total Dipole Moment    :      0.08790      -0.77580      -0.38305
                        -----------------------------------------
Magnitude (a.u.)       :      0.86967
Magnitude (Debye)      :      2.21053

                             ****ORCA TERMINATED NORMALLY****
TOTAL RUN TIME: 0 days 0 hours 0 minutes 5 seconds 889 msec
