                         Program Version 3.0.3 - RELEASE   -
|  1> ! RI PBE def2-SVP def2-SVP/J NBO PAL2
|  2> % maxcore 2000
|  3> % output
|  4>     # printlevel mini
|  5>     print[ P_Basis ] 0
|  6>     print[ P_SCFInfo ] 1
|  7>     print[ P_SCFIterInfo ] 1
|  8>     print[ P_OrbEn ] 0
|  9>     print[ P_Cartesian ] 0
| 10> end
| 11> *xyz 0 1
| 12>  C        1.1613690000    -0.0503890000     0.5034120000
| 13>  O        2.5558910000     0.0604030000     0.5105810000
| 14>  C        2.9966770000     1.2935450000    -0.0003350000
| 15>  C        4.4895550000     1.3324700000    -0.0071800000
| 16>  C        5.1814970000     2.6577810000     0.0893780000
| 17>  C        5.2249990000     1.7021600000     1.2417770000
| 18>  H        0.9050690000    -1.0300860000     0.9076340000
| 19>  H        0.7527710000     0.0318740000    -0.5142080000
| 20>  H        0.6898940000     0.7242230000     1.1255920000
| 21>  H        2.6058790000     2.1215630000     0.6148310000
| 22>  H        2.6042200000     1.4359810000    -1.0205630000
| 23>  H        4.9548540000     0.5851850000    -0.6412900000
| 24>  H        4.5641650000     3.5431500000     0.1891750000
| 25>  H        6.0822770000     2.8062240000    -0.4923930000
| 26>  H        4.6315600000     1.9355080000     2.1177280000
| 27>  H        6.1578330000     1.1956890000     1.4543510000
| 28> *
| 29>
| 30>                          ****END OF INPUT****
 Total Charge           Charge          ....    0
 Multiplicity           Mult            ....    1
 Number of Electrons    NEL             ....   48
 Basis Dimension        Dim             ....  134

MULLIKEN ATOMIC CHARGES
-----------------------
   0 C :    0.153531
   1 O :   -0.347172
   2 C :    0.273961
   3 C :   -0.162513
   4 C :   -0.046586
   5 C :   -0.016732
   6 H :    0.028741
   7 H :   -0.000264
   8 H :    0.000999
   9 H :   -0.032448
  10 H :   -0.012765
  11 H :    0.029586
  12 H :    0.032969
  13 H :    0.034016
  14 H :    0.031742
  15 H :    0.032936
Sum of atomic charges:    0.0000000

LOEWDIN ATOMIC CHARGES
----------------------
   0 C :    0.048759
   1 O :   -0.150728
   2 C :    0.066743
   3 C :   -0.052803
   4 C :   -0.043833
   5 C :   -0.039196
   6 H :    0.022379
   7 H :    0.003033
   8 H :    0.003251
   9 H :    0.001409
  10 H :    0.004524
  11 H :    0.029432
  12 H :    0.024610
  13 H :    0.027685
  14 H :    0.026653
  15 H :    0.028084

  Mayer bond orders larger than 0.1
B(  0-C ,  1-O ) :   1.0229 B(  0-C ,  6-H ) :   0.9765 B(  0-C ,  7-H ) :   0.9537
B(  0-C ,  8-H ) :   0.9548 B(  1-O ,  2-C ) :   1.0268 B(  2-C ,  3-C ) :   1.0768
B(  2-C ,  9-H ) :   0.9037 B(  2-C , 10-H ) :   0.9160 B(  3-C ,  4-C ) :   0.9826
B(  3-C ,  5-C ) :   0.9936 B(  3-C , 11-H ) :   0.9451 B(  4-C ,  5-C ) :   1.0421
B(  4-C , 12-H ) :   0.9505 B(  4-C , 13-H ) :   0.9463 B(  5-C , 14-H ) :   0.9497
B(  5-C , 15-H ) :   0.9499

FINAL SINGLE POINT ENERGY      -271.169285050347

DIPOLE MOMENT
-------------
                                X             Y             Z
Electronic contribution:      1.05834      -1.59854       0.04783
Nuclear contribution   :     -1.27334       1.86380      -0.17938
                        -----------------------------------------
Total Dipole Moment    :     -0.21499       0.26525      -0.13155
                        -----------------------------------------
Magnitude (a.u.)       :      0.36591
Magnitude (Debye)      :      0.93006

                             ****ORCA TERMINATED NORMALLY****
TOTAL RUN TIME: 0 days 0 hours 0 minutes 6 seconds 442 msec
