                         Program Version 3.0.3 - RELEASE   -
|  1> ! RI PBE def2-SVP def2-SVP/J NBO PAL2
|  2> % maxcore 2000
|  3> % output
|  4>     # printlevel mini
|  5>     print[ P_Basis ] 0
|  6>     print[ P_SCFInfo ] 1
|  7>     print[ P_SCFIterInfo ] 1
|  8>     print[ P_OrbEn ] 0
|  9>     print[ P_Cartesian ] 0
| 10> end
| 11> *xyz 0 1
| 12>  C        1.6974470000     0.2967310000     0.8843590000
| 13>  O        3.0260860000     0.6489740000     0.6131100000
| 14>  C        3.3764900000     0.4250730000    -0.7253710000
| 15>  C        4.7804100000     0.9038700000    -0.9357900000
| 16>  C        5.9119990000    -0.0118470000    -0.8768530000
| 17>  O        5.4053250000     0.4460950000    -2.1215880000
| 18>  H        1.5096440000     0.5074690000     1.9372350000
| 19>  H        1.5170130000    -0.7709790000     0.6972090000
| 20>  H        0.9937420000     0.8785710000     0.2728290000
| 21>  H        2.6954060000     0.9696110000    -1.3988600000
| 22>  H        3.3123130000    -0.6427840000    -0.9843020000
| 23>  H        4.9528680000     1.9536490000    -0.7038920000
| 24>  H        5.7320170000    -1.0622290000    -0.6604030000
| 25>  H        6.8959410000     0.3646070000    -0.6099920000
| 26> *
| 27>
| 28>                          ****END OF INPUT****
 Total Charge           Charge          ....    0
 Multiplicity           Mult            ....    1
 Number of Electrons    NEL             ....   48
 Basis Dimension        Dim             ....  124

MULLIKEN ATOMIC CHARGES
-----------------------
   0 C :    0.155226
   1 O :   -0.352725
   2 C :    0.266843
   3 C :   -0.040311
   4 C :    0.153001
   5 O :   -0.290645
   6 H :    0.033325
   7 H :    0.004201
   8 H :    0.004148
   9 H :    0.000896
  10 H :   -0.017979
  11 H :    0.028094
  12 H :    0.025242
  13 H :    0.030683
Sum of atomic charges:   -0.0000000

LOEWDIN ATOMIC CHARGES
----------------------
   0 C :    0.051098
   1 O :   -0.149622
   2 C :    0.053036
   3 C :    0.032639
   4 C :    0.060313
   5 O :   -0.152415
   6 H :    0.024172
   7 H :    0.005484
   8 H :    0.006069
   9 H :    0.010394
  10 H :    0.007696
  11 H :    0.018603
  12 H :    0.015073
  13 H :    0.017460

  Mayer bond orders larger than 0.1
B(  0-C ,  1-O ) :   1.0178 B(  0-C ,  6-H ) :   0.9761 B(  0-C ,  7-H ) :   0.9557
B(  0-C ,  8-H ) :   0.9547 B(  1-O ,  2-C ) :   1.0244 B(  2-C ,  3-C ) :   1.0365
B(  2-C ,  9-H ) :   0.9098 B(  2-C , 10-H ) :   0.9027 B(  3-C ,  4-C ) :   1.1043
B(  3-C ,  5-O ) :   0.9791 B(  3-C , 11-H ) :   0.9343 B(  4-C ,  5-O ) :   1.0000
B(  4-C , 12-H ) :   0.9262 B(  4-C , 13-H ) :   0.9390

FINAL SINGLE POINT ENERGY      -307.019279005491

DIPOLE MOMENT
-------------
                                X             Y             Z
Electronic contribution:      3.71191       1.10811      -2.08607
Nuclear contribution   :     -4.08494      -1.26732       2.50482
                        -----------------------------------------
Total Dipole Moment    :     -0.37304      -0.15921       0.41875
                        -----------------------------------------
Magnitude (a.u.)       :      0.58297
Magnitude (Debye)      :      1.48179

                             ****ORCA TERMINATED NORMALLY****
TOTAL RUN TIME: 0 days 0 hours 0 minutes 5 seconds 753 msec
