                         Program Version 3.0.3 - RELEASE   -
|  1> ! RI PBE def2-SVP def2-SVP/J NBO PAL2
|  2> % maxcore 2000
|  3> % output
|  4>     # printlevel mini
|  5>     print[ P_Basis ] 0
|  6>     print[ P_SCFInfo ] 1
|  7>     print[ P_SCFIterInfo ] 1
|  8>     print[ P_OrbEn ] 0
|  9>     print[ P_Cartesian ] 0
| 10> end
| 11> *xyz 0 1
| 12>  C        1.2541240000     0.6220290000     0.0692000000
| 13>  O        2.6460280000     0.4637470000    -0.0521710000
| 14>  C        3.2484270000    -0.1148040000     1.0194630000
| 15>  C        4.5587490000    -0.3416690000     1.0799650000
| 16>  C        5.4881280000     0.0220380000    -0.0313380000
| 17>  C        5.1556010000    -0.9827520000     2.2904760000
| 18>  H        0.9044170000     1.0918560000    -0.8493310000
| 19>  H        0.9965010000     1.2658600000     0.9186130000
| 20>  H        0.7497950000    -0.3442560000     0.1889550000
| 21>  H        2.5862100000    -0.3867580000     1.8394900000
| 22>  H        4.9607580000     0.4818920000    -0.8661900000
| 23>  H        6.0158940000    -0.8638220000    -0.4020750000
| 24>  H        6.2571000000     0.7201340000     0.3180510000
| 25>  H        4.4001080000    -1.2107860000     3.0451980000
| 26>  H        5.9077780000    -0.3327010000     2.7519120000
| 27>  H        5.6665520000    -1.9172180000     2.0317020000
| 28> *
| 29>
| 30>                          ****END OF INPUT****
 Total Charge           Charge          ....    0
 Multiplicity           Mult            ....    1
 Number of Electrons    NEL             ....   48
 Basis Dimension        Dim             ....  134

MULLIKEN ATOMIC CHARGES
-----------------------
   0 C :    0.144835
   1 O :   -0.275646
   2 C :    0.088914
   3 C :   -0.228114
   4 C :    0.066785
   5 C :    0.044616
   6 H :    0.035889
   7 H :    0.020304
   8 H :    0.019237
   9 H :   -0.033002
  10 H :    0.021878
  11 H :    0.018066
  12 H :    0.021493
  13 H :    0.009303
  14 H :    0.023642
  15 H :    0.021800
Sum of atomic charges:   -0.0000000

LOEWDIN ATOMIC CHARGES
----------------------
   0 C :    0.056585
   1 O :   -0.088654
   2 C :    0.002002
   3 C :   -0.096424
   4 C :   -0.056483
   5 C :   -0.053775
   6 H :    0.026441
   7 H :    0.011929
   8 H :    0.011894
   9 H :    0.006048
  10 H :    0.030704
  11 H :    0.031687
  12 H :    0.031883
  13 H :    0.027264
  14 H :    0.029525
  15 H :    0.029373

  Mayer bond orders larger than 0.1
B(  0-C ,  1-O ) :   0.9872 B(  0-C ,  6-H ) :   0.9770 B(  0-C ,  7-H ) :   0.9608
B(  0-C ,  8-H ) :   0.9602 B(  1-O ,  2-C ) :   1.1173 B(  2-C ,  3-C ) :   1.8079
B(  2-C ,  9-H ) :   0.9294 B(  3-C ,  4-C ) :   1.0994 B(  3-C ,  5-C ) :   1.1030
B(  4-C , 10-H ) :   0.9468 B(  4-C , 11-H ) :   0.9445 B(  4-C , 12-H ) :   0.9471
B(  5-C , 13-H ) :   0.9497 B(  5-C , 14-H ) :   0.9464 B(  5-C , 15-H ) :   0.9459

FINAL SINGLE POINT ENERGY      -271.187772471840

DIPOLE MOMENT
-------------
                                X             Y             Z
Electronic contribution:     -1.88473       0.97950      -1.53593
Nuclear contribution   :      1.44188      -0.99949       1.72285
                        -----------------------------------------
Total Dipole Moment    :     -0.44285      -0.01998       0.18692
                        -----------------------------------------
Magnitude (a.u.)       :      0.48109
Magnitude (Debye)      :      1.22285

                             ****ORCA TERMINATED NORMALLY****
TOTAL RUN TIME: 0 days 0 hours 0 minutes 6 seconds 388 msec
