                         Program Version 3.0.3 - RELEASE   -
|  1> ! RI PBE def2-SVP def2-SVP/J NBO PAL2
|  2> % maxcore 2000
|  3> % output
|  4>     # printlevel mini
|  5>     print[ P_Basis ] 0
|  6>     print[ P_SCFInfo ] 1
|  7>     print[ P_SCFIterInfo ] 1
|  8>     print[ P_OrbEn ] 0
|  9>     print[ P_Cartesian ] 0
| 10> end
| 11> *xyz 0 1
| 12>  C        3.5312610000    -0.7745930000     0.7704680000
| 13>  O        2.6488740000     0.0551410000     0.0500420000
| 14>  C        3.0083510000     0.3861550000    -1.1979300000
| 15>  C        4.1140770000     0.0275490000    -1.8643950000
| 16>  C        4.3569720000     0.4723810000    -3.2172510000
| 17>  C        5.4291990000     0.1608920000    -3.9470790000
| 18>  H        3.0780700000    -0.9330840000     1.7472370000
| 19>  H        4.5087230000    -0.2960390000     0.8923590000
| 20>  H        3.6640020000    -1.7377660000     0.2665030000
| 21>  H        2.2577260000     1.0240430000    -1.6543250000
| 22>  H        4.8611800000    -0.6100200000    -1.4039470000
| 23>  H        3.5922660000     1.1109420000    -3.6561930000
| 24>  H        6.2182570000    -0.4720660000    -3.5539220000
| 25>  H        5.5500310000     0.5288660000    -4.9580560000
| 26> *
| 27>
| 28>                          ****END OF INPUT****
 Total Charge           Charge          ....    0
 Multiplicity           Mult            ....    1
 Number of Electrons    NEL             ....   46
 Basis Dimension        Dim             ....  124

MULLIKEN ATOMIC CHARGES
-----------------------
   0 C :    0.126534
   1 O :   -0.252803
   2 C :    0.123099
   3 C :   -0.060364
   4 C :   -0.017684
   5 C :   -0.047564
   6 H :    0.042068
   7 H :    0.033527
   8 H :    0.035331
   9 H :    0.012199
  10 H :   -0.013346
  11 H :   -0.009973
  12 H :    0.010323
  13 H :    0.018654
Sum of atomic charges:   -0.0000000

LOEWDIN ATOMIC CHARGES
----------------------
   0 C :    0.061997
   1 O :   -0.055290
   2 C :    0.034561
   3 C :   -0.116216
   4 C :   -0.030309
   5 C :   -0.080688
   6 H :    0.028835
   7 H :    0.018475
   8 H :    0.018858
   9 H :    0.023989
  10 H :    0.026545
  11 H :    0.027396
  12 H :    0.019037
  13 H :    0.022808

  Mayer bond orders larger than 0.1
B(  0-C ,  1-O ) :   0.9828 B(  0-C ,  6-H ) :   0.9724 B(  0-C ,  7-H ) :   0.9590
B(  0-C ,  8-H ) :   0.9597 B(  1-O ,  2-C ) :   1.1745 B(  2-C ,  3-C ) :   1.6444
B(  2-C ,  5-C ) :   0.1165 B(  2-C ,  9-H ) :   0.9692 B(  3-C ,  4-C ) :   1.1416
B(  3-C , 10-H ) :   0.9585 B(  4-C ,  5-C ) :   1.8927 B(  4-C , 11-H ) :   0.9599
B(  5-C , 12-H ) :   0.9477 B(  5-C , 13-H ) :   0.9408

FINAL SINGLE POINT ENERGY      -269.971761024102

DIPOLE MOMENT
-------------
                                X             Y             Z
Electronic contribution:     -2.84104       1.29632       0.85124
Nuclear contribution   :      2.90760      -1.54521      -0.36527
                        -----------------------------------------
Total Dipole Moment    :      0.06657      -0.24889       0.48597
                        -----------------------------------------
Magnitude (a.u.)       :      0.55004
Magnitude (Debye)      :      1.39809

                             ****ORCA TERMINATED NORMALLY****
TOTAL RUN TIME: 0 days 0 hours 0 minutes 6 seconds 81 msec
