                         Program Version 3.0.3 - RELEASE   -
|  1> ! RI PBE def2-SVP def2-SVP/J NBO PAL2
|  2> % maxcore 2000
|  3> % output
|  4>     # printlevel mini
|  5>     print[ P_Basis ] 0
|  6>     print[ P_SCFInfo ] 1
|  7>     print[ P_SCFIterInfo ] 1
|  8>     print[ P_OrbEn ] 0
|  9>     print[ P_Cartesian ] 0
| 10> end
| 11> *xyz 0 1
| 12>  C        0.9145800000    -0.4829630000     0.2793110000
| 13>  O        2.2940040000    -0.2000480000     0.1590790000
| 14>  C        2.9611280000    -0.9530860000    -0.7252610000
| 15>  C        4.2715790000    -0.7931600000    -0.9413330000
| 16>  C        4.9853850000    -1.5805320000    -1.8702240000
| 17>  C        5.6227130000    -2.2355540000    -2.6550860000
| 18>  H        0.5182130000     0.2023380000     1.0261830000
| 19>  H        0.7512600000    -1.5127780000     0.6128070000
| 20>  H        0.3948790000    -0.3204350000    -0.6703770000
| 21>  H        2.3838320000    -1.7038540000    -1.2611860000
| 22>  H        4.8106330000    -0.0321880000    -0.3852530000
| 23>  H        6.1811950000    -2.8166420000    -3.3493600000
| 24> *
| 25>
| 26>                          ****END OF INPUT****
 Total Charge           Charge          ....    0
 Multiplicity           Mult            ....    1
 Number of Electrons    NEL             ....   44
 Basis Dimension        Dim             ....  114

MULLIKEN ATOMIC CHARGES
-----------------------
   0 C :    0.133368
   1 O :   -0.256864
   2 C :    0.121612
   3 C :   -0.079818
   4 C :    0.356378
   5 C :   -0.419559
   6 H :    0.047498
   7 H :    0.031061
   8 H :    0.033244
   9 H :    0.004360
  10 H :    0.030728
  11 H :   -0.002007
Sum of atomic charges:   -0.0000000

LOEWDIN ATOMIC CHARGES
----------------------
   0 C :    0.063536
   1 O :   -0.061625
   2 C :    0.053981
   3 C :   -0.106345
   4 C :   -0.023390
   5 C :   -0.091577
   6 H :    0.031361
   7 H :    0.018289
   8 H :    0.018720
   9 H :    0.018187
  10 H :    0.046575
  11 H :    0.032289

  Mayer bond orders larger than 0.1
B(  0-C ,  1-O ) :   0.9682 B(  0-C ,  6-H ) :   0.9772 B(  0-C ,  7-H ) :   0.9643
B(  0-C ,  8-H ) :   0.9641 B(  1-O ,  2-C ) :   1.1606 B(  2-C ,  3-C ) :   1.7146
B(  2-C ,  5-C ) :   0.1174 B(  2-C ,  9-H ) :   0.9506 B(  3-C ,  4-C ) :   1.0646
B(  3-C , 10-H ) :   0.9457 B(  4-C ,  5-C ) :   2.2771 B(  5-C , 11-H ) :   1.0888

FINAL SINGLE POINT ENERGY      -268.723172889562

DIPOLE MOMENT
-------------
                                X             Y             Z
Electronic contribution:      3.90911       0.10238      -0.99223
Nuclear contribution   :     -4.90654      -0.16439       1.21002
                        -----------------------------------------
Total Dipole Moment    :     -0.99743      -0.06202       0.21779
                        -----------------------------------------
Magnitude (a.u.)       :      1.02282
Magnitude (Debye)      :      2.59979

                             ****ORCA TERMINATED NORMALLY****
TOTAL RUN TIME: 0 days 0 hours 0 minutes 5 seconds 558 msec
