                         Program Version 3.0.3 - RELEASE   -
|  1> ! RI PBE def2-SVP def2-SVP/J NBO PAL2
|  2> % maxcore 2000
|  3> % output
|  4>     # printlevel mini
|  5>     print[ P_Basis ] 0
|  6>     print[ P_SCFInfo ] 1
|  7>     print[ P_SCFIterInfo ] 1
|  8>     print[ P_OrbEn ] 0
|  9>     print[ P_Cartesian ] 0
| 10> end
| 11> *xyz 0 1
| 12>  C        1.2561810000    -0.2571350000    -0.6773800000
| 13>  O        2.6490240000    -0.0829680000    -0.6004010000
| 14>  C        3.1157500000     1.1831180000    -0.5937430000
| 15>  C        2.3592290000     2.2875530000    -0.6545600000
| 16>  C        4.5713530000     1.2533560000    -0.5115140000
| 17>  C        5.3812450000     0.2010810000    -0.4484640000
| 18>  H        1.0789000000    -1.3313990000    -0.6704990000
| 19>  H        0.8529660000     0.1728370000    -1.6007440000
| 20>  H        0.7510240000     0.2010660000     0.1798980000
| 21>  H        1.2810330000     2.2698780000    -0.7160130000
| 22>  H        2.8441260000     3.2533750000    -0.6421030000
| 23>  H        4.9782680000     2.2592480000    -0.5041590000
| 24>  H        4.9922480000    -0.8096110000    -0.4547180000
| 25>  H        6.4551620000     0.3280120000    -0.3889870000
| 26> *
| 27>
| 28>                          ****END OF INPUT****
 Total Charge           Charge          ....    0
 Multiplicity           Mult            ....    1
 Number of Electrons    NEL             ....   46
 Basis Dimension        Dim             ....  124

MULLIKEN ATOMIC CHARGES
-----------------------
   0 C :    0.131437
   1 O :   -0.268473
   2 C :    0.123343
   3 C :   -0.117580
   4 C :   -0.037526
   5 C :   -0.010168
   6 H :    0.038301
   7 H :    0.030386
   8 H :    0.032395
   9 H :    0.018283
  10 H :    0.014524
  11 H :   -0.009655
  12 H :    0.027758
  13 H :    0.026976
Sum of atomic charges:   -0.0000000

LOEWDIN ATOMIC CHARGES
----------------------
   0 C :    0.062017
   1 O :   -0.063666
   2 C :    0.024329
   3 C :   -0.135795
   4 C :   -0.039721
   5 C :   -0.043816
   6 H :    0.027677
   7 H :    0.016614
   8 H :    0.016991
   9 H :    0.021655
  10 H :    0.028884
  11 H :    0.032378
  12 H :    0.025708
  13 H :    0.026745

  Mayer bond orders larger than 0.1
B(  0-C ,  1-O ) :   0.9836 B(  0-C ,  6-H ) :   0.9730 B(  0-C ,  7-H ) :   0.9590
B(  0-C ,  8-H ) :   0.9593 B(  1-O ,  2-C ) :   1.1722 B(  2-C ,  3-C ) :   1.7489
B(  2-C ,  4-C ) :   1.1044 B(  3-C ,  5-C ) :   0.1298 B(  3-C ,  9-H ) :   0.9396
B(  3-C , 10-H ) :   0.9296 B(  4-C ,  5-C ) :   1.9190 B(  4-C , 11-H ) :   0.9537
B(  5-C , 12-H ) :   0.9383 B(  5-C , 13-H ) :   0.9379

FINAL SINGLE POINT ENERGY      -269.970611936246

DIPOLE MOMENT
-------------
                                X             Y             Z
Electronic contribution:      1.54810      -0.54267       0.09748
Nuclear contribution   :     -1.96103       0.48461      -0.11994
                        -----------------------------------------
Total Dipole Moment    :     -0.41293      -0.05806      -0.02246
                        -----------------------------------------
Magnitude (a.u.)       :      0.41760
Magnitude (Debye)      :      1.06144

                             ****ORCA TERMINATED NORMALLY****
TOTAL RUN TIME: 0 days 0 hours 0 minutes 6 seconds 210 msec
