                         Program Version 3.0.3 - RELEASE   -
|  1> ! RI PBE def2-SVP def2-SVP/J NBO PAL2
|  2> % maxcore 2000
|  3> % output
|  4>     # printlevel mini
|  5>     print[ P_Basis ] 0
|  6>     print[ P_SCFInfo ] 1
|  7>     print[ P_SCFIterInfo ] 1
|  8>     print[ P_OrbEn ] 0
|  9>     print[ P_Cartesian ] 0
| 10> end
| 11> *xyz 0 1
| 12>  C        2.9729450000    -0.7622780000    -0.8711430000
| 13>  O        2.2689110000    -0.1471100000     0.1881620000
| 14>  C        2.9793440000     0.4322790000     1.1885640000
| 15>  C        2.3380970000     1.0196030000     2.2023660000
| 16>  C        4.4055830000     0.3966150000     1.1270180000
| 17>  C        5.6067410000     0.3683400000     1.0783410000
| 18>  H        2.2112360000    -1.1518380000    -1.5446650000
| 19>  H        3.5975530000    -1.5857970000    -0.5141830000
| 20>  H        3.5995820000    -0.0446490000    -1.4078530000
| 21>  H        1.2564780000     1.0357180000     2.2301950000
| 22>  H        2.8989590000     1.4818890000     3.0001870000
| 23>  H        6.6705620000     0.3482780000     1.0437620000
| 24> *
| 25>
| 26>                          ****END OF INPUT****
 Total Charge           Charge          ....    0
 Multiplicity           Mult            ....    1
 Number of Electrons    NEL             ....   44
 Basis Dimension        Dim             ....  114

MULLIKEN ATOMIC CHARGES
-----------------------
   0 C :    0.140506
   1 O :   -0.274336
   2 C :    0.086636
   3 C :   -0.042450
   4 C :    0.346200
   5 C :   -0.427426
   6 H :    0.040141
   7 H :    0.033850
   8 H :    0.035012
   9 H :    0.029756
  10 H :    0.023248
  11 H :    0.008863
Sum of atomic charges:   -0.0000000

LOEWDIN ATOMIC CHARGES
----------------------
   0 C :    0.062888
   1 O :   -0.074647
   2 C :    0.007512
   3 C :   -0.085201
   4 C :   -0.029774
   5 C :   -0.051719
   6 H :    0.028431
   7 H :    0.018794
   8 H :    0.019151
   9 H :    0.031352
  10 H :    0.035001
  11 H :    0.038210

  Mayer bond orders larger than 0.1
B(  0-C ,  1-O ) :   0.9709 B(  0-C ,  6-H ) :   0.9743 B(  0-C ,  7-H ) :   0.9633
B(  0-C ,  8-H ) :   0.9635 B(  1-O ,  2-C ) :   1.1521 B(  2-C ,  3-C ) :   1.8475
B(  2-C ,  4-C ) :   0.9366 B(  3-C ,  5-C ) :   0.1294 B(  3-C ,  9-H ) :   0.9291
B(  3-C , 10-H ) :   0.9338 B(  4-C ,  5-C ) :   2.2836 B(  4-C , 11-H ) :  -0.1051
B(  5-C , 11-H ) :   1.0955

FINAL SINGLE POINT ENERGY      -268.716794008662

DIPOLE MOMENT
-------------
                                X             Y             Z
Electronic contribution:      0.44199       0.75328       1.29586
Nuclear contribution   :      0.00774      -0.96871      -1.66617
                        -----------------------------------------
Total Dipole Moment    :      0.44973      -0.21543      -0.37032
                        -----------------------------------------
Magnitude (a.u.)       :      0.62113
Magnitude (Debye)      :      1.57879

                             ****ORCA TERMINATED NORMALLY****
TOTAL RUN TIME: 0 days 0 hours 0 minutes 5 seconds 690 msec
