                         Program Version 3.0.3 - RELEASE   -
|  1> ! RI PBE def2-SVP def2-SVP/J NBO PAL2
|  2> % maxcore 2000
|  3> % output
|  4>     # printlevel mini
|  5>     print[ P_Basis ] 0
|  6>     print[ P_SCFInfo ] 1
|  7>     print[ P_SCFIterInfo ] 1
|  8>     print[ P_OrbEn ] 0
|  9>     print[ P_Cartesian ] 0
| 10> end
| 11> *xyz 0 1
| 12>  C        2.9167930000    -0.1849600000    -1.1138130000
| 13>  O        2.2968460000    -0.4703350000     0.1122250000
| 14>  C        3.0980210000    -0.7353810000     1.1794440000
| 15>  C        2.2637580000    -1.0151150000     2.3921760000
| 16>  C        4.4331110000    -0.7430950000     1.1431050000
| 17>  C        5.3076720000    -1.0346400000     2.3173370000
| 18>  H        2.1157090000    -0.0041840000    -1.8293780000
| 19>  H        3.5291370000    -1.0265360000    -1.4581390000
| 20>  H        3.5503320000     0.7069640000    -1.0439380000
| 21>  H        1.2090560000    -0.9392170000     2.1298040000
| 22>  H        2.4692180000    -0.3024410000     3.1939560000
| 23>  H        2.4478540000    -2.0180810000     2.7835110000
| 24>  H        4.9402510000    -0.5261770000     0.2100310000
| 25>  H        4.7334630000    -1.2438350000     3.2208210000
| 26>  H        5.9726550000    -0.1927770000     2.5385690000
| 27>  H        5.9519230000    -1.9005010000     2.1299900000
| 28> *
| 29>
| 30>                          ****END OF INPUT****
 Total Charge           Charge          ....    0
 Multiplicity           Mult            ....    1
 Number of Electrons    NEL             ....   48
 Basis Dimension        Dim             ....  134

MULLIKEN ATOMIC CHARGES
-----------------------
   0 C :    0.133994
   1 O :   -0.273880
   2 C :    0.015588
   3 C :    0.027507
   4 C :   -0.195099
   5 C :    0.051356
   6 H :    0.034142
   7 H :    0.026290
   8 H :    0.024629
   9 H :    0.028485
  10 H :    0.044509
  11 H :    0.040808
  12 H :   -0.015546
  13 H :    0.006319
  14 H :    0.025981
  15 H :    0.024918
Sum of atomic charges:   -0.0000000

LOEWDIN ATOMIC CHARGES
----------------------
   0 C :    0.055684
   1 O :   -0.075789
   2 C :    0.013280
   3 C :   -0.069624
   4 C :   -0.139646
   5 C :   -0.062634
   6 H :    0.025623
   7 H :    0.013634
   8 H :    0.013462
   9 H :    0.037089
  10 H :    0.039447
  11 H :    0.038941
  12 H :    0.019813
  13 H :    0.026761
  14 H :    0.031974
  15 H :    0.031985

  Mayer bond orders larger than 0.1
B(  0-C ,  1-O ) :   0.9958 B(  0-C ,  6-H ) :   0.9704 B(  0-C ,  7-H ) :   0.9569
B(  0-C ,  8-H ) :   0.9559 B(  1-O ,  2-C ) :   1.1421 B(  2-C ,  3-C ) :   1.0901
B(  2-C ,  4-C ) :   1.7682 B(  3-C ,  9-H ) :   0.9419 B(  3-C , 10-H ) :   0.9477
B(  3-C , 11-H ) :   0.9469 B(  4-C ,  5-C ) :   1.0914 B(  4-C , 12-H ) :   0.9406
B(  5-C , 13-H ) :   0.9503 B(  5-C , 14-H ) :   0.9482 B(  5-C , 15-H ) :   0.9482

FINAL SINGLE POINT ENERGY      -271.189660065786

DIPOLE MOMENT
-------------
                                X             Y             Z
Electronic contribution:     -2.85075       0.52713      -2.04890
Nuclear contribution   :      2.99147      -0.48814       1.88626
                        -----------------------------------------
Total Dipole Moment    :      0.14072       0.03899      -0.16264
                        -----------------------------------------
Magnitude (a.u.)       :      0.21857
Magnitude (Debye)      :      0.55556

                             ****ORCA TERMINATED NORMALLY****
TOTAL RUN TIME: 0 days 0 hours 0 minutes 6 seconds 489 msec
