                         Program Version 3.0.3 - RELEASE   -
|  1> ! RI PBE def2-SVP def2-SVP/J NBO PAL2
|  2> % maxcore 2000
|  3> % output
|  4>     # printlevel mini
|  5>     print[ P_Basis ] 0
|  6>     print[ P_SCFInfo ] 1
|  7>     print[ P_SCFIterInfo ] 1
|  8>     print[ P_OrbEn ] 0
|  9>     print[ P_Cartesian ] 0
| 10> end
| 11> *xyz 0 1
| 12>  C        2.5315250000    -0.7324700000    -1.0434530000
| 13>  O        2.2505660000    -0.0533420000     0.1487480000
| 14>  C        2.8358410000    -0.5597200000     1.3499330000
| 15>  C        2.3347540000     0.3919290000     2.4237920000
| 16>  C        2.3522140000    -1.9765490000     1.6399870000
| 17>  C        4.3584320000    -0.5132110000     1.2793300000
| 18>  H        2.0014240000    -0.2006160000    -1.8346880000
| 19>  H        2.1767030000    -1.7705330000    -1.0331110000
| 20>  H        3.6007500000    -0.7320110000    -1.2891000000
| 21>  H        1.2435590000     0.3796310000     2.4579750000
| 22>  H        2.6579590000     1.4113040000     2.2037020000
| 23>  H        2.7191340000     0.1068640000     3.4053000000
| 24>  H        1.2605100000    -2.0133130000     1.6301360000
| 25>  H        2.6980490000    -2.2976740000     2.6249210000
| 26>  H        2.7310170000    -2.6952060000     0.9101540000
| 27>  H        4.6944800000     0.4914380000     1.0128340000
| 28>  H        4.7553690000    -1.2186210000     0.5462180000
| 29>  H        4.7879560000    -0.7733190000     2.2492120000
| 30> *
| 31>
| 32>                          ****END OF INPUT****
 Total Charge           Charge          ....    0
 Multiplicity           Mult            ....    1
 Number of Electrons    NEL             ....   50
 Basis Dimension        Dim             ....  144

MULLIKEN ATOMIC CHARGES
-----------------------
   0 C :    0.161231
   1 O :   -0.339265
   2 C :   -0.147798
   3 C :    0.057110
   4 C :    0.042610
   5 C :    0.056366
   6 H :    0.025128
   7 H :   -0.000845
   8 H :   -0.000851
   9 H :    0.021899
  10 H :    0.018655
  11 H :    0.008131
  12 H :    0.023977
  13 H :    0.011088
  14 H :    0.016954
  15 H :    0.019874
  16 H :    0.015026
  17 H :    0.010710
Sum of atomic charges:   -0.0000000

LOEWDIN ATOMIC CHARGES
----------------------
   0 C :    0.048014
   1 O :   -0.147528
   2 C :    0.016729
   3 C :   -0.056212
   4 C :   -0.065910
   5 C :   -0.063032
   6 H :    0.023299
   7 H :    0.001959
   8 H :    0.001649
   9 H :    0.027868
  10 H :    0.027545
  11 H :    0.025256
  12 H :    0.028988
  13 H :    0.029483
  14 H :    0.022525
  15 H :    0.028346
  16 H :    0.021882
  17 H :    0.029141

  Mayer bond orders larger than 0.1
B(  0-C ,  1-O ) :   1.0270 B(  0-C ,  6-H ) :   0.9737 B(  0-C ,  7-H ) :   0.9521
B(  0-C ,  8-H ) :   0.9523 B(  1-O ,  2-C ) :   1.0003 B(  2-C ,  3-C ) :   1.0480
B(  2-C ,  4-C ) :   1.0557 B(  2-C ,  5-C ) :   1.0561 B(  3-C ,  9-H ) :   0.9566
B(  3-C , 10-H ) :   0.9544 B(  3-C , 11-H ) :   0.9557 B(  4-C , 12-H ) :   0.9516
B(  4-C , 13-H ) :   0.9508 B(  4-C , 14-H ) :   0.9482 B(  5-C , 15-H ) :   0.9525
B(  5-C , 16-H ) :   0.9509 B(  5-C , 17-H ) :   0.9512

FINAL SINGLE POINT ENERGY      -272.400436280422

DIPOLE MOMENT
-------------
                                X             Y             Z
Electronic contribution:     -1.61356       1.86909      -1.42058
Nuclear contribution   :      1.87954      -2.22053       1.44634
                        -----------------------------------------
Total Dipole Moment    :      0.26599      -0.35144       0.02575
                        -----------------------------------------
Magnitude (a.u.)       :      0.44150
Magnitude (Debye)      :      1.12219

                             ****ORCA TERMINATED NORMALLY****
TOTAL RUN TIME: 0 days 0 hours 0 minutes 7 seconds 404 msec
