                         Program Version 3.0.3 - RELEASE   -
|  1> ! RI PBE def2-SVP def2-SVP/J NBO PAL2
|  2> % maxcore 2000
|  3> % output
|  4>     # printlevel mini
|  5>     print[ P_Basis ] 0
|  6>     print[ P_SCFInfo ] 1
|  7>     print[ P_SCFIterInfo ] 1
|  8>     print[ P_OrbEn ] 0
|  9>     print[ P_Cartesian ] 0
| 10> end
| 11> *xyz 0 1
| 12>  C        4.2347260000     1.2797570000     1.8245140000
| 13>  O        3.3022330000     2.1349590000     1.2181940000
| 14>  C        3.3307420000     2.0990380000    -0.1969640000
| 15>  C        2.0916090000     2.8278430000    -0.6750050000
| 16>  C        4.5815510000     2.7289410000    -0.7334380000
| 17>  C        5.4500290000     2.1237140000    -1.5299340000
| 18>  H        4.1002950000     1.3708280000     2.9026770000
| 19>  H        5.2680150000     1.5446630000     1.5697900000
| 20>  H        4.0650180000     0.2334710000     1.5331230000
| 21>  H        3.2942490000     1.0498330000    -0.5328280000
| 22>  H        2.1165550000     3.8693400000    -0.3461380000
| 23>  H        1.1977100000     2.3584220000    -0.2603670000
| 24>  H        2.0321480000     2.8082350000    -1.7644410000
| 25>  H        4.7465940000     3.7606970000    -0.4265700000
| 26>  H        5.3060710000     1.0930410000    -1.8412710000
| 27>  H        6.3300540000     2.6318380000    -1.9075530000
| 28> *
| 29>
| 30>                          ****END OF INPUT****
 Total Charge           Charge          ....    0
 Multiplicity           Mult            ....    1
 Number of Electrons    NEL             ....   48
 Basis Dimension        Dim             ....  134

MULLIKEN ATOMIC CHARGES
-----------------------
   0 C :    0.142340
   1 O :   -0.340905
   2 C :    0.110874
   3 C :    0.024929
   4 C :   -0.070308
   5 C :   -0.019435
   6 H :    0.035946
   7 H :    0.011934
   8 H :    0.002253
   9 H :   -0.019584
  10 H :    0.023005
  11 H :    0.024102
  12 H :    0.026114
  13 H :    0.004278
  14 H :    0.018874
  15 H :    0.025582
Sum of atomic charges:    0.0000000

LOEWDIN ATOMIC CHARGES
----------------------
   0 C :    0.046345
   1 O :   -0.143595
   2 C :    0.044808
   3 C :   -0.061831
   4 C :   -0.038093
   5 C :   -0.056165
   6 H :    0.023351
   7 H :    0.005548
   8 H :    0.004839
   9 H :    0.007003
  10 H :    0.029576
  11 H :    0.030520
  12 H :    0.032641
  13 H :    0.027431
  14 H :    0.021923
  15 H :    0.025699

  Mayer bond orders larger than 0.1
B(  0-C ,  1-O ) :   1.0147 B(  0-C ,  6-H ) :   0.9777 B(  0-C ,  7-H ) :   0.9539
B(  0-C ,  8-H ) :   0.9540 B(  1-O ,  2-C ) :   1.0096 B(  2-C ,  3-C ) :   1.0675
B(  2-C ,  4-C ) :   1.0283 B(  2-C ,  9-H ) :   0.9128 B(  3-C , 10-H ) :   0.9560
B(  3-C , 11-H ) :   0.9506 B(  3-C , 12-H ) :   0.9583 B(  4-C ,  5-C ) :   1.9815
B(  4-C , 13-H ) :   0.9471 B(  5-C , 14-H ) :   0.9456 B(  5-C , 15-H ) :   0.9401

FINAL SINGLE POINT ENERGY      -271.175525791362

DIPOLE MOMENT
-------------
                                X             Y             Z
Electronic contribution:     -0.11425       0.81323       1.08779
Nuclear contribution   :      0.33732      -1.02494      -1.27974
                        -----------------------------------------
Total Dipole Moment    :      0.22308      -0.21171      -0.19195
                        -----------------------------------------
Magnitude (a.u.)       :      0.36253
Magnitude (Debye)      :      0.92149

                             ****ORCA TERMINATED NORMALLY****
TOTAL RUN TIME: 0 days 0 hours 0 minutes 6 seconds 494 msec
