                         Program Version 3.0.3 - RELEASE   -
|  1> ! RI PBE def2-SVP def2-SVP/J NBO PAL2
|  2> % maxcore 2000
|  3> % output
|  4>     # printlevel mini
|  5>     print[ P_Basis ] 0
|  6>     print[ P_SCFInfo ] 1
|  7>     print[ P_SCFIterInfo ] 1
|  8>     print[ P_OrbEn ] 0
|  9>     print[ P_Cartesian ] 0
| 10> end
| 11> *xyz 0 1
| 12>  C        2.2957900000    -0.5569860000    -1.0377990000
| 13>  O        2.1323940000     0.1593450000     0.1597840000
| 14>  C        2.7249840000     1.4374840000     0.1417400000
| 15>  C        2.2969070000     2.1560390000     1.4073730000
| 16>  C        4.1872020000     1.3686950000     0.0318630000
| 17>  C        5.3837320000     1.3174340000    -0.0524600000
| 18>  H        1.7694820000    -1.5035740000    -0.9173840000
| 19>  H        3.3527690000    -0.7570580000    -1.2489520000
| 20>  H        1.8634440000    -0.0137160000    -1.8895850000
| 21>  H        2.3540240000     1.9947560000    -0.7345140000
| 22>  H        2.6515970000     1.6101190000     2.2823710000
| 23>  H        1.2080510000     2.2121170000     1.4418410000
| 24>  H        2.7101680000     3.1649820000     1.4307300000
| 25>  H        6.4449080000     1.2708330000    -0.1230860000
| 26> *
| 27>
| 28>                          ****END OF INPUT****
 Total Charge           Charge          ....    0
 Multiplicity           Mult            ....    1
 Number of Electrons    NEL             ....   46
 Basis Dimension        Dim             ....  124

MULLIKEN ATOMIC CHARGES
-----------------------
   0 C :    0.151836
   1 O :   -0.330226
   2 C :    0.133733
   3 C :    0.021786
   4 C :    0.365010
   5 C :   -0.509843
   6 H :    0.032607
   7 H :    0.019059
   8 H :    0.000138
   9 H :    0.017139
  10 H :    0.035060
  11 H :    0.033876
  12 H :    0.029591
  13 H :    0.000234
Sum of atomic charges:    0.0000000

LOEWDIN ATOMIC CHARGES
----------------------
   0 C :    0.051556
   1 O :   -0.135486
   2 C :    0.037923
   3 C :   -0.051853
   4 C :   -0.030879
   5 C :   -0.076106
   6 H :    0.024449
   7 H :    0.010329
   8 H :    0.005590
   9 H :    0.025149
  10 H :    0.035014
  11 H :    0.032994
  12 H :    0.035861
  13 H :    0.035459

  Mayer bond orders larger than 0.1
B(  0-C ,  1-O ) :   1.0113 B(  0-C ,  6-H ) :   0.9761 B(  0-C ,  7-H ) :   0.9560
B(  0-C ,  8-H ) :   0.9501 B(  1-O ,  2-C ) :   1.0424 B(  2-C ,  3-C ) :   1.0722
B(  2-C ,  4-C ) :   0.9583 B(  2-C ,  9-H ) :   0.8994 B(  3-C , 10-H ) :   0.9575
B(  3-C , 11-H ) :   0.9536 B(  3-C , 12-H ) :   0.9550 B(  4-C ,  5-C ) :   2.3464
B(  4-C , 13-H ) :  -0.1180 B(  5-C , 13-H ) :   1.1082

FINAL SINGLE POINT ENERGY      -269.929416618849

DIPOLE MOMENT
-------------
                                X             Y             Z
Electronic contribution:      2.25309      -0.24777       0.23301
Nuclear contribution   :     -2.19539       0.39571      -0.54837
                        -----------------------------------------
Total Dipole Moment    :      0.05771       0.14794      -0.31535
                        -----------------------------------------
Magnitude (a.u.)       :      0.35308
Magnitude (Debye)      :      0.89745

                             ****ORCA TERMINATED NORMALLY****
TOTAL RUN TIME: 0 days 0 hours 0 minutes 5 seconds 792 msec
