                         Program Version 3.0.3 - RELEASE   -
|  1> ! RI PBE def2-SVP def2-SVP/J NBO PAL2
|  2> % maxcore 2000
|  3> % output
|  4>     # printlevel mini
|  5>     print[ P_Basis ] 0
|  6>     print[ P_SCFInfo ] 1
|  7>     print[ P_SCFIterInfo ] 1
|  8>     print[ P_OrbEn ] 0
|  9>     print[ P_Cartesian ] 0
| 10> end
| 11> *xyz 0 1
| 12>  C        1.8789820000    -0.3002910000     0.7220570000
| 13>  O        3.1824520000     0.0056370000     0.3152050000
| 14>  C        3.2063740000     0.9443530000    -0.7346590000
| 15>  C        4.6092990000     1.1529360000    -1.1826590000
| 16>  C        5.2036600000     2.3374580000    -1.2435440000
| 17>  C        6.5934400000     2.5769730000    -1.7221870000
| 18>  H        1.9476560000    -1.0335460000     1.5260920000
| 19>  H        1.2878940000    -0.7284340000    -0.1005670000
| 20>  H        1.3516240000     0.5886160000     1.0971470000
| 21>  H        2.7621670000     1.8984410000    -0.4111250000
| 22>  H        2.5935520000     0.5678710000    -1.5719190000
| 23>  H        5.1499300000     0.2572770000    -1.4829130000
| 24>  H        4.6430720000     3.2154110000    -0.9237740000
| 25>  H        7.0833320000     1.6448810000    -2.0095510000
| 26>  H        7.1976200000     3.0575160000    -0.9461980000
| 27>  H        6.6029460000     3.2489930000    -2.5863970000
| 28> *
| 29>
| 30>                          ****END OF INPUT****
 Total Charge           Charge          ....    0
 Multiplicity           Mult            ....    1
 Number of Electrons    NEL             ....   48
 Basis Dimension        Dim             ....  134

MULLIKEN ATOMIC CHARGES
-----------------------
   0 C :    0.143601
   1 O :   -0.350265
   2 C :    0.231505
   3 C :   -0.057581
   4 C :   -0.106624
   5 C :    0.030351
   6 H :    0.034291
   7 H :    0.001514
   8 H :    0.001682
   9 H :   -0.014994
  10 H :   -0.002035
  11 H :   -0.003658
  12 H :   -0.002991
  13 H :    0.020339
  14 H :    0.038498
  15 H :    0.036365
Sum of atomic charges:    0.0000000

LOEWDIN ATOMIC CHARGES
----------------------
   0 C :    0.046446
   1 O :   -0.152025
   2 C :    0.059734
   3 C :   -0.053174
   4 C :   -0.034336
   5 C :   -0.066957
   6 H :    0.023124
   7 H :    0.003368
   8 H :    0.003637
   9 H :    0.005380
  10 H :    0.009611
  11 H :    0.024724
  12 H :    0.021983
  13 H :    0.031814
  14 H :    0.038827
  15 H :    0.037844

  Mayer bond orders larger than 0.1
B(  0-C ,  1-O ) :   1.0250 B(  0-C ,  6-H ) :   0.9761 B(  0-C ,  7-H ) :   0.9532
B(  0-C ,  8-H ) :   0.9545 B(  1-O ,  2-C ) :   0.9975 B(  2-C ,  3-C ) :   1.0498
B(  2-C ,  9-H ) :   0.9241 B(  2-C , 10-H ) :   0.9050 B(  3-C ,  4-C ) :   1.9294
B(  3-C , 11-H ) :   0.9524 B(  4-C ,  5-C ) :   1.0928 B(  4-C , 12-H ) :   0.9487
B(  5-C , 13-H ) :   0.9595 B(  5-C , 14-H ) :   0.9465 B(  5-C , 15-H ) :   0.9465

FINAL SINGLE POINT ENERGY      -271.175642822094

DIPOLE MOMENT
-------------
                                X             Y             Z
Electronic contribution:     -0.20210      -1.47893       1.02121
Nuclear contribution   :     -0.02651       1.72860      -1.22970
                        -----------------------------------------
Total Dipole Moment    :     -0.22861       0.24967      -0.20849
                        -----------------------------------------
Magnitude (a.u.)       :      0.39758
Magnitude (Debye)      :      1.01056

                             ****ORCA TERMINATED NORMALLY****
TOTAL RUN TIME: 0 days 0 hours 0 minutes 6 seconds 219 msec
