                         Program Version 3.0.3 - RELEASE   -
|  1> ! RI PBE def2-SVP def2-SVP/J NBO PAL2
|  2> % maxcore 2000
|  3> % output
|  4>     # printlevel mini
|  5>     print[ P_Basis ] 0
|  6>     print[ P_SCFInfo ] 1
|  7>     print[ P_SCFIterInfo ] 1
|  8>     print[ P_OrbEn ] 0
|  9>     print[ P_Cartesian ] 0
| 10> end
| 11> *xyz 0 1
| 12>  C        1.6366730000    -0.8729350000    -0.5894520000
| 13>  O        2.9300180000    -0.4062690000    -0.3330430000
| 14>  C        3.5948480000     0.0060690000    -1.4988440000
| 15>  C        4.9885780000     0.4942620000    -1.1545720000
| 16>  C        5.8241780000    -0.6116520000    -0.5276100000
| 17>  C        5.6587630000     1.0645710000    -2.3958690000
| 18>  H        1.1957250000    -1.1685240000     0.3631150000
| 19>  H        1.6458830000    -1.7427350000    -1.2618630000
| 20>  H        1.0084290000    -0.0938080000    -1.0447740000
| 21>  H        3.0247420000     0.8106810000    -1.9911340000
| 22>  H        3.6587860000    -0.8317800000    -2.2149250000
| 23>  H        4.8704400000     1.2995540000    -0.4192040000
| 24>  H        5.9795400000    -1.4283040000    -1.2406210000
| 25>  H        5.3319750000    -1.0230620000     0.3545350000
| 26>  H        6.8077430000    -0.2389130000    -0.2305490000
| 27>  H        5.7817390000     0.2936420000    -3.1633320000
| 28>  H        6.6521110000     1.4518460000    -2.1582780000
| 29>  H        5.0766180000     1.8810580000    -2.8314890000
| 30> *
| 31>
| 32>                          ****END OF INPUT****
 Total Charge           Charge          ....    0
 Multiplicity           Mult            ....    1
 Number of Electrons    NEL             ....   50
 Basis Dimension        Dim             ....  144

MULLIKEN ATOMIC CHARGES
-----------------------
   0 C :    0.146474
   1 O :   -0.340928
   2 C :    0.190921
   3 C :   -0.160840
   4 C :    0.027487
   5 C :    0.006124
   6 H :    0.030339
   7 H :    0.004264
   8 H :    0.004502
   9 H :   -0.011880
  10 H :   -0.012804
  11 H :    0.019918
  12 H :    0.006596
  13 H :    0.026843
  14 H :    0.010442
  15 H :    0.017027
  16 H :    0.017316
  17 H :    0.018200
Sum of atomic charges:   -0.0000000

LOEWDIN ATOMIC CHARGES
----------------------
   0 C :    0.048596
   1 O :   -0.146043
   2 C :    0.061097
   3 C :   -0.060025
   4 C :   -0.058307
   5 C :   -0.058138
   6 H :    0.022447
   7 H :    0.004633
   8 H :    0.004246
   9 H :    0.002073
  10 H :    0.001320
  11 H :    0.028921
  12 H :    0.022223
  13 H :    0.027248
  14 H :    0.023709
  15 H :    0.024187
  16 H :    0.027423
  17 H :    0.024392

  Mayer bond orders larger than 0.1
B(  0-C ,  1-O ) :   1.0213 B(  0-C ,  6-H ) :   0.9757 B(  0-C ,  7-H ) :   0.9546
B(  0-C ,  8-H ) :   0.9548 B(  1-O ,  2-C ) :   1.0296 B(  2-C ,  3-C ) :   1.0450
B(  2-C ,  9-H ) :   0.9259 B(  2-C , 10-H ) :   0.9197 B(  3-C ,  4-C ) :   1.0882
B(  3-C ,  5-C ) :   1.0765 B(  3-C , 11-H ) :   0.9105 B(  4-C , 12-H ) :   0.9604
B(  4-C , 13-H ) :   0.9567 B(  4-C , 14-H ) :   0.9600 B(  5-C , 15-H ) :   0.9610
B(  5-C , 16-H ) :   0.9581 B(  5-C , 17-H ) :   0.9593

FINAL SINGLE POINT ENERGY      -272.398619904697

DIPOLE MOMENT
-------------
                                X             Y             Z
Electronic contribution:     -2.20111      -0.06090       2.34943
Nuclear contribution   :      2.01259       0.06225      -2.66962
                        -----------------------------------------
Total Dipole Moment    :     -0.18852       0.00135      -0.32018
                        -----------------------------------------
Magnitude (a.u.)       :      0.37156
Magnitude (Debye)      :      0.94444

                             ****ORCA TERMINATED NORMALLY****
TOTAL RUN TIME: 0 days 0 hours 0 minutes 7 seconds 200 msec
