                         Program Version 3.0.3 - RELEASE   -
|  1> ! RI PBE def2-SVP def2-SVP/J NBO PAL2
|  2> % maxcore 2000
|  3> % output
|  4>     # printlevel mini
|  5>     print[ P_Basis ] 0
|  6>     print[ P_SCFInfo ] 1
|  7>     print[ P_SCFIterInfo ] 1
|  8>     print[ P_OrbEn ] 0
|  9>     print[ P_Cartesian ] 0
| 10> end
| 11> *xyz 0 1
| 12>  C        1.5952400000    -0.5068550000     0.3571160000
| 13>  O        2.9668040000    -0.3068970000     0.1632520000
| 14>  C        3.2328990000     0.5563650000    -0.9155910000
| 15>  C        4.7077170000     0.7917270000    -1.0278180000
| 16>  C        5.3936890000     1.2643100000     0.2122770000
| 17>  C        5.3360670000     0.6123960000    -2.1842660000
| 18>  H        1.4765170000    -1.1757180000     1.2098910000
| 19>  H        1.1247790000    -0.9673310000    -0.5232300000
| 20>  H        1.0756990000     0.4384140000     0.5701450000
| 21>  H        2.7201850000     1.5201330000    -0.7470760000
| 22>  H        2.8408910000     0.1359890000    -1.8529050000
| 23>  H        4.9426260000     2.1941320000     0.5751910000
| 24>  H        6.4560440000     1.4379890000     0.0379380000
| 25>  H        5.2816490000     0.5291170000     1.0128260000
| 26>  H        4.8120700000     0.2535300000    -3.0635460000
| 27>  H        6.3947150000     0.8224180000    -2.2916050000
| 28> *
| 29>
| 30>                          ****END OF INPUT****
 Total Charge           Charge          ....    0
 Multiplicity           Mult            ....    1
 Number of Electrons    NEL             ....   48
 Basis Dimension        Dim             ....  134

MULLIKEN ATOMIC CHARGES
-----------------------
   0 C :    0.147544
   1 O :   -0.349186
   2 C :    0.243522
   3 C :   -0.205115
   4 C :    0.078225
   5 C :   -0.030587
   6 H :    0.033890
   7 H :    0.004400
   8 H :    0.002606
   9 H :   -0.000731
  10 H :   -0.018725
  11 H :    0.016293
  12 H :    0.013054
  13 H :    0.045556
  14 H :    0.008832
  15 H :    0.010420
Sum of atomic charges:   -0.0000000

LOEWDIN ATOMIC CHARGES
----------------------
   0 C :    0.048997
   1 O :   -0.148623
   2 C :    0.068218
   3 C :   -0.040060
   4 C :   -0.055987
   5 C :   -0.068364
   6 H :    0.023479
   7 H :    0.004784
   8 H :    0.004431
   9 H :    0.009856
  10 H :    0.006501
  11 H :    0.035175
  12 H :    0.029546
  13 H :    0.041298
  14 H :    0.019963
  15 H :    0.020786

  Mayer bond orders larger than 0.1
B(  0-C ,  1-O ) :   1.0218 B(  0-C ,  6-H ) :   0.9762 B(  0-C ,  7-H ) :   0.9555
B(  0-C ,  8-H ) :   0.9537 B(  1-O ,  2-C ) :   1.0153 B(  2-C ,  3-C ) :   1.0430
B(  2-C ,  9-H ) :   0.9055 B(  2-C , 10-H ) :   0.9160 B(  3-C ,  4-C ) :   1.0861
B(  3-C ,  5-C ) :   1.9907 B(  4-C , 11-H ) :   0.9376 B(  4-C , 12-H ) :   0.9501
B(  4-C , 13-H ) :   0.9378 B(  5-C , 14-H ) :   0.9316 B(  5-C , 15-H ) :   0.9362

FINAL SINGLE POINT ENERGY      -271.176449988562

DIPOLE MOMENT
-------------
                                X             Y             Z
Electronic contribution:      0.56475      -1.07496      -0.21916
Nuclear contribution   :     -0.94097       1.26709       0.17893
                        -----------------------------------------
Total Dipole Moment    :     -0.37622       0.19212      -0.04023
                        -----------------------------------------
Magnitude (a.u.)       :      0.42435
Magnitude (Debye)      :      1.07860

                             ****ORCA TERMINATED NORMALLY****
TOTAL RUN TIME: 0 days 0 hours 0 minutes 6 seconds 301 msec
