                         Program Version 3.0.3 - RELEASE   -
|  1> ! RI PBE def2-SVP def2-SVP/J NBO PAL2
|  2> % maxcore 2000
|  3> % output
|  4>     # printlevel mini
|  5>     print[ P_Basis ] 0
|  6>     print[ P_SCFInfo ] 1
|  7>     print[ P_SCFIterInfo ] 1
|  8>     print[ P_OrbEn ] 0
|  9>     print[ P_Cartesian ] 0
| 10> end
| 11> *xyz 0 1
| 12>  C        0.9060260000     0.0486080000    -0.0322160000
| 13>  O        2.3064730000     0.0661800000     0.0023180000
| 14>  C        2.8046150000    -0.6106540000     1.1305380000
| 15>  C        4.2564110000    -0.5798210000     1.1450770000
| 16>  C        5.4573460000    -0.5666210000     1.1769740000
| 17>  C        6.9068040000    -0.5426780000     1.2032440000
| 18>  H        0.5957460000     0.5875560000    -0.9271520000
| 19>  H        0.4722890000     0.5424530000     0.8491370000
| 20>  H        0.5143100000    -0.9775460000    -0.0807990000
| 21>  H        2.4578670000    -1.6567440000     1.1293920000
| 22>  H        2.4166060000    -0.1482140000     2.0525660000
| 23>  H        7.2771050000    -0.0943500000     2.1285060000
| 24>  H        7.2957100000     0.0443980000     0.3674840000
| 25>  H        7.3201410000    -1.5513070000     1.1257520000
| 26> *
| 27>
| 28>                          ****END OF INPUT****
 Total Charge           Charge          ....    0
 Multiplicity           Mult            ....    1
 Number of Electrons    NEL             ....   46
 Basis Dimension        Dim             ....  124

MULLIKEN ATOMIC CHARGES
-----------------------
   0 C :    0.150241
   1 O :   -0.338627
   2 C :    0.227041
   3 C :   -0.085776
   4 C :   -0.215637
   5 C :    0.052088
   6 H :    0.035528
   7 H :    0.002610
   8 H :    0.002007
   9 H :    0.012991
  10 H :    0.010039
  11 H :    0.047390
  12 H :    0.053520
  13 H :    0.046586
Sum of atomic charges:   -0.0000000

LOEWDIN ATOMIC CHARGES
----------------------
   0 C :    0.049125
   1 O :   -0.144765
   2 C :    0.053835
   3 C :   -0.074569
   4 C :   -0.049610
   5 C :   -0.067103
   6 H :    0.025037
   7 H :    0.004361
   8 H :    0.004345
   9 H :    0.022613
  10 H :    0.022218
  11 H :    0.050198
  12 H :    0.054484
  13 H :    0.049831

  Mayer bond orders larger than 0.1
B(  0-C ,  1-O ) :   1.0195 B(  0-C ,  6-H ) :   0.9772 B(  0-C ,  7-H ) :   0.9539
B(  0-C ,  8-H ) :   0.9539 B(  1-O ,  2-C ) :   1.0545 B(  2-C ,  3-C ) :   1.0097
B(  2-C ,  9-H ) :   0.9039 B(  2-C , 10-H ) :   0.9023 B(  3-C ,  4-C ) :   2.6457
B(  4-C ,  5-C ) :   1.1279 B(  5-C , 11-H ) :   0.9345 B(  5-C , 12-H ) :   0.9303
B(  5-C , 13-H ) :   0.9344

FINAL SINGLE POINT ENERGY      -269.935286045786

DIPOLE MOMENT
-------------
                                X             Y             Z
Electronic contribution:      1.00058       0.24897      -0.36785
Nuclear contribution   :     -1.05401      -0.43578       0.66719
                        -----------------------------------------
Total Dipole Moment    :     -0.05344      -0.18681       0.29934
                        -----------------------------------------
Magnitude (a.u.)       :      0.35687
Magnitude (Debye)      :      0.90710

                             ****ORCA TERMINATED NORMALLY****
TOTAL RUN TIME: 0 days 0 hours 0 minutes 5 seconds 707 msec
