                         Program Version 3.0.3 - RELEASE   -
|  1> ! RI PBE def2-SVP def2-SVP/J NBO PAL2
|  2> % maxcore 2000
|  3> % output
|  4>     # printlevel mini
|  5>     print[ P_Basis ] 0
|  6>     print[ P_SCFInfo ] 1
|  7>     print[ P_SCFIterInfo ] 1
|  8>     print[ P_OrbEn ] 0
|  9>     print[ P_Cartesian ] 0
| 10> end
| 11> *xyz 0 1
| 12>  C        1.0378900000     0.0119210000    -0.1987660000
| 13>  O        2.4280540000    -0.1372730000    -0.1380730000
| 14>  C        2.8272670000    -1.0773580000     0.8258800000
| 15>  C        4.3426870000    -1.1454120000     0.8537380000
| 16>  C        4.9802990000     0.1311760000     1.2929600000
| 17>  C        5.8170940000     0.2453910000     2.3149060000
| 18>  H        0.8176170000     0.7502130000    -0.9702980000
| 19>  H        0.6270160000     0.3637770000     0.7580590000
| 20>  H        0.5412280000    -0.9335260000    -0.4599030000
| 21>  H        2.4115650000    -2.0677220000     0.5819870000
| 22>  H        2.4412330000    -0.7915990000     1.8169660000
| 23>  H        4.6821650000    -1.3993150000    -0.1576270000
| 24>  H        4.6461540000    -1.9633330000     1.5140550000
| 25>  H        4.7147530000     1.0138850000     0.7166120000
| 26>  H        6.1039810000    -0.6148180000     2.9129750000
| 27>  H        6.2504970000     1.2000920000     2.5900380000
| 28> *
| 29>
| 30>                          ****END OF INPUT****
 Total Charge           Charge          ....    0
 Multiplicity           Mult            ....    1
 Number of Electrons    NEL             ....   48
 Basis Dimension        Dim             ....  134

MULLIKEN ATOMIC CHARGES
-----------------------
   0 C :    0.146303
   1 O :   -0.351861
   2 C :    0.160934
   3 C :    0.059440
   4 C :   -0.089666
   5 C :   -0.035243
   6 H :    0.033601
   7 H :    0.004975
   8 H :    0.002701
   9 H :   -0.004804
  10 H :   -0.006330
  11 H :    0.028448
  12 H :    0.002328
  13 H :    0.013790
  14 H :    0.013247
  15 H :    0.022137
Sum of atomic charges:   -0.0000000

LOEWDIN ATOMIC CHARGES
----------------------
   0 C :    0.049805
   1 O :   -0.150959
   2 C :    0.065104
   3 C :   -0.050563
   4 C :   -0.026183
   5 C :   -0.068796
   6 H :    0.023166
   7 H :    0.005334
   8 H :    0.004300
   9 H :    0.003843
  10 H :    0.003642
  11 H :    0.038696
  12 H :    0.032563
  13 H :    0.027596
  14 H :    0.019029
  15 H :    0.023422

  Mayer bond orders larger than 0.1
B(  0-C ,  1-O ) :   1.0229 B(  0-C ,  6-H ) :   0.9768 B(  0-C ,  7-H ) :   0.9558
B(  0-C ,  8-H ) :   0.9552 B(  1-O ,  2-C ) :   1.0189 B(  2-C ,  3-C ) :   1.0726
B(  2-C ,  9-H ) :   0.9271 B(  2-C , 10-H ) :   0.9237 B(  3-C ,  4-C ) :   1.0665
B(  3-C , 11-H ) :   0.9098 B(  3-C , 12-H ) :   0.9193 B(  4-C ,  5-C ) :   2.0114
B(  4-C , 13-H ) :   0.9584 B(  5-C , 14-H ) :   0.9451 B(  5-C , 15-H ) :   0.9464

FINAL SINGLE POINT ENERGY      -271.172834603908

DIPOLE MOMENT
-------------
                                X             Y             Z
Electronic contribution:      1.17930       0.79035      -1.16452
Nuclear contribution   :     -1.57803      -1.03817       1.27590
                        -----------------------------------------
Total Dipole Moment    :     -0.39872      -0.24782       0.11138
                        -----------------------------------------
Magnitude (a.u.)       :      0.48249
Magnitude (Debye)      :      1.22640

                             ****ORCA TERMINATED NORMALLY****
TOTAL RUN TIME: 0 days 0 hours 0 minutes 6 seconds 358 msec
