                         Program Version 3.0.3 - RELEASE   -
|  1> ! RI PBE def2-SVP def2-SVP/J NBO PAL2
|  2> % maxcore 2000
|  3> % output
|  4>     # printlevel mini
|  5>     print[ P_Basis ] 0
|  6>     print[ P_SCFInfo ] 1
|  7>     print[ P_SCFIterInfo ] 1
|  8>     print[ P_OrbEn ] 0
|  9>     print[ P_Cartesian ] 0
| 10> end
| 11> *xyz 0 1
| 12>  C        2.0083210000     0.3802300000     0.8438760000
| 13>  O        3.2825310000     0.3856700000     0.2612650000
| 14>  C        3.2334600000     0.2686990000    -1.1339810000
| 15>  C        4.6614670000     0.2859530000    -1.6544350000
| 16>  C        4.7186370000     0.1696020000    -3.1002980000
| 17>  C        4.7412460000     0.0715660000    -4.2964550000
| 18>  H        2.1399800000     0.4738340000     1.9218030000
| 19>  H        1.4710770000    -0.5541690000     0.6297430000
| 20>  H        1.3971770000     1.2199220000     0.4846980000
| 21>  H        2.6619420000     1.0987350000    -1.5750810000
| 22>  H        2.7362310000    -0.6669850000    -1.4296450000
| 23>  H        5.2179320000    -0.5349210000    -1.1915290000
| 24>  H        5.1443770000     1.2148350000    -1.3355180000
| 25>  H        4.7719240000    -0.0149610000    -5.3566320000
| 26> *
| 27>
| 28>                          ****END OF INPUT****
 Total Charge           Charge          ....    0
 Multiplicity           Mult            ....    1
 Number of Electrons    NEL             ....   46
 Basis Dimension        Dim             ....  124

MULLIKEN ATOMIC CHARGES
-----------------------
   0 C :    0.137871
   1 O :   -0.343664
   2 C :    0.145862
   3 C :    0.080973
   4 C :    0.306184
   5 C :   -0.481942
   6 H :    0.037805
   7 H :    0.008604
   8 H :    0.009252
   9 H :    0.007106
  10 H :    0.005086
  11 H :    0.045672
  12 H :    0.043901
  13 H :   -0.002710
Sum of atomic charges:   -0.0000000

LOEWDIN ATOMIC CHARGES
----------------------
   0 C :    0.050258
   1 O :   -0.148853
   2 C :    0.069448
   3 C :   -0.052863
   4 C :   -0.022061
   5 C :   -0.088137
   6 H :    0.024646
   7 H :    0.006445
   8 H :    0.006681
   9 H :    0.008576
  10 H :    0.008074
  11 H :    0.052228
  12 H :    0.051733
  13 H :    0.033826

  Mayer bond orders larger than 0.1
B(  0-C ,  1-O ) :   1.0145 B(  0-C ,  6-H ) :   0.9765 B(  0-C ,  7-H ) :   0.9566
B(  0-C ,  8-H ) :   0.9572 B(  1-O ,  2-C ) :   1.0393 B(  2-C ,  3-C ) :   1.0595
B(  2-C ,  9-H ) :   0.9320 B(  2-C , 10-H ) :   0.9315 B(  3-C ,  4-C ) :   1.0370
B(  3-C , 11-H ) :   0.8963 B(  3-C , 12-H ) :   0.8976 B(  4-C ,  5-C ) :   2.3632
B(  4-C , 13-H ) :  -0.1119 B(  5-C , 13-H ) :   1.1033

FINAL SINGLE POINT ENERGY      -269.929703957671

DIPOLE MOMENT
-------------
                                X             Y             Z
Electronic contribution:      3.35724      -0.09776      -2.89508
Nuclear contribution   :     -3.77847       0.08775       3.00166
                        -----------------------------------------
Total Dipole Moment    :     -0.42122      -0.01001       0.10657
                        -----------------------------------------
Magnitude (a.u.)       :      0.43461
Magnitude (Debye)      :      1.10470

                             ****ORCA TERMINATED NORMALLY****
TOTAL RUN TIME: 0 days 0 hours 0 minutes 5 seconds 882 msec
