                         Program Version 3.0.3 - RELEASE   -
|  1> ! RI PBE def2-SVP def2-SVP/J NBO PAL2
|  2> % maxcore 2000
|  3> % output
|  4>     # printlevel mini
|  5>     print[ P_Basis ] 0
|  6>     print[ P_SCFInfo ] 1
|  7>     print[ P_SCFIterInfo ] 1
|  8>     print[ P_OrbEn ] 0
|  9>     print[ P_Cartesian ] 0
| 10> end
| 11> *xyz 0 1
| 12>  C        1.0373530000     0.1599920000     0.0198220000
| 13>  O        2.4341860000     0.1042300000    -0.0932330000
| 14>  C        2.8740470000    -0.9567430000    -0.9162640000
| 15>  C        4.3825120000    -0.9275730000    -1.0197910000
| 16>  C        4.9250560000     0.3609820000    -1.6168200000
| 17>  O        4.8076030000     1.4645260000    -0.7513910000
| 18>  H        0.7909330000     0.9961250000     0.6741630000
| 19>  H        0.6380120000    -0.7646790000     0.4571250000
| 20>  H        0.5611310000     0.3171070000    -0.9572970000
| 21>  H        2.4237160000    -0.8545420000    -1.9167060000
| 22>  H        2.5311850000    -1.9145980000    -0.4975990000
| 23>  H        4.6892380000    -1.7728800000    -1.6453930000
| 24>  H        4.8238280000    -1.0780760000    -0.0294400000
| 25>  H        4.4200720000     0.5562870000    -2.5772570000
| 26>  H        5.9907770000     0.2479850000    -1.8330220000
| 27>  H        3.9175510000     1.4296560000    -0.3804070000
| 28> *
| 29>
| 30>                          ****END OF INPUT****
 Total Charge           Charge          ....    0
 Multiplicity           Mult            ....    1
 Number of Electrons    NEL             ....   50
 Basis Dimension        Dim             ....  134

MULLIKEN ATOMIC CHARGES
-----------------------
   0 C :    0.148544
   1 O :   -0.368879
   2 C :    0.164755
   3 C :   -0.055807
   4 C :    0.176653
   5 O :   -0.294572
   6 H :    0.039399
   7 H :    0.011130
   8 H :    0.010928
   9 H :   -0.003472
  10 H :   -0.000419
  11 H :    0.010030
  12 H :    0.025266
  13 H :   -0.017637
  14 H :    0.008192
  15 H :    0.145891
Sum of atomic charges:   -0.0000000

LOEWDIN ATOMIC CHARGES
----------------------
   0 C :    0.053074
   1 O :   -0.146200
   2 C :    0.062007
   3 C :   -0.073695
   4 C :    0.054564
   5 O :   -0.131972
   6 H :    0.025723
   7 H :    0.009070
   8 H :    0.008340
   9 H :    0.004566
  10 H :    0.007445
  11 H :    0.035635
  12 H :    0.030159
  13 H :   -0.000997
  14 H :    0.018641
  15 H :    0.043640

  Mayer bond orders larger than 0.1
B(  0-C ,  1-O ) :   1.0014 B(  0-C ,  6-H ) :   0.9768 B(  0-C ,  7-H ) :   0.9581
B(  0-C ,  8-H ) :   0.9576 B(  1-O ,  2-C ) :   0.9856 B(  2-C ,  3-C ) :   1.0918
B(  2-C ,  9-H ) :   0.9258 B(  2-C , 10-H ) :   0.9299 B(  3-C ,  4-C ) :   1.0844
B(  3-C , 11-H ) :   0.9093 B(  3-C , 12-H ) :   0.9248 B(  4-C ,  5-O ) :   1.0914
B(  4-C , 13-H ) :   0.9247 B(  4-C , 14-H ) :   0.9396 B(  5-O , 15-H ) :   0.9634

FINAL SINGLE POINT ENERGY      -308.256219740268

DIPOLE MOMENT
-------------
                                X             Y             Z
Electronic contribution:      2.03241       2.49234       1.24340
Nuclear contribution   :     -2.93027      -3.25126      -1.42103
                        -----------------------------------------
Total Dipole Moment    :     -0.89786      -0.75892      -0.17763
                        -----------------------------------------
Magnitude (a.u.)       :      1.18898
Magnitude (Debye)      :      3.02214

                             ****ORCA TERMINATED NORMALLY****
TOTAL RUN TIME: 0 days 0 hours 0 minutes 6 seconds 481 msec
