                         Program Version 3.0.3 - RELEASE   -
|  1> ! RI PBE def2-SVP def2-SVP/J NBO PAL2
|  2> % maxcore 2000
|  3> % output
|  4>     # printlevel mini
|  5>     print[ P_Basis ] 0
|  6>     print[ P_SCFInfo ] 1
|  7>     print[ P_SCFIterInfo ] 1
|  8>     print[ P_OrbEn ] 0
|  9>     print[ P_Cartesian ] 0
| 10> end
| 11> *xyz 0 1
| 12>  C        3.4324220000    -0.5637190000     1.1219430000
| 13>  O        2.6191890000     0.1304120000     0.2041830000
| 14>  C        3.2489510000     0.8073270000    -0.7688340000
| 15>  C        4.5594960000     0.9122360000    -0.9926630000
| 16>  C        5.0890830000     1.7215540000    -2.1262000000
| 17>  O        5.8779160000     2.8192160000    -1.6961900000
| 18>  H        2.7595430000    -1.0499700000     1.8258880000
| 19>  H        4.0931130000     0.1237450000     1.6608600000
| 20>  H        4.0414440000    -1.3188290000     0.6135570000
| 21>  H        2.5270960000     1.2965300000    -1.4168660000
| 22>  H        5.2869560000     0.4319720000    -0.3473890000
| 23>  H        4.2580020000     2.0578320000    -2.7624440000
| 24>  H        5.7554980000     1.1235130000    -2.7539160000
| 25>  H        5.3651920000     3.2986710000    -1.0394290000
| 26> *
| 27>
| 28>                          ****END OF INPUT****
 Total Charge           Charge          ....    0
 Multiplicity           Mult            ....    1
 Number of Electrons    NEL             ....   48
 Basis Dimension        Dim             ....  124

MULLIKEN ATOMIC CHARGES
-----------------------
   0 C :    0.132058
   1 O :   -0.260959
   2 C :    0.137646
   3 C :   -0.220908
   4 C :    0.244832
   5 O :   -0.293684
   6 H :    0.040201
   7 H :    0.031558
   8 H :    0.029918
   9 H :    0.006125
  10 H :    0.006601
  11 H :   -0.009034
  12 H :    0.012172
  13 H :    0.143474
Sum of atomic charges:    0.0000000

LOEWDIN ATOMIC CHARGES
----------------------
   0 C :    0.062269
   1 O :   -0.063616
   2 C :    0.025343
   3 C :   -0.151472
   4 C :    0.058453
   5 O :   -0.129561
   6 H :    0.028062
   7 H :    0.017354
   8 H :    0.017345
   9 H :    0.021233
  10 H :    0.023934
  11 H :    0.005375
  12 H :    0.024319
  13 H :    0.060961

  Mayer bond orders larger than 0.1
B(  0-C ,  1-O ) :   0.9844 B(  0-C ,  6-H ) :   0.9730 B(  0-C ,  7-H ) :   0.9602
B(  0-C ,  8-H ) :   0.9593 B(  1-O ,  2-C ) :   1.1714 B(  2-C ,  3-C ) :   1.7266
B(  2-C ,  9-H ) :   0.9659 B(  3-C ,  4-C ) :   1.0739 B(  3-C , 10-H ) :   0.9595
B(  4-C ,  5-O ) :   1.0362 B(  4-C , 11-H ) :   0.9321 B(  4-C , 12-H ) :   0.9187
B(  5-O , 13-H ) :   0.9852

FINAL SINGLE POINT ENERGY      -307.039729367862

DIPOLE MOMENT
-------------
                                X             Y             Z
Electronic contribution:     -1.11220       1.50545      -0.71002
Nuclear contribution   :      0.76618      -1.86723       1.26529
                        -----------------------------------------
Total Dipole Moment    :     -0.34602      -0.36178       0.55527
                        -----------------------------------------
Magnitude (a.u.)       :      0.74762
Magnitude (Debye)      :      1.90030

                             ****ORCA TERMINATED NORMALLY****
TOTAL RUN TIME: 0 days 0 hours 0 minutes 5 seconds 723 msec
