                         Program Version 3.0.3 - RELEASE   -
|  1> ! RI PBE def2-SVP def2-SVP/J NBO PAL2
|  2> % maxcore 2000
|  3> % output
|  4>     # printlevel mini
|  5>     print[ P_Basis ] 0
|  6>     print[ P_SCFInfo ] 1
|  7>     print[ P_SCFIterInfo ] 1
|  8>     print[ P_OrbEn ] 0
|  9>     print[ P_Cartesian ] 0
| 10> end
| 11> *xyz 0 1
| 12>  C        3.9306410000     0.5839350000     0.7116430000
| 13>  O        2.9840330000    -0.0563790000    -0.1259440000
| 14>  C        3.4327110000    -1.0090380000    -0.9303020000
| 15>  C        4.6880210000    -1.4656230000    -1.0682830000
| 16>  C        4.9394490000    -2.5276010000    -2.0241350000
| 17>  O        6.0199850000    -3.0228140000    -2.2406310000
| 18>  H        3.3776510000     1.3229870000     1.2868030000
| 19>  H        4.7017850000     1.0785720000     0.1146090000
| 20>  H        4.3991090000    -0.1377590000     1.3865310000
| 21>  H        2.6241950000    -1.4281960000    -1.5235660000
| 22>  H        5.5303490000    -1.0854420000    -0.5042440000
| 23>  H        4.0374720000    -2.8786410000    -2.5744810000
| 24> *
| 25>
| 26>                          ****END OF INPUT****
 Total Charge           Charge          ....    0
 Multiplicity           Mult            ....    1
 Number of Electrons    NEL             ....   46
 Basis Dimension        Dim             ....  114

MULLIKEN ATOMIC CHARGES
-----------------------
   0 C :    0.123411
   1 O :   -0.237063
   2 C :    0.151522
   3 C :   -0.101747
   4 C :    0.112488
   5 O :   -0.186836
   6 H :    0.050697
   7 H :    0.046334
   8 H :    0.045805
   9 H :    0.024903
  10 H :    0.007568
  11 H :   -0.037080
Sum of atomic charges:   -0.0000000

LOEWDIN ATOMIC CHARGES
----------------------
   0 C :    0.069142
   1 O :   -0.032922
   2 C :    0.066289
   3 C :   -0.152065
   4 C :    0.060823
   5 O :   -0.137535
   6 H :    0.032683
   7 H :    0.025200
   8 H :    0.025092
   9 H :    0.028262
  10 H :    0.033103
  11 H :   -0.018072

  Mayer bond orders larger than 0.1
B(  0-C ,  1-O ) :   0.9596 B(  0-C ,  6-H ) :   0.9736 B(  0-C ,  7-H ) :   0.9631
B(  0-C ,  8-H ) :   0.9633 B(  1-O ,  2-C ) :   1.2261 B(  2-C ,  3-C ) :   1.5819
B(  2-C ,  9-H ) :   0.9652 B(  3-C ,  4-C ) :   1.0665 B(  3-C , 10-H ) :   0.9628
B(  4-C ,  5-O ) :   2.0928 B(  4-C , 11-H ) :   0.9307

FINAL SINGLE POINT ENERGY      -305.856223687338

DIPOLE MOMENT
-------------
                                X             Y             Z
Electronic contribution:      0.46786      -2.85921      -2.62205
Nuclear contribution   :     -1.23853       3.95292       3.48574
                        -----------------------------------------
Total Dipole Moment    :     -0.77067       1.09371       0.86369
                        -----------------------------------------
Magnitude (a.u.)       :      1.59251
Magnitude (Debye)      :      4.04785

                             ****ORCA TERMINATED NORMALLY****
TOTAL RUN TIME: 0 days 0 hours 0 minutes 5 seconds 521 msec
