                         Program Version 3.0.3 - RELEASE   -
|  1> ! RI PBE def2-SVP def2-SVP/J NBO PAL2
|  2> % maxcore 2000
|  3> % output
|  4>     # printlevel mini
|  5>     print[ P_Basis ] 0
|  6>     print[ P_SCFInfo ] 1
|  7>     print[ P_SCFIterInfo ] 1
|  8>     print[ P_OrbEn ] 0
|  9>     print[ P_Cartesian ] 0
| 10> end
| 11> *xyz 0 1
| 12>  C        1.3017200000    -0.1953340000    -0.1155360000
| 13>  O        2.6957210000    -0.1605130000    -0.3096830000
| 14>  C        3.1483390000    -0.2077740000    -1.5846490000
| 15>  C        2.3997450000    -0.3335830000    -2.6781170000
| 16>  C        4.6432490000    -0.1134070000    -1.5861420000
| 17>  O        5.1149890000     1.0308900000    -0.9117810000
| 18>  H        1.1345100000    -0.1114920000     0.9569640000
| 19>  H        0.8783830000    -1.1378840000    -0.4780680000
| 20>  H        0.8137010000     0.6383190000    -0.6310060000
| 21>  H        1.3239150000    -0.4370030000    -2.6548700000
| 22>  H        2.8815220000    -0.3384030000    -3.6456540000
| 23>  H        5.0037480000    -0.0553480000    -2.6128470000
| 24>  H        5.0524470000    -1.0286990000    -1.1324310000
| 25>  H        4.6915200000     1.0448200000    -0.0482590000
| 26> *
| 27>
| 28>                          ****END OF INPUT****
 Total Charge           Charge          ....    0
 Multiplicity           Mult            ....    1
 Number of Electrons    NEL             ....   48
 Basis Dimension        Dim             ....  124

MULLIKEN ATOMIC CHARGES
-----------------------
   0 C :    0.132629
   1 O :   -0.290714
   2 C :   -0.024440
   3 C :   -0.105032
   4 C :    0.279375
   5 O :   -0.293046
   6 H :    0.038622
   7 H :    0.032360
   8 H :    0.035937
   9 H :    0.015561
  10 H :    0.015320
  11 H :    0.002264
  12 H :    0.006325
  13 H :    0.154840
Sum of atomic charges:   -0.0000000

LOEWDIN ATOMIC CHARGES
----------------------
   0 C :    0.062688
   1 O :   -0.076118
   2 C :    0.003627
   3 C :   -0.148290
   4 C :    0.057708
   5 O :   -0.119194
   6 H :    0.027402
   7 H :    0.017652
   8 H :    0.019289
   9 H :    0.020953
  10 H :    0.029946
  11 H :    0.028038
  12 H :    0.013875
  13 H :    0.062424

  Mayer bond orders larger than 0.1
B(  0-C ,  1-O ) :   0.9784 B(  0-C ,  6-H ) :   0.9731 B(  0-C ,  7-H ) :   0.9615
B(  0-C ,  8-H ) :   0.9601 B(  1-O ,  2-C ) :   1.1307 B(  2-C ,  3-C ) :   1.8425
B(  2-C ,  4-C ) :   1.0231 B(  3-C ,  9-H ) :   0.9429 B(  3-C , 10-H ) :   0.9229
B(  4-C ,  5-O ) :   1.0588 B(  4-C , 11-H ) :   0.9307 B(  4-C , 12-H ) :   0.9077
B(  5-O , 13-H ) :   0.9774

FINAL SINGLE POINT ENERGY      -307.042076958084

DIPOLE MOMENT
-------------
                                X             Y             Z
Electronic contribution:      3.05327       1.16398       1.29264
Nuclear contribution   :     -3.82160      -1.51946      -0.94952
                        -----------------------------------------
Total Dipole Moment    :     -0.76833      -0.35548       0.34313
                        -----------------------------------------
Magnitude (a.u.)       :      0.91347
Magnitude (Debye)      :      2.32187

                             ****ORCA TERMINATED NORMALLY****
TOTAL RUN TIME: 0 days 0 hours 0 minutes 5 seconds 864 msec
