                         Program Version 3.0.3 - RELEASE   -
|  1> ! RI PBE def2-SVP def2-SVP/J NBO PAL2
|  2> % maxcore 2000
|  3> % output
|  4>     # printlevel mini
|  5>     print[ P_Basis ] 0
|  6>     print[ P_SCFInfo ] 1
|  7>     print[ P_SCFIterInfo ] 1
|  8>     print[ P_OrbEn ] 0
|  9>     print[ P_Cartesian ] 0
| 10> end
| 11> *xyz 0 1
| 12>  C        2.2878960000    -0.8268320000    -0.1122260000
| 13>  O        3.5818880000    -0.5051250000    -0.5628550000
| 14>  C        3.7516520000    -0.4107940000    -1.8968610000
| 15>  C        2.8395330000    -0.5855370000    -2.8530610000
| 16>  C        5.1641560000    -0.0666260000    -2.2159190000
| 17>  O        5.5938250000     0.0797020000    -3.3272980000
| 18>  H        2.3355630000    -0.8600030000     0.9745010000
| 19>  H        1.9706300000    -1.8024290000    -0.4963510000
| 20>  H        1.5638100000    -0.0668730000    -0.4255320000
| 21>  H        1.8065650000    -0.8356610000    -2.6584300000
| 22>  H        3.1640750000    -0.4675590000    -3.8779940000
| 23>  H        5.8060980000     0.0473660000    -1.3187720000
| 24> *
| 25>
| 26>                          ****END OF INPUT****
 Total Charge           Charge          ....    0
 Multiplicity           Mult            ....    1
 Number of Electrons    NEL             ....   46
 Basis Dimension        Dim             ....  114

MULLIKEN ATOMIC CHARGES
-----------------------
   0 C :    0.122539
   1 O :   -0.263213
   2 C :    0.038369
   3 C :   -0.078461
   4 C :    0.142874
   5 O :   -0.143928
   6 H :    0.049596
   7 H :    0.034018
   8 H :    0.038392
   9 H :    0.029209
  10 H :    0.041892
  11 H :   -0.011288
Sum of atomic charges:    0.0000000

LOEWDIN ATOMIC CHARGES
----------------------
   0 C :    0.062737
   1 O :   -0.061662
   2 C :   -0.033022
   3 C :   -0.084901
   4 C :    0.084501
   5 O :   -0.097806
   6 H :    0.030964
   7 H :    0.019474
   8 H :    0.019953
   9 H :    0.027236
  10 H :    0.039367
  11 H :   -0.006841

  Mayer bond orders larger than 0.1
B(  0-C ,  1-O ) :   0.9793 B(  0-C ,  6-H ) :   0.9737 B(  0-C ,  7-H ) :   0.9583
B(  0-C ,  8-H ) :   0.9592 B(  1-O ,  2-C ) :   1.1508 B(  1-O ,  3-C ) :   0.1056
B(  2-C ,  3-C ) :   1.8019 B(  2-C ,  4-C ) :   0.9430 B(  3-C ,  9-H ) :   0.9389
B(  3-C , 10-H ) :   0.9122 B(  4-C ,  5-O ) :   2.1836 B(  4-C , 11-H ) :   0.9196

FINAL SINGLE POINT ENERGY      -305.847977485274

DIPOLE MOMENT
-------------
                                X             Y             Z
Electronic contribution:      5.08377       1.26931      -1.98571
Nuclear contribution   :     -6.08564      -1.54172       2.81809
                        -----------------------------------------
Total Dipole Moment    :     -1.00188      -0.27241       0.83238
                        -----------------------------------------
Magnitude (a.u.)       :      1.33072
Magnitude (Debye)      :      3.38242

                             ****ORCA TERMINATED NORMALLY****
TOTAL RUN TIME: 0 days 0 hours 0 minutes 5 seconds 376 msec
