                         Program Version 3.0.3 - RELEASE   -
|  1> ! RI PBE def2-SVP def2-SVP/J NBO PAL2
|  2> % maxcore 2000
|  3> % output
|  4>     # printlevel mini
|  5>     print[ P_Basis ] 0
|  6>     print[ P_SCFInfo ] 1
|  7>     print[ P_SCFIterInfo ] 1
|  8>     print[ P_OrbEn ] 0
|  9>     print[ P_Cartesian ] 0
| 10> end
| 11> *xyz 0 1
| 12>  C        1.2664120000    -0.1151710000    -0.4203980000
| 13>  O        2.6065320000    -0.5092540000    -0.2957160000
| 14>  C        2.9035230000    -1.2251110000     0.8925630000
| 15>  C        2.4327100000    -2.6648350000     0.8341150000
| 16>  C        4.4072500000    -1.1267580000     1.0539040000
| 17>  O        4.8432000000     0.2071850000     1.1003610000
| 18>  H        1.1917210000     0.5024820000    -1.3158860000
| 19>  H        0.9411210000     0.4750690000     0.4469460000
| 20>  H        0.5903420000    -0.9713290000    -0.5325560000
| 21>  H        2.4302410000    -0.7060130000     1.7407520000
| 22>  H        2.8940770000    -3.1816900000    -0.0107360000
| 23>  H        1.3487480000    -2.7319130000     0.7259920000
| 24>  H        2.7038860000    -3.1908640000     1.7527420000
| 25>  H        4.8858130000    -1.6747930000     0.2280730000
| 26>  H        4.7080130000    -1.6011090000     1.9910100000
| 27>  H        4.4212010000     0.6473930000     0.3543550000
| 28> *
| 29>
| 30>                          ****END OF INPUT****
 Total Charge           Charge          ....    0
 Multiplicity           Mult            ....    1
 Number of Electrons    NEL             ....   50
 Basis Dimension        Dim             ....  134

MULLIKEN ATOMIC CHARGES
-----------------------
   0 C :    0.149318
   1 O :   -0.362941
   2 C :    0.016037
   3 C :   -0.000107
   4 C :    0.215804
   5 O :   -0.286579
   6 H :    0.033398
   7 H :    0.008670
   8 H :    0.012290
   9 H :   -0.009860
  10 H :    0.026705
  11 H :    0.025145
  12 H :    0.023313
  13 H :   -0.005066
  14 H :    0.004197
  15 H :    0.149676
Sum of atomic charges:   -0.0000000

LOEWDIN ATOMIC CHARGES
----------------------
   0 C :    0.050789
   1 O :   -0.149538
   2 C :    0.024657
   3 C :   -0.074291
   4 C :    0.048453
   5 O :   -0.121709
   6 H :    0.024276
   7 H :    0.007612
   8 H :    0.006224
   9 H :    0.006293
  10 H :    0.029982
  11 H :    0.027260
  12 H :    0.033732
  13 H :    0.005691
  14 H :    0.021906
  15 H :    0.058664

  Mayer bond orders larger than 0.1
B(  0-C ,  1-O ) :   1.0094 B(  0-C ,  6-H ) :   0.9756 B(  0-C ,  7-H ) :   0.9557
B(  0-C ,  8-H ) :   0.9580 B(  1-O ,  2-C ) :   0.9838 B(  2-C ,  3-C ) :   1.0776
B(  2-C ,  4-C ) :   1.0374 B(  2-C ,  9-H ) :   0.9029 B(  3-C , 10-H ) :   0.9509
B(  3-C , 11-H ) :   0.9497 B(  3-C , 12-H ) :   0.9521 B(  4-C ,  5-O ) :   1.0839
B(  4-C , 13-H ) :   0.9218 B(  4-C , 14-H ) :   0.9332 B(  5-O , 15-H ) :   0.9707

FINAL SINGLE POINT ENERGY      -308.257673636080

DIPOLE MOMENT
-------------
                                X             Y             Z
Electronic contribution:      3.58633       3.11287      -0.33680
Nuclear contribution   :     -4.39455      -3.41830       0.18881
                        -----------------------------------------
Total Dipole Moment    :     -0.80823      -0.30543      -0.14800
                        -----------------------------------------
Magnitude (a.u.)       :      0.87660
Magnitude (Debye)      :      2.22813

                             ****ORCA TERMINATED NORMALLY****
TOTAL RUN TIME: 0 days 0 hours 0 minutes 6 seconds 550 msec
