                         Program Version 3.0.3 - RELEASE   -
|  1> ! RI PBE def2-SVP def2-SVP/J NBO PAL2
|  2> % maxcore 2000
|  3> % output
|  4>     # printlevel mini
|  5>     print[ P_Basis ] 0
|  6>     print[ P_SCFInfo ] 1
|  7>     print[ P_SCFIterInfo ] 1
|  8>     print[ P_OrbEn ] 0
|  9>     print[ P_Cartesian ] 0
| 10> end
| 11> *xyz 0 1
| 12>  C        4.1558600000    -1.8494110000     0.7644450000
| 13>  O        3.5631630000    -1.3123940000     1.9211210000
| 14>  C        3.5453780000     0.0919450000     1.9278500000
| 15>  C        2.6351770000     0.5496100000     3.0517620000
| 16>  C        4.9368130000     0.6447730000     2.1744490000
| 17>  O        5.3249560000     1.7082420000     1.7815010000
| 18>  H        4.1218180000    -2.9345900000     0.8570350000
| 19>  H        5.2032870000    -1.5386330000     0.6523090000
| 20>  H        3.6087510000    -1.5487000000    -0.1386920000
| 21>  H        3.1872770000     0.4868770000     0.9659210000
| 22>  H        3.0056210000     0.1895850000     4.0144150000
| 23>  H        1.6337990000     0.1454740000     2.8970280000
| 24>  H        2.5826100000     1.6388530000     3.0770800000
| 25>  H        5.5771910000    -0.0189300000     2.7996650000
| 26> *
| 27>
| 28>                          ****END OF INPUT****
 Total Charge           Charge          ....    0
 Multiplicity           Mult            ....    1
 Number of Electrons    NEL             ....   48
 Basis Dimension        Dim             ....  124

MULLIKEN ATOMIC CHARGES
-----------------------
   0 C :    0.137129
   1 O :   -0.332972
   2 C :    0.072549
   3 C :    0.020615
   4 C :    0.074674
   5 O :   -0.149599
   6 H :    0.044641
   7 H :    0.014771
   8 H :    0.011089
   9 H :    0.000999
  10 H :    0.027216
  11 H :    0.040578
  12 H :    0.042333
  13 H :   -0.004024
Sum of atomic charges:   -0.0000000

LOEWDIN ATOMIC CHARGES
----------------------
   0 C :    0.051223
   1 O :   -0.138510
   2 C :    0.005294
   3 C :   -0.053987
   4 C :    0.077758
   5 O :   -0.098858
   6 H :    0.027390
   7 H :    0.007035
   8 H :    0.009599
   9 H :    0.015425
  10 H :    0.032562
  11 H :    0.037136
  12 H :    0.039143
  13 H :   -0.011210

  Mayer bond orders larger than 0.1
B(  0-C ,  1-O ) :   1.0094 B(  0-C ,  6-H ) :   0.9774 B(  0-C ,  7-H ) :   0.9553
B(  0-C ,  8-H ) :   0.9547 B(  1-O ,  2-C ) :   1.0179 B(  2-C ,  3-C ) :   1.0686
B(  2-C ,  4-C ) :   0.9124 B(  2-C ,  9-H ) :   0.8978 B(  3-C , 10-H ) :   0.9546
B(  3-C , 11-H ) :   0.9532 B(  3-C , 12-H ) :   0.9541 B(  4-C ,  5-O ) :   2.1851
B(  4-C , 13-H ) :   0.9081

FINAL SINGLE POINT ENERGY      -307.054844373185

DIPOLE MOMENT
-------------
                                X             Y             Z
Electronic contribution:      2.73491       2.46725       0.15584
Nuclear contribution   :     -3.07927      -3.00748      -0.25947
                        -----------------------------------------
Total Dipole Moment    :     -0.34436      -0.54022      -0.10363
                        -----------------------------------------
Magnitude (a.u.)       :      0.64897
Magnitude (Debye)      :      1.64956

                             ****ORCA TERMINATED NORMALLY****
TOTAL RUN TIME: 0 days 0 hours 0 minutes 6 seconds 14 msec
