                         Program Version 3.0.3 - RELEASE   -
|  1> ! RI PBE def2-SVP def2-SVP/J NBO PAL2
|  2> % maxcore 2000
|  3> % output
|  4>     # printlevel mini
|  5>     print[ P_Basis ] 0
|  6>     print[ P_SCFInfo ] 1
|  7>     print[ P_SCFIterInfo ] 1
|  8>     print[ P_OrbEn ] 0
|  9>     print[ P_Cartesian ] 0
| 10> end
| 11> *xyz 0 1
| 12>  C        3.0117990000     0.5225970000     0.9301790000
| 13>  O        3.9992440000     0.2325620000    -0.0200780000
| 14>  C        3.5555540000    -0.6521770000    -1.0201280000
| 15>  C        4.7385580000    -0.9874150000    -1.9085380000
| 16>  C        5.2579760000     0.2187180000    -2.6713310000
| 17>  O        5.7585290000    -1.5967180000    -1.1424770000
| 18>  H        3.4480080000     1.2001510000     1.6646340000
| 19>  H        2.6676990000    -0.3862650000     1.4423500000
| 20>  H        2.1424460000     1.0107630000     0.4690420000
| 21>  H        2.7451800000    -0.1961630000    -1.6089720000
| 22>  H        3.1710580000    -1.5749220000    -0.5616830000
| 23>  H        4.4079320000    -1.7507770000    -2.6207270000
| 24>  H        5.5595240000     1.0097650000    -1.9812530000
| 25>  H        4.4911090000     0.6222060000    -3.3381680000
| 26>  H        6.1228190000    -0.0682500000    -3.2711850000
| 27>  H        5.9030660000    -1.0266760000    -0.3793640000
| 28> *
| 29>
| 30>                          ****END OF INPUT****
 Total Charge           Charge          ....    0
 Multiplicity           Mult            ....    1
 Number of Electrons    NEL             ....   50
 Basis Dimension        Dim             ....  134

MULLIKEN ATOMIC CHARGES
-----------------------
   0 C :    0.148105
   1 O :   -0.363548
   2 C :    0.170392
   3 C :    0.066301
   4 C :    0.011891
   5 O :   -0.282381
   6 H :    0.036059
   7 H :    0.007635
   8 H :    0.008616
   9 H :   -0.008847
  10 H :    0.000692
  11 H :    0.003994
  12 H :    0.017537
  13 H :    0.006217
  14 H :    0.028589
  15 H :    0.148747
Sum of atomic charges:   -0.0000000

LOEWDIN ATOMIC CHARGES
----------------------
   0 C :    0.051785
   1 O :   -0.150897
   2 C :    0.047127
   3 C :    0.029660
   4 C :   -0.078143
   5 O :   -0.114031
   6 H :    0.023878
   7 H :    0.007140
   8 H :    0.007378
   9 H :    0.005600
  10 H :    0.006972
  11 H :    0.024731
  12 H :    0.024981
  13 H :    0.025683
  14 H :    0.029362
  15 H :    0.058773

  Mayer bond orders larger than 0.1
B(  0-C ,  1-O ) :   1.0143 B(  0-C ,  6-H ) :   0.9765 B(  0-C ,  7-H ) :   0.9566
B(  0-C ,  8-H ) :   0.9574 B(  1-O ,  2-C ) :   0.9991 B(  2-C ,  3-C ) :   1.0487
B(  2-C ,  9-H ) :   0.9188 B(  2-C , 10-H ) :   0.9200 B(  3-C ,  4-C ) :   1.0777
B(  3-C ,  5-O ) :   1.0473 B(  3-C , 11-H ) :   0.9068 B(  4-C , 12-H ) :   0.9532
B(  4-C , 13-H ) :   0.9477 B(  4-C , 14-H ) :   0.9588 B(  5-O , 15-H ) :   0.9760

FINAL SINGLE POINT ENERGY      -308.258262653579

DIPOLE MOMENT
-------------
                                X             Y             Z
Electronic contribution:      2.37199      -2.03002       0.94623
Nuclear contribution   :     -3.06934       2.41939      -0.70099
                        -----------------------------------------
Total Dipole Moment    :     -0.69735       0.38937       0.24523
                        -----------------------------------------
Magnitude (a.u.)       :      0.83549
Magnitude (Debye)      :      2.12366

                             ****ORCA TERMINATED NORMALLY****
TOTAL RUN TIME: 0 days 0 hours 0 minutes 6 seconds 261 msec
