                         Program Version 3.0.3 - RELEASE   -
|  1> ! RI PBE def2-SVP def2-SVP/J NBO PAL2
|  2> % maxcore 2000
|  3> % output
|  4>     # printlevel mini
|  5>     print[ P_Basis ] 0
|  6>     print[ P_SCFInfo ] 1
|  7>     print[ P_SCFIterInfo ] 1
|  8>     print[ P_OrbEn ] 0
|  9>     print[ P_Cartesian ] 0
| 10> end
| 11> *xyz 0 1
| 12>  C        1.2624860000     0.2137110000    -0.7698160000
| 13>  O        2.6498000000     0.3702040000    -0.9048650000
| 14>  C        3.1961970000     1.1758660000     0.0975820000
| 15>  C        4.6966960000     1.3357960000    -0.0591740000
| 16>  C        5.3602600000     0.6444670000    -1.2097920000
| 17>  O        5.2950290000     2.0086840000     0.7424390000
| 18>  H        0.9229930000    -0.4234410000    -1.5862450000
| 19>  H        0.7419540000     1.1792050000    -0.8293980000
| 20>  H        1.0033470000    -0.2613180000     0.1861510000
| 21>  H        3.0134080000     0.7557480000     1.0986950000
| 22>  H        2.7557840000     2.1849000000     0.0905020000
| 23>  H        4.9182490000     0.9797680000    -2.1514970000
| 24>  H        5.1735390000    -0.4311310000    -1.1564160000
| 25>  H        6.4285870000     0.8503490000    -1.1918570000
| 26> *
| 27>
| 28>                          ****END OF INPUT****
 Total Charge           Charge          ....    0
 Multiplicity           Mult            ....    1
 Number of Electrons    NEL             ....   48
 Basis Dimension        Dim             ....  124

MULLIKEN ATOMIC CHARGES
-----------------------
   0 C :    0.151284
   1 O :   -0.348687
   2 C :    0.193897
   3 C :   -0.102085
   4 C :    0.042548
   5 O :   -0.173506
   6 H :    0.037526
   7 H :    0.008993
   8 H :    0.008974
   9 H :    0.022656
  10 H :    0.026790
  11 H :    0.042867
  12 H :    0.050791
  13 H :    0.037953
Sum of atomic charges:   -0.0000000

LOEWDIN ATOMIC CHARGES
----------------------
   0 C :    0.053894
   1 O :   -0.148340
   2 C :    0.028306
   3 C :    0.048387
   4 C :   -0.088974
   5 O :   -0.123937
   6 H :    0.024945
   7 H :    0.007789
   8 H :    0.007571
   9 H :    0.025599
  10 H :    0.026383
  11 H :    0.049851
  12 H :    0.051094
  13 H :    0.037430

  Mayer bond orders larger than 0.1
B(  0-C ,  1-O ) :   1.0060 B(  0-C ,  6-H ) :   0.9771 B(  0-C ,  7-H ) :   0.9569
B(  0-C ,  8-H ) :   0.9574 B(  1-O ,  2-C ) :   1.0402 B(  2-C ,  3-C ) :   0.9334
B(  2-C ,  9-H ) :   0.9131 B(  2-C , 10-H ) :   0.9144 B(  3-C ,  4-C ) :   1.0503
B(  3-C ,  5-O ) :   2.1664 B(  4-C , 11-H ) :   0.9285 B(  4-C , 12-H ) :   0.9303
B(  4-C , 13-H ) :   0.9460

FINAL SINGLE POINT ENERGY      -307.063909776528

DIPOLE MOMENT
-------------
                                X             Y             Z
Electronic contribution:      3.53835       2.12820       2.10613
Nuclear contribution   :     -4.40028      -2.56278      -2.50612
                        -----------------------------------------
Total Dipole Moment    :     -0.86193      -0.43459      -0.40000
                        -----------------------------------------
Magnitude (a.u.)       :      1.04489
Magnitude (Debye)      :      2.65589

                             ****ORCA TERMINATED NORMALLY****
TOTAL RUN TIME: 0 days 0 hours 0 minutes 5 seconds 600 msec
