                         Program Version 3.0.3 - RELEASE   -
|  1> ! RI PBE def2-SVP def2-SVP/J NBO PAL2
|  2> % maxcore 2000
|  3> % output
|  4>     # printlevel mini
|  5>     print[ P_Basis ] 0
|  6>     print[ P_SCFInfo ] 1
|  7>     print[ P_SCFIterInfo ] 1
|  8>     print[ P_OrbEn ] 0
|  9>     print[ P_Cartesian ] 0
| 10> end
| 11> *xyz 0 1
| 12>  C        1.6806890000     0.4076270000    -0.3378720000
| 13>  O        3.0134830000     0.2165810000     0.0529650000
| 14>  C        3.2364950000    -1.0535290000     0.6058730000
| 15>  C        4.7060750000    -1.1814510000     0.9538820000
| 16>  C        5.5972050000    -1.2166630000    -0.2555540000
| 17>  O        6.5523700000    -1.9365430000    -0.3659190000
| 18>  H        1.5993490000     1.4141370000    -0.7478610000
| 19>  H        0.9950280000     0.3136310000     0.5154800000
| 20>  H        1.3785750000    -0.3166220000    -1.1067480000
| 21>  H        2.9371510000    -1.8380070000    -0.1076990000
| 22>  H        2.6261940000    -1.1912690000     1.5109590000
| 23>  H        4.8954080000    -2.0730520000     1.5548410000
| 24>  H        4.9923980000    -0.3055250000     1.5493670000
| 25>  H        5.3186800000    -0.5140340000    -1.0682950000
| 26> *
| 27>
| 28>                          ****END OF INPUT****
 Total Charge           Charge          ....    0
 Multiplicity           Mult            ....    1
 Number of Electrons    NEL             ....   48
 Basis Dimension        Dim             ....  124

MULLIKEN ATOMIC CHARGES
-----------------------
   0 C :    0.145994
   1 O :   -0.353761
   2 C :    0.148628
   3 C :    0.009066
   4 C :    0.067717
   5 O :   -0.162994
   6 H :    0.035490
   7 H :    0.009296
   8 H :    0.009503
   9 H :    0.001455
  10 H :    0.006015
  11 H :    0.028771
  12 H :    0.054220
  13 H :    0.000601
Sum of atomic charges:   -0.0000000

LOEWDIN ATOMIC CHARGES
----------------------
   0 C :    0.052161
   1 O :   -0.151637
   2 C :    0.064429
   3 C :   -0.090189
   4 C :    0.092157
   5 O :   -0.108066
   6 H :    0.025323
   7 H :    0.007145
   8 H :    0.007360
   9 H :    0.006011
  10 H :    0.009918
  11 H :    0.041315
  12 H :    0.053640
  13 H :   -0.009569

  Mayer bond orders larger than 0.1
B(  0-C ,  1-O ) :   1.0134 B(  0-C ,  6-H ) :   0.9760 B(  0-C ,  7-H ) :   0.9570
B(  0-C ,  8-H ) :   0.9568 B(  1-O ,  2-C ) :   1.0130 B(  2-C ,  3-C ) :   1.0544
B(  2-C ,  9-H ) :   0.9255 B(  2-C , 10-H ) :   0.9234 B(  3-C ,  4-C ) :   0.9731
B(  3-C , 11-H ) :   0.9152 B(  3-C , 12-H ) :   0.9056 B(  4-C ,  5-O ) :   2.1784
B(  4-C , 13-H ) :   0.9284

FINAL SINGLE POINT ENERGY      -307.053620076614

DIPOLE MOMENT
-------------
                                X             Y             Z
Electronic contribution:      6.31956      -1.34330      -0.92660
Nuclear contribution   :     -7.50154       1.61173       1.22013
                        -----------------------------------------
Total Dipole Moment    :     -1.18197       0.26843       0.29353
                        -----------------------------------------
Magnitude (a.u.)       :      1.24711
Magnitude (Debye)      :      3.16990

                             ****ORCA TERMINATED NORMALLY****
TOTAL RUN TIME: 0 days 0 hours 0 minutes 5 seconds 919 msec
