                         Program Version 3.0.3 - RELEASE   -
|  1> ! RI PBE def2-SVP def2-SVP/J NBO PAL2
|  2> % maxcore 2000
|  3> % output
|  4>     # printlevel mini
|  5>     print[ P_Basis ] 0
|  6>     print[ P_SCFInfo ] 1
|  7>     print[ P_SCFIterInfo ] 1
|  8>     print[ P_OrbEn ] 0
|  9>     print[ P_Cartesian ] 0
| 10> end
| 11> *xyz 0 1
| 12>  C        3.4637520000     0.5493170000     1.4443550000
| 13>  O        4.2181680000    -0.1759390000     0.5142460000
| 14>  C        3.4162370000    -0.8894050000    -0.3873580000
| 15>  C        4.3276060000    -1.6275260000    -1.3382690000
| 16>  O        3.5256810000    -2.3415930000    -2.2394020000
| 17>  C        4.2800800000    -3.0647670000    -3.1711440000
| 18>  H        4.1615870000     1.0688040000     2.1013580000
| 19>  H        2.8277460000    -0.1109450000     2.0504180000
| 20>  H        2.8195270000     1.2904620000     0.9509620000
| 21>  H        2.7607380000    -0.2108580000    -0.9532480000
| 22>  H        2.7721760000    -1.6074360000     0.1417530000
| 23>  H        4.9834870000    -2.3056530000    -0.7723130000
| 24>  H        4.9712820000    -0.9094640000    -1.8678010000
| 25>  H        3.5822590000    -3.5860290000    -3.8267540000
| 26>  H        4.9272480000    -3.8042980000    -2.6791810000
| 27>  H        4.9131160000    -2.4027610000    -3.7784100000
| 28> *
| 29>
| 30>                          ****END OF INPUT****
 Total Charge           Charge          ....    0
 Multiplicity           Mult            ....    1
 Number of Electrons    NEL             ....   50
 Basis Dimension        Dim             ....  134

MULLIKEN ATOMIC CHARGES
-----------------------
   0 C :    0.150603
   1 O :   -0.356545
   2 C :    0.165669
   3 C :    0.165671
   4 O :   -0.356540
   5 C :    0.150483
   6 H :    0.031579
   7 H :    0.004235
   8 H :    0.004877
   9 H :   -0.001638
  10 H :    0.001216
  11 H :   -0.001585
  12 H :    0.001169
  13 H :    0.031615
  14 H :    0.004894
  15 H :    0.004296
Sum of atomic charges:   -0.0000000

LOEWDIN ATOMIC CHARGES
----------------------
   0 C :    0.051106
   1 O :   -0.149452
   2 C :    0.052828
   3 C :    0.052825
   4 O :   -0.149452
   5 C :    0.051081
   6 H :    0.023076
   7 H :    0.005185
   8 H :    0.005272
   9 H :    0.005665
  10 H :    0.006320
  11 H :    0.005677
  12 H :    0.006310
  13 H :    0.023086
  14 H :    0.005279
  15 H :    0.005196

  Mayer bond orders larger than 0.1
B(  0-C ,  1-O ) :   1.0198 B(  0-C ,  6-H ) :   0.9768 B(  0-C ,  7-H ) :   0.9564
B(  0-C ,  8-H ) :   0.9566 B(  1-O ,  2-C ) :   1.0191 B(  2-C ,  3-C ) :   1.0601
B(  2-C ,  9-H ) :   0.9250 B(  2-C , 10-H ) :   0.9253 B(  3-C ,  4-O ) :   1.0191
B(  3-C , 11-H ) :   0.9250 B(  3-C , 12-H ) :   0.9253 B(  4-O ,  5-C ) :   1.0197
B(  5-C , 13-H ) :   0.9768 B(  5-C , 14-H ) :   0.9566 B(  5-C , 15-H ) :   0.9565

FINAL SINGLE POINT ENERGY      -308.237625868185

DIPOLE MOMENT
-------------
                                X             Y             Z
Electronic contribution:      0.00004      -0.00375       0.00291
Nuclear contribution   :     -0.00004       0.00453      -0.00355
                        -----------------------------------------
Total Dipole Moment    :      0.00000       0.00078      -0.00065
                        -----------------------------------------
Magnitude (a.u.)       :      0.00101
Magnitude (Debye)      :      0.00258

                             ****ORCA TERMINATED NORMALLY****
TOTAL RUN TIME: 0 days 0 hours 0 minutes 6 seconds 104 msec
