                         Program Version 3.0.3 - RELEASE   -
|  1> ! RI PBE def2-SVP def2-SVP/J NBO PAL2
|  2> % maxcore 2000
|  3> % output
|  4>     # printlevel mini
|  5>     print[ P_Basis ] 0
|  6>     print[ P_SCFInfo ] 1
|  7>     print[ P_SCFIterInfo ] 1
|  8>     print[ P_OrbEn ] 0
|  9>     print[ P_Cartesian ] 0
| 10> end
| 11> *xyz 0 1
| 12>  C        3.9124590000     1.0664800000    -0.7014470000
| 13>  O        2.8279520000     0.2845490000    -0.2761370000
| 14>  C        3.1252130000    -0.8177230000     0.4580720000
| 15>  C        4.3465400000    -1.2258400000     0.8119170000
| 16>  O        4.6438010000    -2.3281130000     1.5461250000
| 17>  C        3.5593000000    -3.1101020000     1.9713450000
| 18>  H        3.4958800000     1.8971720000    -1.2690330000
| 19>  H        4.5907350000     0.4912430000    -1.3439680000
| 20>  H        4.4803640000     1.4579160000     0.1518120000
| 21>  H        2.2247240000    -1.3488330000     0.7348240000
| 22>  H        5.2470280000    -0.6947250000     0.5351730000
| 23>  H        3.9758860000    -3.9408500000     2.5388440000
| 24>  H        2.9914050000    -3.5014500000     1.1180390000
| 25>  H        2.8810130000    -2.5349440000     2.6139250000
| 26> *
| 27>
| 28>                          ****END OF INPUT****
 Total Charge           Charge          ....    0
 Multiplicity           Mult            ....    1
 Number of Electrons    NEL             ....   48
 Basis Dimension        Dim             ....  124

MULLIKEN ATOMIC CHARGES
-----------------------
   0 C :    0.126726
   1 O :   -0.277553
   2 C :    0.059426
   3 C :    0.059426
   4 O :   -0.277553
   5 C :    0.126726
   6 H :    0.037023
   7 H :    0.023660
   8 H :    0.024864
   9 H :    0.005854
  10 H :    0.005853
  11 H :    0.037023
  12 H :    0.024863
  13 H :    0.023661
Sum of atomic charges:   -0.0000000

LOEWDIN ATOMIC CHARGES
----------------------
   0 C :    0.056303
   1 O :   -0.080090
   2 C :   -0.045963
   3 C :   -0.045963
   4 O :   -0.080090
   5 C :    0.056303
   6 H :    0.026466
   7 H :    0.011543
   8 H :    0.012456
   9 H :    0.019285
  10 H :    0.019285
  11 H :    0.026466
  12 H :    0.012456
  13 H :    0.011543

  Mayer bond orders larger than 0.1
B(  0-C ,  1-O ) :   1.0024 B(  0-C ,  6-H ) :   0.9723 B(  0-C ,  7-H ) :   0.9546
B(  0-C ,  8-H ) :   0.9541 B(  1-O ,  2-C ) :   1.1113 B(  1-O ,  3-C ) :   0.1018
B(  2-C ,  3-C ) :   1.6587 B(  2-C ,  4-O ) :   0.1018 B(  2-C ,  9-H ) :   0.9696
B(  3-C ,  4-O ) :   1.1113 B(  3-C , 10-H ) :   0.9696 B(  4-O ,  5-C ) :   1.0024
B(  5-C , 11-H ) :   0.9723 B(  5-C , 12-H ) :   0.9541 B(  5-C , 13-H ) :   0.9546

FINAL SINGLE POINT ENERGY      -307.027257788850

DIPOLE MOMENT
-------------
                                X             Y             Z
Electronic contribution:     -0.00001       0.00010       0.00016
Nuclear contribution   :      0.00001      -0.00012      -0.00019
                        -----------------------------------------
Total Dipole Moment    :      0.00000      -0.00002      -0.00003
                        -----------------------------------------
Magnitude (a.u.)       :      0.00004
Magnitude (Debye)      :      0.00010

                             ****ORCA TERMINATED NORMALLY****
TOTAL RUN TIME: 0 days 0 hours 0 minutes 5 seconds 537 msec
