                         Program Version 3.0.3 - RELEASE   -
|  1> ! RI PBE def2-SVP def2-SVP/J NBO PAL2
|  2> % maxcore 2000
|  3> % output
|  4>     # printlevel mini
|  5>     print[ P_Basis ] 0
|  6>     print[ P_SCFInfo ] 1
|  7>     print[ P_SCFIterInfo ] 1
|  8>     print[ P_OrbEn ] 0
|  9>     print[ P_Cartesian ] 0
| 10> end
| 11> *xyz 0 1
| 12>  C        3.8029070000    -1.0498230000    -0.5866940000
| 13>  O        2.8377000000    -1.3869310000     0.3811150000
| 14>  C        2.9151080000    -0.6140210000     1.5438080000
| 15>  C        1.6735110000    -0.9016820000     2.3559790000
| 16>  O        4.1170900000    -0.8202830000     2.2395170000
| 17>  C        4.2971010000    -2.1128080000     2.7724640000
| 18>  H        3.6190110000    -1.6807040000    -1.4561680000
| 19>  H        4.8207700000    -1.2217720000    -0.2230670000
| 20>  H        3.7120810000     0.0032610000    -0.8844880000
| 21>  H        2.9614170000     0.4509290000     1.2752110000
| 22>  H        1.5613140000    -1.9726220000     2.5314200000
| 23>  H        0.7941890000    -0.5562130000     1.8114390000
| 24>  H        1.7234900000    -0.3826100000     3.3142740000
| 25>  H        5.3412310000    -2.1817780000     3.0781200000
| 26>  H        4.0913190000    -2.8898910000     2.0294060000
| 27>  H        3.6654910000    -2.2845240000     3.6514430000
| 28> *
| 29>
| 30>                          ****END OF INPUT****
 Total Charge           Charge          ....    0
 Multiplicity           Mult            ....    1
 Number of Electrons    NEL             ....   50
 Basis Dimension        Dim             ....  134

MULLIKEN ATOMIC CHARGES
-----------------------
   0 C :    0.152101
   1 O :   -0.332007
   2 C :    0.199909
   3 C :    0.006434
   4 O :   -0.343069
   5 C :    0.144876
   6 H :    0.029443
   7 H :    0.014836
   8 H :    0.003546
   9 H :   -0.015078
  10 H :    0.028709
  11 H :    0.026459
  12 H :    0.027923
  13 H :    0.026509
  14 H :    0.019786
  15 H :    0.009621
Sum of atomic charges:   -0.0000000

LOEWDIN ATOMIC CHARGES
----------------------
   0 C :    0.050021
   1 O :   -0.142425
   2 C :    0.095122
   3 C :   -0.079567
   4 O :   -0.148824
   5 C :    0.048635
   6 H :    0.022098
   7 H :    0.007373
   8 H :    0.007656
   9 H :    0.003300
  10 H :    0.030904
  11 H :    0.035603
  12 H :    0.033751
  13 H :    0.022552
  14 H :    0.007750
  15 H :    0.006051

  Mayer bond orders larger than 0.1
B(  0-C ,  1-O ) :   0.9976 B(  0-C ,  6-H ) :   0.9770 B(  0-C ,  7-H ) :   0.9608
B(  0-C ,  8-H ) :   0.9579 B(  1-O ,  2-C ) :   1.0533 B(  2-C ,  3-C ) :   1.0734
B(  2-C ,  4-O ) :   1.0633 B(  2-C ,  9-H ) :   0.9127 B(  3-C , 10-H ) :   0.9519
B(  3-C , 11-H ) :   0.9505 B(  3-C , 12-H ) :   0.9520 B(  4-O ,  5-C ) :   0.9942
B(  5-C , 13-H ) :   0.9758 B(  5-C , 14-H ) :   0.9554 B(  5-C , 15-H ) :   0.9602

FINAL SINGLE POINT ENERGY      -308.254353428607

DIPOLE MOMENT
-------------
                                X             Y             Z
Electronic contribution:      0.52913       0.98894      -0.64182
Nuclear contribution   :     -0.53722      -1.06815       0.62718
                        -----------------------------------------
Total Dipole Moment    :     -0.00808      -0.07922      -0.01464
                        -----------------------------------------
Magnitude (a.u.)       :      0.08096
Magnitude (Debye)      :      0.20579

                             ****ORCA TERMINATED NORMALLY****
TOTAL RUN TIME: 0 days 0 hours 0 minutes 6 seconds 92 msec
