                         Program Version 3.0.3 - RELEASE   -
|  1> ! RI PBE def2-SVP def2-SVP/J NBO PAL2
|  2> % maxcore 2000
|  3> % output
|  4>     # printlevel mini
|  5>     print[ P_Basis ] 0
|  6>     print[ P_SCFInfo ] 1
|  7>     print[ P_SCFIterInfo ] 1
|  8>     print[ P_OrbEn ] 0
|  9>     print[ P_Cartesian ] 0
| 10> end
| 11> *xyz 0 1
| 12>  C        1.2827350000     0.0656140000     0.6005690000
| 13>  O        2.6826020000    -0.0329170000     0.3639370000
| 14>  C        3.1072630000     0.5155430000    -0.7843150000
| 15>  O        2.3763450000     1.0571410000    -1.5719460000
| 16>  C        4.5709740000     0.3579840000    -0.9287790000
| 17>  C        5.1989060000     0.8309660000    -1.9960830000
| 18>  H        1.1068240000    -0.4205290000     1.5576620000
| 19>  H        0.7235220000    -0.4353290000    -0.1911200000
| 20>  H        0.9728850000     1.1110140000     0.6401760000
| 21>  H        5.0908640000    -0.1558830000    -0.1285640000
| 22>  H        4.6411710000     1.3394530000    -2.7749820000
| 23>  H        6.2699090000     0.7243240000    -2.1179660000
| 24> *
| 25>
| 26>                          ****END OF INPUT****
 Total Charge           Charge          ....    0
 Multiplicity           Mult            ....    1
 Number of Electrons    NEL             ....   46
 Basis Dimension        Dim             ....  114

MULLIKEN ATOMIC CHARGES
-----------------------
   0 C :    0.147340
   1 O :   -0.260581
   2 C :    0.137519
   3 O :   -0.187886
   4 C :   -0.071217
   5 C :    0.021099
   6 H :    0.035045
   7 H :    0.040023
   8 H :    0.036965
   9 H :    0.016716
  10 H :    0.046132
  11 H :    0.038845
Sum of atomic charges:    0.0000000

LOEWDIN ATOMIC CHARGES
----------------------
   0 C :    0.064914
   1 O :   -0.063398
   2 C :    0.033139
   3 O :   -0.152559
   4 C :   -0.067262
   5 C :    0.010341
   6 H :    0.025429
   7 H :    0.024453
   8 H :    0.023832
   9 H :    0.033843
  10 H :    0.034965
  11 H :    0.032304

  Mayer bond orders larger than 0.1
B(  0-C ,  1-O ) :   0.9426 B(  0-C ,  6-H ) :   0.9749 B(  0-C ,  7-H ) :   0.9684
B(  0-C ,  8-H ) :   0.9682 B(  1-O ,  2-C ) :   1.1838 B(  2-C ,  3-O ) :   2.0732
B(  2-C ,  4-C ) :   0.9904 B(  4-C ,  5-C ) :   1.9551 B(  4-C ,  9-H ) :   0.9497
B(  5-C , 10-H ) :   0.9361 B(  5-C , 11-H ) :   0.9419

FINAL SINGLE POINT ENERGY      -305.878706878272

DIPOLE MOMENT
-------------
                                X             Y             Z
Electronic contribution:      0.22546       0.29571      -0.62722
Nuclear contribution   :     -0.02742      -0.57338       1.07799
                        -----------------------------------------
Total Dipole Moment    :      0.19803      -0.27767       0.45076
                        -----------------------------------------
Magnitude (a.u.)       :      0.56524
Magnitude (Debye)      :      1.43674

                             ****ORCA TERMINATED NORMALLY****
TOTAL RUN TIME: 0 days 0 hours 0 minutes 4 seconds 726 msec
