                         Program Version 3.0.3 - RELEASE   -
|  1> ! RI PBE def2-SVP def2-SVP/J NBO PAL2
|  2> % maxcore 2000
|  3> % output
|  4>     # printlevel mini
|  5>     print[ P_Basis ] 0
|  6>     print[ P_SCFInfo ] 1
|  7>     print[ P_SCFIterInfo ] 1
|  8>     print[ P_OrbEn ] 0
|  9>     print[ P_Cartesian ] 0
| 10> end
| 11> *xyz 0 1
| 12>  C        1.4578580000     0.7968960000     0.4209060000
| 13>  O        2.8161890000     0.4180400000     0.2076480000
| 14>  C        3.2157180000     0.4549570000    -1.0639430000
| 15>  O        2.5252610000     0.7751870000    -1.9929720000
| 16>  C        4.6004350000     0.0565860000    -1.1868860000
| 17>  C        5.7443790000    -0.2653000000    -1.3466780000
| 18>  H        1.2936320000     0.7089480000     1.4920510000
| 19>  H        0.7859490000     0.1345960000    -0.1264800000
| 20>  H        1.2909500000     1.8227510000     0.0898570000
| 21>  H        6.7607080000    -0.5514620000    -1.4875140000
| 22> *
| 23>
| 24>                          ****END OF INPUT****
 Total Charge           Charge          ....    0
 Multiplicity           Mult            ....    1
 Number of Electrons    NEL             ....   44
 Basis Dimension        Dim             ....  104

MULLIKEN ATOMIC CHARGES
-----------------------
   0 C :    0.146182
   1 O :   -0.242211
   2 C :    0.116949
   3 O :   -0.172277
   4 C :    0.407897
   5 C :   -0.408615
   6 H :    0.044740
   7 H :    0.042527
   8 H :    0.041827
   9 H :    0.022981
Sum of atomic charges:   -0.0000000

LOEWDIN ATOMIC CHARGES
----------------------
   0 C :    0.066857
   1 O :   -0.046215
   2 C :    0.021827
   3 O :   -0.121933
   4 C :   -0.036746
   5 C :   -0.009951
   6 H :    0.029440
   7 H :    0.026662
   8 H :    0.026561
   9 H :    0.043498

  Mayer bond orders larger than 0.1
B(  0-C ,  1-O ) :   0.9353 B(  0-C ,  6-H ) :   0.9746 B(  0-C ,  7-H ) :   0.9674
B(  0-C ,  8-H ) :   0.9675 B(  1-O ,  2-C ) :   1.2323 B(  1-O ,  3-O ) :   0.1056
B(  2-C ,  3-O ) :   2.0533 B(  2-C ,  4-C ) :   0.8687 B(  4-C ,  5-C ) :   2.3625
B(  5-C ,  9-H ) :   1.0820

FINAL SINGLE POINT ENERGY      -304.624283643633

DIPOLE MOMENT
-------------
                                X             Y             Z
Electronic contribution:      2.91466      -0.59127      -2.29177
Nuclear contribution   :     -2.83520       0.48334       2.94641
                        -----------------------------------------
Total Dipole Moment    :      0.07945      -0.10793       0.65464
                        -----------------------------------------
Magnitude (a.u.)       :      0.66822
Magnitude (Debye)      :      1.69847

                             ****ORCA TERMINATED NORMALLY****
TOTAL RUN TIME: 0 days 0 hours 0 minutes 5 seconds 68 msec
