                         Program Version 3.0.3 - RELEASE   -
|  1> ! RI PBE def2-SVP def2-SVP/J NBO PAL2
|  2> % maxcore 2000
|  3> % output
|  4>     # printlevel mini
|  5>     print[ P_Basis ] 0
|  6>     print[ P_SCFInfo ] 1
|  7>     print[ P_SCFIterInfo ] 1
|  8>     print[ P_OrbEn ] 0
|  9>     print[ P_Cartesian ] 0
| 10> end
| 11> *xyz 0 1
| 12>  C        2.9680230000     1.2359820000    -0.2010800000
| 13>  O        2.4019280000    -0.0100300000     0.1450060000
| 14>  C        2.8838940000    -1.0615160000    -0.5876570000
| 15>  O        4.2276100000    -1.3110280000    -0.2195290000
| 16>  C        4.8518890000    -2.3161680000    -0.8571090000
| 17>  C        4.3594590000    -3.1340950000    -1.7841320000
| 18>  H        2.4337320000     1.9954070000     0.3682090000
| 19>  H        2.8445510000     1.4366590000    -1.2731790000
| 20>  H        4.0314740000     1.2764860000     0.0498290000
| 21>  H        2.8518170000    -0.8561590000    -1.6707600000
| 22>  H        2.2698620000    -1.9366520000    -0.3516230000
| 23>  H        5.8763970000    -2.4019460000    -0.5107120000
| 24>  H        3.3442490000    -3.0862870000    -2.1534090000
| 25>  H        5.0051240000    -3.8975440000    -2.1949450000
| 26> *
| 27>
| 28>                          ****END OF INPUT****
 Total Charge           Charge          ....    0
 Multiplicity           Mult            ....    1
 Number of Electrons    NEL             ....   48
 Basis Dimension        Dim             ....  124

MULLIKEN ATOMIC CHARGES
-----------------------
   0 C :    0.143668
   1 O :   -0.316000
   2 C :    0.279011
   3 O :   -0.261242
   4 C :    0.106227
   5 C :   -0.128785
   6 H :    0.035676
   7 H :    0.007291
   8 H :    0.030043
   9 H :    0.001501
  10 H :    0.030965
  11 H :    0.014776
  12 H :    0.028724
  13 H :    0.028144
Sum of atomic charges:   -0.0000000

LOEWDIN ATOMIC CHARGES
----------------------
   0 C :    0.055177
   1 O :   -0.118416
   2 C :    0.132685
   3 O :   -0.076932
   4 C :    0.032349
   5 C :   -0.158954
   6 H :    0.025982
   7 H :    0.009559
   8 H :    0.013455
   9 H :   -0.006906
  10 H :    0.013238
  11 H :    0.024122
  12 H :    0.022038
  13 H :    0.032602

  Mayer bond orders larger than 0.1
B(  0-C ,  1-O ) :   0.9876 B(  0-C ,  6-H ) :   0.9772 B(  0-C ,  7-H ) :   0.9545
B(  0-C ,  8-H ) :   0.9644 B(  1-O ,  2-C ) :   1.1325 B(  2-C ,  3-O ) :   0.9480
B(  2-C ,  9-H ) :   0.9267 B(  2-C , 10-H ) :   0.9399 B(  3-O ,  4-C ) :   1.1638
B(  3-O ,  5-C ) :   0.1029 B(  4-C ,  5-C ) :   1.8584 B(  4-C , 11-H ) :   0.9646
B(  5-C , 12-H ) :   0.9555 B(  5-C , 13-H ) :   0.9381

FINAL SINGLE POINT ENERGY      -307.034128461030

DIPOLE MOMENT
-------------
                                X             Y             Z
Electronic contribution:      0.06261      -0.59060       2.59427
Nuclear contribution   :     -0.03086       0.84309      -2.96720
                        -----------------------------------------
Total Dipole Moment    :      0.03175       0.25248      -0.37293
                        -----------------------------------------
Magnitude (a.u.)       :      0.45148
Magnitude (Debye)      :      1.14757

                             ****ORCA TERMINATED NORMALLY****
TOTAL RUN TIME: 0 days 0 hours 0 minutes 5 seconds 452 msec
