                         Program Version 3.0.3 - RELEASE   -
|  1> ! RI PBE def2-SVP def2-SVP/J NBO PAL2
|  2> % maxcore 2000
|  3> % output
|  4>     # printlevel mini
|  5>     print[ P_Basis ] 0
|  6>     print[ P_SCFInfo ] 1
|  7>     print[ P_SCFIterInfo ] 1
|  8>     print[ P_OrbEn ] 0
|  9>     print[ P_Cartesian ] 0
| 10> end
| 11> *xyz 0 1
| 12>  O        1.4335830000    -0.2548280000    -0.0738600000
| 13>  C        0.4759590000    -1.2417990000    -0.0773620000
| 14>  C       -0.8269430000    -1.0105380000    -0.0832660000
| 15>  O       -1.3864040000     0.2457080000    -0.0866380000
| 16>  C       -0.4287790000     1.2326790000    -0.0833460000
| 17>  C        0.8741220000     1.0014180000    -0.0774430000
| 18>  H        0.8902920000    -2.2385500000    -0.0748270000
| 19>  H       -1.5589960000    -1.8038110000    -0.0859250000
| 20>  H       -0.8431110000     2.2294300000    -0.0860700000
| 21>  H        1.6061770000     1.7946900000    -0.0749730000
| 22> *
| 23>
| 24>                          ****END OF INPUT****
 Total Charge           Charge          ....    0
 Multiplicity           Mult            ....    1
 Number of Electrons    NEL             ....   44
 Basis Dimension        Dim             ....  104

MULLIKEN ATOMIC CHARGES
-----------------------
   0 O :   -0.238551
   1 C :    0.101305
   2 C :    0.098459
   3 O :   -0.238551
   4 C :    0.101306
   5 C :    0.098459
   6 H :    0.018039
   7 H :    0.020748
   8 H :    0.018039
   9 H :    0.020748
Sum of atomic charges:   -0.0000000

LOEWDIN ATOMIC CHARGES
----------------------
   0 O :   -0.062679
   1 C :   -0.000332
   2 C :   -0.001210
   3 O :   -0.062679
   4 C :   -0.000332
   5 C :   -0.001210
   6 H :    0.031745
   7 H :    0.032476
   8 H :    0.031745
   9 H :    0.032476

  Mayer bond orders larger than 0.1
B(  0-O ,  1-C ) :   1.0375 B(  0-O ,  5-C ) :   1.0428 B(  1-C ,  2-C ) :   1.8054
B(  1-C ,  6-H ) :   0.9718 B(  2-C ,  3-O ) :   1.0428 B(  2-C ,  7-H ) :   0.9698
B(  3-O ,  4-C ) :   1.0375 B(  4-C ,  5-C ) :   1.8054 B(  4-C ,  8-H ) :   0.9718
B(  5-C ,  9-H ) :   0.9698

FINAL SINGLE POINT ENERGY      -304.623954607731

DIPOLE MOMENT
-------------
                                X             Y             Z
Electronic contribution:     -0.00000       0.00000       0.00035
Nuclear contribution   :      0.00000      -0.00000      -0.00049
                        -----------------------------------------
Total Dipole Moment    :      0.00000       0.00000      -0.00014
                        -----------------------------------------
Magnitude (a.u.)       :      0.00014
Magnitude (Debye)      :      0.00035

                             ****ORCA TERMINATED NORMALLY****
TOTAL RUN TIME: 0 days 0 hours 0 minutes 4 seconds 21 msec
