                         Program Version 3.0.3 - RELEASE   -
|  1> ! RI PBE def2-SVP def2-SVP/J NBO PAL2
|  2> % maxcore 2000
|  3> % output
|  4>     # printlevel mini
|  5>     print[ P_Basis ] 0
|  6>     print[ P_SCFInfo ] 1
|  7>     print[ P_SCFIterInfo ] 1
|  8>     print[ P_OrbEn ] 0
|  9>     print[ P_Cartesian ] 0
| 10> end
| 11> *xyz 0 1
| 12>  O        1.0168490000     0.2218220000    -0.0704610000
| 13>  C        2.3983170000     0.0889150000    -0.0364750000
| 14>  C        3.0902140000    -0.6755500000    -1.1116640000
| 15>  C        3.1416690000     0.8412740000    -1.0984160000
| 16>  C        4.3606900000     1.5205420000    -0.7874880000
| 17>  C        5.3891360000     2.0832050000    -0.5234160000
| 18>  H        0.6263570000    -0.6151140000     0.1964730000
| 19>  H        2.8463620000     0.0868220000     0.9541310000
| 20>  H        2.4709020000    -1.1224470000    -1.8792460000
| 21>  H        4.0004220000    -1.2073820000    -0.8669620000
| 22>  H        2.4994800000     1.3301350000    -1.8231280000
| 23>  H        6.2972030000     2.5865710000    -0.2908480000
| 24> *
| 25>
| 26>                          ****END OF INPUT****
 Total Charge           Charge          ....    0
 Multiplicity           Mult            ....    1
 Number of Electrons    NEL             ....   44
 Basis Dimension        Dim             ....  114

MULLIKEN ATOMIC CHARGES
-----------------------
   0 O :   -0.230086
   1 C :    0.058783
   2 C :    0.013262
   3 C :   -0.149076
   4 C :    0.448971
   5 C :   -0.468702
   6 H :    0.165047
   7 H :    0.026317
   8 H :    0.034790
   9 H :    0.042634
  10 H :    0.059532
  11 H :   -0.001472
Sum of atomic charges:   -0.0000000

LOEWDIN ATOMIC CHARGES
----------------------
   0 O :   -0.092068
   1 C :    0.049969
   2 C :   -0.042073
   3 C :   -0.055679
   4 C :   -0.016438
   5 C :   -0.089856
   6 H :    0.077840
   7 H :    0.015763
   8 H :    0.032989
   9 H :    0.034565
  10 H :    0.051252
  11 H :    0.033735

  Mayer bond orders larger than 0.1
B(  0-O ,  1-C ) :   1.1454 B(  0-O ,  6-H ) :   0.9776 B(  1-C ,  2-C ) :   0.9854
B(  1-C ,  3-C ) :   0.9035 B(  1-C ,  7-H ) :   0.9470 B(  2-C ,  3-C ) :   0.9630
B(  2-C ,  8-H ) :   0.9291 B(  2-C ,  9-H ) :   0.9363 B(  3-C ,  4-C ) :   1.0273
B(  3-C , 10-H ) :   0.9168 B(  4-C ,  5-C ) :   2.2810 B(  4-C , 11-H ) :  -0.1044
B(  5-C , 11-H ) :   1.0950

FINAL SINGLE POINT ENERGY      -268.718066670901

DIPOLE MOMENT
-------------
                                X             Y             Z
Electronic contribution:     -0.14889       1.76050       0.35822
Nuclear contribution   :      0.00460      -2.50660      -0.20950
                        -----------------------------------------
Total Dipole Moment    :     -0.14429      -0.74610       0.14872
                        -----------------------------------------
Magnitude (a.u.)       :      0.77434
Magnitude (Debye)      :      1.96822

                             ****ORCA TERMINATED NORMALLY****
TOTAL RUN TIME: 0 days 0 hours 0 minutes 5 seconds 237 msec
