                         Program Version 3.0.3 - RELEASE   -
|  1> ! RI PBE def2-SVP def2-SVP/J NBO PAL2
|  2> % maxcore 2000
|  3> % output
|  4>     # printlevel mini
|  5>     print[ P_Basis ] 0
|  6>     print[ P_SCFInfo ] 1
|  7>     print[ P_SCFIterInfo ] 1
|  8>     print[ P_OrbEn ] 0
|  9>     print[ P_Cartesian ] 0
| 10> end
| 11> *xyz 0 1
| 12>  O        1.0724670000     0.2775510000     0.0257160000
| 13>  C        2.4511640000     0.1352050000     0.0633010000
| 14>  C        3.1485800000    -0.6663050000    -0.9672520000
| 15>  C        3.1947630000     0.8518860000    -1.0284380000
| 16>  C        4.4564070000     1.5281420000    -0.6946620000
| 17>  O        4.8578920000     2.5333340000    -1.2157670000
| 18>  H        0.6750950000    -0.5355240000     0.3503380000
| 19>  H        2.8961650000     0.1711400000     1.0564320000
| 20>  H        2.5458230000    -1.1431740000    -1.7293480000
| 21>  H        4.0570440000    -1.1896850000    -0.6920400000
| 22>  H        2.5837410000     1.3328510000    -1.7819830000
| 23>  H        5.0499580000     1.0277680000     0.1062120000
| 24> *
| 25>
| 26>                          ****END OF INPUT****
 Total Charge           Charge          ....    0
 Multiplicity           Mult            ....    1
 Number of Electrons    NEL             ....   46
 Basis Dimension        Dim             ....  114

MULLIKEN ATOMIC CHARGES
-----------------------
   0 O :   -0.225934
   1 C :    0.051027
   2 C :   -0.003181
   3 C :   -0.120693
   4 C :    0.167391
   5 O :   -0.161403
   6 H :    0.167652
   7 H :    0.025413
   8 H :    0.047107
   9 H :    0.042664
  10 H :    0.042387
  11 H :   -0.032430
Sum of atomic charges:   -0.0000000

LOEWDIN ATOMIC CHARGES
----------------------
   0 O :   -0.087723
   1 C :    0.048398
   2 C :   -0.042087
   3 C :   -0.076399
   4 C :    0.083154
   5 O :   -0.113070
   6 H :    0.080212
   7 H :    0.011935
   8 H :    0.038685
   9 H :    0.030967
  10 H :    0.043105
  11 H :   -0.017176

  Mayer bond orders larger than 0.1
B(  0-O ,  1-C ) :   1.1534 B(  0-O ,  6-H ) :   0.9772 B(  1-C ,  2-C ) :   0.9942
B(  1-C ,  3-C ) :   0.8613 B(  1-C ,  7-H ) :   0.9475 B(  2-C ,  3-C ) :   0.9239
B(  2-C ,  8-H ) :   0.9304 B(  2-C ,  9-H ) :   0.9374 B(  3-C ,  4-C ) :   1.0170
B(  3-C , 10-H ) :   0.9444 B(  4-C ,  5-O ) :   2.1673 B(  4-C , 11-H ) :   0.9186

FINAL SINGLE POINT ENERGY      -305.845335171487

DIPOLE MOMENT
-------------
                                X             Y             Z
Electronic contribution:      0.57184       3.23730      -0.46775
Nuclear contribution   :     -1.08292      -4.66756       0.96204
                        -----------------------------------------
Total Dipole Moment    :     -0.51108      -1.43026       0.49429
                        -----------------------------------------
Magnitude (a.u.)       :      1.59724
Magnitude (Debye)      :      4.05985

                             ****ORCA TERMINATED NORMALLY****
TOTAL RUN TIME: 0 days 0 hours 0 minutes 5 seconds 297 msec
