                         Program Version 3.0.3 - RELEASE   -
|  1> ! RI PBE def2-SVP def2-SVP/J NBO PAL2
|  2> % maxcore 2000
|  3> % output
|  4>     # printlevel mini
|  5>     print[ P_Basis ] 0
|  6>     print[ P_SCFInfo ] 1
|  7>     print[ P_SCFIterInfo ] 1
|  8>     print[ P_OrbEn ] 0
|  9>     print[ P_Cartesian ] 0
| 10> end
| 11> *xyz 0 1
| 12>  O        1.0258320000    -0.0138200000    -0.1079210000
| 13>  C        2.4172570000     0.0988960000    -0.0375380000
| 14>  C        3.0729040000     1.1374570000     0.8949540000
| 15>  C        4.1425630000     0.0775330000     1.2212000000
| 16>  C        3.1271140000    -0.9886370000     0.7687430000
| 17>  O        3.5446450000    -2.1769910000     0.1692500000
| 18>  H        0.6814880000     0.6744970000    -0.6821430000
| 19>  H        2.8683100000     0.1595430000    -1.0402770000
| 20>  H        2.4248270000     1.3299710000     1.7521400000
| 21>  H        3.3969470000     2.0848720000     0.4642070000
| 22>  H        4.5270710000     0.0183630000     2.2386270000
| 23>  H        4.9860030000     0.1332190000     0.5267610000
| 24>  H        2.4832450000    -1.2743830000     1.6047300000
| 25>  H        4.1144940000    -1.9597000000    -0.5734540000
| 26> *
| 27>
| 28>                          ****END OF INPUT****
 Total Charge           Charge          ....    0
 Multiplicity           Mult            ....    1
 Number of Electrons    NEL             ....   48
 Basis Dimension        Dim             ....  124

MULLIKEN ATOMIC CHARGES
-----------------------
   0 O :   -0.229485
   1 C :    0.053777
   2 C :    0.014917
   3 C :    0.004810
   4 C :    0.058952
   5 O :   -0.237195
   6 H :    0.156437
   7 H :   -0.025371
   8 H :    0.014615
   9 H :    0.007319
  10 H :    0.018536
  11 H :    0.001189
  12 H :    0.011174
  13 H :    0.150323
Sum of atomic charges:    0.0000000

LOEWDIN ATOMIC CHARGES
----------------------
   0 O :   -0.104380
   1 C :    0.022190
   2 C :   -0.052689
   3 C :   -0.049378
   4 C :    0.031778
   5 O :   -0.097300
   6 H :    0.072140
   7 H :    0.001181
   8 H :    0.027309
   9 H :    0.015151
  10 H :    0.020678
  11 H :    0.020234
  12 H :    0.028304
  13 H :    0.064783

  Mayer bond orders larger than 0.1
B(  0-O ,  1-C ) :   1.1686 B(  0-O ,  6-H ) :   0.9783 B(  1-C ,  2-C ) :   1.0458
B(  1-C ,  4-C ) :   1.0027 B(  1-C ,  7-H ) :   0.9011 B(  2-C ,  3-C ) :   1.1059
B(  2-C ,  8-H ) :   0.9130 B(  2-C ,  9-H ) :   0.9278 B(  3-C ,  4-C ) :   1.0341
B(  3-C , 10-H ) :   0.9279 B(  3-C , 11-H ) :   0.9205 B(  4-C ,  5-O ) :   1.1245
B(  4-C , 12-H ) :   0.8984 B(  5-O , 13-H ) :   0.9771

FINAL SINGLE POINT ENERGY      -307.048727862787

DIPOLE MOMENT
-------------
                                X             Y             Z
Electronic contribution:     -2.08312      -2.75302      -1.18403
Nuclear contribution   :      2.41726       3.62483       0.64763
                        -----------------------------------------
Total Dipole Moment    :      0.33414       0.87181      -0.53640
                        -----------------------------------------
Magnitude (a.u.)       :      1.07677
Magnitude (Debye)      :      2.73693

                             ****ORCA TERMINATED NORMALLY****
TOTAL RUN TIME: 0 days 0 hours 0 minutes 5 seconds 587 msec
