                         Program Version 3.0.3 - RELEASE   -
|  1> ! RI PBE def2-SVP def2-SVP/J NBO PAL2
|  2> % maxcore 2000
|  3> % output
|  4>     # printlevel mini
|  5>     print[ P_Basis ] 0
|  6>     print[ P_SCFInfo ] 1
|  7>     print[ P_SCFIterInfo ] 1
|  8>     print[ P_OrbEn ] 0
|  9>     print[ P_Cartesian ] 0
| 10> end
| 11> *xyz 0 1
| 12>  O        0.9168920000     0.0910380000     0.1510660000
| 13>  C        2.3033240000     0.1484340000     0.1324730000
| 14>  C        3.0651680000     1.1750990000     1.0121960000
| 15>  C        4.0896260000     0.0827000000     1.3903990000
| 16>  C        3.0643480000    -0.9384970000     0.8999470000
| 17>  O        2.8404600000    -2.0799790000     1.1535360000
| 18>  H        0.5638020000     0.4964310000    -0.6430900000
| 19>  H        2.7100200000     0.1714520000    -0.8890620000
| 20>  H        2.4499080000     1.4599710000     1.8664840000
| 21>  H        3.4405140000     2.0678220000     0.5137070000
| 22>  H        4.3856200000    -0.0104210000     2.4349980000
| 23>  H        4.9861070000     0.0887490000     0.7656560000
| 24> *
| 25>
| 26>                          ****END OF INPUT****
 Total Charge           Charge          ....    0
 Multiplicity           Mult            ....    1
 Number of Electrons    NEL             ....   46
 Basis Dimension        Dim             ....  114

MULLIKEN ATOMIC CHARGES
-----------------------
   0 O :   -0.213634
   1 C :    0.035308
   2 C :    0.031389
   3 C :   -0.039955
   4 C :   -0.024460
   5 O :   -0.103992
   6 H :    0.164370
   7 H :    0.026434
   8 H :    0.027100
   9 H :    0.008002
  10 H :    0.042865
  11 H :    0.046572
Sum of atomic charges:    0.0000000

LOEWDIN ATOMIC CHARGES
----------------------
   0 O :   -0.087162
   1 C :    0.006363
   2 C :   -0.048503
   3 C :   -0.067675
   4 C :    0.039813
   5 O :   -0.084612
   6 H :    0.078737
   7 H :    0.027033
   8 H :    0.033071
   9 H :    0.020708
  10 H :    0.038124
  11 H :    0.044103

  Mayer bond orders larger than 0.1
B(  0-O ,  1-C ) :   1.1738 B(  0-O ,  6-H ) :   0.9741 B(  1-C ,  2-C ) :   1.0457
B(  1-C ,  4-C ) :   0.9040 B(  1-C ,  7-H ) :   0.9037 B(  2-C ,  3-C ) :   1.1080
B(  2-C ,  8-H ) :   0.9163 B(  2-C ,  9-H ) :   0.9106 B(  3-C ,  4-C ) :   0.9590
B(  3-C , 10-H ) :   0.9222 B(  3-C , 11-H ) :   0.9137 B(  4-C ,  5-O ) :   2.2769

FINAL SINGLE POINT ENERGY      -305.854670103322

DIPOLE MOMENT
-------------
                                X             Y             Z
Electronic contribution:     -2.09206      -4.22770      -0.16692
Nuclear contribution   :      2.38006       5.41949      -0.53435
                        -----------------------------------------
Total Dipole Moment    :      0.28800       1.19180      -0.70126
                        -----------------------------------------
Magnitude (a.u.)       :      1.41248
Magnitude (Debye)      :      3.59023

                             ****ORCA TERMINATED NORMALLY****
TOTAL RUN TIME: 0 days 0 hours 0 minutes 5 seconds 158 msec
