                         Program Version 3.0.3 - RELEASE   -
|  1> ! RI PBE def2-SVP def2-SVP/J NBO PAL2
|  2> % maxcore 2000
|  3> % output
|  4>     # printlevel mini
|  5>     print[ P_Basis ] 0
|  6>     print[ P_SCFInfo ] 1
|  7>     print[ P_SCFIterInfo ] 1
|  8>     print[ P_OrbEn ] 0
|  9>     print[ P_Cartesian ] 0
| 10> end
| 11> *xyz 0 1
| 12>  O        0.9383890000    -0.0404780000    -0.1690990000
| 13>  C        2.3386710000     0.0070850000     0.0007740000
| 14>  C        2.8481950000     1.1282070000     0.8985830000
| 15>  C        4.2588290000     0.6690840000     1.2505040000
| 16>  C        4.1584650000    -0.8692680000     1.3601970000
| 17>  C        2.8163560000    -1.2511780000     0.7113840000
| 18>  H        0.6614130000     0.7506860000    -0.6373940000
| 19>  H        2.8339050000     0.0846470000    -0.9803830000
| 20>  H        2.2125420000     1.1637740000     1.7901170000
| 21>  H        2.8182370000     2.1129020000     0.4238070000
| 22>  H        4.6393240000     1.1332640000     2.1620440000
| 23>  H        4.9481130000     0.9437530000     0.4465920000
| 24>  H        4.1891390000    -1.1931500000     2.4022840000
| 25>  H        5.0015030000    -1.3517050000     0.8617250000
| 26>  H        2.0681050000    -1.4985170000     1.4698860000
| 27>  H        2.8879220000    -2.1065960000     0.0378900000
| 28> *
| 29>
| 30>                          ****END OF INPUT****
 Total Charge           Charge          ....    0
 Multiplicity           Mult            ....    1
 Number of Electrons    NEL             ....   48
 Basis Dimension        Dim             ....  134

MULLIKEN ATOMIC CHARGES
-----------------------
   0 O :   -0.249091
   1 C :    0.025899
   2 C :    0.010556
   3 C :   -0.019209
   4 C :    0.001751
   5 C :    0.021555
   6 H :    0.153107
   7 H :   -0.008630
   8 H :    0.009058
   9 H :    0.002506
  10 H :    0.009451
  11 H :    0.007965
  12 H :    0.007028
  13 H :    0.004330
  14 H :    0.010539
  15 H :    0.013185
Sum of atomic charges:    0.0000000

LOEWDIN ATOMIC CHARGES
----------------------
   0 O :   -0.112086
   1 C :    0.039118
   2 C :   -0.061244
   3 C :   -0.042230
   4 C :   -0.040492
   5 C :   -0.046728
   6 H :    0.068826
   7 H :    0.003619
   8 H :    0.023573
   9 H :    0.017501
  10 H :    0.024323
  11 H :    0.023232
  12 H :    0.025204
  13 H :    0.024084
  14 H :    0.027917
  15 H :    0.025381

  Mayer bond orders larger than 0.1
B(  0-O ,  1-C ) :   1.1205 B(  0-O ,  6-H ) :   0.9811 B(  1-C ,  2-C ) :   1.0340
B(  1-C ,  5-C ) :   1.0783 B(  1-C ,  7-H ) :   0.9178 B(  2-C ,  3-C ) :   1.1016
B(  2-C ,  8-H ) :   0.9197 B(  2-C ,  9-H ) :   0.9317 B(  3-C ,  4-C ) :   1.1208
B(  3-C , 10-H ) :   0.9326 B(  3-C , 11-H ) :   0.9284 B(  4-C ,  5-C ) :   1.1199
B(  4-C , 12-H ) :   0.9326 B(  4-C , 13-H ) :   0.9288 B(  5-C , 14-H ) :   0.9148
B(  5-C , 15-H ) :   0.9308

FINAL SINGLE POINT ENERGY      -271.214666831606

DIPOLE MOMENT
-------------
                                X             Y             Z
Electronic contribution:     -3.30851      -0.08004      -1.55333
Nuclear contribution   :      3.57839       0.51655       1.36754
                        -----------------------------------------
Total Dipole Moment    :      0.26988       0.43651      -0.18580
                        -----------------------------------------
Magnitude (a.u.)       :      0.54580
Magnitude (Debye)      :      1.38730

                             ****ORCA TERMINATED NORMALLY****
TOTAL RUN TIME: 0 days 0 hours 0 minutes 6 seconds 19 msec
