                         Program Version 3.0.3 - RELEASE   -
|  1> ! RI PBE def2-SVP def2-SVP/J NBO PAL2
|  2> % maxcore 2000
|  3> % output
|  4>     # printlevel mini
|  5>     print[ P_Basis ] 0
|  6>     print[ P_SCFInfo ] 1
|  7>     print[ P_SCFIterInfo ] 1
|  8>     print[ P_OrbEn ] 0
|  9>     print[ P_Cartesian ] 0
| 10> end
| 11> *xyz 0 1
| 12>  O        1.2972310000    -0.1040240000     0.8066690000
| 13>  C        2.3905720000    -0.0692520000     0.3110630000
| 14>  C        3.2223760000     1.1812080000     0.0749550000
| 15>  C        4.3614890000     0.7287640000    -0.8315770000
| 16>  C        4.5878510000    -0.7347880000    -0.4347890000
| 17>  C        3.1812830000    -1.2682080000    -0.1875350000
| 18>  H        3.6000930000     1.4984060000     1.0547920000
| 19>  H        2.6046550000     1.9944370000    -0.3077270000
| 20>  H        5.2611810000     1.3376750000    -0.7319770000
| 21>  H        4.0471280000     0.7819250000    -1.8788860000
| 22>  H        5.1707590000    -0.7793800000     0.4908090000
| 23>  H        5.1369450000    -1.2976450000    -1.1909810000
| 24>  H        3.1053670000    -2.1032710000     0.5098040000
| 25>  H        2.7103800000    -1.5887460000    -1.1250090000
| 26> *
| 27>
| 28>                          ****END OF INPUT****
 Total Charge           Charge          ....    0
 Multiplicity           Mult            ....    1
 Number of Electrons    NEL             ....   46
 Basis Dimension        Dim             ....  124

MULLIKEN ATOMIC CHARGES
-----------------------
   0 O :   -0.148045
   1 C :   -0.098028
   2 C :    0.045957
   3 C :   -0.038064
   4 C :   -0.043122
   5 C :    0.034870
   6 H :    0.041329
   7 H :    0.033677
   8 H :    0.019767
   9 H :    0.024713
  10 H :    0.026242
  11 H :    0.020581
  12 H :    0.037180
  13 H :    0.042941
Sum of atomic charges:   -0.0000000

LOEWDIN ATOMIC CHARGES
----------------------
   0 O :   -0.117668
   1 C :    0.056125
   2 C :   -0.070696
   3 C :   -0.041945
   4 C :   -0.043160
   5 C :   -0.072212
   6 H :    0.050099
   7 H :    0.040414
   8 H :    0.026710
   9 H :    0.026788
  10 H :    0.027178
  11 H :    0.026815
  12 H :    0.041135
  13 H :    0.050417

  Mayer bond orders larger than 0.1
B(  0-O ,  1-C ) :   2.2173 B(  1-C ,  2-C ) :   0.9814 B(  1-C ,  5-C ) :   0.9819
B(  2-C ,  3-C ) :   1.0754 B(  2-C ,  6-H ) :   0.9025 B(  2-C ,  7-H ) :   0.9225
B(  3-C ,  4-C ) :   1.0817 B(  3-C ,  8-H ) :   0.9338 B(  3-C ,  9-H ) :   0.9419
B(  4-C ,  5-C ) :   1.0774 B(  4-C , 10-H ) :   0.9404 B(  4-C , 11-H ) :   0.9337
B(  5-C , 12-H ) :   0.9220 B(  5-C , 13-H ) :   0.9028

FINAL SINGLE POINT ENERGY      -270.030159529283

DIPOLE MOMENT
-------------
                                X             Y             Z
Electronic contribution:     -4.99135      -0.15701       2.26059
Nuclear contribution   :      5.94052       0.18869      -2.69132
                        -----------------------------------------
Total Dipole Moment    :      0.94918       0.03169      -0.43073
                        -----------------------------------------
Magnitude (a.u.)       :      1.04282
Magnitude (Debye)      :      2.65063

                             ****ORCA TERMINATED NORMALLY****
TOTAL RUN TIME: 0 days 0 hours 0 minutes 6 seconds 12 msec
