                         Program Version 3.0.3 - RELEASE   -
|  1> ! RI PBE def2-SVP def2-SVP/J NBO PAL2
|  2> % maxcore 2000
|  3> % output
|  4>     # printlevel mini
|  5>     print[ P_Basis ] 0
|  6>     print[ P_SCFInfo ] 1
|  7>     print[ P_SCFIterInfo ] 1
|  8>     print[ P_OrbEn ] 0
|  9>     print[ P_Cartesian ] 0
| 10> end
| 11> *xyz 0 1
| 12>  O        0.8278730000    -0.0010800000    -0.0601160000
| 13>  C        2.0303260000    -0.0010600000    -0.0653590000
| 14>  C        2.9359510000     1.1977630000    -0.0691820000
| 15>  C        4.1889190000     0.7462710000    -0.0747340000
| 16>  C        4.1889430000    -0.7483190000    -0.0749850000
| 17>  C        2.9359890000    -1.1998530000    -0.0695870000
| 18>  H        2.5805700000     2.2171270000    -0.0674730000
| 19>  H        5.0922230000     1.3419880000    -0.0785950000
| 20>  H        5.0922660000    -1.3440070000    -0.0790470000
| 21>  H        2.5806400000    -2.2192290000    -0.0682210000
| 22> *
| 23>
| 24>                          ****END OF INPUT****
 Total Charge           Charge          ....    0
 Multiplicity           Mult            ....    1
 Number of Electrons    NEL             ....   42
 Basis Dimension        Dim             ....  104

MULLIKEN ATOMIC CHARGES
-----------------------
   0 O :   -0.109100
   1 C :    0.083237
   2 C :   -0.020162
   3 C :    0.026256
   4 C :    0.026256
   5 C :   -0.020164
   6 H :    0.000688
   7 H :    0.006151
   8 H :    0.006151
   9 H :    0.000689
Sum of atomic charges:    0.0000000

LOEWDIN ATOMIC CHARGES
----------------------
   0 O :   -0.070667
   1 C :    0.059360
   2 C :   -0.059919
   3 C :    0.004313
   4 C :    0.004313
   5 C :   -0.059919
   6 H :    0.032127
   7 H :    0.029133
   8 H :    0.029133
   9 H :    0.032127

  Mayer bond orders larger than 0.1
B(  0-O ,  1-C ) :   2.1533 B(  1-C ,  2-C ) :   0.9561 B(  1-C ,  5-C ) :   0.9561
B(  2-C ,  3-C ) :   1.7167 B(  2-C ,  6-H ) :   1.0065 B(  3-C ,  4-C ) :   1.0111
B(  3-C ,  7-H ) :   0.9927 B(  4-C ,  5-C ) :   1.7167 B(  4-C ,  8-H ) :   0.9927
B(  5-C ,  9-H ) :   1.0065

FINAL SINGLE POINT ENERGY      -267.584761539222

DIPOLE MOMENT
-------------
                                X             Y             Z
Electronic contribution:     -2.79320      -0.00005       0.01223
Nuclear contribution   :      3.85960       0.00006      -0.01700
                        -----------------------------------------
Total Dipole Moment    :      1.06640       0.00002      -0.00477
                        -----------------------------------------
Magnitude (a.u.)       :      1.06641
Magnitude (Debye)      :      2.71061

                             ****ORCA TERMINATED NORMALLY****
TOTAL RUN TIME: 0 days 0 hours 0 minutes 4 seconds 941 msec
