                         Program Version 3.0.3 - RELEASE   -
|  1> ! RI PBE def2-SVP def2-SVP/J NBO PAL2
|  2> % maxcore 2000
|  3> % output
|  4>     # printlevel mini
|  5>     print[ P_Basis ] 0
|  6>     print[ P_SCFInfo ] 1
|  7>     print[ P_SCFIterInfo ] 1
|  8>     print[ P_OrbEn ] 0
|  9>     print[ P_Cartesian ] 0
| 10> end
| 11> *xyz 0 1
| 12>  O        1.1717250000    -0.0959630000     0.5552390000
| 13>  C        2.3101130000    -0.0962160000     0.1786310000
| 14>  C        3.1575280000    -1.3326980000    -0.1017800000
| 15>  C        4.4695290000    -0.7620030000    -0.5360590000
| 16>  C        4.4697880000     0.5686080000    -0.5361710000
| 17>  C        3.1580090000     1.1398870000    -0.1019890000
| 18>  H        2.6695190000    -1.9512990000    -0.8630780000
| 19>  H        3.2201180000    -1.9511600000     0.8004310000
| 20>  H        5.3160950000    -1.3770340000    -0.8162720000
| 21>  H        5.3165940000     1.1832620000    -0.8164870000
| 22>  H        2.6702420000     1.7585490000    -0.8633920000
| 23>  H        3.2208410000     1.7584780000     0.8001170000
| 24> *
| 25>
| 26>                          ****END OF INPUT****
 Total Charge           Charge          ....    0
 Multiplicity           Mult            ....    1
 Number of Electrons    NEL             ....   44
 Basis Dimension        Dim             ....  114

MULLIKEN ATOMIC CHARGES
-----------------------
   0 O :   -0.139322
   1 C :   -0.101210
   2 C :    0.081717
   3 C :   -0.071475
   4 C :   -0.071480
   5 C :    0.081721
   6 H :    0.056405
   7 H :    0.057032
   8 H :   -0.003410
   9 H :   -0.003415
  10 H :    0.056403
  11 H :    0.057032
Sum of atomic charges:   -0.0000000

LOEWDIN ATOMIC CHARGES
----------------------
   0 O :   -0.110116
   1 C :    0.068857
   2 C :   -0.071772
   3 C :   -0.037311
   4 C :   -0.037310
   5 C :   -0.071771
   6 H :    0.052651
   7 H :    0.053002
   8 H :    0.024059
   9 H :    0.024058
  10 H :    0.052651
  11 H :    0.053002

  Mayer bond orders larger than 0.1
B(  0-O ,  1-C ) :   2.2291 B(  1-C ,  2-C ) :   0.9740 B(  1-C ,  5-C ) :   0.9740
B(  2-C ,  3-C ) :   1.0193 B(  2-C ,  6-H ) :   0.8999 B(  2-C ,  7-H ) :   0.8987
B(  3-C ,  4-C ) :   1.8600 B(  3-C ,  8-H ) :   0.9841 B(  4-C ,  5-C ) :   1.0193
B(  4-C ,  9-H ) :   0.9841 B(  5-C , 10-H ) :   0.8999 B(  5-C , 11-H ) :   0.8987

FINAL SINGLE POINT ENERGY      -268.810871726530

DIPOLE MOMENT
-------------
                                X             Y             Z
Electronic contribution:     -2.83906       0.00064       0.93830
Nuclear contribution   :      3.70066      -0.00082      -1.22448
                        -----------------------------------------
Total Dipole Moment    :      0.86160      -0.00019      -0.28618
                        -----------------------------------------
Magnitude (a.u.)       :      0.90788
Magnitude (Debye)      :      2.30765

                             ****ORCA TERMINATED NORMALLY****
TOTAL RUN TIME: 0 days 0 hours 0 minutes 5 seconds 35 msec
