                         Program Version 3.0.3 - RELEASE   -
|  1> ! RI PBE def2-SVP def2-SVP/J NBO PAL2
|  2> % maxcore 2000
|  3> % output
|  4>     # printlevel mini
|  5>     print[ P_Basis ] 0
|  6>     print[ P_SCFInfo ] 1
|  7>     print[ P_SCFIterInfo ] 1
|  8>     print[ P_OrbEn ] 0
|  9>     print[ P_Cartesian ] 0
| 10> end
| 11> *xyz 0 1
| 12>  O        1.0294120000     0.0225350000    -0.5401400000
| 13>  C        2.1798700000     0.0333910000    -0.1795460000
| 14>  C        3.0521260000    -1.1937690000     0.0618710000
| 15>  C        4.4098580000    -0.6502190000     0.5030580000
| 16>  C        4.2316030000     0.8374970000     0.4869270000
| 17>  C        3.0089940000     1.2170290000     0.1133070000
| 18>  H        3.1007420000    -1.7799800000    -0.8581700000
| 19>  H        2.5750740000    -1.8250500000     0.8144590000
| 20>  H        5.2240740000    -0.9481320000    -0.1656390000
| 21>  H        4.7000200000    -0.9927400000     1.5017370000
| 22>  H        5.0358420000     1.5129670000     0.7577730000
| 23>  H        2.6377850000     2.2291810000     0.0242620000
| 24> *
| 25>
| 26>                          ****END OF INPUT****
 Total Charge           Charge          ....    0
 Multiplicity           Mult            ....    1
 Number of Electrons    NEL             ....   44
 Basis Dimension        Dim             ....  114

MULLIKEN ATOMIC CHARGES
-----------------------
   0 O :   -0.157193
   1 C :   -0.016467
   2 C :    0.002624
   3 C :    0.044594
   4 C :   -0.057103
   5 C :    0.000262
   6 H :    0.048621
   7 H :    0.048981
   8 H :    0.039207
   9 H :    0.036388
  10 H :    0.013791
  11 H :   -0.003705
Sum of atomic charges:   -0.0000000

LOEWDIN ATOMIC CHARGES
----------------------
   0 O :   -0.129753
   1 C :    0.036145
   2 C :   -0.064629
   3 C :   -0.040260
   4 C :    0.021688
   5 C :   -0.063166
   6 H :    0.048506
   7 H :    0.048421
   8 H :    0.041630
   9 H :    0.041185
  10 H :    0.028036
  11 H :    0.032197

  Mayer bond orders larger than 0.1
B(  0-O ,  1-C ) :   2.1573 B(  1-C ,  2-C ) :   0.9917 B(  1-C ,  5-C ) :   1.0143
B(  2-C ,  3-C ) :   1.0880 B(  2-C ,  6-H ) :   0.9114 B(  2-C ,  7-H ) :   0.9124
B(  3-C ,  4-C ) :   1.0651 B(  3-C ,  8-H ) :   0.9105 B(  3-C ,  9-H ) :   0.9102
B(  4-C ,  5-C ) :   1.7154 B(  4-C , 10-H ) :   0.9749 B(  5-C , 11-H ) :   1.0045

FINAL SINGLE POINT ENERGY      -268.818651384853

DIPOLE MOMENT
-------------
                                X             Y             Z
Electronic contribution:     -3.88734       1.70819      -1.17536
Nuclear contribution   :      5.16594      -1.79311       1.57471
                        -----------------------------------------
Total Dipole Moment    :      1.27861      -0.08492       0.39935
                        -----------------------------------------
Magnitude (a.u.)       :      1.34221
Magnitude (Debye)      :      3.41163

                             ****ORCA TERMINATED NORMALLY****
TOTAL RUN TIME: 0 days 0 hours 0 minutes 5 seconds 584 msec
