                         Program Version 3.0.3 - RELEASE   -
|  1> ! RI PBE def2-SVP def2-SVP/J NBO PAL2
|  2> % maxcore 2000
|  3> % output
|  4>     # printlevel mini
|  5>     print[ P_Basis ] 0
|  6>     print[ P_SCFInfo ] 1
|  7>     print[ P_SCFIterInfo ] 1
|  8>     print[ P_OrbEn ] 0
|  9>     print[ P_Cartesian ] 0
| 10> end
| 11> *xyz 0 1
| 12>  O        0.8241120000     0.0046410000     0.2784520000
| 13>  C        2.2209210000     0.0642740000     0.1011640000
| 14>  C        2.7767390000     1.2309990000    -0.6728160000
| 15>  C        3.5995570000     0.7693170000    -1.6204270000
| 16>  C        3.5836580000    -0.6990910000    -1.6036840000
| 17>  C        2.7522780000    -1.1217780000    -0.6457660000
| 18>  H        0.5521660000     0.7667670000     0.7957930000
| 19>  H        2.7347060000     0.0665090000     1.0834870000
| 20>  H        2.5715910000     2.2659030000    -0.4319700000
| 21>  H        4.1935930000     1.3671430000    -2.3001150000
| 22>  H        4.1620200000    -1.3252830000    -2.2706570000
| 23>  H        2.5059680000    -2.1406920000    -0.3827610000
| 24> *
| 25>
| 26>                          ****END OF INPUT****
 Total Charge           Charge          ....    0
 Multiplicity           Mult            ....    1
 Number of Electrons    NEL             ....   44
 Basis Dimension        Dim             ....  114

MULLIKEN ATOMIC CHARGES
-----------------------
   0 O :   -0.256803
   1 C :    0.174159
   2 C :   -0.053530
   3 C :    0.004349
   4 C :    0.008020
   5 C :   -0.036781
   6 H :    0.156967
   7 H :    0.033342
   8 H :   -0.009527
   9 H :   -0.010158
  10 H :   -0.009427
  11 H :   -0.000612
Sum of atomic charges:   -0.0000000

LOEWDIN ATOMIC CHARGES
----------------------
   0 O :   -0.104661
   1 C :    0.045880
   2 C :   -0.054256
   3 C :   -0.028809
   4 C :   -0.030991
   5 C :   -0.030181
   6 H :    0.071470
   7 H :    0.038841
   8 H :    0.019498
   9 H :    0.023252
  10 H :    0.024115
  11 H :    0.025843

  Mayer bond orders larger than 0.1
B(  0-O ,  1-C ) :   1.0758 B(  0-O ,  6-H ) :   0.9800 B(  1-C ,  2-C ) :   0.9994
B(  1-C ,  5-C ) :   1.0157 B(  1-C ,  7-H ) :   0.8574 B(  2-C ,  3-C ) :   1.7539
B(  2-C ,  8-H ) :   0.9839 B(  3-C ,  4-C ) :   1.0730 B(  3-C ,  9-H ) :   0.9934
B(  4-C ,  5-C ) :   1.7479 B(  4-C , 10-H ) :   0.9964 B(  5-C , 11-H ) :   0.9930

FINAL SINGLE POINT ENERGY      -268.773476338158

DIPOLE MOMENT
-------------
                                X             Y             Z
Electronic contribution:     -1.07089      -0.23430       0.02538
Nuclear contribution   :      1.30392       0.66292       0.31856
                        -----------------------------------------
Total Dipole Moment    :      0.23303       0.42862       0.34394
                        -----------------------------------------
Magnitude (a.u.)       :      0.59691
Magnitude (Debye)      :      1.51724

                             ****ORCA TERMINATED NORMALLY****
TOTAL RUN TIME: 0 days 0 hours 0 minutes 5 seconds 216 msec
