                         Program Version 3.0.3 - RELEASE   -
|  1> ! RI PBE def2-SVP def2-SVP/J NBO PAL2
|  2> % maxcore 2000
|  3> % output
|  4>     # printlevel mini
|  5>     print[ P_Basis ] 0
|  6>     print[ P_SCFInfo ] 1
|  7>     print[ P_SCFIterInfo ] 1
|  8>     print[ P_OrbEn ] 0
|  9>     print[ P_Cartesian ] 0
| 10> end
| 11> *xyz 0 1
| 12>  O        1.0578280000     0.0332640000    -0.0653940000
| 13>  C        2.4735490000    -0.0343820000    -0.1020180000
| 14>  C        2.9701570000    -1.2561350000    -0.8985460000
| 15>  C        3.2608980000    -0.6991270000    -2.2594580000
| 16>  C        3.2547840000     0.6282170000    -2.2573570000
| 17>  C        2.9532250000     1.1844640000    -0.8989910000
| 18>  H        0.7283900000    -0.7653760000     0.3546650000
| 19>  H        2.8695580000    -0.0323210000     0.9208210000
| 20>  H        2.2164190000    -2.0513760000    -0.9100160000
| 21>  H        3.8728750000    -1.6878360000    -0.4483340000
| 22>  H        3.4702440000    -1.3206050000    -3.1222810000
| 23>  H        3.4610560000     1.2523410000    -3.1190260000
| 24>  H        2.1750410000     1.9524340000    -0.9039030000
| 25>  H        3.8459760000     1.6344480000    -0.4490730000
| 26> *
| 27>
| 28>                          ****END OF INPUT****
 Total Charge           Charge          ....    0
 Multiplicity           Mult            ....    1
 Number of Electrons    NEL             ....   46
 Basis Dimension        Dim             ....  124

MULLIKEN ATOMIC CHARGES
-----------------------
   0 O :   -0.266540
   1 C :    0.027320
   2 C :    0.080322
   3 C :   -0.066785
   4 C :   -0.064504
   5 C :    0.089348
   6 H :    0.150263
   7 H :   -0.012443
   8 H :    0.007412
   9 H :    0.019574
  10 H :   -0.009738
  11 H :   -0.009417
  12 H :    0.033544
  13 H :    0.021643
Sum of atomic charges:   -0.0000000

LOEWDIN ATOMIC CHARGES
----------------------
   0 O :   -0.117206
   1 C :    0.060706
   2 C :   -0.057984
   3 C :   -0.040868
   4 C :   -0.034892
   5 C :   -0.045796
   6 H :    0.064156
   7 H :    0.002010
   8 H :    0.026107
   9 H :    0.031659
  10 H :    0.020475
  11 H :    0.021661
  12 H :    0.036683
  13 H :    0.033288

  Mayer bond orders larger than 0.1
B(  0-O ,  1-C ) :   1.0784 B(  0-O ,  6-H ) :   0.9811 B(  1-C ,  2-C ) :   1.0527
B(  1-C ,  5-C ) :   1.0625 B(  1-C ,  7-H ) :   0.9227 B(  2-C ,  3-C ) :   1.0224
B(  2-C ,  8-H ) :   0.9178 B(  2-C ,  9-H ) :   0.9049 B(  3-C ,  4-C ) :   1.8787
B(  3-C , 10-H ) :   0.9819 B(  4-C ,  5-C ) :   1.0322 B(  4-C , 11-H ) :   0.9838
B(  5-C , 12-H ) :   0.9151 B(  5-C , 13-H ) :   0.9112

FINAL SINGLE POINT ENERGY      -269.996061892327

DIPOLE MOMENT
-------------
                                X             Y             Z
Electronic contribution:     -1.44304       0.28864      -0.21541
Nuclear contribution   :      1.68930      -0.72064       0.47172
                        -----------------------------------------
Total Dipole Moment    :      0.24626      -0.43199       0.25631
                        -----------------------------------------
Magnitude (a.u.)       :      0.55943
Magnitude (Debye)      :      1.42196

                             ****ORCA TERMINATED NORMALLY****
TOTAL RUN TIME: 0 days 0 hours 0 minutes 5 seconds 607 msec
