                         Program Version 3.0.3 - RELEASE   -
|  1> ! RI PBE def2-SVP def2-SVP/J NBO PAL2
|  2> % maxcore 2000
|  3> % output
|  4>     # printlevel mini
|  5>     print[ P_Basis ] 0
|  6>     print[ P_SCFInfo ] 1
|  7>     print[ P_SCFIterInfo ] 1
|  8>     print[ P_OrbEn ] 0
|  9>     print[ P_Cartesian ] 0
| 10> end
| 11> *xyz 0 1
| 12>  O        1.0721010000     0.0991060000    -0.1074300000
| 13>  C        2.4926890000     0.0152800000    -0.0583100000
| 14>  C        3.0155370000    -1.2618660000     0.6240560000
| 15>  C        3.3581000000    -0.8652610000     2.0676140000
| 16>  C        3.4320770000     0.6296040000     1.9984190000
| 17>  C        2.9833310000     1.1072330000     0.8444110000
| 18>  H        0.7620950000    -0.4862600000    -0.8032010000
| 19>  H        2.8920290000     0.1139480000    -1.0766950000
| 20>  H        3.9196640000    -1.6003590000     0.1116650000
| 21>  H        2.2806180000    -2.0669650000     0.5621610000
| 22>  H        4.2955820000    -1.3147540000     2.4077100000
| 23>  H        2.5893130000    -1.1758930000     2.7843990000
| 24>  H        3.7874220000     1.2375070000     2.8232190000
| 25>  H        2.8983510000     2.1542000000     0.5805830000
| 26> *
| 27>
| 28>                          ****END OF INPUT****
 Total Charge           Charge          ....    0
 Multiplicity           Mult            ....    1
 Number of Electrons    NEL             ....   46
 Basis Dimension        Dim             ....  124

MULLIKEN ATOMIC CHARGES
-----------------------
   0 O :   -0.268546
   1 C :    0.092493
   2 C :    0.013671
   3 C :    0.049710
   4 C :   -0.071843
   5 C :   -0.013547
   6 H :    0.148137
   7 H :   -0.007143
   8 H :    0.013393
   9 H :   -0.000530
  10 H :    0.018843
  11 H :    0.034917
  12 H :   -0.004005
  13 H :   -0.005551
Sum of atomic charges:   -0.0000000

LOEWDIN ATOMIC CHARGES
----------------------
   0 O :   -0.123923
   1 C :    0.045465
   2 C :   -0.051653
   3 C :   -0.040094
   4 C :   -0.019626
   5 C :   -0.043351
   6 H :    0.063971
   7 H :    0.005847
   8 H :    0.028680
   9 H :    0.023467
  10 H :    0.029290
  11 H :    0.036433
  12 H :    0.022577
  13 H :    0.022916

  Mayer bond orders larger than 0.1
B(  0-O ,  1-C ) :   1.0753 B(  0-O ,  6-H ) :   0.9824 B(  1-C ,  2-C ) :   1.0439
B(  1-C ,  5-C ) :   1.0129 B(  1-C ,  7-H ) :   0.9181 B(  2-C ,  3-C ) :   1.0939
B(  2-C ,  8-H ) :   0.9247 B(  2-C ,  9-H ) :   0.9224 B(  3-C ,  4-C ) :   1.0461
B(  3-C , 10-H ) :   0.9309 B(  3-C , 11-H ) :   0.9133 B(  4-C ,  5-C ) :   1.8642
B(  4-C , 12-H ) :   0.9820 B(  5-C , 13-H ) :   0.9892

FINAL SINGLE POINT ENERGY      -269.994595498876

DIPOLE MOMENT
-------------
                                X             Y             Z
Electronic contribution:     -1.67575       1.98696      -0.79813
Nuclear contribution   :      1.93891      -2.39931       0.53882
                        -----------------------------------------
Total Dipole Moment    :      0.26316      -0.41235      -0.25931
                        -----------------------------------------
Magnitude (a.u.)       :      0.55365
Magnitude (Debye)      :      1.40726

                             ****ORCA TERMINATED NORMALLY****
TOTAL RUN TIME: 0 days 0 hours 0 minutes 5 seconds 791 msec
