                         Program Version 3.0.3 - RELEASE   -
|  1> ! RI PBE def2-SVP def2-SVP/J NBO PAL2
|  2> % maxcore 2000
|  3> % output
|  4>     # printlevel mini
|  5>     print[ P_Basis ] 0
|  6>     print[ P_SCFInfo ] 1
|  7>     print[ P_SCFIterInfo ] 1
|  8>     print[ P_OrbEn ] 0
|  9>     print[ P_Cartesian ] 0
| 10> end
| 11> *xyz 0 1
| 12>  O        0.9714260000    -0.2154530000     0.0280020000
| 13>  C        2.2915740000    -0.0073690000     0.0329440000
| 14>  C        3.0850180000     1.0938630000     0.0340350000
| 15>  C        4.4228220000     0.5827420000     0.0404170000
| 16>  C        4.3234560000    -0.7621450000     0.0426160000
| 17>  O        3.0071940000    -1.1339450000     0.0380100000
| 18>  H        0.5265670000     0.6361030000     0.0246320000
| 19>  H        2.7682270000     2.1241720000     0.0307680000
| 20>  H        5.3367440000     1.1551980000     0.0430030000
| 21>  H        5.0362620000    -1.5679660000     0.0470520000
| 22> *
| 23>
| 24>                          ****END OF INPUT****
 Total Charge           Charge          ....    0
 Multiplicity           Mult            ....    1
 Number of Electrons    NEL             ....   44
 Basis Dimension        Dim             ....  104

MULLIKEN ATOMIC CHARGES
-----------------------
   0 O :   -0.130180
   1 C :    0.200394
   2 C :   -0.148689
   3 C :   -0.000731
   4 C :    0.085903
   5 O :   -0.164869
   6 H :    0.183678
   7 H :   -0.023071
   8 H :   -0.005696
   9 H :    0.003263
Sum of atomic charges:   -0.0000000

LOEWDIN ATOMIC CHARGES
----------------------
   0 O :   -0.010890
   1 C :    0.039207
   2 C :   -0.157168
   3 C :   -0.071631
   4 C :   -0.001902
   5 O :    0.026468
   6 H :    0.101354
   7 H :    0.024551
   8 H :    0.030357
   9 H :    0.019654

  Mayer bond orders larger than 0.1
B(  0-O ,  1-C ) :   1.2466 B(  0-O ,  6-H ) :   0.9642 B(  1-C ,  2-C ) :   1.4641
B(  1-C ,  5-O ) :   1.1849 B(  2-C ,  3-C ) :   1.1809 B(  2-C ,  7-H ) :   1.0159
B(  3-C ,  4-C ) :   1.5752 B(  3-C ,  8-H ) :   0.9991 B(  4-C ,  5-O ) :   1.0947
B(  4-C ,  9-H ) :   1.0066

FINAL SINGLE POINT ENERGY      -304.673817881278

DIPOLE MOMENT
-------------
                                X             Y             Z
Electronic contribution:     -1.97138      -1.87805      -0.00436
Nuclear contribution   :      1.76698       2.55706       0.00227
                        -----------------------------------------
Total Dipole Moment    :     -0.20440       0.67901      -0.00209
                        -----------------------------------------
Magnitude (a.u.)       :      0.70911
Magnitude (Debye)      :      1.80241

                             ****ORCA TERMINATED NORMALLY****
TOTAL RUN TIME: 0 days 0 hours 0 minutes 4 seconds 928 msec
