                         Program Version 3.0.3 - RELEASE   -
|  1> ! RI PBE def2-SVP def2-SVP/J NBO PAL2
|  2> % maxcore 2000
|  3> % output
|  4>     # printlevel mini
|  5>     print[ P_Basis ] 0
|  6>     print[ P_SCFInfo ] 1
|  7>     print[ P_SCFIterInfo ] 1
|  8>     print[ P_OrbEn ] 0
|  9>     print[ P_Cartesian ] 0
| 10> end
| 11> *xyz 0 1
| 12>  O        1.2795710000    -0.1438380000     0.2850510000
| 13>  C        2.4200650000    -0.0175510000    -0.0386370000
| 14>  C        3.2686750000     1.2364470000    -0.0336620000
| 15>  C        4.4491480000     0.8698260000    -0.9169140000
| 16>  C        4.5106490000    -0.6430500000    -0.7372430000
| 17>  O        3.1677130000    -1.0557720000    -0.4786720000
| 18>  H        3.5694170000     1.4246490000     1.0020380000
| 19>  H        2.6811720000     2.0900520000    -0.3668230000
| 20>  H        5.3828230000     1.3582920000    -0.6383990000
| 21>  H        4.2349820000     1.1160880000    -1.9593890000
| 22>  H        5.1320880000    -0.9285990000     0.1177970000
| 23>  H        4.8602890000    -1.1790450000    -1.6192680000
| 24> *
| 25>
| 26>                          ****END OF INPUT****
 Total Charge           Charge          ....    0
 Multiplicity           Mult            ....    1
 Number of Electrons    NEL             ....   46
 Basis Dimension        Dim             ....  114

MULLIKEN ATOMIC CHARGES
-----------------------
   0 O :   -0.148788
   1 C :    0.089637
   2 C :   -0.048418
   3 C :   -0.052159
   4 C :    0.170945
   5 O :   -0.248433
   6 H :    0.056598
   7 H :    0.048813
   8 H :    0.025561
   9 H :    0.038861
  10 H :    0.032378
  11 H :    0.035006
Sum of atomic charges:    0.0000000

LOEWDIN ATOMIC CHARGES
----------------------
   0 O :   -0.128597
   1 C :    0.036772
   2 C :   -0.073110
   3 C :   -0.052369
   4 C :    0.076223
   5 O :   -0.068664
   6 H :    0.050844
   7 H :    0.045639
   8 H :    0.033213
   9 H :    0.034235
  10 H :    0.019680
  11 H :    0.026135

  Mayer bond orders larger than 0.1
B(  0-O ,  1-C ) :   2.1983 B(  1-C ,  2-C ) :   0.9673 B(  1-C ,  5-O ) :   1.1372
B(  2-C ,  3-C ) :   1.0935 B(  2-C ,  6-H ) :   0.9178 B(  2-C ,  7-H ) :   0.9307
B(  3-C ,  4-C ) :   1.0850 B(  3-C ,  8-H ) :   0.9306 B(  3-C ,  9-H ) :   0.9378
B(  4-C ,  5-O ) :   0.9582 B(  4-C , 10-H ) :   0.9447 B(  4-C , 11-H ) :   0.9501

FINAL SINGLE POINT ENERGY      -305.909043904375

DIPOLE MOMENT
-------------
                                X             Y             Z
Electronic contribution:     -4.88189      -2.84338       1.14164
Nuclear contribution   :      6.37290       3.48676      -1.45663
                        -----------------------------------------
Total Dipole Moment    :      1.49101       0.64338      -0.31500
                        -----------------------------------------
Magnitude (a.u.)       :      1.65417
Magnitude (Debye)      :      4.20455

                             ****ORCA TERMINATED NORMALLY****
TOTAL RUN TIME: 0 days 0 hours 0 minutes 5 seconds 222 msec
