                         Program Version 3.0.3 - RELEASE   -
|  1> ! RI PBE def2-SVP def2-SVP/J NBO PAL2
|  2> % maxcore 2000
|  3> % output
|  4>     # printlevel mini
|  5>     print[ P_Basis ] 0
|  6>     print[ P_SCFInfo ] 1
|  7>     print[ P_SCFIterInfo ] 1
|  8>     print[ P_OrbEn ] 0
|  9>     print[ P_Cartesian ] 0
| 10> end
| 11> *xyz 0 1
| 12>  O        1.1346110000     0.1446670000     0.4076160000
| 13>  C        2.2710950000     0.0184880000     0.0855040000
| 14>  C        3.1249130000    -1.2311860000    -0.0105450000
| 15>  C        4.4367020000    -0.6920950000    -0.4689270000
| 16>  C        4.3046450000     0.6201730000    -0.5955090000
| 17>  O        3.0495340000     1.0914260000    -0.2816910000
| 18>  H        2.6572530000    -1.9348240000    -0.7056990000
| 19>  H        3.1545970000    -1.7234940000     0.9660850000
| 20>  H        5.3323560000    -1.2603510000    -0.6635540000
| 21>  H        5.0063130000     1.3814960000    -0.9004800000
| 22> *
| 23>
| 24>                          ****END OF INPUT****
 Total Charge           Charge          ....    0
 Multiplicity           Mult            ....    1
 Number of Electrons    NEL             ....   44
 Basis Dimension        Dim             ....  104

MULLIKEN ATOMIC CHARGES
-----------------------
   0 O :   -0.126045
   1 C :    0.094177
   2 C :    0.024272
   3 C :   -0.117763
   4 C :    0.138270
   5 O :   -0.202081
   6 H :    0.077775
   7 H :    0.075490
   8 H :    0.014784
   9 H :    0.021120
Sum of atomic charges:   -0.0000000

LOEWDIN ATOMIC CHARGES
----------------------
   0 O :   -0.107609
   1 C :    0.059857
   2 C :   -0.065568
   3 C :   -0.088357
   4 C :    0.050742
   5 O :   -0.036196
   6 H :    0.062936
   7 H :    0.062785
   8 H :    0.032970
   9 H :    0.028440

  Mayer bond orders larger than 0.1
B(  0-O ,  1-C ) :   2.2176 B(  1-C ,  2-C ) :   0.9853 B(  1-C ,  5-O ) :   1.0703
B(  2-C ,  3-C ) :   1.0460 B(  2-C ,  6-H ) :   0.8989 B(  2-C ,  7-H ) :   0.8979
B(  3-C ,  4-C ) :   1.7745 B(  3-C ,  8-H ) :   0.9891 B(  4-C ,  5-O ) :   1.0561
B(  4-C ,  9-H ) :   0.9975

FINAL SINGLE POINT ENERGY      -304.690925655164

DIPOLE MOMENT
-------------
                                X             Y             Z
Electronic contribution:     -2.65136       2.70440       0.44459
Nuclear contribution   :      3.83091      -3.33536      -0.71805
                        -----------------------------------------
Total Dipole Moment    :      1.17955      -0.63096      -0.27346
                        -----------------------------------------
Magnitude (a.u.)       :      1.36537
Magnitude (Debye)      :      3.47048

                             ****ORCA TERMINATED NORMALLY****
TOTAL RUN TIME: 0 days 0 hours 0 minutes 4 seconds 962 msec
