                         Program Version 3.0.3 - RELEASE   -
|  1> ! RI PBE def2-SVP def2-SVP/J NBO PAL2
|  2> % maxcore 2000
|  3> % output
|  4>     # printlevel mini
|  5>     print[ P_Basis ] 0
|  6>     print[ P_SCFInfo ] 1
|  7>     print[ P_SCFIterInfo ] 1
|  8>     print[ P_OrbEn ] 0
|  9>     print[ P_Cartesian ] 0
| 10> end
| 11> *xyz 0 1
| 12>  O        0.8476700000    -0.0553060000     0.0558730000
| 13>  C        2.1990010000    -0.0144680000     0.0611340000
| 14>  C        3.0432380000     1.0497680000     0.0645710000
| 15>  O        4.3305000000     0.6090260000     0.0695130000
| 16>  C        4.2890740000    -0.7350960000     0.0691460000
| 17>  C        3.0121210000    -1.1839420000     0.0641370000
| 18>  H        0.4997930000     0.8401450000     0.0546980000
| 19>  H        2.8961860000     2.1166940000     0.0641540000
| 20>  H        5.2411500000    -1.2396590000     0.0727680000
| 21>  H        2.6748670000    -2.2076510000     0.0626860000
| 22> *
| 23>
| 24>                          ****END OF INPUT****
 Total Charge           Charge          ....    0
 Multiplicity           Mult            ....    1
 Number of Electrons    NEL             ....   44
 Basis Dimension        Dim             ....  104

MULLIKEN ATOMIC CHARGES
-----------------------
   0 O :   -0.166820
   1 C :    0.127468
   2 C :   -0.012426
   3 O :   -0.168479
   4 C :    0.117724
   5 C :   -0.057287
   6 H :    0.171405
   7 H :   -0.007829
   8 H :    0.008833
   9 H :   -0.012590
Sum of atomic charges:   -0.0000000

LOEWDIN ATOMIC CHARGES
----------------------
   0 O :   -0.032034
   1 C :   -0.018369
   2 C :   -0.064676
   3 O :    0.031377
   4 C :    0.019422
   5 C :   -0.097832
   6 H :    0.090868
   7 H :    0.016000
   8 H :    0.020810
   9 H :    0.034434

  Mayer bond orders larger than 0.1
B(  0-O ,  1-C ) :   1.2034 B(  0-O ,  6-H ) :   0.9693 B(  1-C ,  2-C ) :   1.4413
B(  1-C ,  5-C ) :   1.2304 B(  2-C ,  3-O ) :   1.1105 B(  2-C ,  4-C ) :   0.1028
B(  2-C ,  7-H ) :   1.0156 B(  3-O ,  4-C ) :   1.1768 B(  4-C ,  5-C ) :   1.5039
B(  4-C ,  8-H ) :   0.9971 B(  5-C ,  9-H ) :   1.0150

FINAL SINGLE POINT ENERGY      -304.667536938889

DIPOLE MOMENT
-------------
                                X             Y             Z
Electronic contribution:      0.09135       0.69822       0.00051
Nuclear contribution   :     -0.32855      -0.35074      -0.00128
                        -----------------------------------------
Total Dipole Moment    :     -0.23720       0.34748      -0.00077
                        -----------------------------------------
Magnitude (a.u.)       :      0.42072
Magnitude (Debye)      :      1.06940

                             ****ORCA TERMINATED NORMALLY****
TOTAL RUN TIME: 0 days 0 hours 0 minutes 4 seconds 965 msec
