                         Program Version 3.0.3 - RELEASE   -
|  1> ! RI PBE def2-SVP def2-SVP/J NBO PAL2
|  2> % maxcore 2000
|  3> % output
|  4>     # printlevel mini
|  5>     print[ P_Basis ] 0
|  6>     print[ P_SCFInfo ] 1
|  7>     print[ P_SCFIterInfo ] 1
|  8>     print[ P_OrbEn ] 0
|  9>     print[ P_Cartesian ] 0
| 10> end
| 11> *xyz 0 1
| 12>  O        0.9050830000    -0.0715140000    -0.0326920000
| 13>  C        2.3091080000     0.0244850000    -0.0047730000
| 14>  C        2.8759110000     1.1319740000     0.8763430000
| 15>  C        4.2538800000     0.5878040000     1.2044870000
| 16>  O        4.1280510000    -0.8296560000     1.2232060000
| 17>  C        2.8875490000    -1.2142350000     0.6631290000
| 18>  H        0.5558710000     0.6650040000    -0.5395140000
| 19>  H        2.7092290000     0.1181040000    -1.0242510000
| 20>  H        2.2565660000     1.2063910000     1.7746700000
| 21>  H        2.9072080000     2.1086830000     0.3892730000
| 22>  H        4.6270310000     0.9219000000     2.1759960000
| 23>  H        4.9895520000     0.8763540000     0.4420410000
| 24>  H        2.1930380000    -1.5490140000     1.4448830000
| 25>  H        3.0491130000    -2.0393700000    -0.0349990000
| 26> *
| 27>
| 28>                          ****END OF INPUT****
 Total Charge           Charge          ....    0
 Multiplicity           Mult            ....    1
 Number of Electrons    NEL             ....   48
 Basis Dimension        Dim             ....  124

MULLIKEN ATOMIC CHARGES
-----------------------
   0 O :   -0.248113
   1 C :   -0.024058
   2 C :   -0.033773
   3 C :    0.203663
   4 O :   -0.372910
   5 C :    0.241892
   6 H :    0.158558
   7 H :    0.004667
   8 H :    0.020709
   9 H :    0.014693
  10 H :    0.009025
  11 H :    0.004866
  12 H :    0.008770
  13 H :    0.012011
Sum of atomic charges:   -0.0000000

LOEWDIN ATOMIC CHARGES
----------------------
   0 O :   -0.105658
   1 C :    0.027403
   2 C :   -0.074298
   3 C :    0.070263
   4 O :   -0.166378
   5 C :    0.060382
   6 H :    0.072680
   7 H :    0.009046
   8 H :    0.029726
   9 H :    0.025205
  10 H :    0.016437
  11 H :    0.007210
  12 H :    0.010863
  13 H :    0.017118

  Mayer bond orders larger than 0.1
B(  0-O ,  1-C ) :   1.1173 B(  0-O ,  6-H ) :   0.9803 B(  1-C ,  2-C ) :   1.0514
B(  1-C ,  5-C ) :   1.0395 B(  1-C ,  7-H ) :   0.9187 B(  2-C ,  3-C ) :   1.0907
B(  2-C ,  8-H ) :   0.9141 B(  2-C ,  9-H ) :   0.9312 B(  3-C ,  4-O ) :   1.0054
B(  3-C , 10-H ) :   0.9394 B(  3-C , 11-H ) :   0.9393 B(  4-O ,  5-C ) :   1.0219
B(  5-C , 12-H ) :   0.9278 B(  5-C , 13-H ) :   0.9339

FINAL SINGLE POINT ENERGY      -307.061265342805

DIPOLE MOMENT
-------------
                                X             Y             Z
Electronic contribution:     -0.60110      -1.79084      -0.01799
Nuclear contribution   :      0.36636       2.64166      -0.48203
                        -----------------------------------------
Total Dipole Moment    :     -0.23473       0.85081      -0.50002
                        -----------------------------------------
Magnitude (a.u.)       :      1.01440
Magnitude (Debye)      :      2.57839

                             ****ORCA TERMINATED NORMALLY****
TOTAL RUN TIME: 0 days 0 hours 0 minutes 5 seconds 975 msec
