                         Program Version 3.0.3 - RELEASE   -
|  1> ! RI PBE def2-SVP def2-SVP/J NBO PAL2
|  2> % maxcore 2000
|  3> % output
|  4>     # printlevel mini
|  5>     print[ P_Basis ] 0
|  6>     print[ P_SCFInfo ] 1
|  7>     print[ P_SCFIterInfo ] 1
|  8>     print[ P_OrbEn ] 0
|  9>     print[ P_Cartesian ] 0
| 10> end
| 11> *xyz 0 1
| 12>  O        1.0941120000    -0.1119590000     0.5958060000
| 13>  C        2.2369370000    -0.0394880000     0.2430510000
| 14>  C        3.0725140000     1.2127390000     0.0593560000
| 15>  C        4.2641600000     0.6895840000    -0.7241510000
| 16>  O        4.4240530000    -0.6595360000    -0.3030830000
| 17>  C        3.1393410000    -1.2029960000    -0.1320300000
| 18>  H        3.3722870000     1.5644290000     1.0518220000
| 19>  H        2.4982880000     2.0020240000    -0.4251810000
| 20>  H        5.1993220000     1.2104200000    -0.5212670000
| 21>  H        4.0694180000     0.7292000000    -1.8054760000
| 22>  H        3.1572810000    -1.9680780000     0.6462780000
| 23>  H        2.7546970000    -1.6581390000    -1.0587260000
| 24> *
| 25>
| 26>                          ****END OF INPUT****
 Total Charge           Charge          ....    0
 Multiplicity           Mult            ....    1
 Number of Electrons    NEL             ....   46
 Basis Dimension        Dim             ....  114

MULLIKEN ATOMIC CHARGES
-----------------------
   0 O :   -0.140502
   1 C :   -0.127497
   2 C :    0.001728
   3 C :    0.165243
   4 O :   -0.356336
   5 C :    0.240108
   6 H :    0.059138
   7 H :    0.044260
   8 H :    0.023956
   9 H :    0.015089
  10 H :    0.049496
  11 H :    0.025316
Sum of atomic charges:   -0.0000000

LOEWDIN ATOMIC CHARGES
----------------------
   0 O :   -0.105553
   1 C :    0.044403
   2 C :   -0.084529
   3 C :    0.067785
   4 O :   -0.154034
   5 C :    0.029995
   6 H :    0.055133
   7 H :    0.045587
   8 H :    0.024342
   9 H :    0.009407
  10 H :    0.039206
  11 H :    0.028259

  Mayer bond orders larger than 0.1
B(  0-O ,  1-C ) :   2.2128 B(  1-C ,  2-C ) :   0.9829 B(  1-C ,  5-C ) :   0.9571
B(  2-C ,  3-C ) :   1.0866 B(  2-C ,  6-H ) :   0.9002 B(  2-C ,  7-H ) :   0.9178
B(  3-C ,  4-O ) :   0.9925 B(  3-C ,  8-H ) :   0.9422 B(  3-C ,  9-H ) :   0.9287
B(  4-O ,  5-C ) :   1.0286 B(  5-C , 10-H ) :   0.9287 B(  5-C , 11-H ) :   0.8953

FINAL SINGLE POINT ENERGY      -305.873572230881

DIPOLE MOMENT
-------------
                                X             Y             Z
Electronic contribution:     -2.13371      -1.52315       1.42082
Nuclear contribution   :      2.59720       1.91806      -1.70829
                        -----------------------------------------
Total Dipole Moment    :      0.46350       0.39491      -0.28747
                        -----------------------------------------
Magnitude (a.u.)       :      0.67337
Magnitude (Debye)      :      1.71156

                             ****ORCA TERMINATED NORMALLY****
TOTAL RUN TIME: 0 days 0 hours 0 minutes 5 seconds 185 msec
