                         Program Version 3.0.3 - RELEASE   -
|  1> ! RI PBE def2-SVP def2-SVP/J NBO PAL2
|  2> % maxcore 2000
|  3> % output
|  4>     # printlevel mini
|  5>     print[ P_Basis ] 0
|  6>     print[ P_SCFInfo ] 1
|  7>     print[ P_SCFIterInfo ] 1
|  8>     print[ P_OrbEn ] 0
|  9>     print[ P_Cartesian ] 0
| 10> end
| 11> *xyz 0 1
| 12>  O        1.0272970000     0.0032550000     0.1581800000
| 13>  C        2.4183470000     0.0608770000     0.0058910000
| 14>  C        3.1845930000     1.1622250000     0.7841020000
| 15>  C        4.0929980000     0.0584160000     1.3078530000
| 16>  O        5.1704250000     0.0478810000     1.8206050000
| 17>  C        3.1484040000    -1.0258320000     0.8131970000
| 18>  H        0.6274240000     0.7062270000    -0.3601910000
| 19>  H        2.7070410000     0.0412740000    -1.0511800000
| 20>  H        2.5657940000     1.5651980000     1.5920220000
| 21>  H        3.6553630000     1.9809870000     0.2382440000
| 22>  H        2.5103320000    -1.3837760000     1.6273850000
| 23>  H        3.5829830000    -1.8787210000     0.2917830000
| 24> *
| 25>
| 26>                          ****END OF INPUT****
 Total Charge           Charge          ....    0
 Multiplicity           Mult            ....    1
 Number of Electrons    NEL             ....   46
 Basis Dimension        Dim             ....  114

MULLIKEN ATOMIC CHARGES
-----------------------
   0 O :   -0.239054
   1 C :   -0.085108
   2 C :    0.111103
   3 C :   -0.107164
   4 O :   -0.117186
   5 C :    0.101411
   6 H :    0.162435
   7 H :    0.011889
   8 H :    0.032722
   9 H :    0.037764
  10 H :    0.047652
  11 H :    0.043536
Sum of atomic charges:   -0.0000000

LOEWDIN ATOMIC CHARGES
----------------------
   0 O :   -0.106280
   1 C :    0.045824
   2 C :   -0.085374
   3 C :    0.050824
   4 O :   -0.098061
   5 C :   -0.067337
   6 H :    0.074918
   7 H :    0.010944
   8 H :    0.048682
   9 H :    0.033546
  10 H :    0.054898
  11 H :    0.037414

  Mayer bond orders larger than 0.1
B(  0-O ,  1-C ) :   1.1131 B(  0-O ,  6-H ) :   0.9786 B(  1-C ,  2-C ) :   1.0393
B(  1-C ,  5-C ) :   1.0453 B(  1-C ,  7-H ) :   0.9109 B(  2-C ,  3-C ) :   0.9863
B(  2-C ,  5-C ) :  -0.1262 B(  2-C ,  8-H ) :   0.8671 B(  2-C ,  9-H ) :   0.9223
B(  3-C ,  4-O ) :   2.2401 B(  3-C ,  5-C ) :   0.9759 B(  5-C , 10-H ) :   0.8773
B(  5-C , 11-H ) :   0.9222

FINAL SINGLE POINT ENERGY      -305.858830056279

DIPOLE MOMENT
-------------
                                X             Y             Z
Electronic contribution:      2.12064      -0.23647       1.54535
Nuclear contribution   :     -2.92153       0.64424      -2.31122
                        -----------------------------------------
Total Dipole Moment    :     -0.80089       0.40777      -0.76587
                        -----------------------------------------
Magnitude (a.u.)       :      1.18079
Magnitude (Debye)      :      3.00132

                             ****ORCA TERMINATED NORMALLY****
TOTAL RUN TIME: 0 days 0 hours 0 minutes 5 seconds 159 msec
