                         Program Version 3.0.3 - RELEASE   -
|  1> ! RI PBE def2-SVP def2-SVP/J NBO PAL2
|  2> % maxcore 2000
|  3> % output
|  4>     # printlevel mini
|  5>     print[ P_Basis ] 0
|  6>     print[ P_SCFInfo ] 1
|  7>     print[ P_SCFIterInfo ] 1
|  8>     print[ P_OrbEn ] 0
|  9>     print[ P_Cartesian ] 0
| 10> end
| 11> *xyz 0 1
| 12>  O        0.7864280000     0.0192910000     0.2314560000
| 13>  C        2.1770090000     0.1167820000     0.0711500000
| 14>  C        2.9548210000     1.1581300000     0.9029590000
| 15>  C        4.0125210000     0.0815730000     1.1746780000
| 16>  O        5.0558600000     0.2178010000     0.2321510000
| 17>  C        2.9654460000    -0.9826790000     0.7859640000
| 18>  H        0.3648530000     0.6967120000    -0.3030640000
| 19>  H        2.4513150000     0.1764880000    -0.9873890000
| 20>  H        2.3979980000     1.4039580000     1.8092100000
| 21>  H        3.3068650000     2.0687490000     0.4167620000
| 22>  H        4.4135980000     0.0274130000     2.1923220000
| 23>  H        5.6040250000    -0.5701740000     0.2739170000
| 24>  H        2.4070500000    -1.3249480000     1.6603260000
| 25>  H        3.3040100000    -1.8435860000     0.2063780000
| 26> *
| 27>
| 28>                          ****END OF INPUT****
 Total Charge           Charge          ....    0
 Multiplicity           Mult            ....    1
 Number of Electrons    NEL             ....   48
 Basis Dimension        Dim             ....  124

MULLIKEN ATOMIC CHARGES
-----------------------
   0 O :   -0.240842
   1 C :   -0.012278
   2 C :    0.116033
   3 C :   -0.035432
   4 O :   -0.258194
   5 C :    0.093097
   6 H :    0.155885
   7 H :    0.004588
   8 H :    0.000582
   9 H :    0.012243
  10 H :   -0.004249
  11 H :    0.154720
  12 H :    0.009200
  13 H :    0.004647
Sum of atomic charges:    0.0000000

LOEWDIN ATOMIC CHARGES
----------------------
   0 O :   -0.111389
   1 C :    0.046201
   2 C :   -0.055905
   3 C :    0.051379
   4 O :   -0.117012
   5 C :   -0.055479
   6 H :    0.071244
   7 H :    0.009368
   8 H :    0.028177
   9 H :    0.020162
  10 H :   -0.003393
  11 H :    0.068992
  12 H :    0.031408
  13 H :    0.016248

  Mayer bond orders larger than 0.1
B(  0-O ,  1-C ) :   1.1539 B(  0-O ,  6-H ) :   0.9803 B(  1-C ,  2-C ) :   1.0625
B(  1-C ,  5-C ) :   1.0715 B(  1-C ,  7-H ) :   0.9179 B(  2-C ,  3-C ) :   1.0811
B(  2-C ,  8-H ) :   0.8955 B(  2-C ,  9-H ) :   0.9157 B(  3-C ,  4-O ) :   1.0822
B(  3-C ,  5-C ) :   1.0524 B(  3-C , 10-H ) :   0.9249 B(  4-O , 11-H ) :   0.9829
B(  5-C , 12-H ) :   0.8968 B(  5-C , 13-H ) :   0.9171

FINAL SINGLE POINT ENERGY      -307.045983809299

DIPOLE MOMENT
-------------
                                X             Y             Z
Electronic contribution:     -0.20116       0.09352      -0.93258
Nuclear contribution   :      0.31342      -0.16420       0.84651
                        -----------------------------------------
Total Dipole Moment    :      0.11227      -0.07068      -0.08607
                        -----------------------------------------
Magnitude (a.u.)       :      0.15814
Magnitude (Debye)      :      0.40196

                             ****ORCA TERMINATED NORMALLY****
TOTAL RUN TIME: 0 days 0 hours 0 minutes 5 seconds 554 msec
