                         Program Version 3.0.3 - RELEASE   -
|  1> ! RI PBE def2-SVP def2-SVP/J NBO PAL2
|  2> % maxcore 2000
|  3> % output
|  4>     # printlevel mini
|  5>     print[ P_Basis ] 0
|  6>     print[ P_SCFInfo ] 1
|  7>     print[ P_SCFIterInfo ] 1
|  8>     print[ P_OrbEn ] 0
|  9>     print[ P_Cartesian ] 0
| 10> end
| 11> *xyz 0 1
| 12>  O        0.9701970000    -0.0841260000     0.0304870000
| 13>  C        2.3919200000    -0.1016880000     0.0447880000
| 14>  C        2.9890550000    -1.3262360000     0.7562760000
| 15>  O        3.4128890000    -0.8980620000     2.0575860000
| 16>  C        3.3893110000     0.4518330000     2.0313560000
| 17>  C        2.8897190000     0.9978250000     0.9272790000
| 18>  H        0.6668220000    -0.6087540000    -0.7152740000
| 19>  H        2.7663080000    -0.0293980000    -0.9834560000
| 20>  H        3.8708050000    -1.7033430000     0.2302270000
| 21>  H        2.2576340000    -2.1266640000     0.8761010000
| 22>  H        3.7762330000     0.9282410000     2.9222950000
| 23>  H        2.7620170000     2.0505730000     0.7326150000
| 24> *
| 25>
| 26>                          ****END OF INPUT****
 Total Charge           Charge          ....    0
 Multiplicity           Mult            ....    1
 Number of Electrons    NEL             ....   46
 Basis Dimension        Dim             ....  114

MULLIKEN ATOMIC CHARGES
-----------------------
   0 O :   -0.259523
   1 C :    0.036597
   2 C :    0.254301
   3 O :   -0.281508
   4 C :    0.137418
   5 C :   -0.086774
   6 H :    0.146209
   7 H :    0.002819
   8 H :    0.020976
   9 H :    0.013683
  10 H :    0.012222
  11 H :    0.003578
Sum of atomic charges:   -0.0000000

LOEWDIN ATOMIC CHARGES
----------------------
   0 O :   -0.120234
   1 C :    0.033552
   2 C :    0.068338
   3 O :   -0.081946
   4 C :    0.052632
   5 C :   -0.125840
   6 H :    0.062253
   7 H :    0.012286
   8 H :    0.022330
   9 H :    0.024596
  10 H :    0.023875
  11 H :    0.028158

  Mayer bond orders larger than 0.1
B(  0-O ,  1-C ) :   1.0731 B(  0-O ,  6-H ) :   0.9802 B(  1-C ,  2-C ) :   1.0364
B(  1-C ,  5-C ) :   1.0408 B(  1-C ,  7-H ) :   0.9092 B(  2-C ,  3-O ) :   0.9614
B(  2-C ,  8-H ) :   0.9291 B(  2-C ,  9-H ) :   0.9261 B(  3-O ,  4-C ) :   1.1366
B(  3-O ,  5-C ) :   0.1209 B(  4-C ,  5-C ) :   1.7223 B(  4-C , 10-H ) :   0.9856
B(  5-C , 11-H ) :   0.9891

FINAL SINGLE POINT ENERGY      -305.849848278387

DIPOLE MOMENT
-------------
                                X             Y             Z
Electronic contribution:     -0.11994       0.04756       1.78390
Nuclear contribution   :      0.28805      -0.29740      -2.46287
                        -----------------------------------------
Total Dipole Moment    :      0.16811      -0.24984      -0.67896
                        -----------------------------------------
Magnitude (a.u.)       :      0.74274
Magnitude (Debye)      :      1.88791

                             ****ORCA TERMINATED NORMALLY****
TOTAL RUN TIME: 0 days 0 hours 0 minutes 5 seconds 64 msec
