                         Program Version 3.0.3 - RELEASE   -
|  1> ! RI PBE def2-SVP def2-SVP/J NBO PAL2
|  2> % maxcore 2000
|  3> % output
|  4>     # printlevel mini
|  5>     print[ P_Basis ] 0
|  6>     print[ P_SCFInfo ] 1
|  7>     print[ P_SCFIterInfo ] 1
|  8>     print[ P_OrbEn ] 0
|  9>     print[ P_Cartesian ] 0
| 10> end
| 11> *xyz 0 1
| 12>  O        1.0936470000    -0.0610000000    -0.2115230000
| 13>  C        2.2490950000     0.0563950000     0.0636980000
| 14>  O        3.0405030000    -1.0096360000     0.3875400000
| 15>  C        4.3555590000    -0.5683730000     0.6625010000
| 16>  C        4.3200170000     0.9081930000     0.4775660000
| 17>  C        3.0915100000     1.2676080000     0.1278540000
| 18>  H        5.0532740000    -1.0598470000    -0.0247980000
| 19>  H        4.6274450000    -0.8560050000     1.6842940000
| 20>  H        5.1839730000     1.5444750000     0.6167330000
| 21>  H        2.7050770000     2.2520800000    -0.0867830000
| 22> *
| 23>
| 24>                          ****END OF INPUT****
 Total Charge           Charge          ....    0
 Multiplicity           Mult            ....    1
 Number of Electrons    NEL             ....   44
 Basis Dimension        Dim             ....  104

MULLIKEN ATOMIC CHARGES
-----------------------
   0 O :   -0.146355
   1 C :    0.163211
   2 O :   -0.257143
   3 C :    0.242685
   4 C :   -0.088378
   5 C :   -0.058837
   6 H :    0.056109
   7 H :    0.051698
   8 H :    0.024913
   9 H :    0.012097
Sum of atomic charges:   -0.0000000

LOEWDIN ATOMIC CHARGES
----------------------
   0 O :   -0.126864
   1 C :    0.032819
   2 O :   -0.071999
   3 C :    0.077894
   4 C :   -0.009003
   5 C :   -0.058256
   6 H :    0.040563
   7 H :    0.039699
   8 H :    0.035002
   9 H :    0.040144

  Mayer bond orders larger than 0.1
B(  0-O ,  1-C ) :   2.1673 B(  1-C ,  2-O ) :   1.0853 B(  1-C ,  5-C ) :   0.9696
B(  2-O ,  3-C ) :   1.0052 B(  3-C ,  4-C ) :   1.0368 B(  3-C ,  6-H ) :   0.9171
B(  3-C ,  7-H ) :   0.9169 B(  4-C ,  5-C ) :   1.7571 B(  4-C ,  8-H ) :   0.9791
B(  5-C ,  9-H ) :   1.0140

FINAL SINGLE POINT ENERGY      -304.693315912352

DIPOLE MOMENT
-------------
                                X             Y             Z
Electronic contribution:     -3.53054      -0.97742      -0.76211
Nuclear contribution   :      5.19878       1.53487       1.11118
                        -----------------------------------------
Total Dipole Moment    :      1.66824       0.55745       0.34907
                        -----------------------------------------
Magnitude (a.u.)       :      1.79321
Magnitude (Debye)      :      4.55799

                             ****ORCA TERMINATED NORMALLY****
TOTAL RUN TIME: 0 days 0 hours 0 minutes 5 seconds 3 msec
