                         Program Version 3.0.3 - RELEASE   -
|  1> ! RI PBE def2-SVP def2-SVP/J NBO PAL2
|  2> % maxcore 2000
|  3> % output
|  4>     # printlevel mini
|  5>     print[ P_Basis ] 0
|  6>     print[ P_SCFInfo ] 1
|  7>     print[ P_SCFIterInfo ] 1
|  8>     print[ P_OrbEn ] 0
|  9>     print[ P_Cartesian ] 0
| 10> end
| 11> *xyz 0 1
| 12>  O        1.2636920000     0.5095810000    -0.0169950000
| 13>  C        2.5711970000    -0.0346390000    -0.0333950000
| 14>  C        3.1443460000     0.0649790000     1.3408820000
| 15>  C        4.6358470000     0.1504530000     1.5360240000
| 16>  C        3.7831780000     1.3393710000     1.7943410000
| 17>  O        3.6598410000     1.7379690000     3.1210920000
| 18>  H        0.8671570000     0.3784410000    -0.8812860000
| 19>  H        3.2163180000     0.5126920000    -0.7367160000
| 20>  H        2.5514210000    -1.0853830000    -0.3555210000
| 21>  H        2.6010640000    -0.4772650000     2.1081110000
| 22>  H        5.2766470000     0.1545840000     0.6621710000
| 23>  H        5.0459130000    -0.3457240000     2.4060700000
| 24>  H        3.8245070000     2.1513880000     1.0701980000
| 25>  H        2.7639630000     2.0621630000     3.2497230000
| 26> *
| 27>
| 28>                          ****END OF INPUT****
 Total Charge           Charge          ....    0
 Multiplicity           Mult            ....    1
 Number of Electrons    NEL             ....   48
 Basis Dimension        Dim             ....  124

MULLIKEN ATOMIC CHARGES
-----------------------
   0 O :   -0.283043
   1 C :    0.241513
   2 C :   -0.170241
   3 C :    0.006058
   4 C :    0.054697
   5 O :   -0.237857
   6 H :    0.152182
   7 H :   -0.023523
   8 H :   -0.002554
   9 H :    0.025687
  10 H :    0.027126
  11 H :    0.036285
  12 H :    0.011503
  13 H :    0.162166
Sum of atomic charges:   -0.0000000

LOEWDIN ATOMIC CHARGES
----------------------
   0 O :   -0.134457
   1 C :    0.061825
   2 C :   -0.071705
   3 C :   -0.045795
   4 C :    0.035076
   5 O :   -0.097809
   6 H :    0.068627
   7 H :    0.002354
   8 H :    0.006653
   9 H :    0.029875
  10 H :    0.025839
  11 H :    0.034263
  12 H :    0.008195
  13 H :    0.077059

  Mayer bond orders larger than 0.1
B(  0-O ,  1-C ) :   1.0975 B(  0-O ,  6-H ) :   0.9792 B(  1-C ,  2-C ) :   1.0687
B(  1-C ,  7-H ) :   0.9111 B(  1-C ,  8-H ) :   0.9226 B(  2-C ,  3-C ) :   0.9827
B(  2-C ,  4-C ) :   0.9321 B(  2-C ,  9-H ) :   0.9356 B(  3-C ,  4-C ) :   0.9966
B(  3-C , 10-H ) :   0.9389 B(  3-C , 11-H ) :   0.9305 B(  4-C ,  5-O ) :   1.1409
B(  4-C , 12-H ) :   0.9432 B(  5-O , 13-H ) :   0.9825

FINAL SINGLE POINT ENERGY      -307.036434792287

DIPOLE MOMENT
-------------
                                X             Y             Z
Electronic contribution:     -1.42387       1.58632       1.81898
Nuclear contribution   :      1.09351      -1.74866      -2.55617
                        -----------------------------------------
Total Dipole Moment    :     -0.33036      -0.16233      -0.73719
                        -----------------------------------------
Magnitude (a.u.)       :      0.82398
Magnitude (Debye)      :      2.09439

                             ****ORCA TERMINATED NORMALLY****
TOTAL RUN TIME: 0 days 0 hours 0 minutes 5 seconds 494 msec
