                         Program Version 3.0.3 - RELEASE   -
|  1> ! RI PBE def2-SVP def2-SVP/J NBO PAL2
|  2> % maxcore 2000
|  3> % output
|  4>     # printlevel mini
|  5>     print[ P_Basis ] 0
|  6>     print[ P_SCFInfo ] 1
|  7>     print[ P_SCFIterInfo ] 1
|  8>     print[ P_OrbEn ] 0
|  9>     print[ P_Cartesian ] 0
| 10> end
| 11> *xyz 0 1
| 12>  O        2.4032470000     0.4350030000    -1.3793390000
| 13>  C        2.4385760000    -0.0001400000    -0.0338760000
| 14>  C        3.1793870000    -1.3054370000     0.0288980000
| 15>  C        3.2534540000    -2.0335430000     1.3857420000
| 16>  C        3.0892900000    -3.3664920000     0.6301110000
| 17>  C        2.5266490000    -2.5707380000    -0.5628300000
| 18>  H        1.9022720000     1.2519910000    -1.4254390000
| 19>  H        1.4205070000    -0.1424420000     0.3598660000
| 20>  H        2.9414970000     0.7401740000     0.6067980000
| 21>  H        4.1822490000    -1.1677290000    -0.3874550000
| 22>  H        2.3728900000    -1.8129730000     1.9966270000
| 23>  H        4.1459110000    -1.8914130000     1.9974180000
| 24>  H        2.4566310000    -4.1331370000     1.0797990000
| 25>  H        4.0582620000    -3.8114660000     0.3933760000
| 26>  H        1.4361070000    -2.4991510000    -0.5197710000
| 27>  H        2.8158710000    -2.8721140000    -1.5697260000
| 28> *
| 29>
| 30>                          ****END OF INPUT****
 Total Charge           Charge          ....    0
 Multiplicity           Mult            ....    1
 Number of Electrons    NEL             ....   48
 Basis Dimension        Dim             ....  134

MULLIKEN ATOMIC CHARGES
-----------------------
   0 O :   -0.278104
   1 C :    0.227384
   2 C :   -0.217251
   3 C :    0.034146
   4 C :   -0.023769
   5 C :    0.054247
   6 H :    0.153235
   7 H :   -0.023202
   8 H :   -0.004688
   9 H :    0.009696
  10 H :    0.005263
  11 H :    0.015822
  12 H :    0.011836
  13 H :    0.015498
  14 H :    0.005762
  15 H :    0.014126
Sum of atomic charges:   -0.0000000

LOEWDIN ATOMIC CHARGES
----------------------
   0 O :   -0.130108
   1 C :    0.053173
   2 C :   -0.047133
   3 C :   -0.030801
   4 C :   -0.035872
   5 C :   -0.027811
   6 H :    0.069480
   7 H :   -0.001031
   8 H :    0.003740
   9 H :    0.027282
  10 H :    0.021719
  11 H :    0.016159
  12 H :    0.015673
  13 H :    0.024256
  14 H :    0.023290
  15 H :    0.017984

  Mayer bond orders larger than 0.1
B(  0-O ,  1-C ) :   1.1103 B(  0-O ,  6-H ) :   0.9803 B(  1-C ,  2-C ) :   1.0737
B(  1-C ,  7-H ) :   0.9076 B(  1-C ,  8-H ) :   0.9272 B(  2-C ,  3-C ) :   1.0645
B(  2-C ,  5-C ) :   1.0741 B(  2-C ,  9-H ) :   0.9026 B(  3-C ,  4-C ) :   1.1246
B(  3-C , 10-H ) :   0.9172 B(  3-C , 11-H ) :   0.9346 B(  4-C ,  5-C ) :   1.1239
B(  4-C , 12-H ) :   0.9354 B(  4-C , 13-H ) :   0.9330 B(  5-C , 14-H ) :   0.9196
B(  5-C , 15-H ) :   0.9359

FINAL SINGLE POINT ENERGY      -271.182775285647

DIPOLE MOMENT
-------------
                                X             Y             Z
Electronic contribution:     -0.06861       2.46065      -2.25504
Nuclear contribution   :     -0.17377      -2.12947       2.58628
                        -----------------------------------------
Total Dipole Moment    :     -0.24238       0.33118       0.33125
                        -----------------------------------------
Magnitude (a.u.)       :      0.52740
Magnitude (Debye)      :      1.34054

                             ****ORCA TERMINATED NORMALLY****
TOTAL RUN TIME: 0 days 0 hours 0 minutes 6 seconds 620 msec
