                         Program Version 3.0.3 - RELEASE   -
|  1> ! RI PBE def2-SVP def2-SVP/J NBO PAL2
|  2> % maxcore 2000
|  3> % output
|  4>     # printlevel mini
|  5>     print[ P_Basis ] 0
|  6>     print[ P_SCFInfo ] 1
|  7>     print[ P_SCFIterInfo ] 1
|  8>     print[ P_OrbEn ] 0
|  9>     print[ P_Cartesian ] 0
| 10> end
| 11> *xyz 0 1
| 12>  O        2.5481340000     0.6279590000    -0.9198120000
| 13>  C        2.0634910000    -0.0395110000    -0.0474910000
| 14>  C        2.8045860000    -0.6491500000     1.0932510000
| 15>  C        2.2417060000    -0.3935630000     2.5137980000
| 16>  C        2.5381670000    -1.8624770000     2.8619740000
| 17>  C        2.5776090000    -2.1592970000     1.3530040000
| 18>  H        0.9676490000    -0.2522010000    -0.0425110000
| 19>  H        3.8636970000    -0.3976100000     1.0174310000
| 20>  H        1.1657170000    -0.2005460000     2.4771010000
| 21>  H        2.7181330000     0.3917130000     3.1008830000
| 22>  H        1.8099130000    -2.4006020000     3.4697430000
| 23>  H        3.5240540000    -1.9742150000     3.3173920000
| 24>  H        1.5982870000    -2.4749580000     0.9819380000
| 25>  H        3.3337380000    -2.8461300000     0.9723980000
| 26> *
| 27>
| 28>                          ****END OF INPUT****
 Total Charge           Charge          ....    0
 Multiplicity           Mult            ....    1
 Number of Electrons    NEL             ....   46
 Basis Dimension        Dim             ....  124

MULLIKEN ATOMIC CHARGES
-----------------------
   0 O :   -0.147268
   1 C :    0.151702
   2 C :   -0.199681
   3 C :    0.047647
   4 C :   -0.022020
   5 C :    0.048924
   6 H :   -0.028134
   7 H :    0.016991
   8 H :    0.014822
   9 H :    0.029508
  10 H :    0.020199
  11 H :    0.023248
  12 H :    0.011913
  13 H :    0.032149
Sum of atomic charges:   -0.0000000

LOEWDIN ATOMIC CHARGES
----------------------
   0 O :   -0.102637
   1 C :    0.081666
   2 C :   -0.072828
   3 C :   -0.015858
   4 C :   -0.033037
   5 C :   -0.015941
   6 H :   -0.017529
   7 H :    0.033106
   8 H :    0.025201
   9 H :    0.023023
  10 H :    0.019073
  11 H :    0.027533
  12 H :    0.024647
  13 H :    0.023580

  Mayer bond orders larger than 0.1
B(  0-O ,  1-C ) :   2.1982 B(  1-C ,  2-C ) :   0.9678 B(  1-C ,  6-H ) :   0.9102
B(  2-C ,  3-C ) :   1.0334 B(  2-C ,  5-C ) :   1.0356 B(  2-C ,  7-H ) :   0.9119
B(  3-C ,  4-C ) :   1.1178 B(  3-C ,  8-H ) :   0.9237 B(  3-C ,  9-H ) :   0.9344
B(  4-C ,  5-C ) :   1.1173 B(  4-C , 10-H ) :   0.9363 B(  4-C , 11-H ) :   0.9333
B(  5-C , 12-H ) :   0.9232 B(  5-C , 13-H ) :   0.9345

FINAL SINGLE POINT ENERGY      -269.988235584428

DIPOLE MOMENT
-------------
                                X             Y             Z
Electronic contribution:      0.48299       3.42280      -5.06593
Nuclear contribution   :     -0.63746      -4.01994       5.92435
                        -----------------------------------------
Total Dipole Moment    :     -0.15447      -0.59714       0.85843
                        -----------------------------------------
Magnitude (a.u.)       :      1.05704
Magnitude (Debye)      :      2.68679

                             ****ORCA TERMINATED NORMALLY****
TOTAL RUN TIME: 0 days 0 hours 0 minutes 5 seconds 376 msec
