                         Program Version 3.0.3 - RELEASE   -
|  1> ! RI PBE def2-SVP def2-SVP/J NBO PAL2
|  2> % maxcore 2000
|  3> % output
|  4>     # printlevel mini
|  5>     print[ P_Basis ] 0
|  6>     print[ P_SCFInfo ] 1
|  7>     print[ P_SCFIterInfo ] 1
|  8>     print[ P_OrbEn ] 0
|  9>     print[ P_Cartesian ] 0
| 10> end
| 11> *xyz 0 1
| 12>  O        3.2963960000     0.3483270000    -0.8347120000
| 13>  C        2.2955610000    -0.1448520000     0.0256610000
| 14>  C        2.8844020000    -1.2100770000     0.9046020000
| 15>  C        1.9443960000    -1.8539090000     1.9282140000
| 16>  C        2.3727250000    -3.1673410000     1.2712920000
| 17>  O        3.0835140000    -2.4710420000     0.2400940000
| 18>  H        2.8847740000     0.8867330000    -1.5134460000
| 19>  H        1.4555050000    -0.5781090000    -0.5338810000
| 20>  H        1.9004640000     0.6503440000     0.6783070000
| 21>  H        3.8291740000    -0.8445110000     1.3267350000
| 22>  H        0.8939820000    -1.6015770000     1.7732030000
| 23>  H        2.1986190000    -1.7197160000     2.9782590000
| 24>  H        1.5779100000    -3.8005520000     0.8668640000
| 25>  H        3.0450780000    -3.7826090000     1.8799170000
| 26> *
| 27>
| 28>                          ****END OF INPUT****
 Total Charge           Charge          ....    0
 Multiplicity           Mult            ....    1
 Number of Electrons    NEL             ....   48
 Basis Dimension        Dim             ....  124

MULLIKEN ATOMIC CHARGES
-----------------------
   0 O :   -0.270764
   1 C :    0.223219
   2 C :    0.045609
   3 C :   -0.050146
   4 C :    0.189700
   5 O :   -0.347811
   6 H :    0.155870
   7 H :   -0.014071
   8 H :   -0.010233
   9 H :    0.004176
  10 H :    0.016275
  11 H :    0.029819
  12 H :    0.015912
  13 H :    0.012445
Sum of atomic charges:    0.0000000

LOEWDIN ATOMIC CHARGES
----------------------
   0 O :   -0.121668
   1 C :    0.042731
   2 C :    0.058379
   3 C :   -0.052219
   4 C :    0.082760
   5 O :   -0.178518
   6 H :    0.071913
   7 H :    0.006190
   8 H :    0.006058
   9 H :    0.013670
  10 H :    0.026085
  11 H :    0.026215
  12 H :    0.009720
  13 H :    0.008684

  Mayer bond orders larger than 0.1
B(  0-O ,  1-C ) :   1.1211 B(  0-O ,  6-H ) :   0.9790 B(  1-C ,  2-C ) :   1.0418
B(  1-C ,  7-H ) :   0.9084 B(  1-C ,  8-H ) :   0.9169 B(  2-C ,  3-C ) :   1.0757
B(  2-C ,  5-O ) :   1.0496 B(  2-C ,  9-H ) :   0.9031 B(  3-C ,  4-C ) :   1.1163
B(  3-C , 10-H ) :   0.9259 B(  3-C , 11-H ) :   0.9398 B(  4-C ,  5-O ) :   1.0327
B(  4-C , 12-H ) :   0.9408 B(  4-C , 13-H ) :   0.9349

FINAL SINGLE POINT ENERGY      -307.032769384562

DIPOLE MOMENT
-------------
                                X             Y             Z
Electronic contribution:      2.38856       0.14171      -2.53933
Nuclear contribution   :     -3.23776       0.22992       2.91494
                        -----------------------------------------
Total Dipole Moment    :     -0.84920       0.37162       0.37561
                        -----------------------------------------
Magnitude (a.u.)       :      1.00017
Magnitude (Debye)      :      2.54222

                             ****ORCA TERMINATED NORMALLY****
TOTAL RUN TIME: 0 days 0 hours 0 minutes 5 seconds 866 msec
