                         Program Version 3.0.3 - RELEASE   -
|  1> ! RI PBE def2-SVP def2-SVP/J NBO PAL2
|  2> % maxcore 2000
|  3> % output
|  4>     # printlevel mini
|  5>     print[ P_Basis ] 0
|  6>     print[ P_SCFInfo ] 1
|  7>     print[ P_SCFIterInfo ] 1
|  8>     print[ P_OrbEn ] 0
|  9>     print[ P_Cartesian ] 0
| 10> end
| 11> *xyz 0 1
| 12>  O        2.1734230000     0.8608320000     0.2694140000
| 13>  C        2.0389370000    -0.3100330000     0.0484290000
| 14>  C        3.1969190000    -1.2471360000    -0.1710250000
| 15>  C        4.0725440000    -1.5495920000     1.0565840000
| 16>  C        3.6512240000    -2.9999160000     0.8053340000
| 17>  O        2.7897000000    -2.6122300000    -0.2788270000
| 18>  H        1.0391690000    -0.7949100000     0.0011470000
| 19>  H        3.7539110000    -0.9073740000    -1.0540220000
| 20>  H        3.7105240000    -1.1111010000     1.9856650000
| 21>  H        5.1307970000    -1.3268820000     0.9400930000
| 22>  H        3.0941840000    -3.4901010000     1.6083880000
| 23>  H        4.4509680000    -3.6633670000     0.4630200000
| 24> *
| 25>
| 26>                          ****END OF INPUT****
 Total Charge           Charge          ....    0
 Multiplicity           Mult            ....    1
 Number of Electrons    NEL             ....   46
 Basis Dimension        Dim             ....  114

MULLIKEN ATOMIC CHARGES
-----------------------
   0 O :   -0.162287
   1 C :    0.131417
   2 C :    0.073172
   3 C :   -0.036783
   4 C :    0.185163
   5 O :   -0.350953
   6 H :    0.000133
   7 H :    0.035344
   8 H :    0.031296
   9 H :    0.041885
  10 H :    0.025793
  11 H :    0.025821
Sum of atomic charges:    0.0000000

LOEWDIN ATOMIC CHARGES
----------------------
   0 O :   -0.100623
   1 C :    0.082735
   2 C :    0.025969
   3 C :   -0.034164
   4 C :    0.088104
   5 O :   -0.175801
   6 H :   -0.009258
   7 H :    0.030204
   8 H :    0.031338
   9 H :    0.033227
  10 H :    0.014065
  11 H :    0.014203

  Mayer bond orders larger than 0.1
B(  0-O ,  1-C ) :   2.1720 B(  1-C ,  2-C ) :   0.9091 B(  1-C ,  6-H ) :   0.9194
B(  2-C ,  3-C ) :   1.0934 B(  2-C ,  5-O ) :   1.0336 B(  2-C ,  7-H ) :   0.8863
B(  3-C ,  4-C ) :   1.1076 B(  3-C ,  8-H ) :   0.9334 B(  3-C ,  9-H ) :   0.9388
B(  4-C ,  5-O ) :   1.0183 B(  4-C , 10-H ) :   0.9423 B(  4-C , 11-H ) :   0.9380

FINAL SINGLE POINT ENERGY      -305.835118503092

DIPOLE MOMENT
-------------
                                X             Y             Z
Electronic contribution:     -2.49688       2.61722      -1.75453
Nuclear contribution   :      3.08977      -3.21031       2.07572
                        -----------------------------------------
Total Dipole Moment    :      0.59289      -0.59309       0.32119
                        -----------------------------------------
Magnitude (a.u.)       :      0.89802
Magnitude (Debye)      :      2.28259

                             ****ORCA TERMINATED NORMALLY****
TOTAL RUN TIME: 0 days 0 hours 0 minutes 5 seconds 523 msec
