                         Program Version 3.0.3 - RELEASE   -
|  1> ! RI PBE def2-SVP def2-SVP/J NBO PAL2
|  2> % maxcore 2000
|  3> % output
|  4>     # printlevel mini
|  5>     print[ P_Basis ] 0
|  6>     print[ P_SCFInfo ] 1
|  7>     print[ P_SCFIterInfo ] 1
|  8>     print[ P_OrbEn ] 0
|  9>     print[ P_Cartesian ] 0
| 10> end
| 11> *xyz 0 1
| 12>  O        2.4129590000    -1.1550320000     0.7689000000
| 13>  C        2.4046680000    -0.0447400000    -0.1044650000
| 14>  C        3.0203110000     1.1224540000     0.6182790000
| 15>  C        2.8648420000     2.4722250000    -0.0897740000
| 16>  O        1.9333350000     2.9362750000     0.8941570000
| 17>  C        2.1412500000     1.7631900000     1.6971450000
| 18>  H        1.9662760000    -1.8890360000     0.3416960000
| 19>  H        1.3791770000     0.2162350000    -0.4052710000
| 20>  H        2.9779610000    -0.2557130000    -1.0193210000
| 21>  H        4.0329450000     0.8693620000     0.9352080000
| 22>  H        2.4231130000     2.4427760000    -1.0926180000
| 23>  H        3.7696990000     3.0891100000    -0.1174030000
| 24>  H        1.2050950000     1.2421930000     1.9198960000
| 25>  H        2.6539780000     2.0018800000     2.6346810000
| 26> *
| 27>
| 28>                          ****END OF INPUT****
 Total Charge           Charge          ....    0
 Multiplicity           Mult            ....    1
 Number of Electrons    NEL             ....   48
 Basis Dimension        Dim             ....  124

MULLIKEN ATOMIC CHARGES
-----------------------
   0 O :   -0.278027
   1 C :    0.222840
   2 C :   -0.292003
   3 C :    0.254950
   4 O :   -0.366994
   5 C :    0.263806
   6 H :    0.157225
   7 H :   -0.008056
   8 H :   -0.000740
   9 H :    0.021796
  10 H :   -0.001320
  11 H :    0.010635
  12 H :    0.007995
  13 H :    0.007892
Sum of atomic charges:    0.0000000

LOEWDIN ATOMIC CHARGES
----------------------
   0 O :   -0.127001
   1 C :    0.059790
   2 C :   -0.068618
   3 C :    0.088722
   4 O :   -0.188978
   5 C :    0.091884
   6 H :    0.072585
   7 H :    0.004930
   8 H :    0.004739
   9 H :    0.026497
  10 H :    0.006397
  11 H :    0.009492
  12 H :    0.009767
  13 H :    0.009795

  Mayer bond orders larger than 0.1
B(  0-O ,  1-C ) :   1.1002 B(  0-O ,  6-H ) :   0.9785 B(  1-C ,  2-C ) :   1.0378
B(  1-C ,  7-H ) :   0.9194 B(  1-C ,  8-H ) :   0.9249 B(  2-C ,  3-C ) :   1.0649
B(  2-C ,  5-C ) :   1.0777 B(  2-C ,  9-H ) :   0.9224 B(  3-C ,  4-O ) :   1.0425
B(  3-C , 10-H ) :   0.9272 B(  3-C , 11-H ) :   0.9280 B(  4-O ,  5-C ) :   1.0308
B(  5-C , 12-H ) :   0.9308 B(  5-C , 13-H ) :   0.9310

FINAL SINGLE POINT ENERGY      -307.030351236431

DIPOLE MOMENT
-------------
                                X             Y             Z
Electronic contribution:     -0.66971       0.57825       1.15209
Nuclear contribution   :      0.78979      -1.29404      -1.70616
                        -----------------------------------------
Total Dipole Moment    :      0.12008      -0.71579      -0.55406
                        -----------------------------------------
Magnitude (a.u.)       :      0.91311
Magnitude (Debye)      :      2.32093

                             ****ORCA TERMINATED NORMALLY****
TOTAL RUN TIME: 0 days 0 hours 0 minutes 5 seconds 733 msec
