                         Program Version 3.0.3 - RELEASE   -
|  1> ! RI PBE def2-SVP def2-SVP/J NBO PAL2
|  2> % maxcore 2000
|  3> % output
|  4>     # printlevel mini
|  5>     print[ P_Basis ] 0
|  6>     print[ P_SCFInfo ] 1
|  7>     print[ P_SCFIterInfo ] 1
|  8>     print[ P_OrbEn ] 0
|  9>     print[ P_Cartesian ] 0
| 10> end
| 11> *xyz 0 1
| 12>  O        1.0494180000    -0.1624740000     0.3572860000
| 13>  C        2.2092450000     0.0930840000     0.1903950000
| 14>  C        2.8589650000     0.2893130000    -1.1402680000
| 15>  C        3.7618230000     1.5343620000    -1.2245530000
| 16>  O        4.9517760000     0.7438840000    -1.2834170000
| 17>  C        4.1904210000    -0.4662250000    -1.3103120000
| 18>  H        2.8990640000     0.2036750000     1.0587730000
| 19>  H        2.1265460000     0.1665310000    -1.9359720000
| 20>  H        3.7505950000     2.1950390000    -0.3509870000
| 21>  H        3.6155210000     2.1315940000    -2.1296610000
| 22>  H        4.4657310000    -1.1425020000    -0.4939070000
| 23>  H        4.2854040000    -0.9946710000    -2.2636980000
| 24> *
| 25>
| 26>                          ****END OF INPUT****
 Total Charge           Charge          ....    0
 Multiplicity           Mult            ....    1
 Number of Electrons    NEL             ....   46
 Basis Dimension        Dim             ....  114

MULLIKEN ATOMIC CHARGES
-----------------------
   0 O :   -0.144397
   1 C :    0.144279
   2 C :   -0.265511
   3 C :    0.251822
   4 O :   -0.356295
   5 C :    0.253235
   6 H :   -0.008074
   7 H :    0.032356
   8 H :    0.019517
   9 H :    0.026848
  10 H :    0.020371
  11 H :    0.025849
Sum of atomic charges:   -0.0000000

LOEWDIN ATOMIC CHARGES
----------------------
   0 O :   -0.096576
   1 C :    0.087032
   2 C :   -0.095459
   3 C :    0.100070
   4 O :   -0.180042
   5 C :    0.100822
   6 H :   -0.009561
   7 H :    0.034611
   8 H :    0.012226
   9 H :    0.017373
  10 H :    0.012374
  11 H :    0.017130

  Mayer bond orders larger than 0.1
B(  0-O ,  1-C ) :   2.1910 B(  1-C ,  2-C ) :   0.9377 B(  1-C ,  6-H ) :   0.9233
B(  2-C ,  3-C ) :   1.0350 B(  2-C ,  5-C ) :   1.0335 B(  2-C ,  7-H ) :   0.9184
B(  3-C ,  4-O ) :   1.0409 B(  3-C ,  8-H ) :   0.9345 B(  3-C ,  9-H ) :   0.9279
B(  4-O ,  5-C ) :   1.0393 B(  5-C , 10-H ) :   0.9348 B(  5-C , 11-H ) :   0.9284

FINAL SINGLE POINT ENERGY      -305.833797496802

DIPOLE MOMENT
-------------
                                X             Y             Z
Electronic contribution:     -1.69030      -0.41985       1.28611
Nuclear contribution   :      1.93347       0.48385      -1.62085
                        -----------------------------------------
Total Dipole Moment    :      0.24316       0.06400      -0.33475
                        -----------------------------------------
Magnitude (a.u.)       :      0.41867
Magnitude (Debye)      :      1.06416

                             ****ORCA TERMINATED NORMALLY****
TOTAL RUN TIME: 0 days 0 hours 0 minutes 5 seconds 523 msec
