                         Program Version 3.0.3 - RELEASE   -
|  1> ! RI PBE def2-SVP def2-SVP/J NBO PAL2
|  2> % maxcore 2000
|  3> % output
|  4>     # printlevel mini
|  5>     print[ P_Basis ] 0
|  6>     print[ P_SCFInfo ] 1
|  7>     print[ P_SCFIterInfo ] 1
|  8>     print[ P_OrbEn ] 0
|  9>     print[ P_Cartesian ] 0
| 10> end
| 11> *xyz 0 1
| 12>  O        2.1742230000    -0.1949150000    -1.5608910000
| 13>  C        2.2638640000    -0.0030130000    -0.1666150000
| 14>  C        2.8377370000    -1.2351930000     0.4822160000
| 15>  O        2.9397650000    -1.0948010000     1.8692460000
| 16>  C        2.5655140000    -2.5926800000    -0.0775270000
| 17>  C        3.9440950000    -1.9837930000    -0.1641320000
| 18>  H        1.9243160000     0.6362820000    -1.9681390000
| 19>  H        1.2712850000     0.1934310000     0.2692820000
| 20>  H        2.9127700000     0.8469660000     0.0839260000
| 21>  H        2.0653560000    -1.2245590000     2.2481920000
| 22>  H        1.9873910000    -2.6593090000    -0.9902830000
| 23>  H        2.4197630000    -3.3955180000     0.6349610000
| 24>  H        4.2834390000    -1.6471650000    -1.1351180000
| 25>  H        4.7053830000    -2.3746440000     0.4985910000
| 26> *
| 27>
| 28>                          ****END OF INPUT****
 Total Charge           Charge          ....    0
 Multiplicity           Mult            ....    1
 Number of Electrons    NEL             ....   48
 Basis Dimension        Dim             ....  124

MULLIKEN ATOMIC CHARGES
-----------------------
   0 O :   -0.271881
   1 C :    0.248748
   2 C :   -0.137005
   3 O :   -0.240267
   4 C :   -0.026269
   5 C :   -0.002822
   6 H :    0.160453
   7 H :   -0.021415
   8 H :    0.003382
   9 H :    0.157600
  10 H :    0.036398
  11 H :    0.024037
  12 H :    0.032904
  13 H :    0.036137
Sum of atomic charges:    0.0000000

LOEWDIN ATOMIC CHARGES
----------------------
   0 O :   -0.120194
   1 C :    0.053763
   2 C :   -0.011695
   3 O :   -0.087617
   4 C :   -0.058498
   5 C :   -0.042234
   6 H :    0.075073
   7 H :   -0.000432
   8 H :    0.009271
   9 H :    0.071618
  10 H :    0.027870
  11 H :    0.025169
  12 H :    0.027395
  13 H :    0.030512

  Mayer bond orders larger than 0.1
B(  0-O ,  1-C ) :   1.0897 B(  0-O ,  6-H ) :   0.9751 B(  1-C ,  2-C ) :   1.0218
B(  1-C ,  7-H ) :   0.9136 B(  1-C ,  8-H ) :   0.9241 B(  2-C ,  3-O ) :   1.0879
B(  2-C ,  4-C ) :   0.9879 B(  2-C ,  5-C ) :   0.9759 B(  3-O ,  9-H ) :   0.9800
B(  4-C ,  5-C ) :   1.0228 B(  4-C , 10-H ) :   0.9307 B(  4-C , 11-H ) :   0.9391
B(  5-C , 12-H ) :   0.9391 B(  5-C , 13-H ) :   0.9392

FINAL SINGLE POINT ENERGY      -307.039754194446

DIPOLE MOMENT
-------------
                                X             Y             Z
Electronic contribution:     -0.15685       0.95689       0.73375
Nuclear contribution   :     -0.47198      -0.48135      -0.79881
                        -----------------------------------------
Total Dipole Moment    :     -0.62883       0.47555      -0.06506
                        -----------------------------------------
Magnitude (a.u.)       :      0.79108
Magnitude (Debye)      :      2.01076

                             ****ORCA TERMINATED NORMALLY****
TOTAL RUN TIME: 0 days 0 hours 0 minutes 5 seconds 566 msec
