                         Program Version 3.0.3 - RELEASE   -
|  1> ! RI PBE def2-SVP def2-SVP/J NBO PAL2
|  2> % maxcore 2000
|  3> % output
|  4>     # printlevel mini
|  5>     print[ P_Basis ] 0
|  6>     print[ P_SCFInfo ] 1
|  7>     print[ P_SCFIterInfo ] 1
|  8>     print[ P_OrbEn ] 0
|  9>     print[ P_Cartesian ] 0
| 10> end
| 11> *xyz 0 1
| 12>  O        2.3828000000    -1.0962740000    -0.4591560000
| 13>  C        2.2212220000    -0.0073050000     0.4309660000
| 14>  C        3.0510850000     1.1506780000    -0.0774530000
| 15>  C        4.5285000000     0.8707530000    -0.0693430000
| 16>  C        5.5068150000     2.0004490000    -0.0080390000
| 17>  C        5.3253860000     1.1001920000     1.1788930000
| 18>  H        1.9165980000    -1.8553820000    -0.1035000000
| 19>  H        2.5520540000    -0.2782250000     1.4436080000
| 20>  H        1.1655640000     0.2926320000     0.4891380000
| 21>  H        2.8406440000     2.0269870000     0.5463810000
| 22>  H        2.7201640000     1.3965240000    -1.0927240000
| 23>  H        4.8224500000     0.0151990000    -0.6672190000
| 24>  H        5.1086410000     3.0065820000     0.0595190000
| 25>  H        6.4253470000     1.9219280000    -0.5762480000
| 26>  H        4.8068580000     1.5049320000     2.0410520000
| 27>  H        6.1197630000     0.4057290000     1.4225360000
| 28> *
| 29>
| 30>                          ****END OF INPUT****
 Total Charge           Charge          ....    0
 Multiplicity           Mult            ....    1
 Number of Electrons    NEL             ....   48
 Basis Dimension        Dim             ....  134

MULLIKEN ATOMIC CHARGES
-----------------------
   0 O :   -0.284574
   1 C :    0.155776
   2 C :    0.069168
   3 C :   -0.155965
   4 C :   -0.031589
   5 C :   -0.039071
   6 H :    0.154191
   7 H :   -0.010817
   8 H :   -0.002192
   9 H :   -0.012079
  10 H :    0.014457
  11 H :    0.028116
  12 H :    0.026742
  13 H :    0.032417
  14 H :    0.024250
  15 H :    0.031170
Sum of atomic charges:   -0.0000000

LOEWDIN ATOMIC CHARGES
----------------------
   0 O :   -0.130838
   1 C :    0.058079
   2 C :   -0.043782
   3 C :   -0.043013
   4 C :   -0.048182
   5 C :   -0.050555
   6 H :    0.070326
   7 H :    0.002732
   8 H :    0.002628
   9 H :    0.027291
  10 H :    0.029993
  11 H :    0.028138
  12 H :    0.023881
  13 H :    0.026088
  14 H :    0.021297
  15 H :    0.025917

  Mayer bond orders larger than 0.1
B(  0-O ,  1-C ) :   1.0840 B(  0-O ,  6-H ) :   0.9811 B(  1-C ,  2-C ) :   1.0983
B(  1-C ,  7-H ) :   0.9282 B(  1-C ,  8-H ) :   0.9331 B(  2-C ,  3-C ) :   1.0850
B(  2-C ,  9-H ) :   0.9106 B(  2-C , 10-H ) :   0.9190 B(  3-C ,  4-C ) :   0.9917
B(  3-C ,  5-C ) :   0.9961 B(  3-C , 11-H ) :   0.9443 B(  4-C ,  5-C ) :   1.0493
B(  4-C , 12-H ) :   0.9464 B(  4-C , 13-H ) :   0.9469 B(  5-C , 14-H ) :   0.9463
B(  5-C , 15-H ) :   0.9481

FINAL SINGLE POINT ENERGY      -271.179911056348

DIPOLE MOMENT
-------------
                                X             Y             Z
Electronic contribution:     -1.04629      -2.33922      -1.41893
Nuclear contribution   :      0.70879       2.18281       1.83862
                        -----------------------------------------
Total Dipole Moment    :     -0.33750      -0.15641       0.41969
                        -----------------------------------------
Magnitude (a.u.)       :      0.56081
Magnitude (Debye)      :      1.42547

                             ****ORCA TERMINATED NORMALLY****
TOTAL RUN TIME: 0 days 0 hours 0 minutes 6 seconds 90 msec
