                         Program Version 3.0.3 - RELEASE   -
|  1> ! RI PBE def2-SVP def2-SVP/J NBO PAL2
|  2> % maxcore 2000
|  3> % output
|  4>     # printlevel mini
|  5>     print[ P_Basis ] 0
|  6>     print[ P_SCFInfo ] 1
|  7>     print[ P_SCFIterInfo ] 1
|  8>     print[ P_OrbEn ] 0
|  9>     print[ P_Cartesian ] 0
| 10> end
| 11> *xyz 0 1
| 12>  O        2.5773140000     0.3310230000     0.9375540000
| 13>  C        2.1619930000    -0.2401980000    -0.0321220000
| 14>  C        2.9936130000    -1.0624610000    -0.9740380000
| 15>  C        4.4624330000    -1.0639690000    -0.6802220000
| 16>  C        5.4346440000    -1.4673780000    -1.7455330000
| 17>  C        5.3512090000    -0.0364940000    -1.3065300000
| 18>  H        1.0792510000    -0.2003670000    -0.2882960000
| 19>  H        2.7896420000    -0.7025880000    -1.9915750000
| 20>  H        2.5721910000    -2.0786480000    -0.9494020000
| 21>  H        4.7129430000    -1.3463690000     0.3360690000
| 22>  H        5.0385870000    -1.7211780000    -2.7222160000
| 23>  H        6.3038710000    -2.0438280000    -1.4549290000
| 24>  H        4.8970510000     0.6756910000    -1.9857110000
| 25>  H        6.1597600000     0.3690550000    -0.7122600000
| 26> *
| 27>
| 28>                          ****END OF INPUT****
 Total Charge           Charge          ....    0
 Multiplicity           Mult            ....    1
 Number of Electrons    NEL             ....   46
 Basis Dimension        Dim             ....  124

MULLIKEN ATOMIC CHARGES
-----------------------
   0 O :   -0.154077
   1 C :    0.077983
   2 C :    0.076241
   3 C :   -0.145629
   4 C :   -0.031022
   5 C :   -0.025805
   6 H :   -0.012291
   7 H :    0.014846
   8 H :    0.039097
   9 H :    0.029070
  10 H :    0.025522
  11 H :    0.035764
  12 H :    0.030882
  13 H :    0.039419
Sum of atomic charges:   -0.0000000

LOEWDIN ATOMIC CHARGES
----------------------
   0 O :   -0.106066
   1 C :    0.091213
   2 C :   -0.076790
   3 C :   -0.041914
   4 C :   -0.045574
   5 C :   -0.039357
   6 H :   -0.013852
   7 H :    0.044180
   8 H :    0.049596
   9 H :    0.031089
  10 H :    0.023968
  11 H :    0.028403
  12 H :    0.024756
  13 H :    0.030348

  Mayer bond orders larger than 0.1
B(  0-O ,  1-C ) :   2.2036 B(  1-C ,  2-C ) :   0.9602 B(  1-C ,  6-H ) :   0.9252
B(  2-C ,  3-C ) :   1.0637 B(  2-C ,  7-H ) :   0.8957 B(  2-C ,  8-H ) :   0.8967
B(  3-C ,  4-C ) :   0.9898 B(  3-C ,  5-C ) :   0.9984 B(  3-C ,  9-H ) :   0.9438
B(  4-C ,  5-C ) :   1.0466 B(  4-C , 10-H ) :   0.9465 B(  4-C , 11-H ) :   0.9467
B(  5-C , 12-H ) :   0.9514 B(  5-C , 13-H ) :   0.9490

FINAL SINGLE POINT ENERGY      -269.985295020100

DIPOLE MOMENT
-------------
                                X             Y             Z
Electronic contribution:     -2.96931       1.79440       3.78612
Nuclear contribution   :      2.89745      -2.28979      -4.52317
                        -----------------------------------------
Total Dipole Moment    :     -0.07186      -0.49540      -0.73704
                        -----------------------------------------
Magnitude (a.u.)       :      0.89096
Magnitude (Debye)      :      2.26464

                             ****ORCA TERMINATED NORMALLY****
TOTAL RUN TIME: 0 days 0 hours 0 minutes 6 seconds 131 msec
