                         Program Version 3.0.3 - RELEASE   -
|  1> ! RI PBE def2-SVP def2-SVP/J NBO PAL2
|  2> % maxcore 2000
|  3> % output
|  4>     # printlevel mini
|  5>     print[ P_Basis ] 0
|  6>     print[ P_SCFInfo ] 1
|  7>     print[ P_SCFIterInfo ] 1
|  8>     print[ P_OrbEn ] 0
|  9>     print[ P_Cartesian ] 0
| 10> end
| 11> *xyz 0 1
| 12>  O        2.5607770000     0.3493460000    -1.3593940000
| 13>  C        2.2997000000    -0.1987090000    -0.0807510000
| 14>  C        3.2204970000     0.4723750000     0.9156780000
| 15>  C        4.6639620000     0.1568710000     0.6644110000
| 16>  C        5.6251490000     0.0246270000     1.7524480000
| 17>  O        5.1097080000    -1.1240150000     1.0998440000
| 18>  H        2.0825500000    -0.1595910000    -2.0169900000
| 19>  H        2.4810640000    -1.2814630000    -0.0701310000
| 20>  H        1.2547620000    -0.0275310000     0.2111220000
| 21>  H        2.9526550000     0.1468310000     1.9251990000
| 22>  H        3.0701850000     1.5561120000     0.8622380000
| 23>  H        5.0396680000     0.4386740000    -0.3168830000
| 24>  H        5.2886180000     0.1658380000     2.7776100000
| 25>  H        6.6783160000     0.2284360000     1.5747100000
| 26> *
| 27>
| 28>                          ****END OF INPUT****
 Total Charge           Charge          ....    0
 Multiplicity           Mult            ....    1
 Number of Electrons    NEL             ....   48
 Basis Dimension        Dim             ....  124

MULLIKEN ATOMIC CHARGES
-----------------------
   0 O :   -0.286320
   1 C :    0.130151
   2 C :    0.068290
   3 C :   -0.025041
   4 C :    0.143941
   5 O :   -0.300059
   6 H :    0.157658
   7 H :    0.015488
   8 H :    0.000941
   9 H :   -0.004654
  10 H :    0.027474
  11 H :    0.023237
  12 H :    0.020095
  13 H :    0.028798
Sum of atomic charges:   -0.0000000

LOEWDIN ATOMIC CHARGES
----------------------
   0 O :   -0.131138
   1 C :    0.059025
   2 C :   -0.059653
   3 C :    0.043350
   4 C :    0.052890
   5 O :   -0.164735
   6 H :    0.072542
   7 H :    0.009999
   8 H :    0.004011
   9 H :    0.033542
  10 H :    0.036276
  11 H :    0.016888
  12 H :    0.011889
  13 H :    0.015114

  Mayer bond orders larger than 0.1
B(  0-O ,  1-C ) :   1.0816 B(  0-O ,  6-H ) :   0.9804 B(  1-C ,  2-C ) :   1.0892
B(  1-C ,  7-H ) :   0.9331 B(  1-C ,  8-H ) :   0.9363 B(  2-C ,  3-C ) :   1.0568
B(  2-C ,  9-H ) :   0.9048 B(  2-C , 10-H ) :   0.9173 B(  3-C ,  4-C ) :   1.0904
B(  3-C ,  5-O ) :   0.9576 B(  3-C , 11-H ) :   0.9359 B(  4-C ,  5-O ) :   1.0094
B(  4-C , 12-H ) :   0.9291 B(  4-C , 13-H ) :   0.9366

FINAL SINGLE POINT ENERGY      -307.033023160380

DIPOLE MOMENT
-------------
                                X             Y             Z
Electronic contribution:      1.60576      -1.27029      -1.22060
Nuclear contribution   :     -2.04370       1.49026       1.22564
                        -----------------------------------------
Total Dipole Moment    :     -0.43794       0.21998       0.00504
                        -----------------------------------------
Magnitude (a.u.)       :      0.49010
Magnitude (Debye)      :      1.24575

                             ****ORCA TERMINATED NORMALLY****
TOTAL RUN TIME: 0 days 0 hours 0 minutes 5 seconds 715 msec
