                         Program Version 3.0.3 - RELEASE   -
|  1> ! RI PBE def2-SVP def2-SVP/J NBO PAL2
|  2> % maxcore 2000
|  3> % output
|  4>     # printlevel mini
|  5>     print[ P_Basis ] 0
|  6>     print[ P_SCFInfo ] 1
|  7>     print[ P_SCFIterInfo ] 1
|  8>     print[ P_OrbEn ] 0
|  9>     print[ P_Cartesian ] 0
| 10> end
| 11> *xyz 0 1
| 12>  O        2.5000290000     0.5962730000     1.0282850000
| 13>  C        2.1109460000     0.2704790000    -0.0593240000
| 14>  C        2.9980090000    -0.1340960000    -1.1989490000
| 15>  C        4.4596760000    -0.1188310000    -0.8735010000
| 16>  C        5.1729450000    -1.3290240000    -0.4879730000
| 17>  O        5.3044580000    -0.7900150000    -1.7945560000
| 18>  H        1.0233310000     0.2556750000    -0.2899350000
| 19>  H        2.7799940000     0.5397040000    -2.0390770000
| 20>  H        2.6869950000    -1.1284220000    -1.5419230000
| 21>  H        4.8492320000     0.8314410000    -0.5153570000
| 22>  H        4.6309190000    -2.2701140000    -0.4262910000
| 23>  H        6.0569650000    -1.2546600000     0.1393120000
| 24> *
| 25>
| 26>                          ****END OF INPUT****
 Total Charge           Charge          ....    0
 Multiplicity           Mult            ....    1
 Number of Electrons    NEL             ....   46
 Basis Dimension        Dim             ....  114

MULLIKEN ATOMIC CHARGES
-----------------------
   0 O :   -0.153996
   1 C :    0.071224
   2 C :    0.083245
   3 C :   -0.024252
   4 C :    0.148192
   5 O :   -0.289815
   6 H :   -0.002922
   7 H :    0.050046
   8 H :    0.027610
   9 H :    0.028446
  10 H :    0.023248
  11 H :    0.038973
Sum of atomic charges:    0.0000000

LOEWDIN ATOMIC CHARGES
----------------------
   0 O :   -0.105704
   1 C :    0.093653
   2 C :   -0.090090
   3 C :    0.043662
   4 C :    0.061658
   5 O :   -0.154941
   6 H :   -0.010101
   7 H :    0.055389
   8 H :    0.052053
   9 H :    0.020657
  10 H :    0.013756
  11 H :    0.020008

  Mayer bond orders larger than 0.1
B(  0-O ,  1-C ) :   2.1994 B(  1-C ,  2-C ) :   0.9534 B(  1-C ,  6-H ) :   0.9275
B(  2-C ,  3-C ) :   1.0332 B(  2-C ,  7-H ) :   0.8935 B(  2-C ,  8-H ) :   0.8900
B(  3-C ,  4-C ) :   1.1004 B(  3-C ,  5-O ) :   0.9789 B(  3-C ,  9-H ) :   0.9363
B(  4-C ,  5-O ) :   1.0025 B(  4-C , 10-H ) :   0.9288 B(  4-C , 11-H ) :   0.9411

FINAL SINGLE POINT ENERGY      -305.836620178995

DIPOLE MOMENT
-------------
                                X             Y             Z
Electronic contribution:      0.11767       1.17601       0.94134
Nuclear contribution   :     -0.52372      -1.40251      -1.21202
                        -----------------------------------------
Total Dipole Moment    :     -0.40605      -0.22651      -0.27068
                        -----------------------------------------
Magnitude (a.u.)       :      0.53800
Magnitude (Debye)      :      1.36749

                             ****ORCA TERMINATED NORMALLY****
TOTAL RUN TIME: 0 days 0 hours 0 minutes 5 seconds 439 msec
