                         Program Version 3.0.3 - RELEASE   -
|  1> ! RI PBE def2-SVP def2-SVP/J NBO PAL2
|  2> % maxcore 2000
|  3> % output
|  4>     # printlevel mini
|  5>     print[ P_Basis ] 0
|  6>     print[ P_SCFInfo ] 1
|  7>     print[ P_SCFIterInfo ] 1
|  8>     print[ P_OrbEn ] 0
|  9>     print[ P_Cartesian ] 0
| 10> end
| 11> *xyz 0 1
| 12>  O        0.9904090000    -0.0563940000    -0.0356050000
| 13>  C        2.1986770000    -0.0563010000    -0.0357880000
| 14>  C        2.9787420000     1.0086020000     0.5553620000
| 15>  C        3.6260350000     1.8933370000     1.0464880000
| 16>  C        2.9787250000    -1.1212990000    -0.6267910000
| 17>  C        3.6260110000    -2.0061010000    -1.1178060000
| 18>  H        4.1906670000     2.6832680000     1.4849350000
| 19>  H        4.1907430000    -2.7959930000    -1.5561940000
| 20> *
| 21>
| 22>                          ****END OF INPUT****
 Total Charge           Charge          ....    0
 Multiplicity           Mult            ....    1
 Number of Electrons    NEL             ....   40
 Basis Dimension        Dim             ....   94

MULLIKEN ATOMIC CHARGES
-----------------------
   0 O :   -0.124057
   1 C :    0.055561
   2 C :    0.394736
   3 C :   -0.386437
   4 C :    0.394736
   5 C :   -0.386438
   6 H :    0.025950
   7 H :    0.025949
Sum of atomic charges:   -0.0000000

LOEWDIN ATOMIC CHARGES
----------------------
   0 O :   -0.071347
   1 C :    0.020859
   2 C :   -0.027098
   3 C :    0.006423
   4 C :   -0.027098
   5 C :    0.006423
   6 H :    0.045920
   7 H :    0.045919

  Mayer bond orders larger than 0.1
B(  0-O ,  1-C ) :   2.1269 B(  0-O ,  3-C ) :   0.1071 B(  0-O ,  5-C ) :   0.1071
B(  1-C ,  2-C ) :   0.9160 B(  1-C ,  4-C ) :   0.9160 B(  2-C ,  3-C ) :   2.3342
B(  3-C ,  6-H ) :   1.0868 B(  4-C ,  5-C ) :   2.3342 B(  5-C ,  7-H ) :   1.0868

FINAL SINGLE POINT ENERGY      -266.274564547955

DIPOLE MOMENT
-------------
                                X             Y             Z
Electronic contribution:     -1.64193       0.00007      -0.00017
Nuclear contribution   :      2.80638      -0.00000       0.00010
                        -----------------------------------------
Total Dipole Moment    :      1.16445       0.00006      -0.00007
                        -----------------------------------------
Magnitude (a.u.)       :      1.16445
Magnitude (Debye)      :      2.95979

                             ****ORCA TERMINATED NORMALLY****
TOTAL RUN TIME: 0 days 0 hours 0 minutes 4 seconds 435 msec
