                         Program Version 3.0.3 - RELEASE   -
|  1> ! RI PBE def2-SVP def2-SVP/J NBO PAL2
|  2> % maxcore 2000
|  3> % output
|  4>     # printlevel mini
|  5>     print[ P_Basis ] 0
|  6>     print[ P_SCFInfo ] 1
|  7>     print[ P_SCFIterInfo ] 1
|  8>     print[ P_OrbEn ] 0
|  9>     print[ P_Cartesian ] 0
| 10> end
| 11> *xyz 0 1
| 12>  O        1.0758550000    -0.2601050000    -0.0317750000
| 13>  C        2.2694980000    -0.0978610000    -0.0556850000
| 14>  C        2.9410150000     0.9690430000    -0.7963820000
| 15>  C        4.2775200000     1.0685080000    -0.7620000000
| 16>  C        5.0325660000     2.0520410000    -1.4337110000
| 17>  C        5.7039380000     2.8780450000    -1.9949040000
| 18>  H        2.9523860000    -0.7743050000     0.5038420000
| 19>  H        2.3240860000     1.6593280000    -1.3609680000
| 20>  H        4.8402780000     0.3430550000    -0.1755790000
| 21>  H        6.2890570000     3.6130520000    -2.4961270000
| 22> *
| 23>
| 24>                          ****END OF INPUT****
 Total Charge           Charge          ....    0
 Multiplicity           Mult            ....    1
 Number of Electrons    NEL             ....   42
 Basis Dimension        Dim             ....  104

MULLIKEN ATOMIC CHARGES
-----------------------
   0 O :   -0.156236
   1 C :    0.116393
   2 C :    0.001074
   3 C :   -0.053606
   4 C :    0.393152
   5 C :   -0.372673
   6 H :   -0.018449
   7 H :    0.024913
   8 H :    0.044265
   9 H :    0.021168
Sum of atomic charges:   -0.0000000

LOEWDIN ATOMIC CHARGES
----------------------
   0 O :   -0.104993
   1 C :    0.065505
   2 C :   -0.036595
   3 C :   -0.004799
   4 C :   -0.017659
   5 C :   -0.023920
   6 H :   -0.010861
   7 H :    0.042104
   8 H :    0.048391
   9 H :    0.042828

  Mayer bond orders larger than 0.1
B(  0-O ,  1-C ) :   2.1051 B(  1-C ,  2-C ) :   1.0342 B(  1-C ,  6-H ) :   0.9286
B(  2-C ,  3-C ) :   1.6720 B(  2-C ,  5-C ) :   0.1214 B(  2-C ,  7-H ) :   0.9691
B(  3-C ,  4-C ) :   1.0514 B(  3-C ,  8-H ) :   0.9376 B(  4-C ,  5-C ) :   2.2586
B(  5-C ,  9-H ) :   1.0829

FINAL SINGLE POINT ENERGY      -267.535322406093

DIPOLE MOMENT
-------------
                                X             Y             Z
Electronic contribution:     -1.27433      -0.18967       0.03827
Nuclear contribution   :      2.39219       0.62253      -0.27060
                        -----------------------------------------
Total Dipole Moment    :      1.11787       0.43286      -0.23233
                        -----------------------------------------
Magnitude (a.u.)       :      1.22106
Magnitude (Debye)      :      3.10368

                             ****ORCA TERMINATED NORMALLY****
TOTAL RUN TIME: 0 days 0 hours 0 minutes 4 seconds 612 msec
