                         Program Version 3.0.3 - RELEASE   -
|  1> ! RI PBE def2-SVP def2-SVP/J NBO PAL2
|  2> % maxcore 2000
|  3> % output
|  4>     # printlevel mini
|  5>     print[ P_Basis ] 0
|  6>     print[ P_SCFInfo ] 1
|  7>     print[ P_SCFIterInfo ] 1
|  8>     print[ P_OrbEn ] 0
|  9>     print[ P_Cartesian ] 0
| 10> end
| 11> *xyz 0 1
| 12>  O        1.0384430000    -0.0759290000    -0.0520760000
| 13>  C        2.2383180000    -0.0451360000     0.0415970000
| 14>  C        2.9411450000     0.3479260000     1.2336360000
| 15>  C        3.5810050000     0.6698970000     2.2100740000
| 16>  C        4.2849620000     1.0339180000     3.3140430000
| 17>  C        4.9100130000     1.3566570000     4.2927980000
| 18>  H        2.8954680000    -0.3239650000    -0.8036050000
| 19>  H        5.4606560000     1.6421230000     5.1585330000
| 20> *
| 21>
| 22>                          ****END OF INPUT****
 Total Charge           Charge          ....    0
 Multiplicity           Mult            ....    1
 Number of Electrons    NEL             ....   40
 Basis Dimension        Dim             ....   94

MULLIKEN ATOMIC CHARGES
-----------------------
   0 O :   -0.144091
   1 C :    0.081424
   2 C :   -0.019903
   3 C :    0.035512
   4 C :    0.357707
   5 C :   -0.367753
   6 H :    0.025899
   7 H :    0.031205
Sum of atomic charges:   -0.0000000

LOEWDIN ATOMIC CHARGES
----------------------
   0 O :   -0.081967
   1 C :    0.068544
   2 C :   -0.028009
   3 C :   -0.004451
   4 C :   -0.026108
   5 C :    0.015513
   6 H :    0.008746
   7 H :    0.047732

  Mayer bond orders larger than 0.1
B(  0-O ,  1-C ) :   2.1285 B(  0-O ,  3-C ) :   0.1065 B(  1-C ,  2-C ) :   0.9053
B(  1-C ,  6-H ) :   0.9409 B(  2-C ,  3-C ) :   2.3699 B(  2-C ,  5-C ) :   0.2468
B(  3-C ,  4-C ) :   0.9631 B(  4-C ,  5-C ) :   2.1471 B(  5-C ,  7-H ) :   1.0839

FINAL SINGLE POINT ENERGY      -266.291283916814

DIPOLE MOMENT
-------------
                                X             Y             Z
Electronic contribution:     -0.94192      -0.08075      -0.24329
Nuclear contribution   :      2.02424       0.25424       0.77150
                        -----------------------------------------
Total Dipole Moment    :      1.08232       0.17349       0.52821
                        -----------------------------------------
Magnitude (a.u.)       :      1.21677
Magnitude (Debye)      :      3.09277

                             ****ORCA TERMINATED NORMALLY****
TOTAL RUN TIME: 0 days 0 hours 0 minutes 3 seconds 962 msec
