                         Program Version 3.0.3 - RELEASE   -
|  1> ! RI PBE def2-SVP def2-SVP/J NBO PAL2
|  2> % maxcore 2000
|  3> % output
|  4>     # printlevel mini
|  5>     print[ P_Basis ] 0
|  6>     print[ P_SCFInfo ] 1
|  7>     print[ P_SCFIterInfo ] 1
|  8>     print[ P_OrbEn ] 0
|  9>     print[ P_Cartesian ] 0
| 10> end
| 11> *xyz 0 1
| 12>  O        2.5827470000     0.3488690000     1.2848530000
| 13>  C        2.1148630000     0.0773150000     0.2133580000
| 14>  C        2.9163700000    -0.2821750000    -0.9999440000
| 15>  C        4.4195800000    -0.2763320000    -0.7565230000
| 16>  C        5.1732020000    -0.6273660000    -1.9473280000
| 17>  C        5.7783140000    -0.9197170000    -2.9420230000
| 18>  H        1.0136680000     0.0790360000     0.0605030000
| 19>  H        2.6402110000     0.4140860000    -1.8013750000
| 20>  H        2.5732700000    -1.2639420000    -1.3487810000
| 21>  H        4.6607820000    -0.9711290000     0.0532190000
| 22>  H        4.7276310000     0.7109640000    -0.4002510000
| 23>  H        6.3232600000    -1.1779080000    -3.8189070000
| 24> *
| 25>
| 26>                          ****END OF INPUT****
 Total Charge           Charge          ....    0
 Multiplicity           Mult            ....    1
 Number of Electrons    NEL             ....   44
 Basis Dimension        Dim             ....  114

MULLIKEN ATOMIC CHARGES
-----------------------
   0 O :   -0.158884
   1 C :    0.084965
   2 C :   -0.043317
   3 C :    0.095844
   4 C :    0.327993
   5 C :   -0.502473
   6 H :    0.001762
   7 H :    0.053075
   8 H :    0.048426
   9 H :    0.048683
  10 H :    0.044645
  11 H :   -0.000719
Sum of atomic charges:   -0.0000000

LOEWDIN ATOMIC CHARGES
----------------------
   0 O :   -0.105430
   1 C :    0.093033
   2 C :   -0.073299
   3 C :   -0.041558
   4 C :   -0.024643
   5 C :   -0.089296
   6 H :   -0.007428
   7 H :    0.052875
   8 H :    0.052147
   9 H :    0.054805
  10 H :    0.054150
  11 H :    0.034645

  Mayer bond orders larger than 0.1
B(  0-O ,  1-C ) :   2.1799 B(  1-C ,  2-C ) :   0.9647 B(  1-C ,  6-H ) :   0.9333
B(  2-C ,  3-C ) :   1.0697 B(  2-C ,  7-H ) :   0.9090 B(  2-C ,  8-H ) :   0.9079
B(  3-C ,  4-C ) :   1.0628 B(  3-C ,  9-H ) :   0.8969 B(  3-C , 10-H ) :   0.8960
B(  4-C ,  5-C ) :   2.3388 B(  4-C , 11-H ) :  -0.1106 B(  5-C , 11-H ) :   1.1014

FINAL SINGLE POINT ENERGY      -268.746208982126

DIPOLE MOMENT
-------------
                                X             Y             Z
Electronic contribution:      0.23549       0.46213       1.73814
Nuclear contribution   :     -0.58538      -0.62314      -2.38733
                        -----------------------------------------
Total Dipole Moment    :     -0.34988      -0.16101      -0.64920
                        -----------------------------------------
Magnitude (a.u.)       :      0.75485
Magnitude (Debye)      :      1.91868

                             ****ORCA TERMINATED NORMALLY****
TOTAL RUN TIME: 0 days 0 hours 0 minutes 5 seconds 358 msec
