                         Program Version 3.0.3 - RELEASE   -
|  1> ! RI PBE def2-SVP def2-SVP/J NBO PAL2
|  2> % maxcore 2000
|  3> % output
|  4>     # printlevel mini
|  5>     print[ P_Basis ] 0
|  6>     print[ P_SCFInfo ] 1
|  7>     print[ P_SCFIterInfo ] 1
|  8>     print[ P_OrbEn ] 0
|  9>     print[ P_Cartesian ] 0
| 10> end
| 11> *xyz 0 1
| 12>  O        1.2923200000    -0.2481040000     0.3682580000
| 13>  C        2.5751870000     0.0830070000    -0.1250630000
| 14>  C        2.5600770000     0.1760160000    -1.6238970000
| 15>  C        3.3151910000    -0.5633780000    -2.4238120000
| 16>  C        3.0165650000     1.3796380000     0.4802140000
| 17>  C        2.2789000000     2.1328500000     1.2809670000
| 18>  H        0.9856410000    -1.0192320000    -0.1155210000
| 19>  H        3.3063330000    -0.6904560000     0.1626070000
| 20>  H        1.8624970000     0.9046330000    -2.0313660000
| 21>  H        4.0140850000    -1.2925210000    -2.0242700000
| 22>  H        3.2707700000    -0.4649670000    -3.5023050000
| 23>  H        4.0225740000     1.6844800000     0.2043430000
| 24>  H        1.2765310000     1.8345160000     1.5625540000
| 25>  H        2.6630290000     3.0641070000     1.6802810000
| 26> *
| 27>
| 28>                          ****END OF INPUT****
 Total Charge           Charge          ....    0
 Multiplicity           Mult            ....    1
 Number of Electrons    NEL             ....   46
 Basis Dimension        Dim             ....  124

MULLIKEN ATOMIC CHARGES
-----------------------
   0 O :   -0.251841
   1 C :    0.205707
   2 C :   -0.087943
   3 C :   -0.038473
   4 C :   -0.099616
   5 C :   -0.009414
   6 H :    0.156885
   7 H :   -0.001432
   8 H :    0.010376
   9 H :    0.023591
  10 H :    0.035045
  11 H :    0.003158
  12 H :    0.032778
  13 H :    0.021179
Sum of atomic charges:    0.0000000

LOEWDIN ATOMIC CHARGES
----------------------
   0 O :   -0.098758
   1 C :    0.044426
   2 C :   -0.041911
   3 C :   -0.059575
   4 C :   -0.042382
   5 C :   -0.053204
   6 H :    0.071643
   7 H :    0.018904
   8 H :    0.029517
   9 H :    0.022806
  10 H :    0.028194
  11 H :    0.028750
  12 H :    0.026580
  13 H :    0.025012

  Mayer bond orders larger than 0.1
B(  0-O ,  1-C ) :   1.0696 B(  0-O ,  6-H ) :   0.9750 B(  1-C ,  2-C ) :   1.0216
B(  1-C ,  4-C ) :   0.9949 B(  1-C ,  7-H ) :   0.8992 B(  2-C ,  3-C ) :   1.9552
B(  2-C ,  8-H ) :   0.9559 B(  3-C ,  9-H ) :   0.9497 B(  3-C , 10-H ) :   0.9430
B(  4-C ,  5-C ) :   2.0134 B(  4-C , 11-H ) :   0.9513 B(  5-C , 12-H ) :   0.9358
B(  5-C , 13-H ) :   0.9390

FINAL SINGLE POINT ENERGY      -269.961991157809

DIPOLE MOMENT
-------------
                                X             Y             Z
Electronic contribution:     -1.39955      -0.68645       0.95468
Nuclear contribution   :      1.56017       0.31601      -1.37798
                        -----------------------------------------
Total Dipole Moment    :      0.16062      -0.37043      -0.42330
                        -----------------------------------------
Magnitude (a.u.)       :      0.58498
Magnitude (Debye)      :      1.48691

                             ****ORCA TERMINATED NORMALLY****
TOTAL RUN TIME: 0 days 0 hours 0 minutes 6 seconds 217 msec
