                         Program Version 3.0.3 - RELEASE   -
|  1> ! RI PBE def2-SVP def2-SVP/J NBO PAL2
|  2> % maxcore 2000
|  3> % output
|  4>     # printlevel mini
|  5>     print[ P_Basis ] 0
|  6>     print[ P_SCFInfo ] 1
|  7>     print[ P_SCFIterInfo ] 1
|  8>     print[ P_OrbEn ] 0
|  9>     print[ P_Cartesian ] 0
| 10> end
| 11> *xyz 0 1
| 12>  O        0.9736140000    -0.2639720000     0.2556660000
| 13>  C        2.3333120000     0.0816010000     0.0421590000
| 14>  C        2.5129140000     0.7070610000    -1.3152110000
| 15>  C        3.0877450000     1.8723850000    -1.5669410000
| 16>  C        2.8647020000     0.8949210000     1.1352720000
| 17>  C        3.2758870000     1.5666720000     2.0407630000
| 18>  H        0.4677330000     0.5547270000     0.2775120000
| 19>  H        2.8603980000    -0.8800520000     0.0500110000
| 20>  H        2.0967620000     0.1063590000    -2.1197750000
| 21>  H        3.5061020000     2.4788840000    -0.7707840000
| 22>  H        3.1631280000     2.2514500000    -2.5793530000
| 23>  H        3.6411940000     2.1526650000     2.8510820000
| 24> *
| 25>
| 26>                          ****END OF INPUT****
 Total Charge           Charge          ....    0
 Multiplicity           Mult            ....    1
 Number of Electrons    NEL             ....   44
 Basis Dimension        Dim             ....  114

MULLIKEN ATOMIC CHARGES
-----------------------
   0 O :   -0.272109
   1 C :    0.303538
   2 C :   -0.135761
   3 C :    0.006305
   4 C :    0.312777
   5 C :   -0.489900
   6 H :    0.156757
   7 H :    0.035232
   8 H :    0.017758
   9 H :    0.034019
  10 H :    0.026815
  11 H :    0.004566
Sum of atomic charges:   -0.0000000

LOEWDIN ATOMIC CHARGES
----------------------
   0 O :   -0.094642
   1 C :    0.037027
   2 C :   -0.046776
   3 C :   -0.044953
   4 C :   -0.031499
   5 C :   -0.070091
   6 H :    0.072268
   7 H :    0.052124
   8 H :    0.031145
   9 H :    0.029666
  10 H :    0.028637
  11 H :    0.037094

  Mayer bond orders larger than 0.1
B(  0-O ,  1-C ) :   1.0097 B(  0-O ,  6-H ) :   0.9810 B(  1-C ,  2-C ) :   0.9942
B(  1-C ,  4-C ) :   0.9540 B(  1-C ,  7-H ) :   0.8524 B(  2-C ,  3-C ) :   2.0068
B(  2-C ,  8-H ) :   0.9579 B(  3-C ,  9-H ) :   0.9163 B(  3-C , 10-H ) :   0.9425
B(  4-C ,  5-C ) :   2.3609 B(  4-C , 11-H ) :  -0.1098 B(  5-C , 11-H ) :   1.0993

FINAL SINGLE POINT ENERGY      -268.714628322125

DIPOLE MOMENT
-------------
                                X             Y             Z
Electronic contribution:     -0.89145      -1.37383       2.40687
Nuclear contribution   :      0.99500       1.84713      -2.54574
                        -----------------------------------------
Total Dipole Moment    :      0.10356       0.47331      -0.13887
                        -----------------------------------------
Magnitude (a.u.)       :      0.50401
Magnitude (Debye)      :      1.28110

                             ****ORCA TERMINATED NORMALLY****
TOTAL RUN TIME: 0 days 0 hours 0 minutes 5 seconds 552 msec
