                         Program Version 3.0.3 - RELEASE   -
|  1> ! RI PBE def2-SVP def2-SVP/J NBO PAL2
|  2> % maxcore 2000
|  3> % output
|  4>     # printlevel mini
|  5>     print[ P_Basis ] 0
|  6>     print[ P_SCFInfo ] 1
|  7>     print[ P_SCFIterInfo ] 1
|  8>     print[ P_OrbEn ] 0
|  9>     print[ P_Cartesian ] 0
| 10> end
| 11> *xyz 0 1
| 12>  O        0.9854180000    -0.0546770000    -0.0917430000
| 13>  C        2.3995550000    -0.1090610000    -0.0571720000
| 14>  C        2.9017270000    -0.5592590000     1.2446340000
| 15>  C        3.2850320000    -0.8816880000     2.3342110000
| 16>  C        2.8644760000    -0.9782350000    -1.1362260000
| 17>  C        3.2699200000    -1.6648690000    -2.0300290000
| 18>  H        0.6927670000     0.3502060000     0.7306200000
| 19>  H        2.8191640000     0.8928350000    -0.2416500000
| 20>  H        3.6303310000    -1.1838880000     3.2949800000
| 21>  H        3.6219100000    -2.2830640000    -2.8219230000
| 22> *
| 23>
| 24>                          ****END OF INPUT****
 Total Charge           Charge          ....    0
 Multiplicity           Mult            ....    1
 Number of Electrons    NEL             ....   42
 Basis Dimension        Dim             ....  104

MULLIKEN ATOMIC CHARGES
-----------------------
   0 O :   -0.234638
   1 C :    0.247984
   2 C :    0.317716
   3 C :   -0.468532
   4 C :    0.361999
   5 C :   -0.455872
   6 H :    0.161920
   7 H :    0.050971
   8 H :    0.009770
   9 H :    0.008682
Sum of atomic charges:    0.0000000

LOEWDIN ATOMIC CHARGES
----------------------
   0 O :   -0.093034
   1 C :    0.037790
   2 C :   -0.033838
   3 C :   -0.054015
   4 C :   -0.013361
   5 C :   -0.047485
   6 H :    0.075509
   7 H :    0.049562
   8 H :    0.039890
   9 H :    0.038983

  Mayer bond orders larger than 0.1
B(  0-O ,  1-C ) :   1.1590 B(  0-O ,  6-H ) :   0.9723 B(  1-C ,  2-C ) :   0.9575
B(  1-C ,  4-C ) :   0.9326 B(  1-C ,  7-H ) :   0.8931 B(  2-C ,  3-C ) :   2.3951
B(  2-C ,  8-H ) :  -0.1084 B(  3-C ,  8-H ) :   1.0982 B(  4-C ,  5-C ) :   2.4147
B(  4-C ,  9-H ) :  -0.1057 B(  5-C ,  9-H ) :   1.0956

FINAL SINGLE POINT ENERGY      -267.460934491496

DIPOLE MOMENT
-------------
                                X             Y             Z
Electronic contribution:     -0.29587      -0.14912      -0.25905
Nuclear contribution   :      0.54345       0.42863       0.72380
                        -----------------------------------------
Total Dipole Moment    :      0.24758       0.27951       0.46476
                        -----------------------------------------
Magnitude (a.u.)       :      0.59617
Magnitude (Debye)      :      1.51535

                             ****ORCA TERMINATED NORMALLY****
TOTAL RUN TIME: 0 days 0 hours 0 minutes 5 seconds 52 msec
