                         Program Version 3.0.3 - RELEASE   -
|  1> ! RI PBE def2-SVP def2-SVP/J NBO PAL2
|  2> % maxcore 2000
|  3> % output
|  4>     # printlevel mini
|  5>     print[ P_Basis ] 0
|  6>     print[ P_SCFInfo ] 1
|  7>     print[ P_SCFIterInfo ] 1
|  8>     print[ P_OrbEn ] 0
|  9>     print[ P_Cartesian ] 0
| 10> end
| 11> *xyz 0 1
| 12>  O        1.5363350000    -0.5585570000     0.8017960000
| 13>  C        2.5376840000     0.1310440000     0.0743690000
| 14>  C        2.9214040000    -0.6867790000    -1.1052410000
| 15>  C        4.1755040000    -1.0160790000    -1.4174620000
| 16>  C        4.5472120000    -1.7784590000    -2.5906260000
| 17>  C        5.8007970000    -2.1000270000    -2.9085400000
| 18>  H        1.1617210000     0.0447130000     1.4476870000
| 19>  H        3.4220830000     0.3273400000     0.6956170000
| 20>  H        2.1533580000     1.1029190000    -0.2723710000
| 21>  H        2.1010520000    -1.0112750000    -1.7421120000
| 22>  H        4.9866120000    -0.7002250000    -0.7628420000
| 23>  H        3.7327780000    -2.0992550000    -3.2366700000
| 24>  H        6.6359780000    -1.7946810000    -2.2862180000
| 25>  H        6.0318810000    -2.6761800000    -3.7959760000
| 26> *
| 27>
| 28>                          ****END OF INPUT****
 Total Charge           Charge          ....    0
 Multiplicity           Mult            ....    1
 Number of Electrons    NEL             ....   46
 Basis Dimension        Dim             ....  124

MULLIKEN ATOMIC CHARGES
-----------------------
   0 O :   -0.283840
   1 C :    0.211647
   2 C :   -0.087560
   3 C :    0.016857
   4 C :   -0.004394
   5 C :   -0.034435
   6 H :    0.152855
   7 H :   -0.006212
   8 H :    0.010193
   9 H :    0.002335
  10 H :   -0.016413
  11 H :   -0.005612
  12 H :    0.017821
  13 H :    0.026758
Sum of atomic charges:   -0.0000000

LOEWDIN ATOMIC CHARGES
----------------------
   0 O :   -0.130325
   1 C :    0.055867
   2 C :   -0.033145
   3 C :   -0.034027
   4 C :   -0.030050
   5 C :   -0.052260
   6 H :    0.068732
   7 H :    0.007636
   8 H :    0.015445
   9 H :    0.027315
  10 H :    0.025930
  11 H :    0.030245
  12 H :    0.022810
  13 H :    0.025829

  Mayer bond orders larger than 0.1
B(  0-O ,  1-C ) :   1.0699 B(  0-O ,  6-H ) :   0.9796 B(  1-C ,  2-C ) :   1.0534
B(  1-C ,  7-H ) :   0.9285 B(  1-C ,  8-H ) :   0.9103 B(  2-C ,  3-C ) :   1.7881
B(  2-C ,  5-C ) :   0.1375 B(  2-C ,  9-H ) :   0.9572 B(  3-C ,  4-C ) :   1.1421
B(  3-C , 10-H ) :   0.9545 B(  4-C ,  5-C ) :   1.8852 B(  4-C , 11-H ) :   0.9614
B(  5-C , 12-H ) :   0.9475 B(  5-C , 13-H ) :   0.9436

FINAL SINGLE POINT ENERGY      -269.968758067856

DIPOLE MOMENT
-------------
                                X             Y             Z
Electronic contribution:     -2.00202      -0.26373       1.21669
Nuclear contribution   :      2.00116       0.87069      -1.04166
                        -----------------------------------------
Total Dipole Moment    :     -0.00086       0.60696       0.17502
                        -----------------------------------------
Magnitude (a.u.)       :      0.63170
Magnitude (Debye)      :      1.60564

                             ****ORCA TERMINATED NORMALLY****
TOTAL RUN TIME: 0 days 0 hours 0 minutes 6 seconds 16 msec
