                         Program Version 3.0.3 - RELEASE   -
|  1> ! RI PBE def2-SVP def2-SVP/J NBO PAL2
|  2> % maxcore 2000
|  3> % output
|  4>     # printlevel mini
|  5>     print[ P_Basis ] 0
|  6>     print[ P_SCFInfo ] 1
|  7>     print[ P_SCFIterInfo ] 1
|  8>     print[ P_OrbEn ] 0
|  9>     print[ P_Cartesian ] 0
| 10> end
| 11> *xyz 0 1
| 12>  O        1.7163530000    -1.5341350000     0.0543230000
| 13>  C        2.4221300000    -0.3121600000    -0.0447210000
| 14>  C        2.9342780000     0.0511410000     1.3020920000
| 15>  C        4.2042380000     0.3790020000     1.5446390000
| 16>  C        4.6987270000     0.7754730000     2.8116270000
| 17>  C        5.1520280000     1.1153270000     3.8732730000
| 18>  H        1.2276250000    -1.6704220000    -0.7605320000
| 19>  H        1.7540060000     0.4894540000    -0.3957530000
| 20>  H        3.2562640000    -0.3834680000    -0.7559550000
| 21>  H        2.2067890000     0.0552900000     2.1086110000
| 22>  H        4.9282880000     0.3520960000     0.7327250000
| 23>  H        5.5435630000     1.4129030000     4.8169710000
| 24> *
| 25>
| 26>                          ****END OF INPUT****
 Total Charge           Charge          ....    0
 Multiplicity           Mult            ....    1
 Number of Electrons    NEL             ....   44
 Basis Dimension        Dim             ....  114

MULLIKEN ATOMIC CHARGES
-----------------------
   0 O :   -0.279507
   1 C :    0.193433
   2 C :   -0.050288
   3 C :   -0.066710
   4 C :    0.380621
   5 C :   -0.404758
   6 H :    0.155893
   7 H :    0.018141
   8 H :    0.000715
   9 H :    0.019014
  10 H :    0.026874
  11 H :    0.006570
Sum of atomic charges:   -0.0000000

LOEWDIN ATOMIC CHARGES
----------------------
   0 O :   -0.126543
   1 C :    0.054726
   2 C :   -0.005412
   3 C :   -0.052211
   4 C :   -0.018394
   5 C :   -0.064380
   6 H :    0.070968
   7 H :    0.018647
   8 H :    0.009349
   9 H :    0.035171
  10 H :    0.041802
  11 H :    0.036277

  Mayer bond orders larger than 0.1
B(  0-O ,  1-C ) :   1.0754 B(  0-O ,  6-H ) :   0.9781 B(  1-C ,  2-C ) :   1.0518
B(  1-C ,  7-H ) :   0.9114 B(  1-C ,  8-H ) :   0.9274 B(  2-C ,  3-C ) :   1.8155
B(  2-C ,  5-C ) :   0.1309 B(  2-C ,  9-H ) :   0.9616 B(  3-C ,  4-C ) :   1.0527
B(  3-C , 10-H ) :   0.9358 B(  4-C ,  5-C ) :   2.2845 B(  5-C , 11-H ) :   1.0841

FINAL SINGLE POINT ENERGY      -268.721805923545

DIPOLE MOMENT
-------------
                                X             Y             Z
Electronic contribution:      1.19985       0.00087       2.21991
Nuclear contribution   :     -1.45318       0.22829      -2.89922
                        -----------------------------------------
Total Dipole Moment    :     -0.25332       0.22916      -0.67931
                        -----------------------------------------
Magnitude (a.u.)       :      0.76036
Magnitude (Debye)      :      1.93269

                             ****ORCA TERMINATED NORMALLY****
TOTAL RUN TIME: 0 days 0 hours 0 minutes 5 seconds 416 msec
