                         Program Version 3.0.3 - RELEASE   -
|  1> ! RI PBE def2-SVP def2-SVP/J NBO PAL2
|  2> % maxcore 2000
|  3> % output
|  4>     # printlevel mini
|  5>     print[ P_Basis ] 0
|  6>     print[ P_SCFInfo ] 1
|  7>     print[ P_SCFIterInfo ] 1
|  8>     print[ P_OrbEn ] 0
|  9>     print[ P_Cartesian ] 0
| 10> end
| 11> *xyz 0 1
| 12>  O        0.8737860000    -0.0411680000    -0.1311660000
| 13>  C        2.2783630000     0.0540880000    -0.1023880000
| 14>  C        2.7313550000     0.7955320000     1.1176240000
| 15>  C        1.8624560000     1.2726170000     2.0106100000
| 16>  C        4.1654950000     0.9832040000     1.3037770000
| 17>  C        5.1318190000     0.5582050000     0.4901660000
| 18>  H        0.6212240000    -0.5146110000    -0.9257140000
| 19>  H        2.6558470000     0.5789870000    -0.9924080000
| 20>  H        2.7406720000    -0.9441370000    -0.0982760000
| 21>  H        0.7965130000     1.1402980000     1.8844340000
| 22>  H        2.2117660000     1.8066110000     2.8873080000
| 23>  H        4.4412090000     1.5270380000     2.2040180000
| 24>  H        4.9260510000     0.0107750000    -0.4227090000
| 25>  H        6.1738440000     0.7479600000     0.7162220000
| 26> *
| 27>
| 28>                          ****END OF INPUT****
 Total Charge           Charge          ....    0
 Multiplicity           Mult            ....    1
 Number of Electrons    NEL             ....   46
 Basis Dimension        Dim             ....  124

MULLIKEN ATOMIC CHARGES
-----------------------
   0 O :   -0.264314
   1 C :    0.217240
   2 C :   -0.145017
   3 C :   -0.022813
   4 C :    0.000772
   5 C :   -0.046015
   6 H :    0.158280
   7 H :    0.011613
   8 H :    0.015131
   9 H :    0.033717
  10 H :    0.010550
  11 H :   -0.013892
  12 H :    0.017822
  13 H :    0.026927
Sum of atomic charges:   -0.0000000

LOEWDIN ATOMIC CHARGES
----------------------
   0 O :   -0.113793
   1 C :    0.062296
   2 C :   -0.053252
   3 C :   -0.039475
   4 C :   -0.022662
   5 C :   -0.065240
   6 H :    0.074074
   7 H :    0.015738
   8 H :    0.016568
   9 H :    0.026743
  10 H :    0.021993
  11 H :    0.030616
  12 H :    0.019575
  13 H :    0.026818

  Mayer bond orders larger than 0.1
B(  0-O ,  1-C ) :   1.1174 B(  0-O ,  6-H ) :   0.9751 B(  1-C ,  2-C ) :   1.0301
B(  1-C ,  7-H ) :   0.9087 B(  1-C ,  8-H ) :   0.9078 B(  2-C ,  3-C ) :   1.9015
B(  2-C ,  4-C ) :   1.1211 B(  3-C ,  5-C ) :   0.1379 B(  3-C ,  9-H ) :   0.9239
B(  3-C , 10-H ) :   0.9311 B(  4-C ,  5-C ) :   1.9028 B(  4-C , 11-H ) :   0.9547
B(  5-C , 12-H ) :   0.9318 B(  5-C , 13-H ) :   0.9420

FINAL SINGLE POINT ENERGY      -269.968147599341

DIPOLE MOMENT
-------------
                                X             Y             Z
Electronic contribution:     -2.09813      -0.10590       0.02254
Nuclear contribution   :      2.23489      -0.18417      -0.53502
                        -----------------------------------------
Total Dipole Moment    :      0.13676      -0.29008      -0.51248
                        -----------------------------------------
Magnitude (a.u.)       :      0.60455
Magnitude (Debye)      :      1.53664

                             ****ORCA TERMINATED NORMALLY****
TOTAL RUN TIME: 0 days 0 hours 0 minutes 6 seconds 261 msec
