                         Program Version 3.0.3 - RELEASE   -
|  1> ! RI PBE def2-SVP def2-SVP/J NBO PAL2
|  2> % maxcore 2000
|  3> % output
|  4>     # printlevel mini
|  5>     print[ P_Basis ] 0
|  6>     print[ P_SCFInfo ] 1
|  7>     print[ P_SCFIterInfo ] 1
|  8>     print[ P_OrbEn ] 0
|  9>     print[ P_Cartesian ] 0
| 10> end
| 11> *xyz 0 1
| 12>  O        2.5786220000    -0.9695100000     0.8738710000
| 13>  C        2.2317890000     0.0851980000     0.0094500000
| 14>  C        2.7897740000    -0.0867500000    -1.3825550000
| 15>  C        2.0255850000    -0.0779870000    -2.4749070000
| 16>  C        4.2034430000    -0.2532260000    -1.4463020000
| 17>  C        5.3978140000    -0.4005620000    -1.4133010000
| 18>  H        3.5383420000    -1.0477260000     0.8761510000
| 19>  H        2.5733830000     1.0503740000     0.4109650000
| 20>  H        1.1419970000     0.1069710000    -0.0386520000
| 21>  H        0.9507730000     0.0365510000    -2.3941090000
| 22>  H        2.4496750000    -0.1804150000    -3.4659540000
| 23>  H        6.4547910000    -0.5278270000    -1.4164670000
| 24> *
| 25>
| 26>                          ****END OF INPUT****
 Total Charge           Charge          ....    0
 Multiplicity           Mult            ....    1
 Number of Electrons    NEL             ....   44
 Basis Dimension        Dim             ....  114

MULLIKEN ATOMIC CHARGES
-----------------------
   0 O :   -0.280058
   1 C :    0.272523
   2 C :   -0.194197
   3 C :    0.012304
   4 C :    0.384712
   5 C :   -0.434587
   6 H :    0.156337
   7 H :    0.013033
   8 H :    0.005764
   9 H :    0.025694
  10 H :    0.028128
  11 H :    0.010348
Sum of atomic charges:   -0.0000000

LOEWDIN ATOMIC CHARGES
----------------------
   0 O :   -0.112332
   1 C :    0.073007
   2 C :   -0.069536
   3 C :   -0.018694
   4 C :   -0.015112
   5 C :   -0.064479
   6 H :    0.067935
   7 H :    0.014804
   8 H :    0.026473
   9 H :    0.028153
  10 H :    0.031271
  11 H :    0.038512

  Mayer bond orders larger than 0.1
B(  0-O ,  1-C ) :   1.0759 B(  0-O ,  6-H ) :   0.9787 B(  1-C ,  2-C ) :   1.0052
B(  1-C ,  7-H ) :   0.9187 B(  1-C ,  8-H ) :   0.9190 B(  2-C ,  3-C ) :   1.9130
B(  2-C ,  4-C ) :   1.0177 B(  3-C ,  5-C ) :   0.1262 B(  3-C ,  9-H ) :   0.9291
B(  3-C , 10-H ) :   0.9417 B(  4-C ,  5-C ) :   2.2742 B(  4-C , 11-H ) :  -0.1040
B(  5-C , 11-H ) :   1.0950

FINAL SINGLE POINT ENERGY      -268.723088163605

DIPOLE MOMENT
-------------
                                X             Y             Z
Electronic contribution:      1.99750      -0.87853       0.38462
Nuclear contribution   :     -1.67803       1.16903      -0.64765
                        -----------------------------------------
Total Dipole Moment    :      0.31947       0.29050      -0.26304
                        -----------------------------------------
Magnitude (a.u.)       :      0.50561
Magnitude (Debye)      :      1.28516

                             ****ORCA TERMINATED NORMALLY****
TOTAL RUN TIME: 0 days 0 hours 0 minutes 5 seconds 574 msec
