                         Program Version 3.0.3 - RELEASE   -
|  1> ! RI PBE def2-SVP def2-SVP/J NBO PAL2
|  2> % maxcore 2000
|  3> % output
|  4>     # printlevel mini
|  5>     print[ P_Basis ] 0
|  6>     print[ P_SCFInfo ] 1
|  7>     print[ P_SCFIterInfo ] 1
|  8>     print[ P_OrbEn ] 0
|  9>     print[ P_Cartesian ] 0
| 10> end
| 11> *xyz 0 1
| 12>  O        0.9661360000    -0.0786430000     0.1177740000
| 13>  C        2.3522810000     0.1538950000    -0.0338760000
| 14>  C        2.8100090000    -0.3782790000    -1.3036820000
| 15>  C        3.2059180000    -0.8149830000    -2.3547460000
| 16>  C        3.6997090000    -1.3185780000    -3.5834330000
| 17>  C        2.9578990000    -1.9410480000    -4.4991200000
| 18>  H        0.6993600000     0.2854460000     0.9657820000
| 19>  H        2.9261430000    -0.3238360000     0.7736820000
| 20>  H        2.5807660000     1.2292820000    -0.0017320000
| 21>  H        4.7621080000    -1.1716750000    -3.7631010000
| 22>  H        1.8970290000    -2.1040220000    -4.3523420000
| 23>  H        3.4023410000    -2.3011590000    -5.4185060000
| 24> *
| 25>
| 26>                          ****END OF INPUT****
 Total Charge           Charge          ....    0
 Multiplicity           Mult            ....    1
 Number of Electrons    NEL             ....   44
 Basis Dimension        Dim             ....  114

MULLIKEN ATOMIC CHARGES
-----------------------
   0 O :   -0.264598
   1 C :    0.212236
   2 C :   -0.092555
   3 C :   -0.053116
   4 C :   -0.095462
   5 C :   -0.011079
   6 H :    0.155575
   7 H :    0.022886
   8 H :    0.024526
   9 H :    0.033843
  10 H :    0.038175
  11 H :    0.029569
Sum of atomic charges:   -0.0000000

LOEWDIN ATOMIC CHARGES
----------------------
   0 O :   -0.120780
   1 C :    0.050030
   2 C :   -0.046313
   3 C :   -0.037663
   4 C :   -0.049137
   5 C :   -0.027879
   6 H :    0.071275
   7 H :    0.028211
   8 H :    0.028377
   9 H :    0.044698
  10 H :    0.031627
  11 H :    0.027555

  Mayer bond orders larger than 0.1
B(  0-O ,  1-C ) :   1.1397 B(  0-O ,  6-H ) :   0.9771 B(  1-C ,  2-C ) :   1.0396
B(  1-C ,  7-H ) :   0.9048 B(  1-C ,  8-H ) :   0.9065 B(  2-C ,  3-C ) :   2.5260
B(  2-C ,  5-C ) :   0.1293 B(  3-C ,  4-C ) :   1.0604 B(  4-C ,  5-C ) :   1.9192
B(  4-C ,  9-H ) :   0.9451 B(  5-C , 10-H ) :   0.9534 B(  5-C , 11-H ) :   0.9418

FINAL SINGLE POINT ENERGY      -268.723991424380

DIPOLE MOMENT
-------------
                                X             Y             Z
Electronic contribution:     -0.41089       0.49940       1.18094
Nuclear contribution   :      0.68032      -0.17607      -0.65532
                        -----------------------------------------
Total Dipole Moment    :      0.26944       0.32334       0.52562
                        -----------------------------------------
Magnitude (a.u.)       :      0.67337
Magnitude (Debye)      :      1.71156

                             ****ORCA TERMINATED NORMALLY****
TOTAL RUN TIME: 0 days 0 hours 0 minutes 5 seconds 318 msec
