                         Program Version 3.0.3 - RELEASE   -
|  1> ! RI PBE def2-SVP def2-SVP/J NBO PAL2
|  2> % maxcore 2000
|  3> % output
|  4>     # printlevel mini
|  5>     print[ P_Basis ] 0
|  6>     print[ P_SCFInfo ] 1
|  7>     print[ P_SCFIterInfo ] 1
|  8>     print[ P_OrbEn ] 0
|  9>     print[ P_Cartesian ] 0
| 10> end
| 11> *xyz 0 1
| 12>  O        0.9315970000     0.1226040000     0.0018140000
| 13>  C        2.3432430000     0.0979230000     0.0024720000
| 14>  C        2.8138580000    -1.2729530000     0.0432770000
| 15>  C        3.2356310000    -2.4032410000     0.0770930000
| 16>  C        3.7094850000    -3.6805790000     0.1152380000
| 17>  C        4.1292720000    -4.8100170000     0.1492100000
| 18>  H        0.6538940000     1.0419650000    -0.0273120000
| 19>  H        2.7540390000     0.6306760000     0.8725630000
| 20>  H        2.7539860000     0.5778940000    -0.8978350000
| 21>  H        4.4984060000    -5.8076840000     0.1792790000
| 22> *
| 23>
| 24>                          ****END OF INPUT****
 Total Charge           Charge          ....    0
 Multiplicity           Mult            ....    1
 Number of Electrons    NEL             ....   42
 Basis Dimension        Dim             ....  104

MULLIKEN ATOMIC CHARGES
-----------------------
   0 O :   -0.260262
   1 C :    0.201885
   2 C :   -0.101622
   3 C :   -0.019090
   4 C :    0.358867
   5 C :   -0.418072
   6 H :    0.157662
   7 H :    0.033099
   8 H :    0.032116
   9 H :    0.015417
Sum of atomic charges:   -0.0000000

LOEWDIN ATOMIC CHARGES
----------------------
   0 O :   -0.116194
   1 C :    0.050186
   2 C :   -0.005256
   3 C :   -0.051287
   4 C :   -0.028658
   5 C :   -0.027214
   6 H :    0.073270
   7 H :    0.032397
   8 H :    0.032180
   9 H :    0.040577

  Mayer bond orders larger than 0.1
B(  0-O ,  1-C ) :   1.1446 B(  0-O ,  6-H ) :   0.9766 B(  1-C ,  2-C ) :   1.0302
B(  1-C ,  7-H ) :   0.9079 B(  1-C ,  8-H ) :   0.9078 B(  2-C ,  3-C ) :   2.4224
B(  2-C ,  5-C ) :   0.2605 B(  3-C ,  4-C ) :   0.9472 B(  4-C ,  5-C ) :   2.1526
B(  4-C ,  9-H ) :  -0.1014 B(  5-C ,  9-H ) :   1.0904

FINAL SINGLE POINT ENERGY      -267.485355895651

DIPOLE MOMENT
-------------
                                X             Y             Z
Electronic contribution:      0.56836      -2.76346       0.08280
Nuclear contribution   :     -0.36298       3.56031      -0.10732
                        -----------------------------------------
Total Dipole Moment    :      0.20538       0.79685      -0.02451
                        -----------------------------------------
Magnitude (a.u.)       :      0.82326
Magnitude (Debye)      :      2.09255

                             ****ORCA TERMINATED NORMALLY****
TOTAL RUN TIME: 0 days 0 hours 0 minutes 4 seconds 895 msec
