                         Program Version 3.0.3 - RELEASE   -
|  1> ! RI PBE def2-SVP def2-SVP/J NBO PAL2
|  2> % maxcore 2000
|  3> % output
|  4>     # printlevel mini
|  5>     print[ P_Basis ] 0
|  6>     print[ P_SCFInfo ] 1
|  7>     print[ P_SCFIterInfo ] 1
|  8>     print[ P_OrbEn ] 0
|  9>     print[ P_Cartesian ] 0
| 10> end
| 11> *xyz 0 1
| 12>  O        0.5757830000     0.0934030000     0.0322180000
| 13>  C        1.9469450000    -0.2230370000     0.1640280000
| 14>  C        2.7355330000     0.6949250000    -0.7401480000
| 15>  C        4.2355680000     0.4258390000    -0.6763390000
| 16>  C        5.0162760000     1.2960840000    -1.6041230000
| 17>  C        5.9732980000     2.1373770000    -1.2392160000
| 18>  H        0.0704110000    -0.4835840000     0.6087210000
| 19>  H        2.1370110000    -1.2698360000    -0.1159220000
| 20>  H        2.2811520000    -0.0945390000     1.2040510000
| 21>  H        2.5305910000     1.7323850000    -0.4596290000
| 22>  H        2.3743430000     0.5693630000    -1.7662710000
| 23>  H        4.4172480000    -0.6258580000    -0.9355320000
| 24>  H        4.6006830000     0.5640340000     0.3469760000
| 25>  H        4.7533390000     1.2223310000    -2.6586350000
| 26>  H        6.2647920000     2.2457110000    -0.1986920000
| 27>  H        6.5011370000     2.7469010000    -1.9634960000
| 28> *
| 29>
| 30>                          ****END OF INPUT****
 Total Charge           Charge          ....    0
 Multiplicity           Mult            ....    1
 Number of Electrons    NEL             ....   48
 Basis Dimension        Dim             ....  134

MULLIKEN ATOMIC CHARGES
-----------------------
   0 O :   -0.274626
   1 C :    0.156829
   2 C :   -0.053923
   3 C :    0.041595
   4 C :   -0.074787
   5 C :   -0.038636
   6 H :    0.154790
   7 H :   -0.010180
   8 H :   -0.007457
   9 H :    0.022924
  10 H :    0.018984
  11 H :    0.018238
  12 H :    0.003835
  13 H :    0.004105
  14 H :    0.014355
  15 H :    0.023953
Sum of atomic charges:   -0.0000000

LOEWDIN ATOMIC CHARGES
----------------------
   0 O :   -0.129053
   1 C :    0.055320
   2 C :   -0.047253
   3 C :   -0.040408
   4 C :   -0.026128
   5 C :   -0.069434
   6 H :    0.070165
   7 H :    0.001092
   8 H :    0.001825
   9 H :    0.028819
  10 H :    0.026551
  11 H :    0.032619
  12 H :    0.026028
  13 H :    0.025058
  14 H :    0.020540
  15 H :    0.024258

  Mayer bond orders larger than 0.1
B(  0-O ,  1-C ) :   1.1089 B(  0-O ,  6-H ) :   0.9794 B(  1-C ,  2-C ) :   1.0843
B(  1-C ,  7-H ) :   0.9313 B(  1-C ,  8-H ) :   0.9323 B(  2-C ,  3-C ) :   1.0571
B(  2-C ,  9-H ) :   0.9368 B(  2-C , 10-H ) :   0.9364 B(  3-C ,  4-C ) :   1.0620
B(  3-C , 11-H ) :   0.9117 B(  3-C , 12-H ) :   0.9321 B(  4-C ,  5-C ) :   2.0188
B(  4-C , 13-H ) :   0.9531 B(  5-C , 14-H ) :   0.9480 B(  5-C , 15-H ) :   0.9439

FINAL SINGLE POINT ENERGY      -271.181438087905

DIPOLE MOMENT
-------------
                                X             Y             Z
Electronic contribution:     -2.67417      -0.13505      -0.02717
Nuclear contribution   :      2.67669      -0.36491       0.39272
                        -----------------------------------------
Total Dipole Moment    :      0.00252      -0.49996       0.36555
                        -----------------------------------------
Magnitude (a.u.)       :      0.61935
Magnitude (Debye)      :      1.57425

                             ****ORCA TERMINATED NORMALLY****
TOTAL RUN TIME: 0 days 0 hours 0 minutes 6 seconds 400 msec
