                         Program Version 3.0.3 - RELEASE   -
|  1> ! RI PBE def2-SVP def2-SVP/J NBO PAL2
|  2> % maxcore 2000
|  3> % output
|  4>     # printlevel mini
|  5>     print[ P_Basis ] 0
|  6>     print[ P_SCFInfo ] 1
|  7>     print[ P_SCFIterInfo ] 1
|  8>     print[ P_OrbEn ] 0
|  9>     print[ P_Cartesian ] 0
| 10> end
| 11> *xyz 0 1
| 12>  O        1.0578170000    -0.0011230000    -0.1041760000
| 13>  C        2.4698970000    -0.0610780000    -0.1360450000
| 14>  C        2.9977430000     1.3403760000     0.0619170000
| 15>  C        4.5254090000     1.4035110000     0.0837190000
| 16>  C        5.1468580000     1.0041530000    -1.1696410000
| 17>  C        5.6497490000     0.6789120000    -2.2104750000
| 18>  H        0.7098660000    -0.8721360000    -0.3060490000
| 19>  H        2.8296650000    -0.4589130000    -1.0935790000
| 20>  H        2.8528430000    -0.7155520000     0.6616230000
| 21>  H        2.6139240000     1.7313770000     1.0084630000
| 22>  H        2.6106080000     1.9813370000    -0.7344940000
| 23>  H        4.9123900000     0.7687370000     0.8893400000
| 24>  H        4.8415400000     2.4239180000     0.3214710000
| 25>  H        6.0999890000     0.3927900000    -3.1312750000
| 26> *
| 27>
| 28>                          ****END OF INPUT****
 Total Charge           Charge          ....    0
 Multiplicity           Mult            ....    1
 Number of Electrons    NEL             ....   46
 Basis Dimension        Dim             ....  124

MULLIKEN ATOMIC CHARGES
-----------------------
   0 O :   -0.278861
   1 C :    0.142003
   2 C :   -0.029753
   3 C :    0.070884
   4 C :    0.307281
   5 C :   -0.485079
   6 H :    0.154434
   7 H :    0.009663
   8 H :   -0.008160
   9 H :    0.017123
  10 H :    0.031283
  11 H :    0.034112
  12 H :    0.038295
  13 H :   -0.003227
Sum of atomic charges:    0.0000000

LOEWDIN ATOMIC CHARGES
----------------------
   0 O :   -0.129403
   1 C :    0.055892
   2 C :   -0.039336
   3 C :   -0.044103
   4 C :   -0.024355
   5 C :   -0.093799
   6 H :    0.070735
   7 H :    0.008415
   8 H :    0.002233
   9 H :    0.028940
  10 H :    0.032110
  11 H :    0.046989
  12 H :    0.051861
  13 H :    0.033821

  Mayer bond orders larger than 0.1
B(  0-O ,  1-C ) :   1.0962 B(  0-O ,  6-H ) :   0.9799 B(  1-C ,  2-C ) :   1.0810
B(  1-C ,  7-H ) :   0.9369 B(  1-C ,  8-H ) :   0.9305 B(  2-C ,  3-C ) :   1.0713
B(  2-C ,  9-H ) :   0.9275 B(  2-C , 10-H ) :   0.9349 B(  3-C ,  4-C ) :   1.0702
B(  3-C , 11-H ) :   0.8982 B(  3-C , 12-H ) :   0.8961 B(  4-C ,  5-C ) :   2.3453
B(  4-C , 13-H ) :  -0.1096 B(  5-C , 13-H ) :   1.1009

FINAL SINGLE POINT ENERGY      -269.939081124915

DIPOLE MOMENT
-------------
                                X             Y             Z
Electronic contribution:      0.60009      -0.19017      -1.65356
Nuclear contribution   :     -0.52419      -0.23281       1.74450
                        -----------------------------------------
Total Dipole Moment    :      0.07590      -0.42298       0.09095
                        -----------------------------------------
Magnitude (a.u.)       :      0.43925
Magnitude (Debye)      :      1.11649

                             ****ORCA TERMINATED NORMALLY****
TOTAL RUN TIME: 0 days 0 hours 0 minutes 5 seconds 782 msec
