                         Program Version 3.0.3 - RELEASE   -
|  1> ! RI PBE def2-SVP def2-SVP/J NBO PAL2
|  2> % maxcore 2000
|  3> % output
|  4>     # printlevel mini
|  5>     print[ P_Basis ] 0
|  6>     print[ P_SCFInfo ] 1
|  7>     print[ P_SCFIterInfo ] 1
|  8>     print[ P_OrbEn ] 0
|  9>     print[ P_Cartesian ] 0
| 10> end
| 11> *xyz 0 1
| 12>  O        2.0590240000     0.8316940000    -1.0480540000
| 13>  C        2.1848230000    -0.0696400000     0.0413820000
| 14>  C        2.8476510000    -1.3422720000    -0.4449620000
| 15>  C        4.3690240000    -1.3168460000    -0.5574400000
| 16>  C        4.9678980000    -0.1833020000    -1.3648380000
| 17>  O        5.0388990000     0.9772780000    -0.5505210000
| 18>  H        1.9479580000     1.7159990000    -0.6944030000
| 19>  H        1.1887620000    -0.3076250000     0.4397670000
| 20>  H        2.7767630000     0.3774150000     0.8483490000
| 21>  H        2.4044400000    -1.5890340000    -1.4166140000
| 22>  H        2.5680180000    -2.1553780000     0.2332150000
| 23>  H        4.6954260000    -2.2634930000    -1.0008150000
| 24>  H        4.8177320000    -1.2769270000     0.4418100000
| 25>  H        4.3590620000     0.0051800000    -2.2566010000
| 26>  H        5.9777700000    -0.4650290000    -1.6938850000
| 27>  H        5.1059610000     1.7425910000    -1.1242780000
| 28> *
| 29>
| 30>                          ****END OF INPUT****
 Total Charge           Charge          ....    0
 Multiplicity           Mult            ....    1
 Number of Electrons    NEL             ....   50
 Basis Dimension        Dim             ....  134

MULLIKEN ATOMIC CHARGES
-----------------------
   0 O :   -0.288515
   1 C :    0.160082
   2 C :   -0.035666
   3 C :   -0.035985
   4 C :    0.166109
   5 O :   -0.288639
   6 H :    0.149747
   7 H :   -0.010711
   8 H :    0.002912
   9 H :    0.015565
  10 H :    0.006905
  11 H :    0.003701
  12 H :    0.016519
  13 H :    0.002026
  14 H :   -0.012788
  15 H :    0.148739
Sum of atomic charges:   -0.0000000

LOEWDIN ATOMIC CHARGES
----------------------
   0 O :   -0.131219
   1 C :    0.055700
   2 C :   -0.054604
   3 C :   -0.054162
   4 C :    0.056713
   5 O :   -0.131085
   6 H :    0.066526
   7 H :    0.001557
   8 H :    0.006145
   9 H :    0.026997
  10 H :    0.028747
  11 H :    0.028055
  12 H :    0.027196
  13 H :    0.005973
  14 H :    0.001207
  15 H :    0.066252

  Mayer bond orders larger than 0.1
B(  0-O ,  1-C ) :   1.0604 B(  0-O ,  6-H ) :   0.9814 B(  1-C ,  2-C ) :   1.0934
B(  1-C ,  7-H ) :   0.9285 B(  1-C ,  8-H ) :   0.9359 B(  2-C ,  3-C ) :   1.1302
B(  2-C ,  9-H ) :   0.9265 B(  2-C , 10-H ) :   0.9286 B(  3-C ,  4-C ) :   1.0924
B(  3-C , 11-H ) :   0.9289 B(  3-C , 12-H ) :   0.9266 B(  4-C ,  5-O ) :   1.0573
B(  4-C , 13-H ) :   0.9366 B(  4-C , 14-H ) :   0.9283 B(  5-O , 15-H ) :   0.9821

FINAL SINGLE POINT ENERGY      -308.257754161965

DIPOLE MOMENT
-------------
                                X             Y             Z
Electronic contribution:     -0.08361       3.16644      -0.42285
Nuclear contribution   :      0.07573      -2.85483       0.38091
                        -----------------------------------------
Total Dipole Moment    :     -0.00788       0.31162      -0.04194
                        -----------------------------------------
Magnitude (a.u.)       :      0.31453
Magnitude (Debye)      :      0.79946

                             ****ORCA TERMINATED NORMALLY****
TOTAL RUN TIME: 0 days 0 hours 0 minutes 6 seconds 150 msec
