                         Program Version 3.0.3 - RELEASE   -
|  1> ! RI PBE def2-SVP def2-SVP/J NBO PAL2
|  2> % maxcore 2000
|  3> % output
|  4>     # printlevel mini
|  5>     print[ P_Basis ] 0
|  6>     print[ P_SCFInfo ] 1
|  7>     print[ P_SCFIterInfo ] 1
|  8>     print[ P_OrbEn ] 0
|  9>     print[ P_Cartesian ] 0
| 10> end
| 11> *xyz 0 1
| 12>  O        1.6594660000     0.0647800000     0.8637390000
| 13>  C        2.6830690000     0.1882120000     0.2442220000
| 14>  C        3.1654590000    -0.8003500000    -0.7322100000
| 15>  C        4.3080670000    -0.6264960000    -1.3999630000
| 16>  C        4.7904600000    -1.6150620000    -2.3763880000
| 17>  O        5.8140000000    -1.4915670000    -2.9959910000
| 18>  H        3.3367970000     1.0752330000     0.3774270000
| 19>  H        2.5448850000    -1.6802350000    -0.8832330000
| 20>  H        4.9286410000     0.2533880000    -1.2489400000
| 21>  H        4.1366660000    -2.5020230000    -2.5096740000
| 22> *
| 23>
| 24>                          ****END OF INPUT****
 Total Charge           Charge          ....    0
 Multiplicity           Mult            ....    1
 Number of Electrons    NEL             ....   44
 Basis Dimension        Dim             ....  104

MULLIKEN ATOMIC CHARGES
-----------------------
   0 O :   -0.143413
   1 C :    0.133096
   2 C :   -0.008362
   3 C :   -0.008364
   4 C :    0.133097
   5 O :   -0.143410
   6 H :   -0.010363
   7 H :    0.029042
   8 H :    0.029041
   9 H :   -0.010364
Sum of atomic charges:   -0.0000000

LOEWDIN ATOMIC CHARGES
----------------------
   0 O :   -0.087106
   1 C :    0.076804
   2 C :   -0.024941
   3 C :   -0.024941
   4 C :    0.076803
   5 O :   -0.087103
   6 H :   -0.005384
   7 H :    0.040627
   8 H :    0.040627
   9 H :   -0.005385

  Mayer bond orders larger than 0.1
B(  0-O ,  1-C ) :   2.1218 B(  1-C ,  2-C ) :   1.0137 B(  1-C ,  6-H ) :   0.9359
B(  2-C ,  3-C ) :   1.6509 B(  2-C ,  7-H ) :   0.9611 B(  3-C ,  4-C ) :   1.0137
B(  3-C ,  8-H ) :   0.9611 B(  4-C ,  5-O ) :   2.1218 B(  4-C ,  9-H ) :   0.9359

FINAL SINGLE POINT ENERGY      -304.656045951140

DIPOLE MOMENT
-------------
                                X             Y             Z
Electronic contribution:      0.00005      -0.00004       0.00005
Nuclear contribution   :     -0.00002       0.00001      -0.00001
                        -----------------------------------------
Total Dipole Moment    :      0.00003      -0.00003       0.00003
                        -----------------------------------------
Magnitude (a.u.)       :      0.00006
Magnitude (Debye)      :      0.00014

                             ****ORCA TERMINATED NORMALLY****
TOTAL RUN TIME: 0 days 0 hours 0 minutes 4 seconds 466 msec
