                         Program Version 3.0.3 - RELEASE   -
|  1> ! RI PBE def2-SVP def2-SVP/J NBO PAL2
|  2> % maxcore 2000
|  3> % output
|  4>     # printlevel mini
|  5>     print[ P_Basis ] 0
|  6>     print[ P_SCFInfo ] 1
|  7>     print[ P_SCFIterInfo ] 1
|  8>     print[ P_OrbEn ] 0
|  9>     print[ P_Cartesian ] 0
| 10> end
| 11> *xyz 0 1
| 12>  O        1.0780960000     0.4525630000     0.3959130000
| 13>  C        2.1003320000     0.0424550000    -0.0837290000
| 14>  C        2.8000130000    -1.1218070000     0.4062940000
| 15>  C        3.4098880000    -2.0977430000     0.7731280000
| 16>  C        4.1489690000    -3.2370140000     1.2641030000
| 17>  O        4.0515950000    -4.3408050000     0.8000610000
| 18>  H        2.5867770000     0.5341970000    -0.9467120000
| 19>  H        4.8213380000    -3.0101470000     2.1124310000
| 20> *
| 21>
| 22>                          ****END OF INPUT****
 Total Charge           Charge          ....    0
 Multiplicity           Mult            ....    1
 Number of Electrons    NEL             ....   42
 Basis Dimension        Dim             ....   94

MULLIKEN ATOMIC CHARGES
-----------------------
   0 O :   -0.136446
   1 C :    0.100778
   2 C :    0.003984
   3 C :    0.002329
   4 C :    0.098499
   5 O :   -0.135263
   6 H :    0.032486
   7 H :    0.033632
Sum of atomic charges:   -0.0000000

LOEWDIN ATOMIC CHARGES
----------------------
   0 O :   -0.071342
   1 C :    0.077073
   2 C :   -0.018357
   3 C :   -0.018676
   4 C :    0.076488
   5 O :   -0.071117
   6 H :    0.012819
   7 H :    0.013111

  Mayer bond orders larger than 0.1
B(  0-O ,  1-C ) :   2.1401 B(  0-O ,  3-C ) :   0.1143 B(  1-C ,  2-C ) :   0.8979
B(  1-C ,  6-H ) :   0.9384 B(  2-C ,  3-C ) :   2.5835 B(  2-C ,  5-O ) :   0.1139
B(  3-C ,  4-C ) :   0.8972 B(  4-C ,  5-O ) :   2.1417 B(  4-C ,  7-H ) :   0.9386

FINAL SINGLE POINT ENERGY      -303.399720049779

DIPOLE MOMENT
-------------
                                X             Y             Z
Electronic contribution:     -0.74709      -0.46258       0.00838
Nuclear contribution   :      1.47053       0.91185      -0.01871
                        -----------------------------------------
Total Dipole Moment    :      0.72343       0.44926      -0.01032
                        -----------------------------------------
Magnitude (a.u.)       :      0.85165
Magnitude (Debye)      :      2.16471

                             ****ORCA TERMINATED NORMALLY****
TOTAL RUN TIME: 0 days 0 hours 0 minutes 4 seconds 106 msec
