                         Program Version 3.0.3 - RELEASE   -
|  1> ! RI PBE def2-SVP def2-SVP/J NBO PAL2
|  2> % maxcore 2000
|  3> % output
|  4>     # printlevel mini
|  5>     print[ P_Basis ] 0
|  6>     print[ P_SCFInfo ] 1
|  7>     print[ P_SCFIterInfo ] 1
|  8>     print[ P_OrbEn ] 0
|  9>     print[ P_Cartesian ] 0
| 10> end
| 11> *xyz 0 1
| 12>  O        2.4242590000    -1.1428320000     0.5387140000
| 13>  C        2.0446830000    -0.1215300000     0.0360310000
| 14>  C        2.9317160000     0.8509640000    -0.6866900000
| 15>  C        4.4007990000     0.5172080000    -0.5672460000
| 16>  C        4.9765260000     0.8591030000     0.7768310000
| 17>  O        4.3925360000     1.4663310000     1.6312640000
| 18>  H        0.9702190000     0.1581120000     0.0655440000
| 19>  H        2.7178520000     1.8502160000    -0.2929560000
| 20>  H        2.6036660000     0.8626720000    -1.7335250000
| 21>  H        4.9991020000     1.0529430000    -1.3146660000
| 22>  H        4.5819760000    -0.5482550000    -0.7439730000
| 23>  H        6.0223660000     0.5214780000     0.9373710000
| 24> *
| 25>
| 26>                          ****END OF INPUT****
 Total Charge           Charge          ....    0
 Multiplicity           Mult            ....    1
 Number of Electrons    NEL             ....   46
 Basis Dimension        Dim             ....  114

MULLIKEN ATOMIC CHARGES
-----------------------
   0 O :   -0.161347
   1 C :    0.085620
   2 C :   -0.012776
   3 C :   -0.009723
   4 C :    0.083646
   5 O :   -0.161222
   6 H :   -0.001845
   7 H :    0.045662
   8 H :    0.041379
   9 H :    0.043650
  10 H :    0.046929
  11 H :    0.000026
Sum of atomic charges:   -0.0000000

LOEWDIN ATOMIC CHARGES
----------------------
   0 O :   -0.108141
   1 C :    0.099004
   2 C :   -0.083361
   3 C :   -0.083458
   4 C :    0.098586
   5 O :   -0.107801
   6 H :   -0.007456
   7 H :    0.048000
   8 H :    0.051300
   9 H :    0.052024
  10 H :    0.048275
  11 H :   -0.006974

  Mayer bond orders larger than 0.1
B(  0-O ,  1-C ) :   2.1847 B(  1-C ,  2-C ) :   0.9647 B(  1-C ,  6-H ) :   0.9314
B(  2-C ,  3-C ) :   1.0872 B(  2-C ,  7-H ) :   0.9052 B(  2-C ,  8-H ) :   0.9027
B(  3-C ,  4-C ) :   0.9680 B(  3-C ,  9-H ) :   0.9019 B(  3-C , 10-H ) :   0.9051
B(  4-C ,  5-O ) :   2.1834 B(  4-C , 11-H ) :   0.9291

FINAL SINGLE POINT ENERGY      -305.873402652091

DIPOLE MOMENT
-------------
                                X             Y             Z
Electronic contribution:     -0.50704      -1.03617       3.40375
Nuclear contribution   :      0.69122       1.40018      -4.58909
                        -----------------------------------------
Total Dipole Moment    :      0.18418       0.36401      -1.18534
                        -----------------------------------------
Magnitude (a.u.)       :      1.25358
Magnitude (Debye)      :      3.18634

                             ****ORCA TERMINATED NORMALLY****
TOTAL RUN TIME: 0 days 0 hours 0 minutes 5 seconds 279 msec
