                         Program Version 3.0.3 - RELEASE   -
|  1> ! RI PBE def2-SVP def2-SVP/J NBO PAL2
|  2> % maxcore 2000
|  3> % output
|  4>     # printlevel mini
|  5>     print[ P_Basis ] 0
|  6>     print[ P_SCFInfo ] 1
|  7>     print[ P_SCFIterInfo ] 1
|  8>     print[ P_OrbEn ] 0
|  9>     print[ P_Cartesian ] 0
| 10> end
| 11> *xyz 0 1
| 12>  O        0.8232010000    -0.0679220000    -0.2690430000
| 13>  C        2.1288270000    -0.0119210000     0.1953400000
| 14>  C        2.3593630000     1.0751900000     1.2082390000
| 15>  C        1.3985480000     1.8461450000     1.6903310000
| 16>  C        2.5357050000    -1.3420410000     0.7886620000
| 17>  O        1.7860930000    -2.2805350000     0.7999690000
| 18>  H        0.5203360000    -0.9746120000    -0.1063840000
| 19>  H        2.8305430000     0.1590920000    -0.6440560000
| 20>  H        3.3905950000     1.2057150000     1.5284670000
| 21>  H        0.3744300000     1.7263850000     1.3581930000
| 22>  H        1.6152400000     2.6208710000     2.4157290000
| 23>  H        3.5571180000    -1.4064570000     1.2098440000
| 24> *
| 25>
| 26>                          ****END OF INPUT****
 Total Charge           Charge          ....    0
 Multiplicity           Mult            ....    1
 Number of Electrons    NEL             ....   46
 Basis Dimension        Dim             ....  114

MULLIKEN ATOMIC CHARGES
-----------------------
   0 O :   -0.225257
   1 C :    0.143009
   2 C :   -0.111255
   3 C :   -0.010932
   4 C :    0.104437
   5 O :   -0.171270
   6 H :    0.148767
   7 H :    0.037866
   8 H :    0.006350
   9 H :    0.038578
  10 H :    0.032079
  11 H :    0.007626
Sum of atomic charges:   -0.0000000

LOEWDIN ATOMIC CHARGES
----------------------
   0 O :   -0.089909
   1 C :    0.001310
   2 C :   -0.050890
   3 C :   -0.043590
   4 C :    0.095517
   5 O :   -0.096515
   6 H :    0.058398
   7 H :    0.040639
   8 H :    0.026642
   9 H :    0.028737
  10 H :    0.029128
  11 H :    0.000532

  Mayer bond orders larger than 0.1
B(  0-O ,  1-C ) :   1.2000 B(  0-O ,  6-H ) :   0.9400 B(  1-C ,  2-C ) :   0.9440
B(  1-C ,  4-C ) :   0.9194 B(  1-C ,  7-H ) :   0.8710 B(  2-C ,  3-C ) :   2.0269
B(  2-C ,  8-H ) :   0.9401 B(  3-C ,  9-H ) :   0.9354 B(  3-C , 10-H ) :   0.9444
B(  4-C ,  5-O ) :   2.1245 B(  4-C , 11-H ) :   0.9236 B(  5-O ,  6-H ) :   0.1024

FINAL SINGLE POINT ENERGY      -305.848745684656

DIPOLE MOMENT
-------------
                                X             Y             Z
Electronic contribution:     -0.67215      -3.87899      -1.24799
Nuclear contribution   :      1.35974       4.10188       1.40817
                        -----------------------------------------
Total Dipole Moment    :      0.68759       0.22289       0.16018
                        -----------------------------------------
Magnitude (a.u.)       :      0.74035
Magnitude (Debye)      :      1.88181

                             ****ORCA TERMINATED NORMALLY****
TOTAL RUN TIME: 0 days 0 hours 0 minutes 5 seconds 451 msec
