                         Program Version 3.0.3 - RELEASE   -
|  1> ! RI PBE def2-SVP def2-SVP/J NBO PAL2
|  2> % maxcore 2000
|  3> % output
|  4>     # printlevel mini
|  5>     print[ P_Basis ] 0
|  6>     print[ P_SCFInfo ] 1
|  7>     print[ P_SCFIterInfo ] 1
|  8>     print[ P_OrbEn ] 0
|  9>     print[ P_Cartesian ] 0
| 10> end
| 11> *xyz 0 1
| 12>  O        2.5187800000    -1.4728680000    -0.0406820000
| 13>  C        2.6985990000    -0.0790710000    -0.2187010000
| 14>  C        3.1323130000     0.5105070000     1.0765380000
| 15>  C        4.1977970000     1.2861900000     1.2319840000
| 16>  C        4.6093000000     1.8925700000     2.5308420000
| 17>  O        5.9278220000     1.5278040000     2.8949810000
| 18>  H        2.0817190000    -1.8246560000    -0.8195330000
| 19>  H        1.7532820000     0.3913530000    -0.5289730000
| 20>  H        3.4466410000     0.1344730000    -0.9939030000
| 21>  H        2.4994230000     0.2802870000     1.9322000000
| 22>  H        4.8457600000     1.4960110000     0.3821080000
| 23>  H        3.8872960000     1.6236790000     3.3139300000
| 24>  H        4.6221610000     2.9841470000     2.4571830000
| 25>  H        5.9732970000     0.5675530000     2.8986260000
| 26> *
| 27>
| 28>                          ****END OF INPUT****
 Total Charge           Charge          ....    0
 Multiplicity           Mult            ....    1
 Number of Electrons    NEL             ....   48
 Basis Dimension        Dim             ....  124

MULLIKEN ATOMIC CHARGES
-----------------------
   0 O :   -0.285777
   1 C :    0.203714
   2 C :   -0.071117
   3 C :   -0.135408
   4 C :    0.242763
   5 O :   -0.290240
   6 H :    0.154213
   7 H :    0.011008
   8 H :   -0.004055
   9 H :    0.003814
  10 H :    0.001537
  11 H :   -0.004434
  12 H :    0.022464
  13 H :    0.151518
Sum of atomic charges:   -0.0000000

LOEWDIN ATOMIC CHARGES
----------------------
   0 O :   -0.131220
   1 C :    0.055743
   2 C :   -0.042634
   3 C :   -0.062014
   4 C :    0.053337
   5 O :   -0.120961
   6 H :    0.069500
   7 H :    0.014871
   8 H :    0.008013
   9 H :    0.025891
  10 H :    0.024179
  11 H :    0.008047
  12 H :    0.029601
  13 H :    0.067648

  Mayer bond orders larger than 0.1
B(  0-O ,  1-C ) :   1.0703 B(  0-O ,  6-H ) :   0.9792 B(  1-C ,  2-C ) :   1.0500
B(  1-C ,  7-H ) :   0.9137 B(  1-C ,  8-H ) :   0.9302 B(  2-C ,  3-C ) :   1.8791
B(  2-C ,  9-H ) :   0.9512 B(  3-C ,  4-C ) :   1.0626 B(  3-C , 10-H ) :   0.9529
B(  4-C ,  5-O ) :   1.0354 B(  4-C , 11-H ) :   0.9333 B(  4-C , 12-H ) :   0.9171
B(  5-O , 13-H ) :   0.9861

FINAL SINGLE POINT ENERGY      -307.037301992357

DIPOLE MOMENT
-------------
                                X             Y             Z
Electronic contribution:      1.05398      -1.22748       0.60698
Nuclear contribution   :     -1.66798       1.03330      -1.24716
                        -----------------------------------------
Total Dipole Moment    :     -0.61400      -0.19418      -0.64019
                        -----------------------------------------
Magnitude (a.u.)       :      0.90804
Magnitude (Debye)      :      2.30806

                             ****ORCA TERMINATED NORMALLY****
TOTAL RUN TIME: 0 days 0 hours 0 minutes 5 seconds 651 msec
