                         Program Version 3.0.3 - RELEASE   -
|  1> ! RI PBE def2-SVP def2-SVP/J NBO PAL2
|  2> % maxcore 2000
|  3> % output
|  4>     # printlevel mini
|  5>     print[ P_Basis ] 0
|  6>     print[ P_SCFInfo ] 1
|  7>     print[ P_SCFIterInfo ] 1
|  8>     print[ P_OrbEn ] 0
|  9>     print[ P_Cartesian ] 0
| 10> end
| 11> *xyz 0 1
| 12>  O        1.5453700000     0.3620040000    -1.0268280000
| 13>  C        2.5601500000     0.0935960000    -0.0836770000
| 14>  C        2.9816380000    -1.3227440000    -0.2383690000
| 15>  C        4.2335540000    -1.7694220000    -0.1522490000
| 16>  C        4.5229000000    -3.1993850000    -0.2656100000
| 17>  O        5.6237040000    -3.6821740000    -0.1789910000
| 18>  H        1.1772660000     1.2293850000    -0.8437370000
| 19>  H        2.1848400000     0.2255270000     0.9438290000
| 20>  H        3.4221640000     0.7616450000    -0.2081800000
| 21>  H        2.1720540000    -2.0309300000    -0.4101680000
| 22>  H        5.0792420000    -1.1056260000     0.0034180000
| 23>  H        3.6305180000    -3.8378650000    -0.4463280000
| 24> *
| 25>
| 26>                          ****END OF INPUT****
 Total Charge           Charge          ....    0
 Multiplicity           Mult            ....    1
 Number of Electrons    NEL             ....   46
 Basis Dimension        Dim             ....  114

MULLIKEN ATOMIC CHARGES
-----------------------
   0 O :   -0.279995
   1 C :    0.213199
   2 C :   -0.073106
   3 C :   -0.018331
   4 C :    0.119704
   5 O :   -0.165679
   6 H :    0.160469
   7 H :    0.026975
   8 H :    0.010627
   9 H :    0.025389
  10 H :    0.007600
  11 H :   -0.026852
Sum of atomic charges:   -0.0000000

LOEWDIN ATOMIC CHARGES
----------------------
   0 O :   -0.123682
   1 C :    0.057185
   2 C :    0.013370
   3 C :   -0.072180
   4 C :    0.069179
   5 O :   -0.114227
   6 H :    0.074704
   7 H :    0.025373
   8 H :    0.015496
   9 H :    0.034403
  10 H :    0.033275
  11 H :   -0.012896

  Mayer bond orders larger than 0.1
B(  0-O ,  1-C ) :   1.0813 B(  0-O ,  6-H ) :   0.9768 B(  1-C ,  2-C ) :   1.0411
B(  1-C ,  7-H ) :   0.9069 B(  1-C ,  8-H ) :   0.9307 B(  2-C ,  3-C ) :   1.7504
B(  2-C ,  5-O ) :   0.1033 B(  2-C ,  9-H ) :   0.9543 B(  3-C ,  4-C ) :   1.0375
B(  3-C , 10-H ) :   0.9598 B(  4-C ,  5-O ) :   2.1127 B(  4-C , 11-H ) :   0.9303

FINAL SINGLE POINT ENERGY      -305.848209868506

DIPOLE MOMENT
-------------
                                X             Y             Z
Electronic contribution:      2.35576      -2.90206      -0.61300
Nuclear contribution   :     -3.31767       4.18705       0.99629
                        -----------------------------------------
Total Dipole Moment    :     -0.96191       1.28498       0.38329
                        -----------------------------------------
Magnitude (a.u.)       :      1.65026
Magnitude (Debye)      :      4.19463

                             ****ORCA TERMINATED NORMALLY****
TOTAL RUN TIME: 0 days 0 hours 0 minutes 5 seconds 285 msec
