                         Program Version 3.0.3 - RELEASE   -
|  1> ! RI PBE def2-SVP def2-SVP/J NBO PAL2
|  2> % maxcore 2000
|  3> % output
|  4>     # printlevel mini
|  5>     print[ P_Basis ] 0
|  6>     print[ P_SCFInfo ] 1
|  7>     print[ P_SCFIterInfo ] 1
|  8>     print[ P_OrbEn ] 0
|  9>     print[ P_Cartesian ] 0
| 10> end
| 11> *xyz 0 1
| 12>  O        3.1638870000    -0.3167740000    -1.2718720000
| 13>  C        2.4397270000    -0.2212280000    -0.0484850000
| 14>  C        2.8260160000    -1.3554570000     0.8488150000
| 15>  C        1.9071990000    -2.1121920000     1.4356080000
| 16>  C        4.2993420000    -1.5541030000     1.0757420000
| 17>  O        4.9614750000    -2.0885770000    -0.0499400000
| 18>  H        3.1148380000     0.5251930000    -1.7295450000
| 19>  H        1.3596630000    -0.2342080000    -0.2342370000
| 20>  H        2.6889450000     0.7246840000     0.4543430000
| 21>  H        0.8474340000    -1.9692110000     1.2505180000
| 22>  H        2.1850780000    -2.9000010000     2.1271650000
| 23>  H        4.4556260000    -2.2570250000     1.8965360000
| 24>  H        4.7509850000    -0.5930220000     1.3722120000
| 25>  H        4.6721860000    -1.5684790000    -0.8096520000
| 26> *
| 27>
| 28>                          ****END OF INPUT****
 Total Charge           Charge          ....    0
 Multiplicity           Mult            ....    1
 Number of Electrons    NEL             ....   48
 Basis Dimension        Dim             ....  124

MULLIKEN ATOMIC CHARGES
-----------------------
   0 O :   -0.289628
   1 C :    0.231405
   2 C :   -0.246227
   3 C :   -0.023521
   4 C :    0.281218
   5 O :   -0.293285
   6 H :    0.166211
   7 H :    0.001445
   8 H :    0.013548
   9 H :    0.015045
  10 H :    0.020335
  11 H :   -0.004126
  12 H :   -0.018519
  13 H :    0.146100
Sum of atomic charges:    0.0000000

LOEWDIN ATOMIC CHARGES
----------------------
   0 O :   -0.116160
   1 C :    0.068541
   2 C :   -0.064511
   3 C :   -0.047340
   4 C :    0.064660
   5 O :   -0.125792
   6 H :    0.076038
   7 H :    0.012119
   8 H :    0.016694
   9 H :    0.021280
  10 H :    0.025373
  11 H :    0.021178
  12 H :    0.003494
  13 H :    0.044425

  Mayer bond orders larger than 0.1
B(  0-O ,  1-C ) :   1.0469 B(  0-O ,  6-H ) :   0.9705 B(  1-C ,  2-C ) :   1.0524
B(  1-C ,  7-H ) :   0.9275 B(  1-C ,  8-H ) :   0.9182 B(  2-C ,  3-C ) :   1.9881
B(  2-C ,  4-C ) :   1.0257 B(  3-C ,  9-H ) :   0.9339 B(  3-C , 10-H ) :   0.9355
B(  4-C ,  5-O ) :   1.0767 B(  4-C , 11-H ) :   0.9257 B(  4-C , 12-H ) :   0.9089
B(  5-O , 13-H ) :   0.9595

FINAL SINGLE POINT ENERGY      -307.041649423439

DIPOLE MOMENT
-------------
                                X             Y             Z
Electronic contribution:      1.57505      -0.49715      -2.13648
Nuclear contribution   :     -2.27086       1.59363       2.07404
                        -----------------------------------------
Total Dipole Moment    :     -0.69581       1.09648      -0.06244
                        -----------------------------------------
Magnitude (a.u.)       :      1.30012
Magnitude (Debye)      :      3.30465

                             ****ORCA TERMINATED NORMALLY****
TOTAL RUN TIME: 0 days 0 hours 0 minutes 5 seconds 896 msec
