                         Program Version 3.0.3 - RELEASE   -
|  1> ! RI PBE def2-SVP def2-SVP/J NBO PAL2
|  2> % maxcore 2000
|  3> % output
|  4>     # printlevel mini
|  5>     print[ P_Basis ] 0
|  6>     print[ P_SCFInfo ] 1
|  7>     print[ P_SCFIterInfo ] 1
|  8>     print[ P_OrbEn ] 0
|  9>     print[ P_Cartesian ] 0
| 10> end
| 11> *xyz 0 1
| 12>  O        1.0929300000    -0.0769220000    -0.0689480000
| 13>  C        2.4964890000    -0.0587280000     0.0299190000
| 14>  C        2.9136210000     0.8605710000     1.1276380000
| 15>  C        2.0713520000     1.5538800000     1.8911790000
| 16>  C        4.3586530000     0.9955850000     1.3658220000
| 17>  O        5.2071360000     0.4155590000     0.7353870000
| 18>  H        0.8475560000    -0.6713670000    -0.7806660000
| 19>  H        2.9686100000     0.2790790000    -0.9032600000
| 20>  H        2.9053700000    -1.0570490000     0.2397480000
| 21>  H        0.9996800000     1.4882100000     1.7547690000
| 22>  H        2.4518790000     2.2040460000     2.6723560000
| 23>  H        4.6280340000     1.6885260000     2.1912570000
| 24> *
| 25>
| 26>                          ****END OF INPUT****
 Total Charge           Charge          ....    0
 Multiplicity           Mult            ....    1
 Number of Electrons    NEL             ....   46
 Basis Dimension        Dim             ....  114

MULLIKEN ATOMIC CHARGES
-----------------------
   0 O :   -0.267243
   1 C :    0.238224
   2 C :   -0.198181
   3 C :    0.006370
   4 C :    0.131313
   5 O :   -0.166850
   6 H :    0.161951
   7 H :    0.019698
   8 H :    0.021612
   9 H :    0.048514
  10 H :    0.028051
  11 H :   -0.023461
Sum of atomic charges:   -0.0000000

LOEWDIN ATOMIC CHARGES
----------------------
   0 O :   -0.114710
   1 C :    0.064918
   2 C :   -0.092112
   3 C :    0.002176
   4 C :    0.080565
   5 O :   -0.116935
   6 H :    0.076605
   7 H :    0.023670
   8 H :    0.024077
   9 H :    0.033515
  10 H :    0.027700
  11 H :   -0.009469

  Mayer bond orders larger than 0.1
B(  0-O ,  1-C ) :   1.1218 B(  0-O ,  6-H ) :   0.9751 B(  1-C ,  2-C ) :   1.0171
B(  1-C ,  7-H ) :   0.9120 B(  1-C ,  8-H ) :   0.9115 B(  2-C ,  3-C ) :   1.8781
B(  2-C ,  4-C ) :   1.0069 B(  3-C ,  9-H ) :   0.9292 B(  3-C , 10-H ) :   0.9306
B(  4-C ,  5-O ) :   2.1341 B(  4-C , 11-H ) :   0.9360

FINAL SINGLE POINT ENERGY      -305.851711654452

DIPOLE MOMENT
-------------
                                X             Y             Z
Electronic contribution:      2.24303      -0.48156      -0.43521
Nuclear contribution   :     -2.97405       0.43103       0.33534
                        -----------------------------------------
Total Dipole Moment    :     -0.73102      -0.05052      -0.09987
                        -----------------------------------------
Magnitude (a.u.)       :      0.73954
Magnitude (Debye)      :      1.87975

                             ****ORCA TERMINATED NORMALLY****
TOTAL RUN TIME: 0 days 0 hours 0 minutes 5 seconds 416 msec
