                         Program Version 3.0.3 - RELEASE   -
|  1> ! RI PBE def2-SVP def2-SVP/J NBO PAL2
|  2> % maxcore 2000
|  3> % output
|  4>     # printlevel mini
|  5>     print[ P_Basis ] 0
|  6>     print[ P_SCFInfo ] 1
|  7>     print[ P_SCFIterInfo ] 1
|  8>     print[ P_OrbEn ] 0
|  9>     print[ P_Cartesian ] 0
| 10> end
| 11> *xyz 0 1
| 12>  O        1.0611920000    -0.0604460000    -0.1271160000
| 13>  C        2.4704970000    -0.0316790000    -0.0231990000
| 14>  C        2.9593240000     1.3171010000    -0.2461480000
| 15>  C        3.3735700000     2.4319220000    -0.4241630000
| 16>  C        3.9010820000     3.7697720000    -0.6541780000
| 17>  O        4.1419200000     4.0644650000    -2.0138950000
| 18>  H        0.7736330000    -0.9635720000     0.0299660000
| 19>  H        2.9375200000    -0.6989120000    -0.7617760000
| 20>  H        2.8029290000    -0.3634570000     0.9708040000
| 21>  H        4.8118780000     3.8994460000    -0.0524490000
| 22>  H        3.1791120000     4.5123500000    -0.3045860000
| 23>  H        4.6315440000     3.3304090000    -2.3942580000
| 24> *
| 25>
| 26>                          ****END OF INPUT****
 Total Charge           Charge          ....    0
 Multiplicity           Mult            ....    1
 Number of Electrons    NEL             ....   46
 Basis Dimension        Dim             ....  114

MULLIKEN ATOMIC CHARGES
-----------------------
   0 O :   -0.264332
   1 C :    0.209317
   2 C :   -0.149252
   3 C :   -0.194304
   4 C :    0.266167
   5 O :   -0.281348
   6 H :    0.154587
   7 H :    0.023770
   8 H :    0.019726
   9 H :    0.024323
  10 H :    0.036349
  11 H :    0.154998
Sum of atomic charges:   -0.0000000

LOEWDIN ATOMIC CHARGES
----------------------
   0 O :   -0.120548
   1 C :    0.049137
   2 C :   -0.057141
   3 C :   -0.073430
   4 C :    0.049934
   5 O :   -0.114954
   6 H :    0.070779
   7 H :    0.027533
   8 H :    0.026759
   9 H :    0.026725
  10 H :    0.045409
  11 H :    0.069796

  Mayer bond orders larger than 0.1
B(  0-O ,  1-C ) :   1.1405 B(  0-O ,  6-H ) :   0.9778 B(  1-C ,  2-C ) :   1.0334
B(  1-C ,  7-H ) :   0.9077 B(  1-C ,  8-H ) :   0.9107 B(  2-C ,  3-C ) :   2.7149
B(  3-C ,  4-C ) :   1.0238 B(  4-C ,  5-O ) :   1.0674 B(  4-C ,  9-H ) :   0.9187
B(  4-C , 10-H ) :   0.8956 B(  5-O , 11-H ) :   0.9839

FINAL SINGLE POINT ENERGY      -305.793160459051

DIPOLE MOMENT
-------------
                                X             Y             Z
Electronic contribution:     -0.78200       0.54129      -0.73124
Nuclear contribution   :      1.26110      -1.59050       1.09327
                        -----------------------------------------
Total Dipole Moment    :      0.47910      -1.04921       0.36203
                        -----------------------------------------
Magnitude (a.u.)       :      1.20890
Magnitude (Debye)      :      3.07278

                             ****ORCA TERMINATED NORMALLY****
TOTAL RUN TIME: 0 days 0 hours 0 minutes 5 seconds 5 msec
