                         Program Version 3.0.3 - RELEASE   -
|  1> ! RI PBE def2-SVP def2-SVP/J NBO PAL2
|  2> % maxcore 2000
|  3> % output
|  4>     # printlevel mini
|  5>     print[ P_Basis ] 0
|  6>     print[ P_SCFInfo ] 1
|  7>     print[ P_SCFIterInfo ] 1
|  8>     print[ P_OrbEn ] 0
|  9>     print[ P_Cartesian ] 0
| 10> end
| 11> *xyz 0 1
| 12>  O        0.9992280000     0.0065740000    -0.3648450000
| 13>  C        2.3499390000     0.1138080000     0.0222350000
| 14>  C        2.8407030000    -1.1687590000     0.4845420000
| 15>  C        3.2956760000    -2.2134500000     0.8770960000
| 16>  C        3.7726470000    -3.4902040000     1.3340600000
| 17>  O        4.8926540000    -3.6952870000     1.7269900000
| 18>  H        0.7066930000     0.8714930000    -0.6639010000
| 19>  H        2.4847910000     0.8408110000     0.8363360000
| 20>  H        2.9889330000     0.4394580000    -0.8115370000
| 21>  H        3.0147260000    -4.2959530000     1.2983040000
| 22> *
| 23>
| 24>                          ****END OF INPUT****
 Total Charge           Charge          ....    0
 Multiplicity           Mult            ....    1
 Number of Electrons    NEL             ....   44
 Basis Dimension        Dim             ....  104

MULLIKEN ATOMIC CHARGES
-----------------------
   0 O :   -0.258823
   1 C :    0.198088
   2 C :   -0.066956
   3 C :   -0.059644
   4 C :    0.077064
   5 O :   -0.156059
   6 H :    0.161943
   7 H :    0.041855
   8 H :    0.041247
   9 H :    0.021286
Sum of atomic charges:   -0.0000000

LOEWDIN ATOMIC CHARGES
----------------------
   0 O :   -0.114727
   1 C :    0.049004
   2 C :    0.004825
   3 C :   -0.070812
   4 C :    0.067272
   5 O :   -0.095056
   6 H :    0.075941
   7 H :    0.038656
   8 H :    0.038496
   9 H :    0.006401

  Mayer bond orders larger than 0.1
B(  0-O ,  1-C ) :   1.1461 B(  0-O ,  6-H ) :   0.9744 B(  1-C ,  2-C ) :   1.0363
B(  1-C ,  7-H ) :   0.9005 B(  1-C ,  8-H ) :   0.9013 B(  2-C ,  3-C ) :   2.6103
B(  2-C ,  5-O ) :   0.1175 B(  3-C ,  4-C ) :   0.9108 B(  4-C ,  5-O ) :   2.1304
B(  4-C ,  9-H ) :   0.9397

FINAL SINGLE POINT ENERGY      -304.598030226101

DIPOLE MOMENT
-------------
                                X             Y             Z
Electronic contribution:      1.84807      -3.05209       1.30787
Nuclear contribution   :     -2.56797       4.33801      -1.84034
                        -----------------------------------------
Total Dipole Moment    :     -0.71990       1.28592      -0.53246
                        -----------------------------------------
Magnitude (a.u.)       :      1.56696
Magnitude (Debye)      :      3.98290

                             ****ORCA TERMINATED NORMALLY****
TOTAL RUN TIME: 0 days 0 hours 0 minutes 4 seconds 941 msec
