                         Program Version 3.0.3 - RELEASE   -
|  1> ! RI PBE def2-SVP def2-SVP/J NBO PAL2
|  2> % maxcore 2000
|  3> % output
|  4>     # printlevel mini
|  5>     print[ P_Basis ] 0
|  6>     print[ P_SCFInfo ] 1
|  7>     print[ P_SCFIterInfo ] 1
|  8>     print[ P_OrbEn ] 0
|  9>     print[ P_Cartesian ] 0
| 10> end
| 11> *xyz 0 1
| 12>  O        1.8595590000    -0.4794260000    -1.5572930000
| 13>  C        1.7168640000     0.0851570000    -0.2641710000
| 14>  C        2.8595470000    -0.4097160000     0.5956480000
| 15>  C        4.2228470000     0.0070110000     0.0752690000
| 16>  C        4.5701040000     1.4489030000     0.2822140000
| 17>  O        3.8872750000     2.2520840000     0.8591680000
| 18>  H        1.1928170000    -0.0996780000    -2.1329180000
| 19>  H        0.7650450000    -0.2209420000     0.1896750000
| 20>  H        1.7324750000     1.1804140000    -0.3091630000
| 21>  H        2.8100410000    -1.5011670000     0.6437610000
| 22>  H        2.7186230000    -0.0280880000     1.6103850000
| 23>  H        4.3161510000    -0.2063560000    -0.9966090000
| 24>  H        5.0281960000    -0.5709580000     0.5484080000
| 25>  H        5.5538460000     1.7530610000    -0.1398630000
| 26> *
| 27>
| 28>                          ****END OF INPUT****
 Total Charge           Charge          ....    0
 Multiplicity           Mult            ....    1
 Number of Electrons    NEL             ....   48
 Basis Dimension        Dim             ....  124

MULLIKEN ATOMIC CHARGES
-----------------------
   0 O :   -0.288558
   1 C :    0.136273
   2 C :   -0.020268
   3 C :   -0.023011
   4 C :    0.076655
   5 O :   -0.169784
   6 H :    0.156917
   7 H :   -0.002035
   8 H :    0.015611
   9 H :    0.021038
  10 H :    0.022921
  11 H :    0.045772
  12 H :    0.038515
  13 H :   -0.010047
Sum of atomic charges:   -0.0000000

LOEWDIN ATOMIC CHARGES
----------------------
   0 O :   -0.133495
   1 C :    0.057749
   2 C :   -0.051464
   3 C :   -0.085814
   4 C :    0.093251
   5 O :   -0.116571
   6 H :    0.071595
   7 H :    0.006027
   8 H :    0.007399
   9 H :    0.031793
  10 H :    0.034005
  11 H :    0.047583
  12 H :    0.050121
  13 H :   -0.012177

  Mayer bond orders larger than 0.1
B(  0-O ,  1-C ) :   1.0691 B(  0-O ,  6-H ) :   0.9805 B(  1-C ,  2-C ) :   1.0949
B(  1-C ,  7-H ) :   0.9310 B(  1-C ,  8-H ) :   0.9391 B(  2-C ,  3-C ) :   1.0886
B(  2-C ,  9-H ) :   0.9248 B(  2-C , 10-H ) :   0.9264 B(  3-C ,  4-C ) :   0.9808
B(  3-C , 11-H ) :   0.8997 B(  3-C , 12-H ) :   0.9024 B(  4-C ,  5-O ) :   2.1579
B(  4-C , 13-H ) :   0.9231

FINAL SINGLE POINT ENERGY      -307.067726793124

DIPOLE MOMENT
-------------
                                X             Y             Z
Electronic contribution:      0.88554       2.91042      -0.09016
Nuclear contribution   :     -0.96411      -3.30043      -0.26234
                        -----------------------------------------
Total Dipole Moment    :     -0.07857      -0.39001      -0.35250
                        -----------------------------------------
Magnitude (a.u.)       :      0.53154
Magnitude (Debye)      :      1.35107

                             ****ORCA TERMINATED NORMALLY****
TOTAL RUN TIME: 0 days 0 hours 0 minutes 5 seconds 702 msec
