                         Program Version 3.0.3 - RELEASE   -
|  1> ! RI PBE def2-SVP def2-SVP/J NBO PAL2
|  2> % maxcore 2000
|  3> % output
|  4>     # printlevel mini
|  5>     print[ P_Basis ] 0
|  6>     print[ P_SCFInfo ] 1
|  7>     print[ P_SCFIterInfo ] 1
|  8>     print[ P_OrbEn ] 0
|  9>     print[ P_Cartesian ] 0
| 10> end
| 11> *xyz 0 1
| 12>  O        2.6168600000     0.6653570000    -0.8632800000
| 13>  C        2.1254970000    -0.1265890000    -0.1173310000
| 14>  C        2.9111350000    -1.2295840000     0.5978210000
| 15>  O        2.3176840000    -1.9802140000     1.3321820000
| 16>  C        4.3248780000    -1.2947910000     0.3397320000
| 17>  C        5.5026930000    -1.3267820000     0.1068460000
| 18>  H        1.0477710000    -0.1507380000     0.1392600000
| 19>  H        6.5488830000    -1.3627590000    -0.0937300000
| 20> *
| 21>
| 22>                          ****END OF INPUT****
 Total Charge           Charge          ....    0
 Multiplicity           Mult            ....    1
 Number of Electrons    NEL             ....   42
 Basis Dimension        Dim             ....   94

MULLIKEN ATOMIC CHARGES
-----------------------
   0 O :   -0.091923
   1 C :    0.132691
   2 C :    0.006681
   3 O :   -0.113279
   4 C :    0.395462
   5 C :   -0.369573
   6 H :    0.008605
   7 H :    0.031335
Sum of atomic charges:    0.0000000

LOEWDIN ATOMIC CHARGES
----------------------
   0 O :   -0.054764
   1 C :    0.078286
   2 C :   -0.003024
   3 O :   -0.059182
   4 C :   -0.034684
   5 C :    0.024608
   6 H :    0.000648
   7 H :    0.048111

  Mayer bond orders larger than 0.1
B(  0-O ,  1-C ) :   2.2266 B(  1-C ,  2-C ) :   0.8653 B(  1-C ,  6-H ) :   0.9087
B(  2-C ,  3-O ) :   2.1133 B(  2-C ,  4-C ) :   0.8735 B(  3-O ,  5-C ) :   0.1185
B(  4-C ,  5-C ) :   2.3102 B(  5-C ,  7-H ) :   1.0863

FINAL SINGLE POINT ENERGY      -303.396914524279

DIPOLE MOMENT
-------------
                                X             Y             Z
Electronic contribution:     -0.51560      -0.20932       0.27966
Nuclear contribution   :      1.04169       0.19436      -0.38429
                        -----------------------------------------
Total Dipole Moment    :      0.52609      -0.01496      -0.10463
                        -----------------------------------------
Magnitude (a.u.)       :      0.53660
Magnitude (Debye)      :      1.36394

                             ****ORCA TERMINATED NORMALLY****
TOTAL RUN TIME: 0 days 0 hours 0 minutes 4 seconds 60 msec
