                         Program Version 3.0.3 - RELEASE   -
|  1> ! RI PBE def2-SVP def2-SVP/J NBO PAL2
|  2> % maxcore 2000
|  3> % output
|  4>     # printlevel mini
|  5>     print[ P_Basis ] 0
|  6>     print[ P_SCFInfo ] 1
|  7>     print[ P_SCFIterInfo ] 1
|  8>     print[ P_OrbEn ] 0
|  9>     print[ P_Cartesian ] 0
| 10> end
| 11> *xyz 0 1
| 12>  O        1.1033960000     0.1203570000    -0.3016840000
| 13>  C        2.4746860000     0.0477290000     0.0375690000
| 14>  C        2.8714120000     1.3422780000     0.7516720000
| 15>  O        3.7413670000     2.0695950000     0.3713210000
| 16>  C        2.6996680000    -1.0711410000     0.9359040000
| 17>  C        2.9273430000    -1.9507110000     1.7187870000
| 18>  H        1.0135580000     0.7358080000    -1.0357880000
| 19>  H        3.1135380000    -0.0557410000    -0.8483600000
| 20>  H        2.2434850000     1.5706230000     1.6369110000
| 21>  H        3.1222470000    -2.7450070000     2.4006690000
| 22> *
| 23>
| 24>                          ****END OF INPUT****
 Total Charge           Charge          ....    0
 Multiplicity           Mult            ....    1
 Number of Electrons    NEL             ....   44
 Basis Dimension        Dim             ....  104

MULLIKEN ATOMIC CHARGES
-----------------------
   0 O :   -0.239881
   1 C :    0.168943
   2 C :    0.087937
   3 O :   -0.144310
   4 C :    0.349591
   5 C :   -0.438713
   6 H :    0.165243
   7 H :    0.032774
   8 H :    0.005060
   9 H :    0.013356
Sum of atomic charges:    0.0000000

LOEWDIN ATOMIC CHARGES
----------------------
   0 O :   -0.084901
   1 C :    0.004806
   2 C :    0.083830
   3 O :   -0.089805
   4 C :   -0.025751
   5 C :   -0.040482
   6 H :    0.079085
   7 H :    0.035453
   8 H :   -0.003229
   9 H :    0.040994

  Mayer bond orders larger than 0.1
B(  0-O ,  1-C ) :   1.0948 B(  0-O ,  6-H ) :   0.9758 B(  1-C ,  2-C ) :   0.9057
B(  1-C ,  4-C ) :   0.9432 B(  1-C ,  7-H ) :   0.8894 B(  2-C ,  3-O ) :   2.1810
B(  2-C ,  8-H ) :   0.9167 B(  4-C ,  5-C ) :   2.3917 B(  4-C ,  9-H ) :  -0.1048
B(  5-C ,  9-H ) :   1.0949

FINAL SINGLE POINT ENERGY      -304.590209536752

DIPOLE MOMENT
-------------
                                X             Y             Z
Electronic contribution:      0.61485       0.83127      -0.19838
Nuclear contribution   :     -0.86920      -1.10342       0.01264
                        -----------------------------------------
Total Dipole Moment    :     -0.25435      -0.27215      -0.18574
                        -----------------------------------------
Magnitude (a.u.)       :      0.41624
Magnitude (Debye)      :      1.05800

                             ****ORCA TERMINATED NORMALLY****
TOTAL RUN TIME: 0 days 0 hours 0 minutes 4 seconds 812 msec
