                         Program Version 3.0.3 - RELEASE   -
|  1> ! RI PBE def2-SVP def2-SVP/J NBO PAL2
|  2> % maxcore 2000
|  3> % output
|  4>     # printlevel mini
|  5>     print[ P_Basis ] 0
|  6>     print[ P_SCFInfo ] 1
|  7>     print[ P_SCFIterInfo ] 1
|  8>     print[ P_OrbEn ] 0
|  9>     print[ P_Cartesian ] 0
| 10> end
| 11> *xyz 0 1
| 12>  O        0.8486220000     0.0575390000     0.0738570000
| 13>  C        2.1916700000     0.3767550000    -0.0788950000
| 14>  C        3.0683150000    -0.8155260000     0.2430280000
| 15>  O        2.5351230000    -1.8531860000     0.5784410000
| 16>  C        4.5353980000    -0.7175360000     0.1515140000
| 17>  C        5.1949530000     0.3793310000    -0.2058060000
| 18>  H        0.8384720000    -0.8719090000     0.3546470000
| 19>  H        2.4747230000     1.2085230000     0.5820440000
| 20>  H        2.4030900000     0.6997530000    -1.1083010000
| 21>  H        5.0592630000    -1.6340140000     0.4047030000
| 22>  H        4.6864180000     1.3023670000    -0.4615910000
| 23>  H        6.2773720000     0.3929020000    -0.2556500000
| 24> *
| 25>
| 26>                          ****END OF INPUT****
 Total Charge           Charge          ....    0
 Multiplicity           Mult            ....    1
 Number of Electrons    NEL             ....   46
 Basis Dimension        Dim             ....  114

MULLIKEN ATOMIC CHARGES
-----------------------
   0 O :   -0.265964
   1 C :    0.193705
   2 C :   -0.052950
   3 O :   -0.180879
   4 C :    0.001614
   5 C :   -0.003996
   6 H :    0.147575
   7 H :    0.027889
   8 H :    0.023985
   9 H :    0.014973
  10 H :    0.042004
  11 H :    0.052043
Sum of atomic charges:   -0.0000000

LOEWDIN ATOMIC CHARGES
----------------------
   0 O :   -0.117155
   1 C :    0.023020
   2 C :    0.036637
   3 O :   -0.112893
   4 C :   -0.050607
   5 C :    0.004455
   6 H :    0.052728
   7 H :    0.028006
   8 H :    0.027439
   9 H :    0.039746
  10 H :    0.031303
  11 H :    0.037321

  Mayer bond orders larger than 0.1
B(  0-O ,  1-C ) :   1.1579 B(  0-O ,  6-H ) :   0.9419 B(  1-C ,  2-C ) :   0.9823
B(  1-C ,  7-H ) :   0.8981 B(  1-C ,  8-H ) :   0.8967 B(  2-C ,  3-O ) :   2.0462
B(  2-C ,  4-C ) :   1.0251 B(  3-O ,  6-H ) :   0.1080 B(  4-C ,  5-C ) :   1.9037
B(  4-C ,  9-H ) :   0.9524 B(  5-C , 10-H ) :   0.9350 B(  5-C , 11-H ) :   0.9428

FINAL SINGLE POINT ENERGY      -305.857743231577

DIPOLE MOMENT
-------------
                                X             Y             Z
Electronic contribution:     -2.44211      -2.95416       0.99191
Nuclear contribution   :      3.61218       3.43220      -1.18517
                        -----------------------------------------
Total Dipole Moment    :      1.17007       0.47803      -0.19326
                        -----------------------------------------
Magnitude (a.u.)       :      1.27865
Magnitude (Debye)      :      3.25006

                             ****ORCA TERMINATED NORMALLY****
TOTAL RUN TIME: 0 days 0 hours 0 minutes 5 seconds 280 msec
