                         Program Version 3.0.3 - RELEASE   -
|  1> ! RI PBE def2-SVP def2-SVP/J NBO PAL2
|  2> % maxcore 2000
|  3> % output
|  4>     # printlevel mini
|  5>     print[ P_Basis ] 0
|  6>     print[ P_SCFInfo ] 1
|  7>     print[ P_SCFIterInfo ] 1
|  8>     print[ P_OrbEn ] 0
|  9>     print[ P_Cartesian ] 0
| 10> end
| 11> *xyz 0 1
| 12>  O        1.6483490000    -0.9655270000    -0.5160020000
| 13>  C        2.4028900000     0.1357180000    -0.1426450000
| 14>  C        2.0834330000     0.5652380000     1.2662020000
| 15>  O        1.2578210000    -0.0311660000     1.9189260000
| 16>  C        2.8073140000     1.7058610000     1.7749100000
| 17>  C        3.4294050000     2.6576160000     2.1622250000
| 18>  H        1.0921750000    -1.1797090000     0.2488780000
| 19>  H        2.2232560000     0.9949440000    -0.8060240000
| 20>  H        3.4813940000    -0.0761870000    -0.1939130000
| 21>  H        3.9722720000     3.5007230000     2.5231530000
| 22> *
| 23>
| 24>                          ****END OF INPUT****
 Total Charge           Charge          ....    0
 Multiplicity           Mult            ....    1
 Number of Electrons    NEL             ....   44
 Basis Dimension        Dim             ....  104

MULLIKEN ATOMIC CHARGES
-----------------------
   0 O :   -0.255670
   1 C :    0.192671
   2 C :   -0.052704
   3 O :   -0.162572
   4 C :    0.404477
   5 C :   -0.384401
   6 H :    0.152856
   7 H :    0.038768
   8 H :    0.038580
   9 H :    0.027996
Sum of atomic charges:   -0.0000000

LOEWDIN ATOMIC CHARGES
----------------------
   0 O :   -0.105990
   1 C :    0.031732
   2 C :    0.025765
   3 O :   -0.094930
   4 C :   -0.037627
   5 C :    0.002877
   6 H :    0.057450
   7 H :    0.037124
   8 H :    0.037095
   9 H :    0.046504

  Mayer bond orders larger than 0.1
B(  0-O ,  1-C ) :   1.1479 B(  0-O ,  6-H ) :   0.9460 B(  1-C ,  2-C ) :   0.9733
B(  1-C ,  7-H ) :   0.9026 B(  1-C ,  8-H ) :   0.9031 B(  2-C ,  3-O ) :   2.0838
B(  2-C ,  4-C ) :   0.8955 B(  4-C ,  5-C ) :   2.3259 B(  5-C ,  9-H ) :   1.0837

FINAL SINGLE POINT ENERGY      -304.607726923267

DIPOLE MOMENT
-------------
                                X             Y             Z
Electronic contribution:     -1.06901       0.02391       2.23377
Nuclear contribution   :      1.77206       0.85865      -2.14136
                        -----------------------------------------
Total Dipole Moment    :      0.70305       0.88256       0.09241
                        -----------------------------------------
Magnitude (a.u.)       :      1.13213
Magnitude (Debye)      :      2.87765

                             ****ORCA TERMINATED NORMALLY****
TOTAL RUN TIME: 0 days 0 hours 0 minutes 4 seconds 824 msec
