                         Program Version 3.0.3 - RELEASE   -
|  1> ! RI PBE def2-SVP def2-SVP/J NBO PAL2
|  2> % maxcore 2000
|  3> % output
|  4>     # printlevel mini
|  5>     print[ P_Basis ] 0
|  6>     print[ P_SCFInfo ] 1
|  7>     print[ P_SCFIterInfo ] 1
|  8>     print[ P_OrbEn ] 0
|  9>     print[ P_Cartesian ] 0
| 10> end
| 11> *xyz 0 1
| 12>  O        2.7154380000     0.7357650000    -0.8353610000
| 13>  C        2.4437550000     0.1276590000     0.4166450000
| 14>  C        3.0005570000    -1.2852470000     0.3540870000
| 15>  O        2.4056710000    -1.9810630000    -0.7243600000
| 16>  C        4.4969370000    -1.2969750000     0.2550200000
| 17>  C        5.2927130000    -1.8559670000     1.1539650000
| 18>  H        2.2022110000     1.5418430000    -0.9119660000
| 19>  H        1.3629930000     0.0698980000     0.5950010000
| 20>  H        2.9138430000     0.6808010000     1.2390260000
| 21>  H        2.7011120000    -1.8089450000     1.2674470000
| 22>  H        2.4242530000    -1.3777100000    -1.4764290000
| 23>  H        4.9161840000    -0.8103520000    -0.6224290000
| 24>  H        4.8918240000    -2.3520890000     2.0331440000
| 25>  H        6.3713990000    -1.8447270000     1.0474220000
| 26> *
| 27>
| 28>                          ****END OF INPUT****
 Total Charge           Charge          ....    0
 Multiplicity           Mult            ....    1
 Number of Electrons    NEL             ....   48
 Basis Dimension        Dim             ....  124

MULLIKEN ATOMIC CHARGES
-----------------------
   0 O :   -0.289504
   1 C :    0.150823
   2 C :    0.119522
   3 O :   -0.279201
   4 C :   -0.028475
   5 C :   -0.042653
   6 H :    0.165231
   7 H :    0.011910
   8 H :    0.003070
   9 H :   -0.006110
  10 H :    0.149020
  11 H :    0.002001
  12 H :    0.016435
  13 H :    0.027931
Sum of atomic charges:   -0.0000000

LOEWDIN ATOMIC CHARGES
----------------------
   0 O :   -0.124790
   1 C :    0.047391
   2 C :    0.030782
   3 O :   -0.106574
   4 C :   -0.036264
   5 C :   -0.061066
   6 H :    0.077017
   7 H :    0.009540
   8 H :    0.009627
   9 H :    0.025914
  10 H :    0.056990
  11 H :    0.025588
  12 H :    0.020805
  13 H :    0.025040

  Mayer bond orders larger than 0.1
B(  0-O ,  1-C ) :   1.0636 B(  0-O ,  6-H ) :   0.9762 B(  1-C ,  2-C ) :   1.0442
B(  1-C ,  7-H ) :   0.9305 B(  1-C ,  8-H ) :   0.9251 B(  2-C ,  3-O ) :   1.0211
B(  2-C ,  4-C ) :   1.0133 B(  2-C ,  9-H ) :   0.9074 B(  3-O , 10-H ) :   0.9699
B(  4-C ,  5-C ) :   2.0008 B(  4-C , 11-H ) :   0.9479 B(  5-C , 12-H ) :   0.9457
B(  5-C , 13-H ) :   0.9443

FINAL SINGLE POINT ENERGY      -307.041062095216

DIPOLE MOMENT
-------------
                                X             Y             Z
Electronic contribution:     -1.38332      -0.12112      -2.38981
Nuclear contribution   :      1.09132       1.08555       2.57381
                        -----------------------------------------
Total Dipole Moment    :     -0.29200       0.96443       0.18400
                        -----------------------------------------
Magnitude (a.u.)       :      1.02433
Magnitude (Debye)      :      2.60363

                             ****ORCA TERMINATED NORMALLY****
TOTAL RUN TIME: 0 days 0 hours 0 minutes 5 seconds 848 msec
