                         Program Version 3.0.3 - RELEASE   -
|  1> ! RI PBE def2-SVP def2-SVP/J NBO PAL2
|  2> % maxcore 2000
|  3> % output
|  4>     # printlevel mini
|  5>     print[ P_Basis ] 0
|  6>     print[ P_SCFInfo ] 1
|  7>     print[ P_SCFIterInfo ] 1
|  8>     print[ P_OrbEn ] 0
|  9>     print[ P_Cartesian ] 0
| 10> end
| 11> *xyz 0 1
| 12>  O        2.7745230000    -0.3238820000     1.3857760000
| 13>  C        2.4221270000     0.0430200000     0.0748650000
| 14>  C        2.9782120000    -1.0083370000    -0.8809160000
| 15>  O        2.4444590000    -0.8156270000    -2.1772010000
| 16>  C        4.4372550000    -1.0180400000    -0.8913500000
| 17>  C        5.6361780000    -0.9853460000    -0.9372880000
| 18>  H        2.5238650000     0.3820360000     1.9845640000
| 19>  H        2.8280380000     1.0258650000    -0.2007320000
| 20>  H        1.3346650000     0.0628590000    -0.0693920000
| 21>  H        2.6213170000    -1.9864910000    -0.5414770000
| 22>  H        3.0099750000    -0.1927910000    -2.6422700000
| 23>  H        6.7000860000    -0.9704760000    -0.9695590000
| 24> *
| 25>
| 26>                          ****END OF INPUT****
 Total Charge           Charge          ....    0
 Multiplicity           Mult            ....    1
 Number of Electrons    NEL             ....   46
 Basis Dimension        Dim             ....  114

MULLIKEN ATOMIC CHARGES
-----------------------
   0 O :   -0.270206
   1 C :    0.172098
   2 C :    0.152329
   3 O :   -0.265637
   4 C :    0.339523
   5 C :   -0.480241
   6 H :    0.161048
   7 H :   -0.012242
   8 H :    0.013854
   9 H :    0.028525
  10 H :    0.159060
  11 H :    0.001889
Sum of atomic charges:   -0.0000000

LOEWDIN ATOMIC CHARGES
----------------------
   0 O :   -0.119108
   1 C :    0.049134
   2 C :    0.030516
   3 O :   -0.094930
   4 C :   -0.034667
   5 C :   -0.068423
   6 H :    0.075348
   7 H :    0.002808
   8 H :    0.008090
   9 H :    0.043225
  10 H :    0.071935
  11 H :    0.036072

  Mayer bond orders larger than 0.1
B(  0-O ,  1-C ) :   1.0978 B(  0-O ,  6-H ) :   0.9779 B(  1-C ,  2-C ) :   1.0204
B(  1-C ,  7-H ) :   0.9158 B(  1-C ,  8-H ) :   0.9309 B(  2-C ,  3-O ) :   1.0449
B(  2-C ,  4-C ) :   1.0015 B(  2-C ,  9-H ) :   0.8690 B(  3-O , 10-H ) :   0.9792
B(  4-C ,  5-C ) :   2.3503 B(  4-C , 11-H ) :  -0.1132 B(  5-C , 11-H ) :   1.1040

FINAL SINGLE POINT ENERGY      -305.791242018488

DIPOLE MOMENT
-------------
                                X             Y             Z
Electronic contribution:      1.14650      -1.24745      -0.61015
Nuclear contribution   :     -1.04512       2.06122       0.77408
                        -----------------------------------------
Total Dipole Moment    :      0.10138       0.81377       0.16393
                        -----------------------------------------
Magnitude (a.u.)       :      0.83628
Magnitude (Debye)      :      2.12567

                             ****ORCA TERMINATED NORMALLY****
TOTAL RUN TIME: 0 days 0 hours 0 minutes 5 seconds 350 msec
