                         Program Version 3.0.3 - RELEASE   -
|  1> ! RI PBE def2-SVP def2-SVP/J NBO PAL2
|  2> % maxcore 2000
|  3> % output
|  4>     # printlevel mini
|  5>     print[ P_Basis ] 0
|  6>     print[ P_SCFInfo ] 1
|  7>     print[ P_SCFIterInfo ] 1
|  8>     print[ P_OrbEn ] 0
|  9>     print[ P_Cartesian ] 0
| 10> end
| 11> *xyz 0 1
| 12>  O        1.3066140000     2.7970060000    -1.4028060000
| 13>  C        0.8939150000     1.5656710000    -0.8527000000
| 14>  C        2.1431810000     0.8584840000    -0.3876300000
| 15>  O        1.7484770000    -0.3768520000     0.1656610000
| 16>  C        2.7257520000    -1.1683300000     0.6438690000
| 17>  C        4.0342090000    -0.9346920000     0.6632780000
| 18>  H        0.5319470000     3.2733580000    -1.7073940000
| 19>  H        0.3788410000     0.9401660000    -1.5932330000
| 20>  H        0.2188230000     1.7061620000     0.0013740000
| 21>  H        2.6638470000     1.4663890000     0.3619630000
| 22>  H        2.8241450000     0.7009710000    -1.2326250000
| 23>  H        2.3021240000    -2.0847330000     1.0411820000
| 24>  H        4.4870220000    -0.0325560000     0.2757440000
| 25>  H        4.6873150000    -1.6837650000     1.0885270000
| 26> *
| 27>
| 28>                          ****END OF INPUT****
 Total Charge           Charge          ....    0
 Multiplicity           Mult            ....    1
 Number of Electrons    NEL             ....   48
 Basis Dimension        Dim             ....  124

MULLIKEN ATOMIC CHARGES
-----------------------
   0 O :   -0.280866
   1 C :    0.135643
   2 C :    0.120485
   3 O :   -0.264798
   4 C :    0.105189
   5 C :   -0.117167
   6 H :    0.160721
   7 H :    0.008835
   8 H :    0.010592
   9 H :    0.027168
  10 H :    0.027847
  11 H :    0.010207
  12 H :    0.030074
  13 H :    0.026070
Sum of atomic charges:    0.0000000

LOEWDIN ATOMIC CHARGES
----------------------
   0 O :   -0.124652
   1 C :    0.048889
   2 C :    0.060975
   3 O :   -0.064940
   4 C :    0.031677
   5 C :   -0.156893
   6 H :    0.074775
   7 H :    0.007626
   8 H :    0.007934
   9 H :    0.017593
  10 H :    0.017689
  11 H :    0.022850
  12 H :    0.023895
  13 H :    0.032582

  Mayer bond orders larger than 0.1
B(  0-O ,  1-C ) :   1.0960 B(  0-O ,  6-H ) :   0.9787 B(  1-C ,  2-C ) :   1.0691
B(  1-C ,  7-H ) :   0.9321 B(  1-C ,  8-H ) :   0.9323 B(  2-C ,  3-O ) :   0.9713
B(  2-C ,  9-H ) :   0.9326 B(  2-C , 10-H ) :   0.9321 B(  3-O ,  4-C ) :   1.1581
B(  3-O ,  5-C ) :   0.1033 B(  4-C ,  5-C ) :   1.8678 B(  4-C , 11-H ) :   0.9644
B(  5-C , 12-H ) :   0.9513 B(  5-C , 13-H ) :   0.9342

FINAL SINGLE POINT ENERGY      -307.037593987437

DIPOLE MOMENT
-------------
                                X             Y             Z
Electronic contribution:     -1.72430       0.18783      -0.26409
Nuclear contribution   :      1.21705       0.04605       0.10254
                        -----------------------------------------
Total Dipole Moment    :     -0.50725       0.23388      -0.16155
                        -----------------------------------------
Magnitude (a.u.)       :      0.58147
Magnitude (Debye)      :      1.47797

                             ****ORCA TERMINATED NORMALLY****
TOTAL RUN TIME: 0 days 0 hours 0 minutes 5 seconds 748 msec
