                         Program Version 3.0.3 - RELEASE   -
|  1> ! RI PBE def2-SVP def2-SVP/J NBO PAL2
|  2> % maxcore 2000
|  3> % output
|  4>     # printlevel mini
|  5>     print[ P_Basis ] 0
|  6>     print[ P_SCFInfo ] 1
|  7>     print[ P_SCFIterInfo ] 1
|  8>     print[ P_OrbEn ] 0
|  9>     print[ P_Cartesian ] 0
| 10> end
| 11> *xyz 0 1
| 12>  O        2.2907890000     0.7103750000     0.6626740000
| 13>  C        1.9927010000     0.4676110000    -0.4683660000
| 14>  O        2.8334220000     0.3553450000    -1.4993450000
| 15>  C        4.2039740000     0.5266570000    -1.2035020000
| 16>  C        5.0510170000    -0.6932080000    -1.1135500000
| 17>  C        5.1328010000     0.2125210000    -2.3145980000
| 18>  H        0.9657750000     0.3104390000    -0.8294510000
| 19>  H        4.3989380000     1.3588650000    -0.5401740000
| 20>  H        4.5534310000    -1.6449470000    -1.2495920000
| 21>  H        5.8611940000    -0.6966100000    -0.3957870000
| 22>  H        4.6881790000    -0.1477440000    -3.2335510000
| 23>  H        6.0044800000     0.8412940000    -2.4422800000
| 24> *
| 25>
| 26>                          ****END OF INPUT****
 Total Charge           Charge          ....    0
 Multiplicity           Mult            ....    1
 Number of Electrons    NEL             ....   46
 Basis Dimension        Dim             ....  114

MULLIKEN ATOMIC CHARGES
-----------------------
   0 O :   -0.204080
   1 C :    0.217973
   2 O :   -0.219057
   3 C :    0.051901
   4 C :   -0.049934
   5 C :   -0.043853
   6 H :    0.005050
   7 H :    0.042248
   8 H :    0.047882
   9 H :    0.053675
  10 H :    0.051242
  11 H :    0.046955
Sum of atomic charges:   -0.0000000

LOEWDIN ATOMIC CHARGES
----------------------
   0 O :   -0.138036
   1 C :    0.074126
   2 O :   -0.046310
   3 C :    0.048240
   4 C :   -0.047879
   5 C :   -0.046983
   6 H :   -0.005856
   7 H :    0.022895
   8 H :    0.035262
   9 H :    0.034945
  10 H :    0.036302
  11 H :    0.033294

  Mayer bond orders larger than 0.1
B(  0-O ,  1-C ) :   2.0520 B(  0-O ,  2-O ) :   0.1057 B(  1-C ,  2-O ) :   1.1761
B(  1-C ,  6-H ) :   0.9366 B(  2-O ,  3-C ) :   0.9600 B(  3-C ,  4-C ) :   1.0134
B(  3-C ,  5-C ) :   1.0000 B(  3-C ,  7-H ) :   0.9408 B(  4-C ,  5-C ) :   1.0284
B(  4-C ,  8-H ) :   0.9456 B(  4-C ,  9-H ) :   0.9483 B(  5-C , 10-H ) :   0.9455
B(  5-C , 11-H ) :   0.9458

FINAL SINGLE POINT ENERGY      -305.864730567651

DIPOLE MOMENT
-------------
                                X             Y             Z
Electronic contribution:     -4.47548       1.33887       2.05909
Nuclear contribution   :      4.83666      -1.49184      -2.68392
                        -----------------------------------------
Total Dipole Moment    :      0.36118      -0.15297      -0.62483
                        -----------------------------------------
Magnitude (a.u.)       :      0.73774
Magnitude (Debye)      :      1.87518

                             ****ORCA TERMINATED NORMALLY****
TOTAL RUN TIME: 0 days 0 hours 0 minutes 5 seconds 443 msec
