                         Program Version 3.0.3 - RELEASE   -
|  1> ! RI PBE def2-SVP def2-SVP/J NBO PAL2
|  2> % maxcore 2000
|  3> % output
|  4>     # printlevel mini
|  5>     print[ P_Basis ] 0
|  6>     print[ P_SCFInfo ] 1
|  7>     print[ P_SCFIterInfo ] 1
|  8>     print[ P_OrbEn ] 0
|  9>     print[ P_Cartesian ] 0
| 10> end
| 11> *xyz 0 1
| 12>  O        2.0455670000     0.0839250000    -1.3115970000
| 13>  C        2.2129670000    -0.0793490000     0.0174070000
| 14>  O        1.6903900000    -0.9786530000     0.6213960000
| 15>  C        3.0847970000     0.9430100000     0.6221740000
| 16>  C        4.2542100000     1.5025080000    -0.1515290000
| 17>  C        3.0721210000     2.3604160000     0.1025220000
| 18>  H        1.4638590000    -0.6330060000    -1.5978920000
| 19>  H        3.2082550000     0.7981000000     1.6864750000
| 20>  H        4.3998830000     1.1272090000    -1.1554160000
| 21>  H        5.1603060000     1.6823960000     0.4123610000
| 22>  H        2.4118360000     2.5701480000    -0.7280670000
| 23>  H        3.1464290000     3.1439960000     0.8453770000
| 24> *
| 25>
| 26>                          ****END OF INPUT****
 Total Charge           Charge          ....    0
 Multiplicity           Mult            ....    1
 Number of Electrons    NEL             ....   46
 Basis Dimension        Dim             ....  114

MULLIKEN ATOMIC CHARGES
-----------------------
   0 O :   -0.151035
   1 C :    0.126070
   2 O :   -0.175296
   3 C :   -0.178392
   4 C :   -0.011050
   5 C :   -0.016842
   6 H :    0.167565
   7 H :    0.039580
   8 H :    0.051019
   9 H :    0.045175
  10 H :    0.053803
  11 H :    0.049405
Sum of atomic charges:    0.0000000

LOEWDIN ATOMIC CHARGES
----------------------
   0 O :   -0.024638
   1 C :    0.041981
   2 O :   -0.158559
   3 C :   -0.070314
   4 C :   -0.022391
   5 C :   -0.024128
   6 H :    0.085444
   7 H :    0.041302
   8 H :    0.032262
   9 H :    0.032636
  10 H :    0.032828
  11 H :    0.033576

  Mayer bond orders larger than 0.1
B(  0-O ,  1-C ) :   1.2410 B(  0-O ,  6-H ) :   0.9486 B(  1-C ,  2-O ) :   2.1228
B(  1-C ,  3-C ) :   1.0164 B(  3-C ,  4-C ) :   0.9425 B(  3-C ,  5-C ) :   0.9428
B(  3-C ,  7-H ) :   0.9448 B(  4-C ,  5-C ) :   1.0518 B(  4-C ,  8-H ) :   0.9493
B(  4-C ,  9-H ) :   0.9480 B(  5-C , 10-H ) :   0.9484 B(  5-C , 11-H ) :   0.9466

FINAL SINGLE POINT ENERGY      -305.891757467777

DIPOLE MOMENT
-------------
                                X             Y             Z
Electronic contribution:     -3.11701      -4.24077      -0.20367
Nuclear contribution   :      3.41592       4.77213      -0.21900
                        -----------------------------------------
Total Dipole Moment    :      0.29891       0.53136      -0.42267
                        -----------------------------------------
Magnitude (a.u.)       :      0.74185
Magnitude (Debye)      :      1.88564

                             ****ORCA TERMINATED NORMALLY****
TOTAL RUN TIME: 0 days 0 hours 0 minutes 5 seconds 675 msec
