                         Program Version 3.0.3 - RELEASE   -
|  1> ! RI PBE def2-SVP def2-SVP/J NBO PAL2
|  2> % maxcore 2000
|  3> % output
|  4>     # printlevel mini
|  5>     print[ P_Basis ] 0
|  6>     print[ P_SCFInfo ] 1
|  7>     print[ P_SCFIterInfo ] 1
|  8>     print[ P_OrbEn ] 0
|  9>     print[ P_Cartesian ] 0
| 10> end
| 11> *xyz 0 1
| 12>  O        3.4792780000     2.0927860000     0.4872130000
| 13>  C        2.6985670000     1.2661340000     0.8524710000
| 14>  O        2.9647530000    -0.0125060000     1.1352670000
| 15>  C        4.3307080000    -0.4321770000     1.0017190000
| 16>  C        4.8094090000    -0.9983150000     2.2476750000
| 17>  C        5.2258470000    -1.4731650000     3.2666750000
| 18>  H        1.6247260000     1.4412480000     1.0084640000
| 19>  H        4.9407000000     0.4224170000     0.7012890000
| 20>  H        4.3597070000    -1.1817930000     0.2071000000
| 21>  H        5.5926040000    -1.8917180000     4.1742380000
| 22> *
| 23>
| 24>                          ****END OF INPUT****
 Total Charge           Charge          ....    0
 Multiplicity           Mult            ....    1
 Number of Electrons    NEL             ....   44
 Basis Dimension        Dim             ....  104

MULLIKEN ATOMIC CHARGES
-----------------------
   0 O :   -0.196606
   1 C :    0.209472
   2 O :   -0.244942
   3 C :    0.230613
   4 C :    0.281069
   5 C :   -0.427020
   6 H :    0.017377
   7 H :    0.060952
   8 H :    0.057047
   9 H :    0.012038
Sum of atomic charges:   -0.0000000

LOEWDIN ATOMIC CHARGES
----------------------
   0 O :   -0.132925
   1 C :    0.078622
   2 O :   -0.056437
   3 C :    0.067974
   4 C :   -0.038807
   5 C :   -0.050448
   6 H :    0.002059
   7 H :    0.041221
   8 H :    0.048992
   9 H :    0.039749

  Mayer bond orders larger than 0.1
B(  0-O ,  1-C ) :   2.0510 B(  0-O ,  2-O ) :   0.1105 B(  1-C ,  2-O ) :   1.1898
B(  1-C ,  6-H ) :   0.9341 B(  2-O ,  3-C ) :   0.9278 B(  3-C ,  4-C ) :   1.0621
B(  3-C ,  7-H ) :   0.8985 B(  3-C ,  8-H ) :   0.9087 B(  4-C ,  5-C ) :   2.4051
B(  5-C ,  9-H ) :   1.0876

FINAL SINGLE POINT ENERGY      -304.620203788906

DIPOLE MOMENT
-------------
                                X             Y             Z
Electronic contribution:     -1.01495       1.07633      -0.20998
Nuclear contribution   :      0.98394      -1.66189       0.31295
                        -----------------------------------------
Total Dipole Moment    :     -0.03101      -0.58556       0.10297
                        -----------------------------------------
Magnitude (a.u.)       :      0.59535
Magnitude (Debye)      :      1.51326

                             ****ORCA TERMINATED NORMALLY****
TOTAL RUN TIME: 0 days 0 hours 0 minutes 5 seconds 58 msec
