                         Program Version 3.0.3 - RELEASE   -
|  1> ! RI PBE def2-SVP def2-SVP/J NBO PAL2
|  2> % maxcore 2000
|  3> % output
|  4>     # printlevel mini
|  5>     print[ P_Basis ] 0
|  6>     print[ P_SCFInfo ] 1
|  7>     print[ P_SCFIterInfo ] 1
|  8>     print[ P_OrbEn ] 0
|  9>     print[ P_Cartesian ] 0
| 10> end
| 11> *xyz 0 1
| 12>  O        1.0759830000     0.0220010000     0.0046280000
| 13>  C        2.3747270000     0.1270590000     0.3363120000
| 14>  O        2.7966520000     1.0097990000     1.0304270000
| 15>  C        3.1802650000    -1.0058350000    -0.2422410000
| 16>  C        4.6506140000    -0.7598050000    -0.2099810000
| 17>  C        5.4610270000    -0.9760900000    -1.2345280000
| 18>  H        0.6210780000     0.7601200000     0.4344310000
| 19>  H        2.8233770000    -1.2228120000    -1.2512770000
| 20>  H        2.9257720000    -1.8866780000     0.3636830000
| 21>  H        5.0463400000    -0.3802780000     0.7273360000
| 22>  H        5.0916340000    -1.3409180000    -2.1881650000
| 23>  H        6.5265420000    -0.7953440000    -1.1575230000
| 24> *
| 25>
| 26>                          ****END OF INPUT****
 Total Charge           Charge          ....    0
 Multiplicity           Mult            ....    1
 Number of Electrons    NEL             ....   46
 Basis Dimension        Dim             ....  114

MULLIKEN ATOMIC CHARGES
-----------------------
   0 O :   -0.139870
   1 C :    0.041730
   2 O :   -0.175677
   3 C :    0.043129
   4 C :   -0.069350
   5 C :   -0.036567
   6 H :    0.167232
   7 H :    0.036762
   8 H :    0.063191
   9 H :    0.018349
  10 H :    0.017927
  11 H :    0.033144
Sum of atomic charges:    0.0000000

LOEWDIN ATOMIC CHARGES
----------------------
   0 O :   -0.018067
   1 C :    0.043917
   2 O :   -0.151013
   3 C :   -0.069608
   4 C :   -0.021990
   5 C :   -0.059200
   6 H :    0.086107
   7 H :    0.046274
   8 H :    0.062352
   9 H :    0.031538
  10 H :    0.021729
  11 H :    0.027960

  Mayer bond orders larger than 0.1
B(  0-O ,  1-C ) :   1.2535 B(  0-O ,  6-H ) :   0.9485 B(  1-C ,  2-O ) :   2.1253
B(  1-C ,  3-C ) :   0.9521 B(  3-C ,  4-C ) :   1.0509 B(  3-C ,  7-H ) :   0.9188
B(  3-C ,  8-H ) :   0.8911 B(  4-C ,  5-C ) :   2.0191 B(  4-C ,  9-H ) :   0.9541
B(  5-C , 10-H ) :   0.9476 B(  5-C , 11-H ) :   0.9468

FINAL SINGLE POINT ENERGY      -305.890366011768

DIPOLE MOMENT
-------------
                                X             Y             Z
Electronic contribution:     -4.10446       2.86873       2.46637
Nuclear contribution   :      3.70087      -3.24826      -2.68514
                        -----------------------------------------
Total Dipole Moment    :     -0.40359      -0.37953      -0.21877
                        -----------------------------------------
Magnitude (a.u.)       :      0.59565
Magnitude (Debye)      :      1.51401

                             ****ORCA TERMINATED NORMALLY****
TOTAL RUN TIME: 0 days 0 hours 0 minutes 5 seconds 27 msec
