                         Program Version 3.0.3 - RELEASE   -
|  1> ! RI PBE def2-SVP def2-SVP/J NBO PAL2
|  2> % maxcore 2000
|  3> % output
|  4>     # printlevel mini
|  5>     print[ P_Basis ] 0
|  6>     print[ P_SCFInfo ] 1
|  7>     print[ P_SCFIterInfo ] 1
|  8>     print[ P_OrbEn ] 0
|  9>     print[ P_Cartesian ] 0
| 10> end
| 11> *xyz 0 1
| 12>  O        0.8980140000     0.1703280000     0.3612270000
| 13>  C        2.1999470000    -0.0117310000     0.0758100000
| 14>  O        2.5970590000    -0.8461920000    -0.6812320000
| 15>  C        3.0359320000     0.9844530000     0.8500960000
| 16>  C        4.4604340000     0.8779760000     0.6168760000
| 17>  C        5.6431320000     0.8075200000     0.4387250000
| 18>  H        0.4067140000    -0.4849280000    -0.1536700000
| 19>  H        2.8049440000     0.8518370000     1.9125090000
| 20>  H        2.6739770000     1.9861640000     0.5947880000
| 21>  H        6.6919470000     0.7357830000     0.2727710000
| 22> *
| 23>
| 24>                          ****END OF INPUT****
 Total Charge           Charge          ....    0
 Multiplicity           Mult            ....    1
 Number of Electrons    NEL             ....   44
 Basis Dimension        Dim             ....  104

MULLIKEN ATOMIC CHARGES
-----------------------
   0 O :   -0.142108
   1 C :    0.049228
   2 O :   -0.152686
   3 C :    0.060997
   4 C :    0.334061
   5 C :   -0.463816
   6 H :    0.171236
   7 H :    0.071877
   8 H :    0.068107
   9 H :    0.003104
Sum of atomic charges:   -0.0000000

LOEWDIN ATOMIC CHARGES
----------------------
   0 O :   -0.019352
   1 C :    0.046191
   2 O :   -0.132308
   3 C :   -0.075450
   4 C :   -0.020641
   5 C :   -0.063758
   6 H :    0.089610
   7 H :    0.070021
   8 H :    0.069308
   9 H :    0.036379

  Mayer bond orders larger than 0.1
B(  0-O ,  1-C ) :   1.2436 B(  0-O ,  6-H ) :   0.9484 B(  1-C ,  2-O ) :   2.1653
B(  1-C ,  3-C ) :   0.9281 B(  3-C ,  4-C ) :   1.0387 B(  3-C ,  7-H ) :   0.8849
B(  3-C ,  8-H ) :   0.8847 B(  4-C ,  5-C ) :   2.3801 B(  4-C ,  9-H ) :  -0.1069
B(  5-C ,  9-H ) :   1.0979

FINAL SINGLE POINT ENERGY      -304.643702991672

DIPOLE MOMENT
-------------
                                X             Y             Z
Electronic contribution:     -1.01007      -1.46665      -1.16541
Nuclear contribution   :      0.47712       1.79793       1.49982
                        -----------------------------------------
Total Dipole Moment    :     -0.53296       0.33128       0.33441
                        -----------------------------------------
Magnitude (a.u.)       :      0.71107
Magnitude (Debye)      :      1.80739

                             ****ORCA TERMINATED NORMALLY****
TOTAL RUN TIME: 0 days 0 hours 0 minutes 4 seconds 533 msec
