                         Program Version 3.0.3 - RELEASE   -
|  1> ! RI PBE def2-SVP def2-SVP/J NBO PAL2
|  2> % maxcore 2000
|  3> % output
|  4>     # printlevel mini
|  5>     print[ P_Basis ] 0
|  6>     print[ P_SCFInfo ] 1
|  7>     print[ P_SCFIterInfo ] 1
|  8>     print[ P_OrbEn ] 0
|  9>     print[ P_Cartesian ] 0
| 10> end
| 11> *xyz 0 1
| 12>  C        0.3887040000     1.4898050000     0.4361570000
| 13>  C        0.8622030000     0.3383470000    -0.3710440000
| 14>  O        0.8878050000    -0.9201430000     0.2523700000
| 15>  N       -0.4009730000    -1.2859900000     0.5998360000
| 16>  C       -1.2164330000    -0.3994630000     0.1800510000
| 17>  C       -0.5818110000     0.7562360000    -0.4676380000
| 18>  H        0.7035500000     2.4706490000     0.1042830000
| 19>  H        0.2813470000     1.3650310000     1.5064830000
| 20>  H        1.6011950000     0.4409290000    -1.1546990000
| 21>  H       -2.2770270000    -0.5567640000     0.3266240000
| 22>  H       -1.0380900000     1.2528530000    -1.3136310000
| 23> *
| 24>
| 25>                          ****END OF INPUT****
 Total Charge           Charge          ....    0
 Multiplicity           Mult            ....    1
 Number of Electrons    NEL             ....   44
 Basis Dimension        Dim             ....  109

MULLIKEN ATOMIC CHARGES
-----------------------
   0 C :    0.013036
   1 C :    0.115814
   2 O :   -0.228023
   3 N :    0.011832
   4 C :    0.020196
   5 C :   -0.139101
   6 H :    0.043363
   7 H :    0.057430
   8 H :    0.039627
   9 H :    0.028780
  10 H :    0.037046
Sum of atomic charges:   -0.0000000

LOEWDIN ATOMIC CHARGES
----------------------
   0 C :   -0.043925
   1 C :    0.044873
   2 O :   -0.062848
   3 N :    0.004723
   4 C :   -0.044745
   5 C :   -0.063926
   6 H :    0.037196
   7 H :    0.037152
   8 H :    0.026133
   9 H :    0.032556
  10 H :    0.032813

  Mayer bond orders larger than 0.1
B(  0-C ,  1-C ) :   0.9961 B(  0-C ,  5-C ) :   0.9536 B(  0-C ,  6-H ) :   0.9416
B(  0-C ,  7-H ) :   0.9275 B(  1-C ,  2-O ) :   1.0007 B(  1-C ,  5-C ) :   0.9120
B(  1-C ,  8-H ) :   0.9527 B(  2-O ,  3-N ) :   0.9868 B(  2-O ,  4-C ) :   0.1014
B(  3-N ,  4-C ) :   1.8454 B(  4-C ,  5-C ) :   1.0181 B(  4-C ,  9-H ) :   0.9780
B(  5-C , 10-H ) :   0.9522

FINAL SINGLE POINT ENERGY      -284.760942949201

DIPOLE MOMENT
-------------
                                X             Y             Z
Electronic contribution:      0.44891      -3.62362       0.47215
Nuclear contribution   :     -0.74553       4.72842      -1.01455
                        -----------------------------------------
Total Dipole Moment    :     -0.29662       1.10480      -0.54239
                        -----------------------------------------
Magnitude (a.u.)       :      1.26600
Magnitude (Debye)      :      3.21792

                             ****ORCA TERMINATED NORMALLY****
TOTAL RUN TIME: 0 days 0 hours 0 minutes 5 seconds 143 msec
