                         Program Version 3.0.3 - RELEASE   -
|  1> ! RI PBE def2-SVP def2-SVP/J NBO PAL2
|  2> % maxcore 2000
|  3> % output
|  4>     # printlevel mini
|  5>     print[ P_Basis ] 0
|  6>     print[ P_SCFInfo ] 1
|  7>     print[ P_SCFIterInfo ] 1
|  8>     print[ P_OrbEn ] 0
|  9>     print[ P_Cartesian ] 0
| 10> end
| 11> *xyz 0 1
| 12>  C        0.7097250000     1.1936530000    -0.2565920000
| 13>  C       -0.7210210000     1.1633370000     0.2391360000
| 14>  O       -1.3902210000     0.0004590000    -0.1970890000
| 15>  C       -0.7218460000    -1.1630610000     0.2387780000
| 16>  C        0.7089580000    -1.1944860000    -0.2568130000
| 17>  N        1.3885240000    -0.0006960000     0.2130160000
| 18>  H        1.2144760000     2.0792040000     0.1400680000
| 19>  H        0.6974490000     1.2713810000    -1.3578280000
| 20>  H       -1.2857650000     2.0133630000    -0.1488020000
| 21>  H       -0.7246120000     1.2069260000     1.3387460000
| 22>  H       -1.2871850000    -2.0125550000    -0.1494580000
| 23>  H       -0.7255500000    -1.2070430000     1.3383740000
| 24>  H        0.6966920000    -1.2719380000    -1.3580610000
| 25>  H        1.2131000000    -2.0804610000     0.1397040000
| 26>  H        2.3558770000    -0.0009930000    -0.0810780000
| 27> *
| 28>
| 29>                          ****END OF INPUT****
 Total Charge           Charge          ....    0
 Multiplicity           Mult            ....    1
 Number of Electrons    NEL             ....   48
 Basis Dimension        Dim             ....  129

MULLIKEN ATOMIC CHARGES
-----------------------
   0 C :    0.074235
   1 C :    0.182469
   2 O :   -0.350432
   3 C :    0.182390
   4 C :    0.074299
   5 N :   -0.270438
   6 H :    0.006161
   7 H :   -0.008846
   8 H :    0.010893
   9 H :   -0.007548
  10 H :    0.010904
  11 H :   -0.007543
  12 H :   -0.008857
  13 H :    0.006170
  14 H :    0.106142
Sum of atomic charges:   -0.0000000

LOEWDIN ATOMIC CHARGES
----------------------
   0 C :   -0.006912
   1 C :    0.053946
   2 O :   -0.150956
   3 C :    0.053952
   4 C :   -0.006914
   5 N :   -0.106584
   6 H :    0.024222
   7 H :    0.001056
   8 H :    0.021901
   9 H :    0.006321
  10 H :    0.021901
  11 H :    0.006320
  12 H :    0.001051
  13 H :    0.024224
  14 H :    0.056470

  Mayer bond orders larger than 0.1
B(  0-C ,  1-C ) :   1.1101 B(  0-C ,  5-N ) :   1.0564 B(  0-C ,  6-H ) :   0.9266
B(  0-C ,  7-H ) :   0.8999 B(  1-C ,  2-O ) :   1.0283 B(  1-C ,  8-H ) :   0.9414
B(  1-C ,  9-H ) :   0.9074 B(  2-O ,  3-C ) :   1.0284 B(  3-C ,  4-C ) :   1.1100
B(  3-C , 10-H ) :   0.9414 B(  3-C , 11-H ) :   0.9074 B(  4-C ,  5-N ) :   1.0564
B(  4-C , 12-H ) :   0.8999 B(  4-C , 13-H ) :   0.9266 B(  5-N , 14-H ) :   0.9422

FINAL SINGLE POINT ENERGY      -287.220991074178

DIPOLE MOMENT
-------------
                                X             Y             Z
Electronic contribution:     -1.49862       0.00068      -0.04352
Nuclear contribution   :      2.09696      -0.00089      -0.06010
                        -----------------------------------------
Total Dipole Moment    :      0.59834      -0.00021      -0.10362
                        -----------------------------------------
Magnitude (a.u.)       :      0.60724
Magnitude (Debye)      :      1.54349

                             ****ORCA TERMINATED NORMALLY****
TOTAL RUN TIME: 0 days 0 hours 0 minutes 6 seconds 616 msec
