                         Program Version 3.0.3 - RELEASE   -
|  1> ! RI PBE def2-SVP def2-SVP/J NBO PAL2
|  2> % maxcore 2000
|  3> % output
|  4>     # printlevel mini
|  5>     print[ P_Basis ] 0
|  6>     print[ P_SCFInfo ] 1
|  7>     print[ P_SCFIterInfo ] 1
|  8>     print[ P_OrbEn ] 0
|  9>     print[ P_Cartesian ] 0
| 10> end
| 11> *xyz 0 1
| 12>  C        0.4016860000     1.4320580000     0.2627650000
| 13>  C        1.3229440000     0.3085590000    -0.1509470000
| 14>  O        0.9565760000    -0.9203800000     0.4590320000
| 15>  N       -0.3616890000    -1.2935560000     0.3468440000
| 16>  C       -1.2203550000    -0.4118000000     0.0263280000
| 17>  C       -0.9997500000     1.0518780000    -0.1820110000
| 18>  H        0.7233440000     2.3776880000    -0.1791370000
| 19>  H        0.4413690000     1.5439350000     1.3496190000
| 20>  H        2.3550530000     0.4739520000     0.1603560000
| 21>  H        1.3015520000     0.1812800000    -1.2423330000
| 22>  H       -2.2300810000    -0.8082550000    -0.0470440000
| 23>  H       -1.7659530000     1.6021340000     0.3725240000
| 24>  H       -1.1596940000     1.2956080000    -1.2388750000
| 25> *
| 26>
| 27>                          ****END OF INPUT****
 Total Charge           Charge          ....    0
 Multiplicity           Mult            ....    1
 Number of Electrons    NEL             ....   46
 Basis Dimension        Dim             ....  119

MULLIKEN ATOMIC CHARGES
-----------------------
   0 C :   -0.037546
   1 C :    0.148465
   2 O :   -0.266685
   3 N :    0.035600
   4 C :   -0.119061
   5 C :    0.034831
   6 H :    0.016369
   7 H :    0.039147
   8 H :    0.026478
   9 H :    0.026433
  10 H :    0.023905
  11 H :    0.035238
  12 H :    0.036826
Sum of atomic charges:    0.0000000

LOEWDIN ATOMIC CHARGES
----------------------
   0 C :   -0.058031
   1 C :    0.049256
   2 O :   -0.087004
   3 N :   -0.001551
   4 C :   -0.064896
   5 C :   -0.060129
   6 H :    0.032521
   7 H :    0.034246
   8 H :    0.028298
   9 H :    0.016548
  10 H :    0.028002
  11 H :    0.042660
  12 H :    0.040081

  Mayer bond orders larger than 0.1
B(  0-C ,  1-C ) :   1.0804 B(  0-C ,  5-C ) :   1.0910 B(  0-C ,  6-H ) :   0.9243
B(  0-C ,  7-H ) :   0.9345 B(  1-C ,  2-O ) :   0.9721 B(  1-C ,  8-H ) :   0.9403
B(  1-C ,  9-H ) :   0.9420 B(  2-O ,  3-N ) :   0.9759 B(  2-O ,  4-C ) :   0.1207
B(  3-N ,  4-C ) :   1.9395 B(  4-C ,  5-C ) :   1.0080 B(  4-C , 10-H ) :   0.9570
B(  5-C , 11-H ) :   0.9181 B(  5-C , 12-H ) :   0.9193

FINAL SINGLE POINT ENERGY      -285.984966439473

DIPOLE MOMENT
-------------
                                X             Y             Z
Electronic contribution:      0.43651      -4.78384       1.20715
Nuclear contribution   :     -0.60731       6.04227      -1.60456
                        -----------------------------------------
Total Dipole Moment    :     -0.17081       1.25843      -0.39741
                        -----------------------------------------
Magnitude (a.u.)       :      1.33069
Magnitude (Debye)      :      3.38236

                             ****ORCA TERMINATED NORMALLY****
TOTAL RUN TIME: 0 days 0 hours 0 minutes 5 seconds 707 msec
