                         Program Version 3.0.3 - RELEASE   -
|  1> ! RI PBE def2-SVP def2-SVP/J NBO PAL2
|  2> % maxcore 2000
|  3> % output
|  4>     # printlevel mini
|  5>     print[ P_Basis ] 0
|  6>     print[ P_SCFInfo ] 1
|  7>     print[ P_SCFIterInfo ] 1
|  8>     print[ P_OrbEn ] 0
|  9>     print[ P_Cartesian ] 0
| 10> end
| 11> *xyz 0 1
| 12>  C       -0.2873260000     0.7681290000     0.1239120000
| 13>  N       -0.4026170000    -0.6514620000    -0.1865490000
| 14>  C        0.9158600000    -0.0860810000     0.0765840000
| 15>  C        1.5709570000    -0.5569970000     1.3220140000
| 16>  C        2.8486830000    -1.2601720000     1.3008100000
| 17>  O        2.7728990000     0.1024910000     1.6885630000
| 18>  H       -0.6997550000     1.0596630000     1.0842580000
| 19>  H       -0.4220040000     1.4943460000    -0.6710540000
| 20>  H       -0.5397200000    -0.7973700000    -1.1795970000
| 21>  H        1.5923980000     0.0652140000    -0.7612260000
| 22>  H        0.8860610000    -0.7558890000     2.1453670000
| 23>  H        3.3391300000    -1.4442730000     0.3473030000
| 24>  H        3.0931340000    -1.9591890000     2.0967050000
| 25> *
| 26>
| 27>                          ****END OF INPUT****
 Total Charge           Charge          ....    0
 Multiplicity           Mult            ....    1
 Number of Electrons    NEL             ....   46
 Basis Dimension        Dim             ....  119

MULLIKEN ATOMIC CHARGES
-----------------------
   0 C :    0.063709
   1 N :   -0.199738
   2 C :   -0.059126
   3 C :    0.091660
   4 C :    0.153595
   5 O :   -0.288769
   6 H :    0.030858
   7 H :    0.036641
   8 H :    0.111358
   9 H :    0.003146
  10 H :    0.004881
  11 H :    0.019342
  12 H :    0.032445
Sum of atomic charges:   -0.0000000

LOEWDIN ATOMIC CHARGES
----------------------
   0 C :    0.007095
   1 N :   -0.101704
   2 C :   -0.016338
   3 C :    0.040977
   4 C :    0.056567
   5 O :   -0.154458
   6 H :    0.021502
   7 H :    0.019185
   8 H :    0.058359
   9 H :    0.019292
  10 H :    0.019834
  11 H :    0.012601
  12 H :    0.017088

  Mayer bond orders larger than 0.1
B(  0-C ,  1-N ) :   1.0072 B(  0-C ,  2-C ) :   1.0336 B(  0-C ,  6-H ) :   0.9373
B(  0-C ,  7-H ) :   0.9441 B(  1-N ,  2-C ) :   0.9381 B(  1-N ,  8-H ) :   0.9418
B(  2-C ,  3-C ) :   1.0419 B(  2-C ,  9-H ) :   0.9292 B(  3-C ,  4-C ) :   1.0756
B(  3-C ,  5-O ) :   0.9750 B(  3-C , 10-H ) :   0.9235 B(  4-C ,  5-O ) :   1.0014
B(  4-C , 11-H ) :   0.9310 B(  4-C , 12-H ) :   0.9351

FINAL SINGLE POINT ENERGY      -285.962314412012

DIPOLE MOMENT
-------------
                                X             Y             Z
Electronic contribution:      1.27801       0.21721       1.17729
Nuclear contribution   :     -1.41642      -0.37797      -1.85614
                        -----------------------------------------
Total Dipole Moment    :     -0.13841      -0.16076      -0.67885
                        -----------------------------------------
Magnitude (a.u.)       :      0.71122
Magnitude (Debye)      :      1.80779

                             ****ORCA TERMINATED NORMALLY****
TOTAL RUN TIME: 0 days 0 hours 0 minutes 5 seconds 582 msec
