                         Program Version 3.0.3 - RELEASE   -
|  1> ! RI PBE def2-SVP def2-SVP/J NBO PAL2
|  2> % maxcore 2000
|  3> % output
|  4>     # printlevel mini
|  5>     print[ P_Basis ] 0
|  6>     print[ P_SCFInfo ] 1
|  7>     print[ P_SCFIterInfo ] 1
|  8>     print[ P_OrbEn ] 0
|  9>     print[ P_Cartesian ] 0
| 10> end
| 11> *xyz 0 1
| 12>  C        0.5932250000     1.3265020000    -0.0479990000
| 13>  N       -0.7919800000     1.3647050000    -0.5150480000
| 14>  C       -1.4364420000     0.1429940000    -0.0349650000
| 15>  C       -0.3271960000    -0.8713560000     0.1131210000
| 16>  O        0.5340730000    -0.9149730000    -1.0191850000
| 17>  C        0.9311250000    -0.1376240000     0.1050400000
| 18>  H        0.6879160000     1.8154070000     0.9297630000
| 19>  H        1.2458060000     1.8534500000    -0.7476080000
| 20>  H       -0.7805480000     1.3339780000    -1.5248530000
| 21>  H       -2.2231170000    -0.1692940000    -0.7253300000
| 22>  H       -1.8991830000     0.3068580000     0.9463780000
| 23>  H       -0.4692570000    -1.8081890000     0.6433890000
| 24>  H        1.8214680000    -0.4724580000     0.6286770000
| 25> *
| 26>
| 27>                          ****END OF INPUT****
 Total Charge           Charge          ....    0
 Multiplicity           Mult            ....    1
 Number of Electrons    NEL             ....   46
 Basis Dimension        Dim             ....  119

MULLIKEN ATOMIC CHARGES
-----------------------
   0 C :    0.185484
   1 N :   -0.273554
   2 C :    0.183902
   3 C :   -0.011919
   4 O :   -0.283429
   5 C :   -0.016851
   6 H :    0.012379
   7 H :    0.025046
   8 H :    0.106712
   9 H :    0.024245
  10 H :    0.013512
  11 H :    0.017620
  12 H :    0.016855
Sum of atomic charges:    0.0000000

LOEWDIN ATOMIC CHARGES
----------------------
   0 C :    0.006576
   1 N :   -0.096079
   2 C :    0.006445
   3 C :    0.027306
   4 O :   -0.156205
   5 C :    0.027055
   6 H :    0.021872
   7 H :    0.027621
   8 H :    0.055272
   9 H :    0.027298
  10 H :    0.022120
  11 H :    0.015470
  12 H :    0.015248

  Mayer bond orders larger than 0.1
B(  0-C ,  1-N ) :   1.0688 B(  0-C ,  5-C ) :   0.9888 B(  0-C ,  6-H ) :   0.9176
B(  0-C ,  7-H ) :   0.9348 B(  1-N ,  2-C ) :   1.0655 B(  1-N ,  8-H ) :   0.9500
B(  2-C ,  3-C ) :   0.9903 B(  2-C ,  9-H ) :   0.9350 B(  2-C , 10-H ) :   0.9183
B(  3-C ,  4-O ) :   0.9802 B(  3-C ,  5-C ) :   1.0485 B(  3-C , 11-H ) :   0.9471
B(  4-O ,  5-C ) :   0.9838 B(  5-C , 12-H ) :   0.9482

FINAL SINGLE POINT ENERGY      -286.001068691166

DIPOLE MOMENT
-------------
                                X             Y             Z
Electronic contribution:      1.00238      -1.73394      -1.45862
Nuclear contribution   :     -0.96752       1.67915       1.80633
                        -----------------------------------------
Total Dipole Moment    :      0.03486      -0.05479       0.34771
                        -----------------------------------------
Magnitude (a.u.)       :      0.35372
Magnitude (Debye)      :      0.89909

                             ****ORCA TERMINATED NORMALLY****
TOTAL RUN TIME: 0 days 0 hours 0 minutes 5 seconds 559 msec
