                         Program Version 3.0.3 - RELEASE   -
|  1> ! RI PBE def2-SVP def2-SVP/J NBO PAL2
|  2> % maxcore 2000
|  3> % output
|  4>     # printlevel mini
|  5>     print[ P_Basis ] 0
|  6>     print[ P_SCFInfo ] 1
|  7>     print[ P_SCFIterInfo ] 1
|  8>     print[ P_OrbEn ] 0
|  9>     print[ P_Cartesian ] 0
| 10> end
| 11> *xyz 0 1
| 12>  C        0.6472790000     1.1872210000    -0.3004230000
| 13>  O       -0.5981580000     1.0479550000    -0.9627210000
| 14>  C       -1.3374910000     0.0408140000    -0.2932410000
| 15>  C       -0.3064400000    -0.9252270000     0.2304240000
| 16>  N        0.7573700000    -1.2971530000    -0.6888350000
| 17>  C        0.9717390000    -0.1869510000     0.2257920000
| 18>  H        0.5814510000     1.9004250000     0.5346530000
| 19>  H        1.3654500000     1.5713050000    -1.0300770000
| 20>  H       -2.0329800000    -0.3916450000    -1.0177840000
| 21>  H       -1.9178570000     0.4568300000     0.5436880000
| 22>  H       -0.5792810000    -1.6526530000     0.9862840000
| 23>  H        0.5516400000    -0.9467990000    -1.6214270000
| 24>  H        1.7422780000    -0.3117230000     0.9778680000
| 25> *
| 26>
| 27>                          ****END OF INPUT****
 Total Charge           Charge          ....    0
 Multiplicity           Mult            ....    1
 Number of Electrons    NEL             ....   46
 Basis Dimension        Dim             ....  119

MULLIKEN ATOMIC CHARGES
-----------------------
   0 C :    0.278188
   1 O :   -0.362877
   2 C :    0.279503
   3 C :   -0.141089
   4 N :   -0.132939
   5 C :   -0.151358
   6 H :    0.008615
   7 H :    0.025719
   8 H :    0.027408
   9 H :    0.004163
  10 H :    0.029317
  11 H :    0.103981
  12 H :    0.031368
Sum of atomic charges:   -0.0000000

LOEWDIN ATOMIC CHARGES
----------------------
   0 C :    0.059353
   1 O :   -0.155948
   2 C :    0.060280
   3 C :   -0.023381
   4 N :   -0.082280
   5 C :   -0.024508
   6 H :    0.012563
   7 H :    0.022947
   8 H :    0.023057
   9 H :    0.011752
  10 H :    0.022954
  11 H :    0.049869
  12 H :    0.023342

  Mayer bond orders larger than 0.1
B(  0-C ,  1-O ) :   1.0134 B(  0-C ,  5-C ) :   1.0316 B(  0-C ,  6-H ) :   0.9153
B(  0-C ,  7-H ) :   0.9283 B(  1-O ,  2-C ) :   1.0103 B(  2-C ,  3-C ) :   1.0320
B(  2-C ,  8-H ) :   0.9300 B(  2-C ,  9-H ) :   0.9140 B(  3-C ,  4-N ) :   1.0091
B(  3-C ,  5-C ) :   1.0028 B(  3-C , 10-H ) :   0.9427 B(  4-N ,  5-C ) :   1.0085
B(  4-N , 11-H ) :   0.9385 B(  5-C , 12-H ) :   0.9435

FINAL SINGLE POINT ENERGY      -285.997363975868

DIPOLE MOMENT
-------------
                                X             Y             Z
Electronic contribution:      0.17777      -0.31784      -1.14265
Nuclear contribution   :     -0.31074       0.54747       1.50966
                        -----------------------------------------
Total Dipole Moment    :     -0.13298       0.22964       0.36702
                        -----------------------------------------
Magnitude (a.u.)       :      0.45290
Magnitude (Debye)      :      1.15117

                             ****ORCA TERMINATED NORMALLY****
TOTAL RUN TIME: 0 days 0 hours 0 minutes 5 seconds 791 msec
