                         Program Version 3.0.3 - RELEASE   -
|  1> ! RI PBE def2-SVP def2-SVP/J NBO PAL2
|  2> % maxcore 2000
|  3> % output
|  4>     # printlevel mini
|  5>     print[ P_Basis ] 0
|  6>     print[ P_SCFInfo ] 1
|  7>     print[ P_SCFIterInfo ] 1
|  8>     print[ P_OrbEn ] 0
|  9>     print[ P_Cartesian ] 0
| 10> end
| 11> *xyz 0 1
| 12>  C        0.2629490000    -1.3782370000     0.0252480000
| 13>  O       -1.0660110000    -0.8212010000     0.0226160000
| 14>  N       -1.3008430000     0.5250320000     0.0070070000
| 15>  C       -0.3091930000     1.3248940000    -0.0066510000
| 16>  C        1.0858660000     0.9198310000    -0.0072010000
| 17>  C        1.3614660000    -0.3767700000     0.0080380000
| 18>  H        0.3323880000    -2.0394150000    -0.8487420000
| 19>  H        0.3388450000    -2.0162020000     0.9158190000
| 20>  H       -0.5885200000     2.3727360000    -0.0184960000
| 21>  H        1.8601820000     1.6764550000    -0.0199180000
| 22>  H        2.3785810000    -0.7542230000     0.0086680000
| 23> *
| 24>
| 25>                          ****END OF INPUT****
 Total Charge           Charge          ....    0
 Multiplicity           Mult            ....    1
 Number of Electrons    NEL             ....   44
 Basis Dimension        Dim             ....  109

MULLIKEN ATOMIC CHARGES
-----------------------
   0 C :    0.265662
   1 O :   -0.282212
   2 N :    0.063764
   3 C :   -0.067868
   4 C :    0.033505
   5 C :   -0.122242
   6 H :    0.034273
   7 H :    0.033628
   8 H :    0.019194
   9 H :    0.005644
  10 H :    0.016651
Sum of atomic charges:   -0.0000000

LOEWDIN ATOMIC CHARGES
----------------------
   0 C :    0.061773
   1 O :   -0.086359
   2 N :    0.021774
   3 C :   -0.069113
   4 C :   -0.060126
   5 C :   -0.022030
   6 H :    0.025812
   7 H :    0.025679
   8 H :    0.031710
   9 H :    0.036225
  10 H :    0.034654

  Mayer bond orders larger than 0.1
B(  0-C ,  1-O ) :   0.9316 B(  0-C ,  5-C ) :   1.0514 B(  0-C ,  6-H ) :   0.9276
B(  0-C ,  7-H ) :   0.9273 B(  1-O ,  2-N ) :   0.9932 B(  1-O ,  3-C ) :   0.1290
B(  2-N ,  3-C ) :   1.8846 B(  3-C ,  4-C ) :   1.0303 B(  3-C ,  8-H ) :   0.9609
B(  4-C ,  5-C ) :   1.8342 B(  4-C ,  9-H ) :   0.9745 B(  5-C , 10-H ) :   0.9593

FINAL SINGLE POINT ENERGY      -284.761964563473

DIPOLE MOMENT
-------------
                                X             Y             Z
Electronic contribution:     -2.90029       0.64903       0.00134
Nuclear contribution   :      4.14934      -0.68494      -0.00605
                        -----------------------------------------
Total Dipole Moment    :      1.24905      -0.03591      -0.00471
                        -----------------------------------------
Magnitude (a.u.)       :      1.24958
Magnitude (Debye)      :      3.17618

                             ****ORCA TERMINATED NORMALLY****
TOTAL RUN TIME: 0 days 0 hours 0 minutes 5 seconds 574 msec
