                         Program Version 3.0.3 - RELEASE   -
|  1> ! RI PBE def2-SVP def2-SVP/J NBO PAL2
|  2> % maxcore 2000
|  3> % output
|  4>     # printlevel mini
|  5>     print[ P_Basis ] 0
|  6>     print[ P_SCFInfo ] 1
|  7>     print[ P_SCFIterInfo ] 1
|  8>     print[ P_OrbEn ] 0
|  9>     print[ P_Cartesian ] 0
| 10> end
| 11> *xyz 0 1
| 12>  C        0.9989830000     0.0333620000    -0.0770330000
| 13>  C        2.4698090000     0.1812830000    -0.0728010000
| 14>  C        3.3060750000     1.2495450000    -0.0720060000
| 15>  C        4.5918330000     0.6604020000    -0.0671350000
| 16>  N        4.5332180000    -0.6398870000    -0.0651870000
| 17>  O        3.1924440000    -0.9459300000    -0.0687630000
| 18>  H        0.5227490000     1.0128600000    -0.0800520000
| 19>  H        0.6622510000    -0.5166910000     0.8050240000
| 20>  H        0.6676120000    -0.5195210000    -0.9593500000
| 21>  H        3.0442360000     2.2941020000    -0.0745090000
| 22>  H        5.5598890000     1.1406650000    -0.0649780000
| 23> *
| 24>
| 25>                          ****END OF INPUT****
 Total Charge           Charge          ....    0
 Multiplicity           Mult            ....    1
 Number of Electrons    NEL             ....   44
 Basis Dimension        Dim             ....  109

MULLIKEN ATOMIC CHARGES
-----------------------
   0 C :    0.090601
   1 C :    0.017477
   2 C :   -0.105472
   3 C :    0.041659
   4 N :   -0.028085
   5 O :   -0.162332
   6 H :    0.028897
   7 H :    0.052702
   8 H :    0.052694
   9 H :    0.000036
  10 H :    0.011822
Sum of atomic charges:    0.0000000

LOEWDIN ATOMIC CHARGES
----------------------
   0 C :   -0.061052
   1 C :    0.015646
   2 C :   -0.115727
   3 C :   -0.040248
   4 N :   -0.041111
   5 O :    0.033812
   6 H :    0.045072
   7 H :    0.049763
   8 H :    0.049763
   9 H :    0.033760
  10 H :    0.030321

  Mayer bond orders larger than 0.1
B(  0-C ,  1-C ) :   1.1144 B(  0-C ,  6-H ) :   0.9464 B(  0-C ,  7-H ) :   0.9351
B(  0-C ,  8-H ) :   0.9351 B(  1-C ,  2-C ) :   1.5335 B(  1-C ,  4-N ) :   0.1170
B(  1-C ,  5-O ) :   1.1720 B(  2-C ,  3-C ) :   1.2162 B(  2-C ,  9-H ) :   0.9918
B(  3-C ,  4-N ) :   1.6820 B(  3-C , 10-H ) :   0.9762 B(  4-N ,  5-O ) :   1.0115

FINAL SINGLE POINT ENERGY      -284.813102919045

DIPOLE MOMENT
-------------
                                X             Y             Z
Electronic contribution:      4.15338      -2.03359       0.01592
Nuclear contribution   :     -4.95238       2.90742      -0.01981
                        -----------------------------------------
Total Dipole Moment    :     -0.79901       0.87382      -0.00389
                        -----------------------------------------
Magnitude (a.u.)       :      1.18406
Magnitude (Debye)      :      3.00964

                             ****ORCA TERMINATED NORMALLY****
TOTAL RUN TIME: 0 days 0 hours 0 minutes 4 seconds 880 msec
