                         Program Version 3.0.3 - RELEASE   -
|  1> ! RI PBE def2-SVP def2-SVP/J NBO PAL2
|  2> % maxcore 2000
|  3> % output
|  4>     # printlevel mini
|  5>     print[ P_Basis ] 0
|  6>     print[ P_SCFInfo ] 1
|  7>     print[ P_SCFIterInfo ] 1
|  8>     print[ P_OrbEn ] 0
|  9>     print[ P_Cartesian ] 0
| 10> end
| 11> *xyz 0 1
| 12>  C        1.0510560000    -0.0469100000     0.0970860000
| 13>  C        2.5567170000    -0.0718410000    -0.0353780000
| 14>  C        3.0970040000    -1.2991300000    -0.7695770000
| 15>  C        3.4885000000    -0.6686490000    -2.0658630000
| 16>  N        3.4206230000     0.5977630000    -2.0718920000
| 17>  O        2.9770270000     1.0499940000    -0.8527890000
| 18>  H        0.7120320000    -0.8523240000     0.7539310000
| 19>  H        0.5801470000    -0.1736570000    -0.8808630000
| 20>  H        0.7200140000     0.9040660000     0.5170690000
| 21>  H        3.0309650000     0.0665380000     0.9387800000
| 22>  H        2.3421130000    -2.0802550000    -0.8928650000
| 23>  H        3.9632440000    -1.7537720000    -0.2791040000
| 24>  H        3.8322490000    -1.1813330000    -2.9549430000
| 25> *
| 26>
| 27>                          ****END OF INPUT****
 Total Charge           Charge          ....    0
 Multiplicity           Mult            ....    1
 Number of Electrons    NEL             ....   46
 Basis Dimension        Dim             ....  119

MULLIKEN ATOMIC CHARGES
-----------------------
   0 C :    0.044829
   1 C :    0.046558
   2 C :    0.006851
   3 C :   -0.065090
   4 N :    0.027462
   5 O :   -0.271268
   6 H :    0.024370
   7 H :    0.023316
   8 H :    0.037856
   9 H :    0.020178
  10 H :    0.036568
  11 H :    0.042926
  12 H :    0.025446
Sum of atomic charges:   -0.0000000

LOEWDIN ATOMIC CHARGES
----------------------
   0 C :   -0.068254
   1 C :    0.047456
   2 C :   -0.064585
   3 C :   -0.059557
   4 N :    0.010343
   5 O :   -0.095373
   6 H :    0.031350
   7 H :    0.031645
   8 H :    0.035300
   9 H :    0.023915
  10 H :    0.039065
  11 H :    0.041052
  12 H :    0.027642

  Mayer bond orders larger than 0.1
B(  0-C ,  1-C ) :   1.0855 B(  0-C ,  6-H ) :   0.9517 B(  0-C ,  7-H ) :   0.9508
B(  0-C ,  8-H ) :   0.9558 B(  1-C ,  2-C ) :   1.0879 B(  1-C ,  5-O ) :   0.9362
B(  1-C ,  9-H ) :   0.9235 B(  2-C ,  3-C ) :   1.0031 B(  2-C , 10-H ) :   0.9287
B(  2-C , 11-H ) :   0.9101 B(  3-C ,  4-N ) :   1.8921 B(  3-C ,  5-O ) :   0.1174
B(  3-C , 12-H ) :   0.9686 B(  4-N ,  5-O ) :   0.9937

FINAL SINGLE POINT ENERGY      -285.991157543142

DIPOLE MOMENT
-------------
                                X             Y             Z
Electronic contribution:      3.51384       3.21043      -2.92288
Nuclear contribution   :     -3.75134      -4.35134       3.45042
                        -----------------------------------------
Total Dipole Moment    :     -0.23750      -1.14090       0.52754
                        -----------------------------------------
Magnitude (a.u.)       :      1.27921
Magnitude (Debye)      :      3.25149

                             ****ORCA TERMINATED NORMALLY****
TOTAL RUN TIME: 0 days 0 hours 0 minutes 5 seconds 688 msec
