                         Program Version 3.0.3 - RELEASE   -
|  1> ! RI PBE def2-SVP def2-SVP/J NBO PAL2
|  2> % maxcore 2000
|  3> % output
|  4>     # printlevel mini
|  5>     print[ P_Basis ] 0
|  6>     print[ P_SCFInfo ] 1
|  7>     print[ P_SCFIterInfo ] 1
|  8>     print[ P_OrbEn ] 0
|  9>     print[ P_Cartesian ] 0
| 10> end
| 11> *xyz 0 1
| 12>  C        0.9192420000     0.0274630000    -0.0838120000
| 13>  C        2.4025530000    -0.0522890000    -0.0835020000
| 14>  N        3.1218630000     1.0373970000    -0.0839340000
| 15>  O        4.4359990000     0.6352050000    -0.0834910000
| 16>  C        4.4805690000    -0.6967560000    -0.0827900000
| 17>  C        3.2312790000    -1.2083150000    -0.0827540000
| 18>  H        0.6027860000     1.0699140000    -0.0844250000
| 19>  H        0.5037170000    -0.4655300000     0.7980700000
| 20>  H        0.5040340000    -0.4664730000    -0.9653160000
| 21>  H        5.4646660000    -1.1392610000    -0.0823830000
| 22>  H        2.9359820000    -2.2442750000    -0.0822740000
| 23> *
| 24>
| 25>                          ****END OF INPUT****
 Total Charge           Charge          ....    0
 Multiplicity           Mult            ....    1
 Number of Electrons    NEL             ....   44
 Basis Dimension        Dim             ....  109

MULLIKEN ATOMIC CHARGES
-----------------------
   0 C :    0.096002
   1 C :   -0.140600
   2 N :   -0.030895
   3 O :   -0.147377
   4 C :    0.171733
   5 C :   -0.081856
   6 H :    0.034534
   7 H :    0.038464
   8 H :    0.038471
   9 H :    0.022433
  10 H :   -0.000911
Sum of atomic charges:    0.0000000

LOEWDIN ATOMIC CHARGES
----------------------
   0 C :   -0.056927
   1 C :   -0.053946
   2 N :   -0.049450
   3 O :    0.042234
   4 C :    0.032762
   5 C :   -0.106512
   6 H :    0.043100
   7 H :    0.042931
   8 H :    0.042933
   9 H :    0.028022
  10 H :    0.034852

  Mayer bond orders larger than 0.1
B(  0-C ,  1-C ) :   1.1002 B(  0-C ,  6-H ) :   0.9423 B(  0-C ,  7-H ) :   0.9438
B(  0-C ,  8-H ) :   0.9438 B(  1-C ,  2-N ) :   1.6766 B(  1-C ,  5-C ) :   1.2144
B(  2-N ,  3-O ) :   1.0061 B(  2-N ,  4-C ) :   0.1158 B(  3-O ,  4-C ) :   1.1914
B(  4-C ,  5-C ) :   1.5418 B(  4-C ,  9-H ) :   0.9767 B(  5-C , 10-H ) :   0.9941

FINAL SINGLE POINT ENERGY      -284.811420134211

DIPOLE MOMENT
-------------
                                X             Y             Z
Electronic contribution:      4.88759       1.88361      -0.00008
Nuclear contribution   :     -5.11468      -2.93018       0.00059
                        -----------------------------------------
Total Dipole Moment    :     -0.22709      -1.04656       0.00051
                        -----------------------------------------
Magnitude (a.u.)       :      1.07092
Magnitude (Debye)      :      2.72206

                             ****ORCA TERMINATED NORMALLY****
TOTAL RUN TIME: 0 days 0 hours 0 minutes 4 seconds 851 msec
