                         Program Version 3.0.3 - RELEASE   -
|  1> ! RI PBE def2-SVP def2-SVP/J NBO PAL2
|  2> % maxcore 2000
|  3> % output
|  4>     # printlevel mini
|  5>     print[ P_Basis ] 0
|  6>     print[ P_SCFInfo ] 1
|  7>     print[ P_SCFIterInfo ] 1
|  8>     print[ P_OrbEn ] 0
|  9>     print[ P_Cartesian ] 0
| 10> end
| 11> *xyz 0 1
| 12>  C        0.9180340000    -0.0132940000     0.0802050000
| 13>  C        2.4141040000     0.0829980000    -0.0973230000
| 14>  C        3.1569440000     1.1725490000     0.7127960000
| 15>  C        3.9118430000     0.0139700000     1.3764130000
| 16>  O        4.7838710000    -0.0947460000     2.1918800000
| 17>  N        3.2005150000    -0.8971180000     0.6515430000
| 18>  H        0.4207820000     0.8272370000    -0.4101990000
| 19>  H        0.6539580000    -0.0025550000     1.1405230000
| 20>  H        0.5261540000    -0.9338650000    -0.3600630000
| 21>  H        2.6763140000     0.0975250000    -1.1606350000
| 22>  H        2.5306640000     1.7453960000     1.3973540000
| 23>  H        3.7935110000     1.8453850000     0.1389650000
| 24>  H        3.2728160000    -1.9008930000     0.5900420000
| 25> *
| 26>
| 27>                          ****END OF INPUT****
 Total Charge           Charge          ....    0
 Multiplicity           Mult            ....    1
 Number of Electrons    NEL             ....   46
 Basis Dimension        Dim             ....  119

MULLIKEN ATOMIC CHARGES
-----------------------
   0 C :    0.056845
   1 C :   -0.042524
   2 C :   -0.005100
   3 C :    0.067844
   4 O :   -0.168355
   5 N :   -0.179212
   6 H :    0.031797
   7 H :    0.016552
   8 H :    0.025513
   9 H :    0.021869
  10 H :    0.032904
  11 H :    0.041539
  12 H :    0.100328
Sum of atomic charges:    0.0000000

LOEWDIN ATOMIC CHARGES
----------------------
   0 C :   -0.068710
   1 C :    0.029481
   2 C :   -0.055397
   3 C :    0.019376
   4 O :   -0.164333
   5 N :   -0.009476
   6 H :    0.034879
   7 H :    0.028534
   8 H :    0.029733
   9 H :    0.018486
  10 H :    0.037629
  11 H :    0.038854
  12 H :    0.060944

  Mayer bond orders larger than 0.1
B(  0-C ,  1-C ) :   1.0881 B(  0-C ,  6-H ) :   0.9552 B(  0-C ,  7-H ) :   0.9486
B(  0-C ,  8-H ) :   0.9581 B(  1-C ,  2-C ) :   1.0752 B(  1-C ,  5-N ) :   1.0141
B(  1-C ,  9-H ) :   0.9174 B(  2-C ,  3-C ) :   0.9435 B(  2-C , 10-H ) :   0.9048
B(  2-C , 11-H ) :   0.9116 B(  3-C ,  4-O ) :   2.1757 B(  3-C ,  5-N ) :   1.1744
B(  4-O ,  5-N ) :   0.1135 B(  5-N , 12-H ) :   0.9424

FINAL SINGLE POINT ENERGY      -286.051794957889

DIPOLE MOMENT
-------------
                                X             Y             Z
Electronic contribution:      5.98169      -1.50879       3.13510
Nuclear contribution   :     -7.04165       1.35927      -4.16205
                        -----------------------------------------
Total Dipole Moment    :     -1.05997      -0.14952      -1.02695
                        -----------------------------------------
Magnitude (a.u.)       :      1.48341
Magnitude (Debye)      :      3.77053

                             ****ORCA TERMINATED NORMALLY****
TOTAL RUN TIME: 0 days 0 hours 0 minutes 6 seconds 31 msec
