                         Program Version 3.0.3 - RELEASE   -
|  1> ! RI PBE def2-SVP def2-SVP/J NBO PAL2
|  2> % maxcore 2000
|  3> % output
|  4>     # printlevel mini
|  5>     print[ P_Basis ] 0
|  6>     print[ P_SCFInfo ] 1
|  7>     print[ P_SCFIterInfo ] 1
|  8>     print[ P_OrbEn ] 0
|  9>     print[ P_Cartesian ] 0
| 10> end
| 11> *xyz 0 1
| 12>  C        0.8371320000    -0.0429990000    -0.2889920000
| 13>  C        2.2953570000     0.2966040000    -0.2798900000
| 14>  C        3.3265070000    -0.5968970000    -0.8884330000
| 15>  N        2.9278840000     0.6188700000    -1.5399270000
| 16>  C        3.7796220000     1.6815240000    -1.7352820000
| 17>  O        4.9314440000     1.5924560000    -2.0687690000
| 18>  H        0.5741770000    -0.6258130000     0.5971060000
| 19>  H        0.5867150000    -0.6264590000    -1.1766980000
| 20>  H        0.2247540000     0.8618710000    -0.2925400000
| 21>  H        2.6384990000     0.8766420000     0.5754280000
| 22>  H        3.0057900000    -1.5161660000    -1.3676750000
| 23>  H        4.3219200000    -0.6164580000    -0.4563780000
| 24>  H        3.2659090000     2.6527160000    -1.6096510000
| 25> *
| 26>
| 27>                          ****END OF INPUT****
 Total Charge           Charge          ....    0
 Multiplicity           Mult            ....    1
 Number of Electrons    NEL             ....   46
 Basis Dimension        Dim             ....  119

MULLIKEN ATOMIC CHARGES
-----------------------
   0 C :    0.086405
   1 C :   -0.120067
   2 C :    0.105627
   3 N :   -0.206565
   4 C :    0.144975
   5 O :   -0.195473
   6 H :    0.031627
   7 H :    0.021349
   8 H :    0.034828
   9 H :    0.033236
  10 H :    0.034473
  11 H :    0.044743
  12 H :   -0.015159
Sum of atomic charges:    0.0000000

LOEWDIN ATOMIC CHARGES
----------------------
   0 C :   -0.062363
   1 C :    0.019806
   2 C :    0.031903
   3 N :   -0.066382
   4 C :    0.056605
   5 O :   -0.145940
   6 H :    0.035982
   7 H :    0.035611
   8 H :    0.036205
   9 H :    0.022129
  10 H :    0.026152
  11 H :    0.024704
  12 H :   -0.014413

  Mayer bond orders larger than 0.1
B(  0-C ,  1-C ) :   1.0900 B(  0-C ,  6-H ) :   0.9540 B(  0-C ,  7-H ) :   0.9466
B(  0-C ,  8-H ) :   0.9538 B(  1-C ,  2-C ) :   1.0368 B(  1-C ,  3-N ) :   0.9035
B(  1-C ,  9-H ) :   0.9376 B(  2-C ,  3-N ) :   0.9489 B(  2-C , 10-H ) :   0.9370
B(  2-C , 11-H ) :   0.9412 B(  3-N ,  4-C ) :   1.1193 B(  4-C ,  5-O ) :   2.0889
B(  4-C , 12-H ) :   0.9281

FINAL SINGLE POINT ENERGY      -286.017085857648

DIPOLE MOMENT
-------------
                                X             Y             Z
Electronic contribution:      5.14233       2.60585      -3.12449
Nuclear contribution   :     -6.13766      -2.99464       3.95186
                        -----------------------------------------
Total Dipole Moment    :     -0.99533      -0.38879       0.82737
                        -----------------------------------------
Magnitude (a.u.)       :      1.35144
Magnitude (Debye)      :      3.43508

                             ****ORCA TERMINATED NORMALLY****
TOTAL RUN TIME: 0 days 0 hours 0 minutes 5 seconds 776 msec
