                         Program Version 3.0.3 - RELEASE   -
|  1> ! RI PBE def2-SVP def2-SVP/J NBO PAL2
|  2> % maxcore 2000
|  3> % output
|  4>     # printlevel mini
|  5>     print[ P_Basis ] 0
|  6>     print[ P_SCFInfo ] 1
|  7>     print[ P_SCFIterInfo ] 1
|  8>     print[ P_OrbEn ] 0
|  9>     print[ P_Cartesian ] 0
| 10> end
| 11> *xyz 0 1
| 12>  C        0.8388010000     0.0429570000    -0.0530260000
| 13>  C        2.3347950000    -0.0409760000     0.0247010000
| 14>  C        3.1482800000    -0.8452260000    -0.9807970000
| 15>  N        2.5902060000    -1.5446710000    -2.0983880000
| 16>  C        3.1992980000     0.6465760000    -0.9751880000
| 17>  O        4.3219950000     1.3166790000    -0.4998210000
| 18>  H        0.3670070000    -0.7893000000     0.4770670000
| 19>  H        0.4880360000     0.0116980000    -1.0871090000
| 20>  H        0.4716560000     0.9714640000     0.3916560000
| 21>  H        2.7531780000    -0.0462670000     1.0265060000
| 22>  H        4.0275100000    -1.3247040000    -0.5601300000
| 23>  H        2.0965860000    -0.9246430000    -2.7249830000
| 24>  H        1.9447270000    -2.2678480000    -1.8066390000
| 25>  H        2.6803580000     1.1468690000    -1.7957350000
| 26>  H        5.0349660000     1.1962820000    -1.1334050000
| 27> *
| 28>
| 29>                          ****END OF INPUT****
 Total Charge           Charge          ....    0
 Multiplicity           Mult            ....    1
 Number of Electrons    NEL             ....   48
 Basis Dimension        Dim             ....  129

MULLIKEN ATOMIC CHARGES
-----------------------
   0 C :    0.082847
   1 C :   -0.122383
   2 C :   -0.067595
   3 N :   -0.116239
   4 C :    0.050122
   5 O :   -0.229984
   6 H :    0.022849
   7 H :   -0.019630
   8 H :    0.026188
   9 H :    0.022342
  10 H :    0.013590
  11 H :    0.079183
  12 H :    0.096608
  13 H :    0.002913
  14 H :    0.159189
Sum of atomic charges:    0.0000000

LOEWDIN ATOMIC CHARGES
----------------------
   0 C :   -0.058209
   1 C :   -0.069923
   2 C :   -0.026046
   3 N :   -0.081966
   4 C :    0.024913
   5 O :   -0.097053
   6 H :    0.028507
   7 H :    0.015356
   8 H :    0.032900
   9 H :    0.030138
  10 H :    0.019384
  11 H :    0.048109
  12 H :    0.055370
  13 H :    0.004104
  14 H :    0.074417

  Mayer bond orders larger than 0.1
B(  0-C ,  1-C ) :   1.0980 B(  0-C ,  6-H ) :   0.9584 B(  0-C ,  7-H ) :   0.9418
B(  0-C ,  8-H ) :   0.9587 B(  1-C ,  2-C ) :   0.8917 B(  1-C ,  4-C ) :   0.9294
B(  1-C ,  9-H ) :   0.9256 B(  2-C ,  3-N ) :   1.1694 B(  2-C ,  4-C ) :   0.9440
B(  2-C , 10-H ) :   0.9336 B(  3-N , 11-H ) :   0.9651 B(  3-N , 12-H ) :   0.9678
B(  4-C ,  5-O ) :   1.1502 B(  4-C , 13-H ) :   0.9452 B(  5-O , 14-H ) :   0.9804

FINAL SINGLE POINT ENERGY      -287.199776664257

DIPOLE MOMENT
-------------
                                X             Y             Z
Electronic contribution:      4.25777       1.26621      -0.20544
Nuclear contribution   :     -4.58338      -1.40683      -0.13174
                        -----------------------------------------
Total Dipole Moment    :     -0.32561      -0.14062      -0.33718
                        -----------------------------------------
Magnitude (a.u.)       :      0.48938
Magnitude (Debye)      :      1.24389

                             ****ORCA TERMINATED NORMALLY****
TOTAL RUN TIME: 0 days 0 hours 0 minutes 6 seconds 301 msec
