                         Program Version 3.0.3 - RELEASE   -
|  1> ! RI PBE def2-SVP def2-SVP/J NBO PAL2
|  2> % maxcore 2000
|  3> % output
|  4>     # printlevel mini
|  5>     print[ P_Basis ] 0
|  6>     print[ P_SCFInfo ] 1
|  7>     print[ P_SCFIterInfo ] 1
|  8>     print[ P_OrbEn ] 0
|  9>     print[ P_Cartesian ] 0
| 10> end
| 11> *xyz 0 1
| 12>  C        1.0020290000    -0.0023800000     0.2236030000
| 13>  C        2.5012300000     0.0574930000     0.0477220000
| 14>  C        3.2918270000     1.1142140000     0.8583690000
| 15>  N        3.9946880000     0.0085540000     1.4933120000
| 16>  C        3.3163600000    -0.9796920000     0.8421150000
| 17>  O        3.3567550000    -2.1767350000     0.9029970000
| 18>  H        0.5097440000     0.8345840000    -0.2772940000
| 19>  H        0.7293400000     0.0252380000     1.2817980000
| 20>  H        0.6083640000    -0.9293310000    -0.1979960000
| 21>  H        2.7793520000     0.0472350000    -1.0089530000
| 22>  H        2.6767470000     1.7038370000     1.5439500000
| 23>  H        3.9325990000     1.7774350000     0.2721880000
| 24>  H        4.7001740000    -0.0268610000     2.2121000000
| 25> *
| 26>
| 27>                          ****END OF INPUT****
 Total Charge           Charge          ....    0
 Multiplicity           Mult            ....    1
 Number of Electrons    NEL             ....   46
 Basis Dimension        Dim             ....  119

MULLIKEN ATOMIC CHARGES
-----------------------
   0 C :    0.050519
   1 C :   -0.297231
   2 C :    0.230204
   3 N :   -0.213284
   4 C :    0.131892
   5 O :   -0.166787
   6 H :    0.029839
   7 H :    0.019907
   8 H :    0.041588
   9 H :    0.041313
  10 H :    0.013068
  11 H :    0.018185
  12 H :    0.100785
Sum of atomic charges:   -0.0000000

LOEWDIN ATOMIC CHARGES
----------------------
   0 C :   -0.052328
   1 C :   -0.064965
   2 C :    0.044723
   3 N :   -0.008953
   4 C :    0.019460
   5 O :   -0.164477
   6 H :    0.029740
   7 H :    0.028321
   8 H :    0.037938
   9 H :    0.037353
  10 H :    0.015586
  11 H :    0.017118
  12 H :    0.060484

  Mayer bond orders larger than 0.1
B(  0-C ,  1-C ) :   1.0668 B(  0-C ,  6-H ) :   0.9627 B(  0-C ,  7-H ) :   0.9606
B(  0-C ,  8-H ) :   0.9592 B(  1-C ,  2-C ) :   1.0502 B(  1-C ,  4-C ) :   0.8853
B(  1-C ,  9-H ) :   0.8919 B(  2-C ,  3-N ) :   1.0316 B(  2-C , 10-H ) :   0.9298
B(  2-C , 11-H ) :   0.9274 B(  3-N ,  4-C ) :   1.1861 B(  3-N ,  5-O ) :   0.1142
B(  3-N , 12-H ) :   0.9386 B(  4-C ,  5-O ) :   2.1908

FINAL SINGLE POINT ENERGY      -286.049509440381

DIPOLE MOMENT
-------------
                                X             Y             Z
Electronic contribution:      4.16028      -4.07314       1.36550
Nuclear contribution   :     -4.10924       5.43008      -1.25814
                        -----------------------------------------
Total Dipole Moment    :      0.05104       1.35694       0.10736
                        -----------------------------------------
Magnitude (a.u.)       :      1.36213
Magnitude (Debye)      :      3.46227

                             ****ORCA TERMINATED NORMALLY****
TOTAL RUN TIME: 0 days 0 hours 0 minutes 5 seconds 838 msec
