                         Program Version 3.0.3 - RELEASE   -
|  1> ! RI PBE def2-SVP def2-SVP/J NBO PAL2
|  2> % maxcore 2000
|  3> % output
|  4>     # printlevel mini
|  5>     print[ P_Basis ] 0
|  6>     print[ P_SCFInfo ] 1
|  7>     print[ P_SCFIterInfo ] 1
|  8>     print[ P_OrbEn ] 0
|  9>     print[ P_Cartesian ] 0
| 10> end
| 11> *xyz 0 1
| 12>  C        0.9347230000     0.0013330000    -0.0750640000
| 13>  C        2.4042920000     0.1280710000    -0.0717500000
| 14>  C        3.2755120000     1.1612680000    -0.0724010000
| 15>  N        4.5705280000     0.6767910000    -0.0678370000
| 16>  C        4.4255130000    -0.5986060000    -0.0647650000
| 17>  O        3.1451650000    -1.0175920000    -0.0667710000
| 18>  H        0.4815100000     0.9925300000    -0.0788220000
| 19>  H        0.5800400000    -0.5360520000     0.8085580000
| 20>  H        0.5844260000    -0.5407410000    -0.9575730000
| 21>  H        3.0617700000     2.2183400000    -0.0758050000
| 22>  H        5.1885300000    -1.3614430000    -0.0607810000
| 23> *
| 24>
| 25>                          ****END OF INPUT****
 Total Charge           Charge          ....    0
 Multiplicity           Mult            ....    1
 Number of Electrons    NEL             ....   44
 Basis Dimension        Dim             ....  109

MULLIKEN ATOMIC CHARGES
-----------------------
   0 C :    0.092111
   1 C :   -0.032795
   2 C :   -0.041282
   3 N :   -0.115886
   4 C :    0.124811
   5 O :   -0.170814
   6 H :    0.028880
   7 H :    0.046311
   8 H :    0.046336
   9 H :   -0.001767
  10 H :    0.024095
Sum of atomic charges:   -0.0000000

LOEWDIN ATOMIC CHARGES
----------------------
   0 C :   -0.062560
   1 C :   -0.009536
   2 C :   -0.062297
   3 N :   -0.092068
   4 C :    0.024345
   5 O :    0.022463
   6 H :    0.046294
   7 H :    0.045235
   8 H :    0.045239
   9 H :    0.023183
  10 H :    0.019702

  Mayer bond orders larger than 0.1
B(  0-C ,  1-C ) :   1.1113 B(  0-C ,  6-H ) :   0.9451 B(  0-C ,  7-H ) :   0.9367
B(  0-C ,  8-H ) :   0.9366 B(  1-C ,  2-C ) :   1.5858 B(  1-C ,  5-O ) :   1.1243
B(  2-C ,  3-N ) :   1.3206 B(  2-C ,  9-H ) :   0.9939 B(  3-N ,  4-C ) :   1.7477
B(  4-C ,  5-O ) :   1.1652 B(  4-C , 10-H ) :   0.9751

FINAL SINGLE POINT ENERGY      -284.848139914894

DIPOLE MOMENT
-------------
                                X             Y             Z
Electronic contribution:      4.41120      -0.86282       0.01327
Nuclear contribution   :     -5.21094       0.58367      -0.01458
                        -----------------------------------------
Total Dipole Moment    :     -0.79974      -0.27915      -0.00132
                        -----------------------------------------
Magnitude (a.u.)       :      0.84706
Magnitude (Debye)      :      2.15306

                             ****ORCA TERMINATED NORMALLY****
TOTAL RUN TIME: 0 days 0 hours 0 minutes 4 seconds 921 msec
