                         Program Version 3.0.3 - RELEASE   -
|  1> ! RI PBE def2-SVP def2-SVP/J NBO PAL2
|  2> % maxcore 2000
|  3> % output
|  4>     # printlevel mini
|  5>     print[ P_Basis ] 0
|  6>     print[ P_SCFInfo ] 1
|  7>     print[ P_SCFIterInfo ] 1
|  8>     print[ P_OrbEn ] 0
|  9>     print[ P_Cartesian ] 0
| 10> end
| 11> *xyz 0 1
| 12>  C        0.9835960000    -0.6929640000     0.0513860000
| 13>  C        2.3542170000    -0.0845840000    -0.0105990000
| 14>  C        3.0195150000     0.2055080000     1.3122140000
| 15>  N        3.2282680000    -1.0146230000     2.0789140000
| 16>  C        3.1840960000    -0.2673100000    -1.1957910000
| 17>  O        2.5095800000     0.9632510000    -0.9640940000
| 18>  H        1.0205640000    -1.6840080000     0.5105910000
| 19>  H        0.5657330000    -0.7947700000    -0.9507130000
| 20>  H        0.3105330000    -0.0627780000     0.6405210000
| 21>  H        2.4173840000     0.9655130000     1.8361130000
| 22>  H        3.9915460000     0.6591470000     1.1066560000
| 23>  H        2.3565650000    -1.3451080000     2.4737810000
| 24>  H        3.8486430000    -0.8368130000     2.8579060000
| 25>  H        2.8061850000    -0.8513660000    -2.0319140000
| 26>  H        4.2668730000    -0.2309960000    -1.1020820000
| 27> *
| 28>
| 29>                          ****END OF INPUT****
 Total Charge           Charge          ....    0
 Multiplicity           Mult            ....    1
 Number of Electrons    NEL             ....   48
 Basis Dimension        Dim             ....  129

MULLIKEN ATOMIC CHARGES
-----------------------
   0 C :    0.098848
   1 C :   -0.199751
   2 C :    0.164442
   3 N :   -0.216033
   4 C :    0.171204
   5 O :   -0.293042
   6 H :    0.024639
   7 H :    0.015465
   8 H :    0.018832
   9 H :    0.001016
  10 H :   -0.008090
  11 H :    0.089128
  12 H :    0.094488
  13 H :    0.016555
  14 H :    0.022299
Sum of atomic charges:    0.0000000

LOEWDIN ATOMIC CHARGES
----------------------
   0 C :   -0.062133
   1 C :    0.002308
   2 C :    0.006993
   3 N :   -0.110472
   4 C :    0.059988
   5 O :   -0.157588
   6 H :    0.032942
   7 H :    0.035195
   8 H :    0.031100
   9 H :    0.004997
  10 H :    0.025678
  11 H :    0.049111
  12 H :    0.055551
  13 H :    0.012326
  14 H :    0.014002

  Mayer bond orders larger than 0.1
B(  0-C ,  1-C ) :   1.0776 B(  0-C ,  6-H ) :   0.9448 B(  0-C ,  7-H ) :   0.9351
B(  0-C ,  8-H ) :   0.9462 B(  1-C ,  2-C ) :   1.0306 B(  1-C ,  4-C ) :   1.0983
B(  1-C ,  5-O ) :   0.9635 B(  2-C ,  3-N ) :   1.0931 B(  2-C ,  9-H ) :   0.9140
B(  2-C , 10-H ) :   0.9044 B(  3-N , 11-H ) :   0.9649 B(  3-N , 12-H ) :   0.9631
B(  4-C ,  5-O ) :   1.0023 B(  4-C , 13-H ) :   0.9286 B(  4-C , 14-H ) :   0.9233

FINAL SINGLE POINT ENERGY      -287.197430652587

DIPOLE MOMENT
-------------
                                X             Y             Z
Electronic contribution:      1.17552       2.24315      -2.30140
Nuclear contribution   :     -1.23630      -2.64167       2.97095
                        -----------------------------------------
Total Dipole Moment    :     -0.06078      -0.39852       0.66956
                        -----------------------------------------
Magnitude (a.u.)       :      0.78155
Magnitude (Debye)      :      1.98654

                             ****ORCA TERMINATED NORMALLY****
TOTAL RUN TIME: 0 days 0 hours 0 minutes 6 seconds 58 msec
