                         Program Version 3.0.3 - RELEASE   -
|  1> ! RI PBE def2-SVP def2-SVP/J NBO PAL2
|  2> % maxcore 2000
|  3> % output
|  4>     # printlevel mini
|  5>     print[ P_Basis ] 0
|  6>     print[ P_SCFInfo ] 1
|  7>     print[ P_SCFIterInfo ] 1
|  8>     print[ P_OrbEn ] 0
|  9>     print[ P_Cartesian ] 0
| 10> end
| 11> *xyz 0 1
| 12>  C        0.8804640000     0.0272850000    -0.0836620000
| 13>  C        2.3676410000     0.0333830000    -0.0815130000
| 14>  C        3.2229180000     1.0830690000    -0.0801190000
| 15>  O        4.4923500000     0.6651120000    -0.0783490000
| 16>  N        4.5099300000    -0.7041560000    -0.0785330000
| 17>  C        3.2611160000    -1.0719300000    -0.0803830000
| 18>  H        0.4848950000     1.0437220000    -0.0840870000
| 19>  H        0.4835370000    -0.4848260000     0.7964830000
| 20>  H        0.4860820000    -0.4845720000    -0.9650970000
| 21>  H        3.0762260000     2.1523210000    -0.0801710000
| 22>  H        3.0262410000    -2.1275070000    -0.0808780000
| 23> *
| 24>
| 25>                          ****END OF INPUT****
 Total Charge           Charge          ....    0
 Multiplicity           Mult            ....    1
 Number of Electrons    NEL             ....   44
 Basis Dimension        Dim             ....  109

MULLIKEN ATOMIC CHARGES
-----------------------
   0 C :    0.086039
   1 C :   -0.174380
   2 C :    0.114156
   3 O :   -0.146958
   4 N :   -0.023860
   5 C :    0.010663
   6 H :    0.020912
   7 H :    0.041207
   8 H :    0.041174
   9 H :    0.021080
  10 H :    0.009968
Sum of atomic charges:    0.0000000

LOEWDIN ATOMIC CHARGES
----------------------
   0 C :   -0.052161
   1 C :   -0.107317
   2 C :    0.017305
   3 O :    0.043638
   4 N :   -0.034514
   5 C :   -0.045287
   6 H :    0.037430
   7 H :    0.041830
   8 H :    0.041825
   9 H :    0.027184
  10 H :    0.030067

  Mayer bond orders larger than 0.1
B(  0-C ,  1-C ) :   1.0958 B(  0-C ,  6-H ) :   0.9508 B(  0-C ,  7-H ) :   0.9474
B(  0-C ,  8-H ) :   0.9474 B(  1-C ,  2-C ) :   1.5485 B(  1-C ,  5-C ) :   1.2314
B(  2-C ,  3-O ) :   1.1759 B(  2-C ,  4-N ) :   0.1266 B(  2-C ,  9-H ) :   0.9852
B(  3-O ,  4-N ) :   1.0282 B(  4-N ,  5-C ) :   1.6828 B(  5-C , 10-H ) :   0.9870

FINAL SINGLE POINT ENERGY      -284.808063782622

DIPOLE MOMENT
-------------
                                X             Y             Z
Electronic contribution:      6.31676       0.24842       0.00917
Nuclear contribution   :     -7.53557       0.00029      -0.01088
                        -----------------------------------------
Total Dipole Moment    :     -1.21881       0.24871      -0.00171
                        -----------------------------------------
Magnitude (a.u.)       :      1.24393
Magnitude (Debye)      :      3.16182

                             ****ORCA TERMINATED NORMALLY****
TOTAL RUN TIME: 0 days 0 hours 0 minutes 4 seconds 876 msec
