                         Program Version 3.0.3 - RELEASE   -
|  1> ! RI PBE def2-SVP def2-SVP/J NBO PAL2
|  2> % maxcore 2000
|  3> % output
|  4>     # printlevel mini
|  5>     print[ P_Basis ] 0
|  6>     print[ P_SCFInfo ] 1
|  7>     print[ P_SCFIterInfo ] 1
|  8>     print[ P_OrbEn ] 0
|  9>     print[ P_Cartesian ] 0
| 10> end
| 11> *xyz 0 1
| 12>  C        1.0257360000     0.0726290000    -0.0291120000
| 13>  C        2.5071280000     0.1196820000    -0.0255190000
| 14>  C        3.3419770000     1.1816820000    -0.0262490000
| 15>  O        4.6239400000     0.7217430000    -0.0218460000
| 16>  C        4.4919260000    -0.6131030000    -0.0185310000
| 17>  N        3.2779130000    -1.0338050000    -0.0206980000
| 18>  H        0.6006630000     1.0769490000    -0.0327130000
| 19>  H        0.6555220000    -0.4575970000     0.8515070000
| 20>  H        0.6599300000    -0.4620400000    -0.9088870000
| 21>  H        3.2078620000     2.2497120000    -0.0294110000
| 22>  H        5.4007040000    -1.1951510000    -0.0147400000
| 23> *
| 24>
| 25>                          ****END OF INPUT****
 Total Charge           Charge          ....    0
 Multiplicity           Mult            ....    1
 Number of Electrons    NEL             ....   44
 Basis Dimension        Dim             ....  109

MULLIKEN ATOMIC CHARGES
-----------------------
   0 C :    0.112925
   1 C :   -0.140352
   2 C :    0.057499
   3 O :   -0.155516
   4 C :    0.133383
   5 N :   -0.132155
   6 H :    0.009843
   7 H :    0.040082
   8 H :    0.040101
   9 H :    0.009773
  10 H :    0.024416
Sum of atomic charges:    0.0000000

LOEWDIN ATOMIC CHARGES
----------------------
   0 C :   -0.057631
   1 C :   -0.056745
   2 C :   -0.012439
   3 O :    0.031548
   4 C :    0.029595
   5 N :   -0.100421
   6 H :    0.034824
   7 H :    0.043774
   8 H :    0.043780
   9 H :    0.023389
  10 H :    0.020326

  Mayer bond orders larger than 0.1
B(  0-C ,  1-C ) :   1.1122 B(  0-C ,  6-H ) :   0.9445 B(  0-C ,  7-H ) :   0.9393
B(  0-C ,  8-H ) :   0.9393 B(  1-C ,  2-C ) :   1.5745 B(  1-C ,  5-N ) :   1.3074
B(  2-C ,  3-O ) :   1.1295 B(  2-C ,  9-H ) :   0.9933 B(  3-O ,  4-C ) :   1.1881
B(  4-C ,  5-N ) :   1.7222 B(  4-C , 10-H ) :   0.9729

FINAL SINGLE POINT ENERGY      -284.846649792446

DIPOLE MOMENT
-------------
                                X             Y             Z
Electronic contribution:      5.10714      -0.21303       0.01324
Nuclear contribution   :     -5.17992       0.72081      -0.01475
                        -----------------------------------------
Total Dipole Moment    :     -0.07279       0.50778      -0.00151
                        -----------------------------------------
Magnitude (a.u.)       :      0.51297
Magnitude (Debye)      :      1.30387

                             ****ORCA TERMINATED NORMALLY****
TOTAL RUN TIME: 0 days 0 hours 0 minutes 5 seconds 58 msec
