                         Program Version 3.0.3 - RELEASE   -
|  1> ! RI PBE def2-SVP def2-SVP/J NBO PAL2
|  2> % maxcore 2000
|  3> % output
|  4>     # printlevel mini
|  5>     print[ P_Basis ] 0
|  6>     print[ P_SCFInfo ] 1
|  7>     print[ P_SCFIterInfo ] 1
|  8>     print[ P_OrbEn ] 0
|  9>     print[ P_Cartesian ] 0
| 10> end
| 11> *xyz 0 1
| 12>  C        0.9563490000     0.1846290000    -0.2364420000
| 13>  C        2.3916780000    -0.1491810000     0.0483920000
| 14>  C        2.7652490000    -0.1748940000     1.5168880000
| 15>  O        4.1469230000    -0.2900670000     1.7084800000
| 16>  C        3.1489100000    -0.9862240000    -0.8994950000
| 17>  N        3.4440010000     0.4451640000    -0.7739450000
| 18>  H        0.2873060000    -0.5359300000     0.2422790000
| 19>  H        0.7514500000     0.1672010000    -1.3095520000
| 20>  H        0.7029550000     1.1779990000     0.1455800000
| 21>  H        2.2847790000    -1.0262810000     2.0094380000
| 22>  H        2.3742210000     0.7422300000     1.9868360000
| 23>  H        4.5436220000     0.2549540000     1.0122320000
| 24>  H        2.6350740000    -1.3265460000    -1.7930080000
| 25>  H        3.9315300000    -1.6413170000    -0.5339650000
| 26>  H        3.0552530000     0.9710710000    -1.5481290000
| 27> *
| 28>
| 29>                          ****END OF INPUT****
 Total Charge           Charge          ....    0
 Multiplicity           Mult            ....    1
 Number of Electrons    NEL             ....   48
 Basis Dimension        Dim             ....  129

MULLIKEN ATOMIC CHARGES
-----------------------
   0 C :    0.106229
   1 C :   -0.368264
   2 C :    0.302677
   3 O :   -0.282482
   4 C :    0.070670
   5 N :   -0.201435
   6 H :    0.031563
   7 H :    0.002951
   8 H :    0.023454
   9 H :    0.007948
  10 H :   -0.014103
  11 H :    0.149194
  12 H :    0.027046
  13 H :    0.037007
  14 H :    0.107544
Sum of atomic charges:   -0.0000000

LOEWDIN ATOMIC CHARGES
----------------------
   0 C :   -0.055299
   1 C :   -0.057102
   2 C :    0.059679
   3 O :   -0.119228
   4 C :    0.006667
   5 N :   -0.097732
   6 H :    0.037106
   7 H :    0.026711
   8 H :    0.030401
   9 H :    0.020569
  10 H :    0.003190
  11 H :    0.053642
  12 H :    0.015739
  13 H :    0.020811
  14 H :    0.054846

  Mayer bond orders larger than 0.1
B(  0-C ,  1-C ) :   1.0848 B(  0-C ,  6-H ) :   0.9502 B(  0-C ,  7-H ) :   0.9370
B(  0-C ,  8-H ) :   0.9489 B(  1-C ,  2-C ) :   0.9858 B(  1-C ,  4-C ) :   1.0206
B(  1-C ,  5-N ) :   0.9843 B(  2-C ,  3-O ) :   1.1045 B(  2-C ,  9-H ) :   0.9332
B(  2-C , 10-H ) :   0.9182 B(  3-O , 11-H ) :   0.9486 B(  4-C ,  5-N ) :   0.9784
B(  4-C , 12-H ) :   0.9447 B(  4-C , 13-H ) :   0.9320 B(  5-N , 14-H ) :   0.9437

FINAL SINGLE POINT ENERGY      -287.203804513752

DIPOLE MOMENT
-------------
                                X             Y             Z
Electronic contribution:      3.74033       0.02509       1.11110
Nuclear contribution   :     -4.57878       0.13449      -1.90441
                        -----------------------------------------
Total Dipole Moment    :     -0.83845       0.15958      -0.79331
                        -----------------------------------------
Magnitude (a.u.)       :      1.16525
Magnitude (Debye)      :      2.96182

                             ****ORCA TERMINATED NORMALLY****
TOTAL RUN TIME: 0 days 0 hours 0 minutes 6 seconds 353 msec
