                         Program Version 3.0.3 - RELEASE   -
|  1> ! RI PBE def2-SVP def2-SVP/J NBO PAL2
|  2> % maxcore 2000
|  3> % output
|  4>     # printlevel mini
|  5>     print[ P_Basis ] 0
|  6>     print[ P_SCFInfo ] 1
|  7>     print[ P_SCFIterInfo ] 1
|  8>     print[ P_OrbEn ] 0
|  9>     print[ P_Cartesian ] 0
| 10> end
| 11> *xyz 0 1
| 12>  C        1.0855280000     0.0532730000    -0.1399270000
| 13>  C        2.4105220000     0.0352440000    -0.0157000000
| 14>  C        3.3562600000    -1.1260870000    -0.0320550000
| 15>  O        4.6557100000    -0.5379220000     0.1453160000
| 16>  N        4.5356040000     0.8212870000     0.2581540000
| 17>  C        3.3066810000     1.1597270000     0.1722760000
| 18>  H        0.5102660000    -0.8543000000    -0.2775570000
| 19>  H        0.5369820000     0.9866750000    -0.1067010000
| 20>  H        3.3514880000    -1.6695670000    -0.9809890000
| 21>  H        3.1835280000    -1.8312800000     0.7857030000
| 22>  H        3.0353310000     2.2042590000     0.2419810000
| 23> *
| 24>
| 25>                          ****END OF INPUT****
 Total Charge           Charge          ....    0
 Multiplicity           Mult            ....    1
 Number of Electrons    NEL             ....   44
 Basis Dimension        Dim             ....  109

MULLIKEN ATOMIC CHARGES
-----------------------
   0 C :   -0.036074
   1 C :   -0.199970
   2 C :    0.271713
   3 O :   -0.266118
   4 N :    0.032680
   5 C :    0.024481
   6 H :    0.022629
   7 H :    0.025205
   8 H :    0.053246
   9 H :    0.056251
  10 H :    0.015958
Sum of atomic charges:   -0.0000000

LOEWDIN ATOMIC CHARGES
----------------------
   0 C :   -0.060619
   1 C :   -0.069922
   2 C :    0.068304
   3 O :   -0.077491
   4 N :    0.021614
   5 C :   -0.053208
   6 H :    0.027973
   7 H :    0.030585
   8 H :    0.039265
   9 H :    0.039725
  10 H :    0.033774

  Mayer bond orders larger than 0.1
B(  0-C ,  1-C ) :   1.8978 B(  0-C ,  6-H ) :   0.9386 B(  0-C ,  7-H ) :   0.9345
B(  1-C ,  2-C ) :   1.0303 B(  1-C ,  5-C ) :   1.0637 B(  2-C ,  3-O ) :   0.9332
B(  2-C ,  8-H ) :   0.9254 B(  2-C ,  9-H ) :   0.9259 B(  3-O ,  4-N ) :   1.0171
B(  3-O ,  5-C ) :   0.1012 B(  4-N ,  5-C ) :   1.8015 B(  5-C , 10-H ) :   0.9801

FINAL SINGLE POINT ENERGY      -284.772749346135

DIPOLE MOMENT
-------------
                                X             Y             Z
Electronic contribution:      4.23495       0.98020       0.49303
Nuclear contribution   :     -5.29582      -1.27661      -0.62018
                        -----------------------------------------
Total Dipole Moment    :     -1.06087      -0.29641      -0.12716
                        -----------------------------------------
Magnitude (a.u.)       :      1.10881
Magnitude (Debye)      :      2.81838

                             ****ORCA TERMINATED NORMALLY****
TOTAL RUN TIME: 0 days 0 hours 0 minutes 5 seconds 224 msec
