                         Program Version 3.0.3 - RELEASE   -
|  1> ! RI PBE def2-SVP def2-SVP/J NBO PAL2
|  2> % maxcore 2000
|  3> % output
|  4>     # printlevel mini
|  5>     print[ P_Basis ] 0
|  6>     print[ P_SCFInfo ] 1
|  7>     print[ P_SCFIterInfo ] 1
|  8>     print[ P_OrbEn ] 0
|  9>     print[ P_Cartesian ] 0
| 10> end
| 11> *xyz 0 1
| 12>  C        1.0433180000     0.0378760000    -0.1158160000
| 13>  C        2.5684360000     0.0061620000    -0.0771910000
| 14>  C        3.1671150000    -1.2325540000     0.5827240000
| 15>  O        3.5587780000    -0.8151110000     1.9019360000
| 16>  N        3.6149100000     0.5608970000     1.9334500000
| 17>  C        3.1229350000     1.0347270000     0.8647710000
| 18>  H        0.6581080000    -0.7413280000    -0.7777070000
| 19>  H        0.6778100000     1.0000410000    -0.4822510000
| 20>  H        0.6291750000    -0.1233030000     0.8821490000
| 21>  H        2.9614220000     0.1429660000    -1.0881700000
| 22>  H        4.0609410000    -1.5843320000     0.0572080000
| 23>  H        2.4609780000    -2.0578450000     0.6896880000
| 24>  H        3.0726660000     2.1092040000     0.7395970000
| 25> *
| 26>
| 27>                          ****END OF INPUT****
 Total Charge           Charge          ....    0
 Multiplicity           Mult            ....    1
 Number of Electrons    NEL             ....   46
 Basis Dimension        Dim             ....  119

MULLIKEN ATOMIC CHARGES
-----------------------
   0 C :    0.032523
   1 C :   -0.208182
   2 C :    0.255641
   3 O :   -0.280337
   4 N :    0.027544
   5 C :   -0.026924
   6 H :    0.032269
   7 H :    0.026127
   8 H :    0.035475
   9 H :    0.032276
  10 H :    0.024702
  11 H :    0.021049
  12 H :    0.027836
Sum of atomic charges:   -0.0000000

LOEWDIN ATOMIC CHARGES
----------------------
   0 C :   -0.052436
   1 C :   -0.075382
   2 C :    0.065881
   3 O :   -0.097049
   4 N :    0.012133
   5 C :   -0.056032
   6 H :    0.029750
   7 H :    0.030707
   8 H :    0.032408
   9 H :    0.037127
  10 H :    0.019855
  11 H :    0.024603
  12 H :    0.028433

  Mayer bond orders larger than 0.1
B(  0-C ,  1-C ) :   1.0546 B(  0-C ,  6-H ) :   0.9604 B(  0-C ,  7-H ) :   0.9628
B(  0-C ,  8-H ) :   0.9622 B(  1-C ,  2-C ) :   1.0609 B(  1-C ,  5-C ) :   0.9688
B(  1-C ,  9-H ) :   0.9136 B(  2-C ,  3-O ) :   0.9422 B(  2-C , 10-H ) :   0.9372
B(  2-C , 11-H ) :   0.9426 B(  3-O ,  4-N ) :   0.9960 B(  3-O ,  5-C ) :   0.1137
B(  4-N ,  5-C ) :   1.9042 B(  5-C , 12-H ) :   0.9721

FINAL SINGLE POINT ENERGY      -285.985927718328

DIPOLE MOMENT
-------------
                                X             Y             Z
Electronic contribution:      4.39416       0.49236       4.36744
Nuclear contribution   :     -4.96917      -0.54384      -5.56144
                        -----------------------------------------
Total Dipole Moment    :     -0.57502      -0.05148      -1.19400
                        -----------------------------------------
Magnitude (a.u.)       :      1.32625
Magnitude (Debye)      :      3.37105

                             ****ORCA TERMINATED NORMALLY****
TOTAL RUN TIME: 0 days 0 hours 0 minutes 5 seconds 887 msec
