                         Program Version 3.0.3 - RELEASE   -
|  1> ! RI PBE def2-SVP def2-SVP/J NBO PAL2
|  2> % maxcore 2000
|  3> % output
|  4>     # printlevel mini
|  5>     print[ P_Basis ] 0
|  6>     print[ P_SCFInfo ] 1
|  7>     print[ P_SCFIterInfo ] 1
|  8>     print[ P_OrbEn ] 0
|  9>     print[ P_Cartesian ] 0
| 10> end
| 11> *xyz 0 1
| 12>  C        0.9621200000    -0.0140220000    -0.2012890000
| 13>  C        2.4488010000     0.0951140000    -0.0461130000
| 14>  N        3.3336680000    -0.8121580000    -0.7758240000
| 15>  C        3.2933470000     0.6036890000    -1.1408840000
| 16>  C        4.5538300000     1.3765530000    -0.8804620000
| 17>  O        4.3262810000     2.7603920000    -0.7062330000
| 18>  H        0.5669410000    -0.8577530000     0.3713420000
| 19>  H        0.6879210000    -0.1590530000    -1.2505060000
| 20>  H        0.4649370000     0.8923210000     0.1537010000
| 21>  H        2.7924950000     0.2909180000     0.9671490000
| 22>  H        2.7967220000    -1.3632780000    -1.4376750000
| 23>  H        2.7719110000     0.8649250000    -2.0623040000
| 24>  H        5.2776370000     1.1916600000    -1.6865900000
| 25>  H        5.0033030000     1.0147130000     0.0462840000
| 26>  H        4.0283860000     3.1289800000    -1.5411960000
| 27> *
| 28>
| 29>                          ****END OF INPUT****
 Total Charge           Charge          ....    0
 Multiplicity           Mult            ....    1
 Number of Electrons    NEL             ....   48
 Basis Dimension        Dim             ....  129

MULLIKEN ATOMIC CHARGES
-----------------------
   0 C :    0.074187
   1 C :   -0.092708
   2 N :   -0.165509
   3 C :   -0.149186
   4 C :    0.286824
   5 O :   -0.288586
   6 H :    0.031046
   7 H :   -0.002565
   8 H :    0.034527
   9 H :    0.021714
  10 H :    0.099347
  11 H :    0.002478
  12 H :   -0.001370
  13 H :   -0.000560
  14 H :    0.150361
Sum of atomic charges:   -0.0000000

LOEWDIN ATOMIC CHARGES
----------------------
   0 C :   -0.066061
   1 C :   -0.005326
   2 N :   -0.100516
   3 C :   -0.032242
   4 C :    0.054493
   5 O :   -0.122815
   6 H :    0.032021
   7 H :    0.024113
   8 H :    0.036722
   9 H :    0.022317
  10 H :    0.050940
  11 H :    0.007447
  12 H :    0.007533
  13 H :    0.025524
  14 H :    0.065851

  Mayer bond orders larger than 0.1
B(  0-C ,  1-C ) :   1.0914 B(  0-C ,  6-H ) :   0.9547 B(  0-C ,  7-H ) :   0.9411
B(  0-C ,  8-H ) :   0.9543 B(  1-C ,  2-N ) :   0.9850 B(  1-C ,  3-C ) :   1.0053
B(  1-C ,  9-H ) :   0.9281 B(  2-N ,  3-C ) :   0.9863 B(  2-N , 10-H ) :   0.9407
B(  3-C ,  4-C ) :   1.0128 B(  3-C , 11-H ) :   0.9281 B(  4-C ,  5-O ) :   1.0669
B(  4-C , 12-H ) :   0.9273 B(  4-C , 13-H ) :   0.9162 B(  5-O , 14-H ) :   0.9862

FINAL SINGLE POINT ENERGY      -287.195207998290

DIPOLE MOMENT
-------------
                                X             Y             Z
Electronic contribution:      3.13081       1.33508      -0.09288
Nuclear contribution   :     -3.82117      -1.35013      -0.62500
                        -----------------------------------------
Total Dipole Moment    :     -0.69036      -0.01504      -0.71788
                        -----------------------------------------
Magnitude (a.u.)       :      0.99608
Magnitude (Debye)      :      2.53183

                             ****ORCA TERMINATED NORMALLY****
TOTAL RUN TIME: 0 days 0 hours 0 minutes 6 seconds 171 msec
