                         Program Version 3.0.3 - RELEASE   -
|  1> ! RI PBE def2-SVP def2-SVP/J NBO PAL2
|  2> % maxcore 2000
|  3> % output
|  4>     # printlevel mini
|  5>     print[ P_Basis ] 0
|  6>     print[ P_SCFInfo ] 1
|  7>     print[ P_SCFIterInfo ] 1
|  8>     print[ P_OrbEn ] 0
|  9>     print[ P_Cartesian ] 0
| 10> end
| 11> *xyz 0 1
| 12>  C        0.9993290000     0.1466310000    -0.0559410000
| 13>  C        2.4874900000     0.1846150000     0.1199180000
| 14>  N        3.3539550000    -0.7134870000    -0.6066660000
| 15>  C        3.3477280000     0.7070450000    -0.9800150000
| 16>  C        4.5823220000     1.4484790000    -0.6477030000
| 17>  O        4.9253530000     2.4649350000    -1.1883360000
| 18>  H        0.5631940000    -0.6680100000     0.5283610000
| 19>  H        0.7320920000    -0.0042730000    -1.1052150000
| 20>  H        0.5425120000     1.0807610000     0.2787740000
| 21>  H        2.8272220000     0.3660230000     1.1374450000
| 22>  H        2.8289980000    -1.2466820000    -1.2927220000
| 23>  H        2.8477660000     1.0216480000    -1.8912710000
| 24>  H        5.1787390000     0.9884060000     0.1697820000
| 25> *
| 26>
| 27>                          ****END OF INPUT****
 Total Charge           Charge          ....    0
 Multiplicity           Mult            ....    1
 Number of Electrons    NEL             ....   46
 Basis Dimension        Dim             ....  119

MULLIKEN ATOMIC CHARGES
-----------------------
   0 C :    0.074895
   1 C :   -0.094079
   2 N :   -0.147677
   3 C :   -0.102586
   4 C :    0.194879
   5 O :   -0.161083
   6 H :    0.041324
   7 H :    0.006643
   8 H :    0.041317
   9 H :    0.032899
  10 H :    0.112494
  11 H :    0.021067
  12 H :   -0.020092
Sum of atomic charges:    0.0000000

LOEWDIN ATOMIC CHARGES
----------------------
   0 C :   -0.062643
   1 C :    0.008284
   2 N :   -0.080702
   3 C :   -0.040749
   4 C :    0.084223
   5 O :   -0.111625
   6 H :    0.037011
   7 H :    0.028542
   8 H :    0.040451
   9 H :    0.024069
  10 H :    0.059405
  11 H :    0.023305
  12 H :   -0.009573

  Mayer bond orders larger than 0.1
B(  0-C ,  1-C ) :   1.0917 B(  0-C ,  6-H ) :   0.9561 B(  0-C ,  7-H ) :   0.9417
B(  0-C ,  8-H ) :   0.9528 B(  1-C ,  2-N ) :   0.9942 B(  1-C ,  3-C ) :   0.9257
B(  1-C ,  9-H ) :   0.9306 B(  2-N ,  3-C ) :   0.9447 B(  2-N , 10-H ) :   0.9386
B(  3-C ,  4-C ) :   0.9746 B(  3-C , 11-H ) :   0.9424 B(  4-C ,  5-O ) :   2.1766
B(  4-C , 12-H ) :   0.9185

FINAL SINGLE POINT ENERGY      -286.002988318895

DIPOLE MOMENT
-------------
                                X             Y             Z
Electronic contribution:      5.73663       2.57199      -1.54975
Nuclear contribution   :     -6.90871      -3.23559       1.69155
                        -----------------------------------------
Total Dipole Moment    :     -1.17209      -0.66359       0.14180
                        -----------------------------------------
Magnitude (a.u.)       :      1.35435
Magnitude (Debye)      :      3.44248

                             ****ORCA TERMINATED NORMALLY****
TOTAL RUN TIME: 0 days 0 hours 0 minutes 5 seconds 572 msec
