                         Program Version 3.0.3 - RELEASE   -
|  1> ! RI PBE def2-SVP def2-SVP/J NBO PAL2
|  2> % maxcore 2000
|  3> % output
|  4>     # printlevel mini
|  5>     print[ P_Basis ] 0
|  6>     print[ P_SCFInfo ] 1
|  7>     print[ P_SCFIterInfo ] 1
|  8>     print[ P_OrbEn ] 0
|  9>     print[ P_Cartesian ] 0
| 10> end
| 11> *xyz 0 1
| 12>  C        0.9213520000    -0.0442410000    -0.0117850000
| 13>  C        2.4252570000    -0.0908060000    -0.0140980000
| 14>  N        3.1396940000     0.9694330000     0.7465550000
| 15>  C        4.1045920000    -0.0427480000     1.2429530000
| 16>  C        3.1626050000    -1.1705460000     0.7993770000
| 17>  O        3.6548220000    -2.3219560000     0.1829520000
| 18>  H        0.5548780000     0.8665940000    -0.4923310000
| 19>  H        0.5310680000    -0.0723790000     1.0104240000
| 20>  H        0.5103190000    -0.8998770000    -0.5531640000
| 21>  H        2.7967080000    -0.0837180000    -1.0490950000
| 22>  H        2.5521200000     1.2860660000     1.5105180000
| 23>  H        4.3704010000     0.0225720000     2.2999420000
| 24>  H        5.0268860000    -0.0143930000     0.6503020000
| 25>  H        2.5399760000    -1.5142620000     1.6308400000
| 26>  H        4.2245220000    -2.0559460000    -0.5447990000
| 27> *
| 28>
| 29>                          ****END OF INPUT****
 Total Charge           Charge          ....    0
 Multiplicity           Mult            ....    1
 Number of Electrons    NEL             ....   48
 Basis Dimension        Dim             ....  129

MULLIKEN ATOMIC CHARGES
-----------------------
   0 C :    0.051104
   1 C :   -0.031893
   2 N :   -0.250128
   3 C :    0.152403
   4 C :    0.019334
   5 O :   -0.239054
   6 H :    0.033319
   7 H :    0.001572
   8 H :    0.032215
   9 H :   -0.011500
  10 H :    0.090196
  11 H :    0.013651
  12 H :   -0.007304
  13 H :   -0.008258
  14 H :    0.154344
Sum of atomic charges:   -0.0000000

LOEWDIN ATOMIC CHARGES
----------------------
   0 C :   -0.069836
   1 C :   -0.007587
   2 N :   -0.116153
   3 C :    0.007918
   4 C :    0.024624
   5 O :   -0.099854
   6 H :    0.032717
   7 H :    0.020420
   8 H :    0.037079
   9 H :    0.013015
  10 H :    0.046759
  11 H :    0.013450
  12 H :    0.011648
  13 H :    0.019270
  14 H :    0.066530

  Mayer bond orders larger than 0.1
B(  0-C ,  1-C ) :   1.1122 B(  0-C ,  6-H ) :   0.9570 B(  0-C ,  7-H ) :   0.9413
B(  0-C ,  8-H ) :   0.9522 B(  1-C ,  2-N ) :   1.0534 B(  1-C ,  4-C ) :   0.9953
B(  1-C ,  9-H ) :   0.8874 B(  2-N ,  3-C ) :   1.0601 B(  2-N , 10-H ) :   0.9378
B(  3-C ,  4-C ) :   1.0580 B(  3-C , 11-H ) :   0.9347 B(  3-C , 12-H ) :   0.9114
B(  4-C ,  5-O ) :   1.1167 B(  4-C , 13-H ) :   0.8791 B(  5-O , 14-H ) :   0.9749

FINAL SINGLE POINT ENERGY      -287.199176081557

DIPOLE MOMENT
-------------
                                X             Y             Z
Electronic contribution:      2.69469      -1.67279      -0.04531
Nuclear contribution   :     -2.85112       1.76266       0.10336
                        -----------------------------------------
Total Dipole Moment    :     -0.15643       0.08987       0.05805
                        -----------------------------------------
Magnitude (a.u.)       :      0.18952
Magnitude (Debye)      :      0.48172

                             ****ORCA TERMINATED NORMALLY****
TOTAL RUN TIME: 0 days 0 hours 0 minutes 6 seconds 335 msec
