                         Program Version 3.0.3 - RELEASE   -
|  1> ! RI PBE def2-SVP def2-SVP/J NBO PAL2
|  2> % maxcore 2000
|  3> % output
|  4>     # printlevel mini
|  5>     print[ P_Basis ] 0
|  6>     print[ P_SCFInfo ] 1
|  7>     print[ P_SCFIterInfo ] 1
|  8>     print[ P_OrbEn ] 0
|  9>     print[ P_Cartesian ] 0
| 10> end
| 11> *xyz 0 1
| 12>  C        0.9290380000     0.0596760000    -0.2484950000
| 13>  C        2.4228980000    -0.0238340000    -0.1045240000
| 14>  N        2.9756730000     0.0641650000     1.2225170000
| 15>  C        3.2034950000    -0.8972720000    -1.0543910000
| 16>  C        3.3196850000     0.5974100000    -1.1406010000
| 17>  O        4.4775920000     1.2215550000    -0.7163700000
| 18>  H        0.4374840000    -0.7914890000     0.2342330000
| 19>  H        0.6338840000     0.0636760000    -1.3003910000
| 20>  H        0.5424400000     0.9773930000     0.2068320000
| 21>  H        2.8923060000    -0.8112420000     1.7237580000
| 22>  H        2.5043760000     0.7795760000     1.7635350000
| 23>  H        2.6518120000    -1.4332400000    -1.8177560000
| 24>  H        4.0661960000    -1.4177170000    -0.6549730000
| 25>  H        2.8619460000     1.1039140000    -1.9834030000
| 26>  H        4.5394750000     1.0021290000     0.2284000000
| 27> *
| 28>
| 29>                          ****END OF INPUT****
 Total Charge           Charge          ....    0
 Multiplicity           Mult            ....    1
 Number of Electrons    NEL             ....   48
 Basis Dimension        Dim             ....  129

MULLIKEN ATOMIC CHARGES
-----------------------
   0 C :    0.126477
   1 C :   -0.270660
   2 N :   -0.150536
   3 C :    0.001215
   4 C :    0.105287
   5 O :   -0.230824
   6 H :    0.010690
   7 H :    0.003578
   8 H :    0.012476
   9 H :    0.106544
  10 H :    0.098289
  11 H :    0.022519
  12 H :    0.022972
  13 H :    0.009850
  14 H :    0.132123
Sum of atomic charges:   -0.0000000

LOEWDIN ATOMIC CHARGES
----------------------
   0 C :   -0.059672
   1 C :   -0.059393
   2 N :   -0.058553
   3 C :   -0.068416
   4 C :    0.037036
   5 O :   -0.100113
   6 H :    0.023293
   7 H :    0.029599
   8 H :    0.024803
   9 H :    0.059497
  10 H :    0.058093
  11 H :    0.025419
  12 H :    0.028609
  13 H :    0.015076
  14 H :    0.044722

  Mayer bond orders larger than 0.1
B(  0-C ,  1-C ) :   1.0728 B(  0-C ,  6-H ) :   0.9500 B(  0-C ,  7-H ) :   0.9343
B(  0-C ,  8-H ) :   0.9512 B(  1-C ,  2-N ) :   1.1347 B(  1-C ,  3-C ) :   0.9626
B(  1-C ,  4-C ) :   0.8861 B(  2-N ,  9-H ) :   0.9628 B(  2-N , 10-H ) :   0.9643
B(  2-N , 14-H ) :   0.1258 B(  3-C ,  4-C ) :   0.9499 B(  3-C , 11-H ) :   0.9338
B(  3-C , 12-H ) :   0.9264 B(  4-C ,  5-O ) :   1.1723 B(  4-C , 13-H ) :   0.9535
B(  5-O , 14-H ) :   0.9358

FINAL SINGLE POINT ENERGY      -287.210363136323

DIPOLE MOMENT
-------------
                                X             Y             Z
Electronic contribution:      3.85052       1.68387      -0.38342
Nuclear contribution   :     -4.69468      -2.10229       1.07500
                        -----------------------------------------
Total Dipole Moment    :     -0.84416      -0.41842       0.69158
                        -----------------------------------------
Magnitude (a.u.)       :      1.16874
Magnitude (Debye)      :      2.97071

                             ****ORCA TERMINATED NORMALLY****
TOTAL RUN TIME: 0 days 0 hours 0 minutes 6 seconds 375 msec
