                         Program Version 3.0.3 - RELEASE   -
|  1> ! RI PBE def2-SVP def2-SVP/J NBO PAL2
|  2> % maxcore 2000
|  3> % output
|  4>     # printlevel mini
|  5>     print[ P_Basis ] 0
|  6>     print[ P_SCFInfo ] 1
|  7>     print[ P_SCFIterInfo ] 1
|  8>     print[ P_OrbEn ] 0
|  9>     print[ P_Cartesian ] 0
| 10> end
| 11> *xyz 0 1
| 12>  C        1.0382180000     0.0440970000     0.2946810000
| 13>  C        2.5222300000    -0.0005410000    -0.0024240000
| 14>  N        3.3725500000     1.0312340000     0.6413380000
| 15>  C        4.0535350000     0.0484290000     1.5101770000
| 16>  C        3.3061420000    -1.0573600000     0.7761120000
| 17>  O        3.3120510000    -2.2476550000     0.8040250000
| 18>  H        0.5874760000     0.9393710000    -0.1410400000
| 19>  H        0.8484710000     0.0507280000     1.3716500000
| 20>  H        0.5398060000    -0.8282870000    -0.1329620000
| 21>  H        2.6902280000    -0.0557620000    -1.0844390000
| 22>  H        2.8368020000     1.7185240000     1.1546400000
| 23>  H        3.8033960000     0.0898500000     2.5769770000
| 24>  H        5.1423840000     0.0277810000     1.4067640000
| 25> *
| 26>
| 27>                          ****END OF INPUT****
 Total Charge           Charge          ....    0
 Multiplicity           Mult            ....    1
 Number of Electrons    NEL             ....   46
 Basis Dimension        Dim             ....  119

MULLIKEN ATOMIC CHARGES
-----------------------
   0 C :    0.049736
   1 C :   -0.074842
   2 N :   -0.235407
   3 C :    0.096317
   4 C :   -0.049211
   5 O :   -0.112259
   6 H :    0.040069
   7 H :    0.009799
   8 H :    0.041957
   9 H :    0.044042
  10 H :    0.092724
  11 H :    0.043986
  12 H :    0.053088
Sum of atomic charges:   -0.0000000

LOEWDIN ATOMIC CHARGES
----------------------
   0 C :   -0.061837
   1 C :   -0.024240
   2 N :   -0.108325
   3 C :   -0.010985
   4 C :    0.049768
   5 O :   -0.088304
   6 H :    0.033749
   7 H :    0.025449
   8 H :    0.040839
   9 H :    0.032129
  10 H :    0.047752
  11 H :    0.030313
  12 H :    0.033692

  Mayer bond orders larger than 0.1
B(  0-C ,  1-C ) :   1.0846 B(  0-C ,  6-H ) :   0.9588 B(  0-C ,  7-H ) :   0.9500
B(  0-C ,  8-H ) :   0.9498 B(  1-C ,  2-N ) :   1.0653 B(  1-C ,  3-C ) :  -0.1101
B(  1-C ,  4-C ) :   0.9090 B(  1-C ,  9-H ) :   0.8931 B(  2-N ,  3-C ) :   1.0596
B(  2-N , 10-H ) :   0.9348 B(  3-C ,  4-C ) :   0.9638 B(  3-C , 11-H ) :   0.9174
B(  3-C , 12-H ) :   0.9150 B(  4-C ,  5-O ) :   2.2604

FINAL SINGLE POINT ENERGY      -286.010244646355

DIPOLE MOMENT
-------------
                                X             Y             Z
Electronic contribution:      3.22945      -3.45218      -0.07397
Nuclear contribution   :     -3.69467       4.20594       0.35828
                        -----------------------------------------
Total Dipole Moment    :     -0.46522       0.75376       0.28431
                        -----------------------------------------
Magnitude (a.u.)       :      0.93028
Magnitude (Debye)      :      2.36458

                             ****ORCA TERMINATED NORMALLY****
TOTAL RUN TIME: 0 days 0 hours 0 minutes 6 seconds 28 msec
