                         Program Version 3.0.3 - RELEASE   -
|  1> ! RI PBE def2-SVP def2-SVP/J NBO PAL2
|  2> % maxcore 2000
|  3> % output
|  4>     # printlevel mini
|  5>     print[ P_Basis ] 0
|  6>     print[ P_SCFInfo ] 1
|  7>     print[ P_SCFIterInfo ] 1
|  8>     print[ P_OrbEn ] 0
|  9>     print[ P_Cartesian ] 0
| 10> end
| 11> *xyz 0 1
| 12>  C        0.9614630000     0.0488250000     0.0594130000
| 13>  C        2.4356020000     0.1373990000     0.0551840000
| 14>  N        3.1767010000     1.1938280000     0.0520770000
| 15>  C        4.4723150000     0.7138940000     0.0488840000
| 16>  C        4.4417850000    -0.6322890000     0.0502730000
| 17>  O        3.1366570000    -1.0173490000     0.0543070000
| 18>  H        0.5491080000     1.0554410000     0.0596880000
| 19>  H        0.6044590000    -0.4854170000     0.9431740000
| 20>  H        0.5994900000    -0.4869650000    -0.8213860000
| 21>  H        5.3265000000     1.3717280000     0.0458420000
| 22>  H        5.1811210000    -1.4142860000     0.0489450000
| 23> *
| 24>
| 25>                          ****END OF INPUT****
 Total Charge           Charge          ....    0
 Multiplicity           Mult            ....    1
 Number of Electrons    NEL             ....   44
 Basis Dimension        Dim             ....  109

MULLIKEN ATOMIC CHARGES
-----------------------
   0 C :    0.090556
   1 C :   -0.066704
   2 N :   -0.118251
   3 C :    0.013317
   4 C :    0.094996
   5 O :   -0.167580
   6 H :    0.043165
   7 H :    0.045435
   8 H :    0.045498
   9 H :    0.004786
  10 H :    0.014781
Sum of atomic charges:   -0.0000000

LOEWDIN ATOMIC CHARGES
----------------------
   0 C :   -0.066150
   1 C :    0.008952
   2 N :   -0.107471
   3 C :   -0.048249
   4 C :   -0.002582
   5 O :    0.022243
   6 H :    0.050801
   7 H :    0.046847
   8 H :    0.046856
   9 H :    0.024776
  10 H :    0.023976

  Mayer bond orders larger than 0.1
B(  0-C ,  1-C ) :   1.1100 B(  0-C ,  6-H ) :   0.9427 B(  0-C ,  7-H ) :   0.9368
B(  0-C ,  8-H ) :   0.9369 B(  1-C ,  2-N ) :   1.7449 B(  1-C ,  5-O ) :   1.1714
B(  2-N ,  3-C ) :   1.3017 B(  3-C ,  4-C ) :   1.5902 B(  3-C ,  9-H ) :   0.9849
B(  4-C ,  5-O ) :   1.1232 B(  4-C , 10-H ) :   0.9861

FINAL SINGLE POINT ENERGY      -284.849532863658

DIPOLE MOMENT
-------------
                                X             Y             Z
Electronic contribution:      2.85970      -0.35918      -0.00774
Nuclear contribution   :     -2.88662      -0.18044       0.00829
                        -----------------------------------------
Total Dipole Moment    :     -0.02692      -0.53962       0.00055
                        -----------------------------------------
Magnitude (a.u.)       :      0.54030
Magnitude (Debye)      :      1.37332

                             ****ORCA TERMINATED NORMALLY****
TOTAL RUN TIME: 0 days 0 hours 0 minutes 5 seconds 51 msec
