                         Program Version 3.0.3 - RELEASE   -
|  1> ! RI PBE def2-SVP def2-SVP/J NBO PAL2
|  2> % maxcore 2000
|  3> % output
|  4>     # printlevel mini
|  5>     print[ P_Basis ] 0
|  6>     print[ P_SCFInfo ] 1
|  7>     print[ P_SCFIterInfo ] 1
|  8>     print[ P_OrbEn ] 0
|  9>     print[ P_Cartesian ] 0
| 10> end
| 11> *xyz 0 1
| 12>  C        0.9583830000    -0.0590340000     0.2224630000
| 13>  C        2.4635880000    -0.0616630000     0.0215210000
| 14>  N        2.8915420000    -0.0916760000    -1.3635790000
| 15>  C        3.1951770000     0.9814100000     0.8823780000
| 16>  O        3.6236390000    -0.0208070000     1.8125880000
| 17>  C        3.1976230000    -1.0640480000     0.9274510000
| 18>  H        0.5063270000     0.8154900000    -0.2555880000
| 19>  H        0.7001490000    -0.0359380000     1.2845330000
| 20>  H        0.5084440000    -0.9548470000    -0.2165750000
| 21>  H        2.5149690000     0.7082440000    -1.8616620000
| 22>  H        2.5169700000    -0.9137020000    -1.8258950000
| 23>  H        2.5776960000     1.7478290000     1.3614440000
| 24>  H        4.0412730000     1.4465290000     0.3650270000
| 25>  H        2.5819520000    -1.8100950000     1.4398450000
| 26>  H        4.0448580000    -1.5494800000     0.4310470000
| 27> *
| 28>
| 29>                          ****END OF INPUT****
 Total Charge           Charge          ....    0
 Multiplicity           Mult            ....    1
 Number of Electrons    NEL             ....   48
 Basis Dimension        Dim             ....  129

MULLIKEN ATOMIC CHARGES
-----------------------
   0 C :    0.087954
   1 C :   -0.455760
   2 N :   -0.125124
   3 C :    0.329424
   4 O :   -0.367099
   5 C :    0.329184
   6 H :    0.012674
   7 H :    0.018120
   8 H :    0.012489
   9 H :    0.088922
  10 H :    0.088476
  11 H :   -0.000614
  12 H :   -0.009287
  13 H :   -0.000392
  14 H :   -0.008967
Sum of atomic charges:   -0.0000000

LOEWDIN ATOMIC CHARGES
----------------------
   0 C :   -0.066081
   1 C :   -0.050380
   2 N :   -0.087800
   3 C :    0.089889
   4 O :   -0.182625
   5 C :    0.089852
   6 H :    0.022874
   7 H :    0.029630
   8 H :    0.022808
   9 H :    0.051800
  10 H :    0.051696
  11 H :    0.006093
  12 H :    0.008039
  13 H :    0.006165
  14 H :    0.008041

  Mayer bond orders larger than 0.1
B(  0-C ,  1-C ) :   1.0198 B(  0-C ,  6-H ) :   0.9531 B(  0-C ,  7-H ) :   0.9388
B(  0-C ,  8-H ) :   0.9531 B(  1-C ,  2-N ) :   1.0934 B(  1-C ,  3-C ) :   1.0508
B(  1-C ,  5-C ) :   1.0502 B(  2-N ,  9-H ) :   0.9650 B(  2-N , 10-H ) :   0.9650
B(  3-C ,  4-O ) :   1.0418 B(  3-C , 11-H ) :   0.9323 B(  3-C , 12-H ) :   0.9087
B(  4-O ,  5-C ) :   1.0418 B(  5-C , 13-H ) :   0.9324 B(  5-C , 14-H ) :   0.9091

FINAL SINGLE POINT ENERGY      -287.196792739089

DIPOLE MOMENT
-------------
                                X             Y             Z
Electronic contribution:      3.33148       0.04888       2.01214
Nuclear contribution   :     -4.15117      -0.06521      -2.73220
                        -----------------------------------------
Total Dipole Moment    :     -0.81969      -0.01633      -0.72006
                        -----------------------------------------
Magnitude (a.u.)       :      1.09117
Magnitude (Debye)      :      2.77352

                             ****ORCA TERMINATED NORMALLY****
TOTAL RUN TIME: 0 days 0 hours 0 minutes 6 seconds 309 msec
