                         Program Version 3.0.3 - RELEASE   -
|  1> ! RI PBE def2-SVP def2-SVP/J NBO PAL2
|  2> % maxcore 2000
|  3> % output
|  4>     # printlevel mini
|  5>     print[ P_Basis ] 0
|  6>     print[ P_SCFInfo ] 1
|  7>     print[ P_SCFIterInfo ] 1
|  8>     print[ P_OrbEn ] 0
|  9>     print[ P_Cartesian ] 0
| 10> end
| 11> *xyz 0 1
| 12>  C        0.9479140000    -0.0380730000     0.1099580000
| 13>  C        2.4176270000     0.0366370000    -0.0712240000
| 14>  N        3.1222070000    -1.0047390000    -0.2518060000
| 15>  O        4.4515980000    -0.6781700000    -0.3929060000
| 16>  C        4.6173910000     0.7500670000    -0.2912210000
| 17>  C        3.2184750000     1.3063300000    -0.0625480000
| 18>  H        0.6144180000    -1.0739020000     0.0623050000
| 19>  H        0.4309520000     0.5373290000    -0.6641640000
| 20>  H        0.6530690000     0.3858100000     1.0748410000
| 21>  H        5.0728600000     1.1041660000    -1.2187760000
| 22>  H        5.2999370000     0.9527120000     0.5371460000
| 23>  H        2.8862420000     1.9881090000    -0.8506100000
| 24>  H        3.1096020000     1.8350340000     0.8887240000
| 25> *
| 26>
| 27>                          ****END OF INPUT****
 Total Charge           Charge          ....    0
 Multiplicity           Mult            ....    1
 Number of Electrons    NEL             ....   46
 Basis Dimension        Dim             ....  119

MULLIKEN ATOMIC CHARGES
-----------------------
   0 C :    0.097069
   1 C :   -0.260309
   2 N :    0.033420
   3 O :   -0.284984
   4 C :    0.202968
   5 C :   -0.021130
   6 H :    0.035217
   7 H :    0.032534
   8 H :    0.028613
   9 H :    0.028131
  10 H :    0.031468
  11 H :    0.040132
  12 H :    0.036871
Sum of atomic charges:   -0.0000000

LOEWDIN ATOMIC CHARGES
----------------------
   0 C :   -0.057855
   1 C :   -0.072717
   2 N :   -0.005231
   3 O :   -0.104135
   4 C :    0.061718
   5 C :   -0.063575
   6 H :    0.042925
   7 H :    0.038948
   8 H :    0.038249
   9 H :    0.021544
  10 H :    0.022242
  11 H :    0.039280
  12 H :    0.038608

  Mayer bond orders larger than 0.1
B(  0-C ,  1-C ) :   1.1066 B(  0-C ,  6-H ) :   0.9444 B(  0-C ,  7-H ) :   0.9409
B(  0-C ,  8-H ) :   0.9401 B(  1-C ,  2-N ) :   1.9039 B(  1-C ,  3-O ) :   0.1208
B(  1-C ,  5-C ) :   1.0127 B(  2-N ,  3-O ) :   0.9787 B(  3-O ,  4-C ) :   0.9462
B(  4-C ,  5-C ) :   1.1093 B(  4-C ,  9-H ) :   0.9461 B(  4-C , 10-H ) :   0.9463
B(  5-C , 11-H ) :   0.9183 B(  5-C , 12-H ) :   0.9182

FINAL SINGLE POINT ENERGY      -285.994208015580

DIPOLE MOMENT
-------------
                                X             Y             Z
Electronic contribution:      3.30052      -3.67102      -0.74080
Nuclear contribution   :     -3.68830       4.93115       0.89858
                        -----------------------------------------
Total Dipole Moment    :     -0.38778       1.26014       0.15778
                        -----------------------------------------
Magnitude (a.u.)       :      1.32786
Magnitude (Debye)      :      3.37515

                             ****ORCA TERMINATED NORMALLY****
TOTAL RUN TIME: 0 days 0 hours 0 minutes 5 seconds 827 msec
