                         Program Version 3.0.3 - RELEASE   -
|  1> ! RI PBE def2-SVP def2-SVP/J NBO PAL2
|  2> % maxcore 2000
|  3> % output
|  4>     # printlevel mini
|  5>     print[ P_Basis ] 0
|  6>     print[ P_SCFInfo ] 1
|  7>     print[ P_SCFIterInfo ] 1
|  8>     print[ P_OrbEn ] 0
|  9>     print[ P_Cartesian ] 0
| 10> end
| 11> *xyz 0 1
| 12>  C        1.0668210000     0.0398810000    -0.1237650000
| 13>  C        2.5439090000     0.2187940000     0.0223290000
| 14>  O        3.3738290000    -0.6782340000    -0.7140990000
| 15>  C        3.3933760000     0.6981430000    -1.0601590000
| 16>  C        4.6840740000     1.4247490000    -0.8168180000
| 17>  N        4.4724440000     2.8624670000    -0.9043170000
| 18>  H        0.7228930000    -0.8221000000     0.4534390000
| 19>  H        0.7994210000    -0.1201740000    -1.1698110000
| 20>  H        0.5388190000     0.9244140000     0.2417270000
| 21>  H        2.8997780000     0.4013500000     1.0364810000
| 22>  H        2.9079900000     0.9214120000    -2.0129760000
| 23>  H        5.4395650000     1.0359590000    -1.5179690000
| 24>  H        5.0318000000     1.1802410000     0.1903730000
| 25>  H        4.2580410000     3.1322800000    -1.8569880000
| 26>  H        5.3149400000     3.3594390000    -0.6457580000
| 27> *
| 28>
| 29>                          ****END OF INPUT****
 Total Charge           Charge          ....    0
 Multiplicity           Mult            ....    1
 Number of Electrons    NEL             ....   48
 Basis Dimension        Dim             ....  129

MULLIKEN ATOMIC CHARGES
-----------------------
   0 C :    0.075494
   1 C :   -0.009729
   2 O :   -0.286147
   3 C :    0.016493
   4 C :    0.167979
   5 N :   -0.224895
   6 H :    0.029291
   7 H :    0.012240
   8 H :    0.031842
   9 H :    0.011695
  10 H :   -0.000208
  11 H :    0.002274
  12 H :   -0.006583
  13 H :    0.087264
  14 H :    0.092991
Sum of atomic charges:   -0.0000000

LOEWDIN ATOMIC CHARGES
----------------------
   0 C :   -0.067553
   1 C :    0.041559
   2 O :   -0.158838
   3 C :    0.034452
   4 C :    0.000074
   5 N :   -0.111285
   6 H :    0.034490
   7 H :    0.032208
   8 H :    0.036973
   9 H :    0.014453
  10 H :    0.008952
  11 H :    0.005755
  12 H :    0.024531
  13 H :    0.050031
  14 H :    0.054199

  Mayer bond orders larger than 0.1
B(  0-C ,  1-C ) :   1.0852 B(  0-C ,  6-H ) :   0.9495 B(  0-C ,  7-H ) :   0.9450
B(  0-C ,  8-H ) :   0.9532 B(  1-C ,  2-O ) :   0.9861 B(  1-C ,  3-C ) :   1.0706
B(  1-C ,  9-H ) :   0.9237 B(  2-O ,  3-C ) :   0.9942 B(  3-C ,  4-C ) :   1.0348
B(  3-C , 10-H ) :   0.9196 B(  4-C ,  5-N ) :   1.0710 B(  4-C , 11-H ) :   0.9112
B(  4-C , 12-H ) :   0.9143 B(  5-N , 13-H ) :   0.9698 B(  5-N , 14-H ) :   0.9635

FINAL SINGLE POINT ENERGY      -287.198538443189

DIPOLE MOMENT
-------------
                                X             Y             Z
Electronic contribution:      1.55630      -2.15623      -0.36495
Nuclear contribution   :     -1.43987       2.79903       0.19574
                        -----------------------------------------
Total Dipole Moment    :      0.11644       0.64280      -0.16921
                        -----------------------------------------
Magnitude (a.u.)       :      0.67482
Magnitude (Debye)      :      1.71525

                             ****ORCA TERMINATED NORMALLY****
TOTAL RUN TIME: 0 days 0 hours 0 minutes 6 seconds 128 msec
