                         Program Version 3.0.3 - RELEASE   -
|  1> ! RI PBE def2-SVP def2-SVP/J NBO PAL2
|  2> % maxcore 2000
|  3> % output
|  4>     # printlevel mini
|  5>     print[ P_Basis ] 0
|  6>     print[ P_SCFInfo ] 1
|  7>     print[ P_SCFIterInfo ] 1
|  8>     print[ P_OrbEn ] 0
|  9>     print[ P_Cartesian ] 0
| 10> end
| 11> *xyz 0 1
| 12>  C        0.9379650000    -0.0314290000    -0.0105390000
| 13>  C        2.4221410000     0.0851690000     0.1070870000
| 14>  O        3.2085580000    -0.7262970000    -0.7492460000
| 15>  C        3.2350620000     0.6716260000    -0.9676920000
| 16>  C        4.4716290000     1.3535850000    -0.6699930000
| 17>  N        5.4447230000     1.9217190000    -0.4417770000
| 18>  H        0.5907030000    -0.9333240000     0.4985020000
| 19>  H        0.6337960000    -0.0876320000    -1.0568140000
| 20>  H        0.4513590000     0.8287780000     0.4548580000
| 21>  H        2.8261180000     0.1664220000     1.1148600000
| 22>  H        2.7422380000     1.0142830000    -1.8745440000
| 23> *
| 24>
| 25>                          ****END OF INPUT****
 Total Charge           Charge          ....    0
 Multiplicity           Mult            ....    1
 Number of Electrons    NEL             ....   44
 Basis Dimension        Dim             ....  109

MULLIKEN ATOMIC CHARGES
-----------------------
   0 C :    0.066001
   1 C :    0.009572
   2 O :   -0.240982
   3 C :   -0.027942
   4 C :   -0.083892
   5 N :    0.060210
   6 H :    0.046912
   7 H :    0.024918
   8 H :    0.045227
   9 H :    0.041198
  10 H :    0.058780
Sum of atomic charges:   -0.0000000

LOEWDIN ATOMIC CHARGES
----------------------
   0 C :   -0.064013
   1 C :    0.063364
   2 O :   -0.119375
   3 C :    0.017173
   4 C :   -0.048974
   5 N :   -0.040089
   6 H :    0.043514
   7 H :    0.037445
   8 H :    0.043603
   9 H :    0.026986
  10 H :    0.040366

  Mayer bond orders larger than 0.1
B(  0-C ,  1-C ) :   1.0863 B(  0-C ,  6-H ) :   0.9489 B(  0-C ,  7-H ) :   0.9444
B(  0-C ,  8-H ) :   0.9512 B(  1-C ,  2-O ) :   0.9677 B(  1-C ,  3-C ) :   1.0407
B(  1-C ,  9-H ) :   0.9326 B(  2-O ,  3-C ) :   1.0665 B(  3-C ,  4-C ) :   1.0387
B(  3-C , 10-H ) :   0.9165 B(  4-C ,  5-N ) :   3.0386

FINAL SINGLE POINT ENERGY      -284.792053060902

DIPOLE MOMENT
-------------
                                X             Y             Z
Electronic contribution:      6.74135       1.25992      -1.24087
Nuclear contribution   :     -8.31172      -1.41241       1.30611
                        -----------------------------------------
Total Dipole Moment    :     -1.57037      -0.15250       0.06524
                        -----------------------------------------
Magnitude (a.u.)       :      1.57911
Magnitude (Debye)      :      4.01377

                             ****ORCA TERMINATED NORMALLY****
TOTAL RUN TIME: 0 days 0 hours 0 minutes 4 seconds 804 msec
