                         Program Version 3.0.3 - RELEASE   -
|  1> ! RI PBE def2-SVP def2-SVP/J NBO PAL2
|  2> % maxcore 2000
|  3> % output
|  4>     # printlevel mini
|  5>     print[ P_Basis ] 0
|  6>     print[ P_SCFInfo ] 1
|  7>     print[ P_SCFIterInfo ] 1
|  8>     print[ P_OrbEn ] 0
|  9>     print[ P_Cartesian ] 0
| 10> end
| 11> *xyz 0 1
| 12>  C        1.0114170000     0.1556410000     0.1407280000
| 13>  C        2.5039630000     0.0160360000     0.0543770000
| 14>  O        3.2118440000     1.0397370000     0.7765200000
| 15>  C        4.1273670000     0.0763610000     1.3134030000
| 16>  C        3.2306890000    -1.0785110000     0.8689970000
| 17>  N        3.8690720000    -2.2117050000     0.2647260000
| 18>  H        0.6807420000     1.0885040000    -0.3220610000
| 19>  H        0.6848590000     0.1556210000     1.1832660000
| 20>  H        0.5227240000    -0.6722540000    -0.3812440000
| 21>  H        2.8309970000     0.0002510000    -0.9981350000
| 22>  H        4.3004790000     0.2156800000     2.3832980000
| 23>  H        5.0909330000     0.0905440000     0.7859500000
| 24>  H        2.5971100000    -1.4290090000     1.6883220000
| 25>  H        4.3760740000    -1.9479240000    -0.5714570000
| 26>  H        3.2032410000    -2.9300720000     0.0126870000
| 27> *
| 28>
| 29>                          ****END OF INPUT****
 Total Charge           Charge          ....    0
 Multiplicity           Mult            ....    1
 Number of Electrons    NEL             ....   48
 Basis Dimension        Dim             ....  129

MULLIKEN ATOMIC CHARGES
-----------------------
   0 C :    0.059210
   1 C :    0.094006
   2 O :   -0.352153
   3 C :    0.256106
   4 C :   -0.142876
   5 N :   -0.134120
   6 H :    0.030910
   7 H :    0.012373
   8 H :    0.016357
   9 H :   -0.029354
  10 H :    0.016246
  11 H :   -0.012788
  12 H :    0.005142
  13 H :    0.086905
  14 H :    0.094035
Sum of atomic charges:    0.0000000

LOEWDIN ATOMIC CHARGES
----------------------
   0 C :   -0.072307
   1 C :    0.041606
   2 O :   -0.180928
   3 C :    0.080666
   4 C :   -0.020301
   5 N :   -0.085803
   6 H :    0.034585
   7 H :    0.026064
   8 H :    0.031206
   9 H :   -0.000342
  10 H :    0.012133
  11 H :    0.004341
  12 H :    0.024005
  13 H :    0.049419
  14 H :    0.055656

  Mayer bond orders larger than 0.1
B(  0-C ,  1-C ) :   1.0964 B(  0-C ,  6-H ) :   0.9500 B(  0-C ,  7-H ) :   0.9470
B(  0-C ,  8-H ) :   0.9487 B(  1-C ,  2-O ) :   1.0377 B(  1-C ,  4-C ) :   1.0036
B(  1-C ,  9-H ) :   0.8916 B(  2-O ,  3-C ) :   1.0283 B(  3-C ,  4-C ) :   1.0718
B(  3-C , 10-H ) :   0.9387 B(  3-C , 11-H ) :   0.9186 B(  4-C ,  5-N ) :   1.1497
B(  4-C , 12-H ) :   0.8991 B(  5-N , 13-H ) :   0.9574 B(  5-N , 14-H ) :   0.9669

FINAL SINGLE POINT ENERGY      -287.202964742578

DIPOLE MOMENT
-------------
                                X             Y             Z
Electronic contribution:      2.17687       1.55574       0.75295
Nuclear contribution   :     -2.46888      -2.19560      -1.15180
                        -----------------------------------------
Total Dipole Moment    :     -0.29201      -0.63986      -0.39885
                        -----------------------------------------
Magnitude (a.u.)       :      0.80857
Magnitude (Debye)      :      2.05521

                             ****ORCA TERMINATED NORMALLY****
TOTAL RUN TIME: 0 days 0 hours 0 minutes 6 seconds 284 msec
