                         Program Version 3.0.3 - RELEASE   -
|  1> ! RI PBE def2-SVP def2-SVP/J NBO PAL2
|  2> % maxcore 2000
|  3> % output
|  4>     # printlevel mini
|  5>     print[ P_Basis ] 0
|  6>     print[ P_SCFInfo ] 1
|  7>     print[ P_SCFIterInfo ] 1
|  8>     print[ P_OrbEn ] 0
|  9>     print[ P_Cartesian ] 0
| 10> end
| 11> *xyz 0 1
| 12>  C        0.9345280000     0.0104030000    -0.0902740000
| 13>  C        2.4276910000    -0.0399840000     0.0326280000
| 14>  O        2.9096800000     0.0552420000     1.3435740000
| 15>  C        3.2467620000    -0.8635100000    -0.9283930000
| 16>  C        3.3092850000     0.6339960000    -0.9811010000
| 17>  N        4.5277080000     1.3013020000    -0.6352580000
| 18>  H        0.4671470000    -0.8625390000     0.3787420000
| 19>  H        0.6304530000     0.0232370000    -1.1393090000
| 20>  H        0.5417230000     0.9078890000     0.3944860000
| 21>  H        2.7262590000    -0.7751970000     1.7921140000
| 22>  H        2.7488580000    -1.4022040000    -1.7260270000
| 23>  H        4.1162700000    -1.3626670000    -0.5143090000
| 24>  H        2.7955010000     1.1030790000    -1.8146610000
| 25>  H        4.9290540000     0.8592500000     0.1840980000
| 26>  H        4.3248900000     2.2567140000    -0.3620200000
| 27> *
| 28>
| 29>                          ****END OF INPUT****
 Total Charge           Charge          ....    0
 Multiplicity           Mult            ....    1
 Number of Electrons    NEL             ....   48
 Basis Dimension        Dim             ....  129

MULLIKEN ATOMIC CHARGES
-----------------------
   0 C :    0.109510
   1 C :   -0.109696
   2 O :   -0.241998
   3 C :   -0.007466
   4 C :   -0.062727
   5 N :   -0.111570
   6 H :    0.004537
   7 H :    0.001894
   8 H :    0.022860
   9 H :    0.159284
  10 H :    0.024100
  11 H :    0.022287
  12 H :    0.016095
  13 H :    0.079058
  14 H :    0.093832
Sum of atomic charges:   -0.0000000

LOEWDIN ATOMIC CHARGES
----------------------
   0 C :   -0.062880
   1 C :   -0.019007
   2 O :   -0.094098
   3 C :   -0.068640
   4 C :   -0.010192
   5 N :   -0.081892
   6 H :    0.022008
   7 H :    0.029528
   8 H :    0.029746
   9 H :    0.072630
  10 H :    0.025217
  11 H :    0.027428
  12 H :    0.021285
  13 H :    0.049669
  14 H :    0.059197

  Mayer bond orders larger than 0.1
B(  0-C ,  1-C ) :   1.0783 B(  0-C ,  6-H ) :   0.9449 B(  0-C ,  7-H ) :   0.9363
B(  0-C ,  8-H ) :   0.9532 B(  1-C ,  2-O ) :   1.0988 B(  1-C ,  3-C ) :   0.9565
B(  1-C ,  4-C ) :   0.8618 B(  2-O ,  9-H ) :   0.9791 B(  3-C ,  4-C ) :   0.9787
B(  3-C , 10-H ) :   0.9338 B(  3-C , 11-H ) :   0.9313 B(  4-C ,  5-N ) :   1.1895
B(  4-C , 12-H ) :   0.9432 B(  5-N , 13-H ) :   0.9498 B(  5-N , 14-H ) :   0.9656

FINAL SINGLE POINT ENERGY      -287.204757514145

DIPOLE MOMENT
-------------
                                X             Y             Z
Electronic contribution:      2.17016       0.58857       1.60636
Nuclear contribution   :     -2.62790      -0.91819      -1.27059
                        -----------------------------------------
Total Dipole Moment    :     -0.45774      -0.32963       0.33577
                        -----------------------------------------
Magnitude (a.u.)       :      0.65644
Magnitude (Debye)      :      1.66855

                             ****ORCA TERMINATED NORMALLY****
TOTAL RUN TIME: 0 days 0 hours 0 minutes 6 seconds 311 msec
