                         Program Version 3.0.3 - RELEASE   -
|  1> ! RI PBE def2-SVP def2-SVP/J NBO PAL2
|  2> % maxcore 2000
|  3> % output
|  4>     # printlevel mini
|  5>     print[ P_Basis ] 0
|  6>     print[ P_SCFInfo ] 1
|  7>     print[ P_SCFIterInfo ] 1
|  8>     print[ P_OrbEn ] 0
|  9>     print[ P_Cartesian ] 0
| 10> end
| 11> *xyz 0 1
| 12>  C        0.9137560000    -0.0985140000     0.1118760000
| 13>  C        2.4208340000    -0.0954910000     0.0174730000
| 14>  O        2.8451610000    -0.1798670000    -1.3256670000
| 15>  C        3.1765440000     0.9727370000     0.8453270000
| 16>  N        4.0584400000    -0.0737450000     1.3836670000
| 17>  C        3.1894990000    -1.1357760000     0.8505970000
| 18>  H        0.4925990000     0.7798600000    -0.3896350000
| 19>  H        0.5783560000    -0.0785830000     1.1508010000
| 20>  H        0.5079250000    -0.9919820000    -0.3688160000
| 21>  H        2.4453180000     0.5448760000    -1.8152660000
| 22>  H        2.5362050000     1.4676560000     1.5858900000
| 23>  H        3.6970890000     1.7340590000     0.2559800000
| 24>  H        4.1652580000    -0.0692700000     2.3881170000
| 25>  H        2.5552670000    -1.6350070000     1.5924830000
| 26>  H        3.7149470000    -1.8890530000     0.2584650000
| 27> *
| 28>
| 29>                          ****END OF INPUT****
 Total Charge           Charge          ....    0
 Multiplicity           Mult            ....    1
 Number of Electrons    NEL             ....   48
 Basis Dimension        Dim             ....  129

MULLIKEN ATOMIC CHARGES
-----------------------
   0 C :    0.062537
   1 C :   -0.318056
   2 O :   -0.241152
   3 C :    0.268425
   4 N :   -0.290754
   5 C :    0.261088
   6 H :    0.011012
   7 H :    0.008863
   8 H :    0.030141
   9 H :    0.151278
  10 H :   -0.015697
  11 H :   -0.013836
  12 H :    0.091969
  13 H :   -0.011396
  14 H :    0.005577
Sum of atomic charges:    0.0000000

LOEWDIN ATOMIC CHARGES
----------------------
   0 C :   -0.073107
   1 C :    0.008261
   2 O :   -0.097988
   3 C :    0.016169
   4 N :   -0.111088
   5 C :    0.030294
   6 H :    0.023795
   7 H :    0.026316
   8 H :    0.030906
   9 H :    0.065935
  10 H :    0.003439
  11 H :    0.008993
  12 H :    0.045778
  13 H :    0.005930
  14 H :    0.016367

  Mayer bond orders larger than 0.1
B(  0-C ,  1-C ) :   1.0501 B(  0-C ,  6-H ) :   0.9502 B(  0-C ,  7-H ) :   0.9381
B(  0-C ,  8-H ) :   0.9540 B(  1-C ,  2-O ) :   1.0396 B(  1-C ,  3-C ) :   1.0183
B(  1-C ,  5-C ) :   1.0264 B(  2-O ,  9-H ) :   0.9805 B(  3-C ,  4-N ) :   1.0762
B(  3-C , 10-H ) :   0.9179 B(  3-C , 11-H ) :   0.9030 B(  4-N ,  5-C ) :   1.0695
B(  4-N , 12-H ) :   0.9437 B(  5-C , 13-H ) :   0.9236 B(  5-C , 14-H ) :   0.9046

FINAL SINGLE POINT ENERGY      -287.198646347112

DIPOLE MOMENT
-------------
                                X             Y             Z
Electronic contribution:      3.03590      -0.29354      -1.59611
Nuclear contribution   :     -3.81253       0.67799       1.94968
                        -----------------------------------------
Total Dipole Moment    :     -0.77663       0.38445       0.35357
                        -----------------------------------------
Magnitude (a.u.)       :      0.93593
Magnitude (Debye)      :      2.37894

                             ****ORCA TERMINATED NORMALLY****
TOTAL RUN TIME: 0 days 0 hours 0 minutes 6 seconds 345 msec
