                         Program Version 3.0.3 - RELEASE   -
|  1> ! RI PBE def2-SVP def2-SVP/J NBO PAL2
|  2> % maxcore 2000
|  3> % output
|  4>     # printlevel mini
|  5>     print[ P_Basis ] 0
|  6>     print[ P_SCFInfo ] 1
|  7>     print[ P_SCFIterInfo ] 1
|  8>     print[ P_OrbEn ] 0
|  9>     print[ P_Cartesian ] 0
| 10> end
| 11> *xyz 0 1
| 12>  C        0.8649480000    -0.1040160000     0.0355890000
| 13>  C        2.3471560000    -0.2064070000     0.0082190000
| 14>  C        3.1095730000    -0.0122500000    -1.0698220000
| 15>  C        4.5480040000    -0.1233990000    -1.0455770000
| 16>  N        5.2199200000     0.0740720000    -2.1093040000
| 17>  O        6.5739190000    -0.0767340000    -1.8874750000
| 18>  H        0.5373100000     0.6560990000     0.7525070000
| 19>  H        0.4123050000    -1.0478190000     0.3572150000
| 20>  H        0.4611850000     0.1531160000    -0.9451010000
| 21>  H        2.8356230000    -0.4602530000     0.9479850000
| 22>  H        2.6622760000     0.2426080000    -2.0269670000
| 23>  H        5.0536230000    -0.3772190000    -0.1113790000
| 24>  H        6.9571480000     0.0956830000    -2.7519110000
| 25> *
| 26>
| 27>                          ****END OF INPUT****
 Total Charge           Charge          ....    0
 Multiplicity           Mult            ....    1
 Number of Electrons    NEL             ....   46
 Basis Dimension        Dim             ....  119

MULLIKEN ATOMIC CHARGES
-----------------------
   0 C :    0.046918
   1 C :   -0.115338
   2 C :    0.038505
   3 C :   -0.000844
   4 N :   -0.053877
   5 O :   -0.170104
   6 H :    0.038497
   7 H :    0.037189
   8 H :    0.021917
   9 H :    0.000474
  10 H :   -0.005251
  11 H :   -0.010293
  12 H :    0.172208
Sum of atomic charges:   -0.0000000

LOEWDIN ATOMIC CHARGES
----------------------
   0 C :   -0.063044
   1 C :   -0.027607
   2 C :   -0.051853
   3 C :   -0.039692
   4 N :   -0.020108
   5 O :   -0.047280
   6 H :    0.040093
   7 H :    0.039873
   8 H :    0.032604
   9 H :    0.023927
  10 H :    0.030551
  11 H :    0.007885
  12 H :    0.074652

  Mayer bond orders larger than 0.1
B(  0-C ,  1-C ) :   1.0901 B(  0-C ,  6-H ) :   0.9437 B(  0-C ,  7-H ) :   0.9436
B(  0-C ,  8-H ) :   0.9606 B(  1-C ,  2-C ) :   1.7820 B(  1-C ,  4-N ) :   0.1120
B(  1-C ,  9-H ) :   0.9562 B(  2-C ,  3-C ) :   1.1188 B(  2-C , 10-H ) :   0.9579
B(  3-C ,  4-N ) :   1.7935 B(  3-C , 11-H ) :   0.9478 B(  4-N ,  5-O ) :   0.9991
B(  5-O , 12-H ) :   0.9749

FINAL SINGLE POINT ENERGY      -285.977462588703

DIPOLE MOMENT
-------------
                                X             Y             Z
Electronic contribution:      7.32240       0.19472      -3.16345
Nuclear contribution   :     -7.50635      -0.20591       3.26138
                        -----------------------------------------
Total Dipole Moment    :     -0.18395      -0.01119       0.09793
                        -----------------------------------------
Magnitude (a.u.)       :      0.20870
Magnitude (Debye)      :      0.53046

                             ****ORCA TERMINATED NORMALLY****
TOTAL RUN TIME: 0 days 0 hours 0 minutes 5 seconds 526 msec
