                         Program Version 3.0.3 - RELEASE   -
|  1> ! RI PBE def2-SVP def2-SVP/J NBO PAL2
|  2> % maxcore 2000
|  3> % output
|  4>     # printlevel mini
|  5>     print[ P_Basis ] 0
|  6>     print[ P_SCFInfo ] 1
|  7>     print[ P_SCFIterInfo ] 1
|  8>     print[ P_OrbEn ] 0
|  9>     print[ P_Cartesian ] 0
| 10> end
| 11> *xyz 0 1
| 12>  C        0.8983200000     0.1988090000    -0.0410600000
| 13>  C        2.3788590000     0.2992000000    -0.0315580000
| 14>  C        3.1447770000     0.3456560000     1.0530910000
| 15>  C        4.6210060000     0.4462920000     0.9305300000
| 16>  N        5.2837170000     0.4859170000     2.1171340000
| 17>  O        5.2053390000     0.4919600000    -0.1344100000
| 18>  H        0.5772700000    -0.6981520000    -0.5804590000
| 19>  H        0.4587200000     1.0494910000    -0.5717670000
| 20>  H        0.4809870000     0.1654840000     0.9666760000
| 21>  H        2.8918410000     0.3388210000    -0.9905630000
| 22>  H        2.7046050000     0.3108060000     2.0469860000
| 23>  H        4.8064280000     0.4490160000     2.9979760000
| 24>  H        6.2859300000     0.5543910000     2.1023040000
| 25> *
| 26>
| 27>                          ****END OF INPUT****
 Total Charge           Charge          ....    0
 Multiplicity           Mult            ....    1
 Number of Electrons    NEL             ....   46
 Basis Dimension        Dim             ....  119

MULLIKEN ATOMIC CHARGES
-----------------------
   0 C :    0.052456
   1 C :   -0.077085
   2 C :   -0.071703
   3 C :    0.042239
   4 N :   -0.051320
   5 O :   -0.209769
   6 H :    0.041774
   7 H :    0.042950
   8 H :    0.017911
   9 H :    0.021416
  10 H :   -0.025051
  11 H :    0.102537
  12 H :    0.113647
Sum of atomic charges:   -0.0000000

LOEWDIN ATOMIC CHARGES
----------------------
   0 C :   -0.062503
   1 C :    0.017025
   2 C :   -0.096141
   3 C :    0.021353
   4 N :    0.012592
   5 O :   -0.200514
   6 H :    0.043765
   7 H :    0.043940
   8 H :    0.030346
   9 H :    0.033737
  10 H :    0.016221
  11 H :    0.067985
  12 H :    0.072195

  Mayer bond orders larger than 0.1
B(  0-C ,  1-C ) :   1.0829 B(  0-C ,  6-H ) :   0.9407 B(  0-C ,  7-H ) :   0.9408
B(  0-C ,  8-H ) :   0.9589 B(  1-C ,  2-C ) :   1.8807 B(  1-C ,  9-H ) :   0.9418
B(  2-C ,  3-C ) :   0.9437 B(  2-C , 10-H ) :   0.9409 B(  3-C ,  4-N ) :   1.2380
B(  3-C ,  5-O ) :   2.0953 B(  4-N , 11-H ) :   0.9431 B(  4-N , 12-H ) :   0.9369

FINAL SINGLE POINT ENERGY      -286.056446972434

DIPOLE MOMENT
-------------
                                X             Y             Z
Electronic contribution:      6.07731       0.41342      -0.06714
Nuclear contribution   :     -6.67556      -0.45897       1.24019
                        -----------------------------------------
Total Dipole Moment    :     -0.59826      -0.04556       1.17304
                        -----------------------------------------
Magnitude (a.u.)       :      1.31758
Magnitude (Debye)      :      3.34902

                             ****ORCA TERMINATED NORMALLY****
TOTAL RUN TIME: 0 days 0 hours 0 minutes 5 seconds 791 msec
