                         Program Version 3.0.3 - RELEASE   -
|  1> ! RI PBE def2-SVP def2-SVP/J NBO PAL2
|  2> % maxcore 2000
|  3> % output
|  4>     # printlevel mini
|  5>     print[ P_Basis ] 0
|  6>     print[ P_SCFInfo ] 1
|  7>     print[ P_SCFIterInfo ] 1
|  8>     print[ P_OrbEn ] 0
|  9>     print[ P_Cartesian ] 0
| 10> end
| 11> *xyz 0 1
| 12>  C        1.0114420000     0.1705870000    -0.0109890000
| 13>  C        2.4954870000    -0.0273020000    -0.0594190000
| 14>  C        3.1044590000    -1.0453350000     0.5480890000
| 15>  C        3.2270800000     0.9876900000    -0.8282600000
| 16>  N        4.4893760000     0.9575400000    -0.9632310000
| 17>  O        4.9464170000     2.0110250000    -1.7241710000
| 18>  H        0.5275220000    -0.6125770000     0.5724660000
| 19>  H        0.5811240000     0.1646100000    -1.0176420000
| 20>  H        0.7583020000     1.1376460000     0.4354170000
| 21>  H        2.5361580000    -1.7784500000     1.1082500000
| 22>  H        4.1794290000    -1.1663620000     0.4981630000
| 23>  H        2.6554740000     1.7923520000    -1.2964540000
| 24>  H        5.8970420000     1.8692860000    -1.7463190000
| 25> *
| 26>
| 27>                          ****END OF INPUT****
 Total Charge           Charge          ....    0
 Multiplicity           Mult            ....    1
 Number of Electrons    NEL             ....   46
 Basis Dimension        Dim             ....  119

MULLIKEN ATOMIC CHARGES
-----------------------
   0 C :    0.046745
   1 C :   -0.112827
   2 C :   -0.030501
   3 C :    0.006794
   4 N :   -0.029744
   5 O :   -0.161960
   6 H :    0.020116
   7 H :    0.034876
   8 H :    0.034491
   9 H :    0.012234
  10 H :    0.023482
  11 H :   -0.017248
  12 H :    0.173541
Sum of atomic charges:    0.0000000

LOEWDIN ATOMIC CHARGES
----------------------
   0 C :   -0.054583
   1 C :   -0.052981
   2 C :   -0.045025
   3 C :   -0.039413
   4 N :   -0.003922
   5 O :   -0.039856
   6 H :    0.033001
   7 H :    0.037289
   8 H :    0.037281
   9 H :    0.021866
  10 H :    0.024411
  11 H :    0.005625
  12 H :    0.076308

  Mayer bond orders larger than 0.1
B(  0-C ,  1-C ) :   1.0732 B(  0-C ,  6-H ) :   0.9539 B(  0-C ,  7-H ) :   0.9475
B(  0-C ,  8-H ) :   0.9474 B(  1-C ,  2-C ) :   1.9416 B(  1-C ,  3-C ) :   1.0522
B(  2-C ,  9-H ) :   0.9298 B(  2-C , 10-H ) :   0.9275 B(  3-C ,  4-N ) :   1.8628
B(  3-C ,  5-O ) :   0.1119 B(  3-C , 11-H ) :   0.9417 B(  4-N ,  5-O ) :   1.0000
B(  5-O , 12-H ) :   0.9744

FINAL SINGLE POINT ENERGY      -285.970225619061

DIPOLE MOMENT
-------------
                                X             Y             Z
Electronic contribution:      5.27333       2.45308      -2.29131
Nuclear contribution   :     -5.30308      -2.36338       2.23076
                        -----------------------------------------
Total Dipole Moment    :     -0.02975       0.08970      -0.06055
                        -----------------------------------------
Magnitude (a.u.)       :      0.11224
Magnitude (Debye)      :      0.28528

                             ****ORCA TERMINATED NORMALLY****
TOTAL RUN TIME: 0 days 0 hours 0 minutes 5 seconds 667 msec
