                         Program Version 3.0.3 - RELEASE   -
|  1> ! RI PBE def2-SVP def2-SVP/J NBO PAL2
|  2> % maxcore 2000
|  3> % output
|  4>     # printlevel mini
|  5>     print[ P_Basis ] 0
|  6>     print[ P_SCFInfo ] 1
|  7>     print[ P_SCFIterInfo ] 1
|  8>     print[ P_OrbEn ] 0
|  9>     print[ P_Cartesian ] 0
| 10> end
| 11> *xyz 0 1
| 12>  C        0.9476360000    -0.0752330000    -0.0154430000
| 13>  C        2.4310360000     0.0835990000    -0.0041870000
| 14>  C        3.0658730000     1.0421760000     0.6657410000
| 15>  C        3.1720930000    -0.8722440000    -0.8921870000
| 16>  N        4.4410080000    -1.1818110000    -0.5186690000
| 17>  O        2.6617120000    -1.3248600000    -1.8974260000
| 18>  H        0.4646170000     0.6954950000     0.5854230000
| 19>  H        0.6568740000    -1.0572750000     0.3684030000
| 20>  H        0.5783140000    -0.0237040000    -1.0417290000
| 21>  H        2.5194040000     1.7589280000     1.2689330000
| 22>  H        4.1401920000     1.1731890000     0.6057770000
| 23>  H        4.7678560000    -0.9872850000     0.4093940000
| 24>  H        4.9303760000    -1.8645650000    -1.0713300000
| 25> *
| 26>
| 27>                          ****END OF INPUT****
 Total Charge           Charge          ....    0
 Multiplicity           Mult            ....    1
 Number of Electrons    NEL             ....   46
 Basis Dimension        Dim             ....  119

MULLIKEN ATOMIC CHARGES
-----------------------
   0 C :    0.073640
   1 C :   -0.184285
   2 C :   -0.041295
   3 C :    0.044480
   4 N :   -0.057696
   5 O :   -0.198777
   6 H :    0.012527
   7 H :    0.031956
   8 H :    0.052325
   9 H :    0.021314
  10 H :    0.016393
  11 H :    0.112700
  12 H :    0.116717
Sum of atomic charges:    0.0000000

LOEWDIN ATOMIC CHARGES
----------------------
   0 C :   -0.049764
   1 C :   -0.055897
   2 C :   -0.058177
   3 C :    0.027635
   4 N :    0.014280
   5 O :   -0.184329
   6 H :    0.029778
   7 H :    0.041067
   8 H :    0.046807
   9 H :    0.025085
  10 H :    0.019498
  11 H :    0.070334
  12 H :    0.073683

  Mayer bond orders larger than 0.1
B(  0-C ,  1-C ) :   1.0919 B(  0-C ,  6-H ) :   0.9511 B(  0-C ,  7-H ) :   0.9439
B(  0-C ,  8-H ) :   0.9365 B(  1-C ,  2-C ) :   1.9493 B(  1-C ,  3-C ) :   0.9105
B(  2-C ,  9-H ) :   0.9328 B(  2-C , 10-H ) :   0.9389 B(  3-C ,  4-N ) :   1.2524
B(  3-C ,  5-O ) :   2.1057 B(  4-N , 11-H ) :   0.9399 B(  4-N , 12-H ) :   0.9373

FINAL SINGLE POINT ENERGY      -286.052945133605

DIPOLE MOMENT
-------------
                                X             Y             Z
Electronic contribution:      2.14086      -2.35795      -3.05693
Nuclear contribution   :     -1.45555       2.46760       4.07750
                        -----------------------------------------
Total Dipole Moment    :      0.68531       0.10965       1.02057
                        -----------------------------------------
Magnitude (a.u.)       :      1.23419
Magnitude (Debye)      :      3.13706

                             ****ORCA TERMINATED NORMALLY****
TOTAL RUN TIME: 0 days 0 hours 0 minutes 5 seconds 601 msec
