                         Program Version 3.0.3 - RELEASE   -
|  1> ! RI PBE def2-SVP def2-SVP/J NBO PAL2
|  2> % maxcore 2000
|  3> % output
|  4>     # printlevel mini
|  5>     print[ P_Basis ] 0
|  6>     print[ P_SCFInfo ] 1
|  7>     print[ P_SCFIterInfo ] 1
|  8>     print[ P_OrbEn ] 0
|  9>     print[ P_Cartesian ] 0
| 10> end
| 11> *xyz 0 1
| 12>  C        1.0688680000     0.0773380000     0.0354060000
| 13>  C        2.5670750000    -0.0506760000    -0.0801200000
| 14>  C        3.2132770000     0.5986990000    -1.2211660000
| 15>  C        4.5033000000     0.6435620000    -1.5625500000
| 16>  N        3.1013560000    -0.7319670000     0.8628330000
| 17>  O        4.4701480000    -0.8582850000     0.7712050000
| 18>  H        0.6603500000     0.6638970000    -0.7871930000
| 19>  H        0.7931860000     0.5645780000     0.9721720000
| 20>  H        0.5943730000    -0.9053290000     0.0227440000
| 21>  H        2.5118330000     1.1146070000    -1.8717110000
| 22>  H        5.2820200000     0.1668420000    -0.9890460000
| 23>  H        4.7928280000     1.1827780000    -2.4580150000
| 24>  H        4.6816670000    -1.3867660000     1.5455410000
| 25> *
| 26>
| 27>                          ****END OF INPUT****
 Total Charge           Charge          ....    0
 Multiplicity           Mult            ....    1
 Number of Electrons    NEL             ....   46
 Basis Dimension        Dim             ....  119

MULLIKEN ATOMIC CHARGES
-----------------------
   0 C :    0.055975
   1 C :   -0.155349
   2 C :   -0.010673
   3 C :   -0.000915
   4 N :   -0.046515
   5 O :   -0.156856
   6 H :    0.011699
   7 H :    0.042186
   8 H :    0.042564
   9 H :   -0.012148
  10 H :    0.035528
  11 H :    0.020314
  12 H :    0.174189
Sum of atomic charges:   -0.0000000

LOEWDIN ATOMIC CHARGES
----------------------
   0 C :   -0.058195
   1 C :   -0.064908
   2 C :   -0.058976
   3 C :   -0.025015
   4 N :   -0.026269
   5 O :   -0.030495
   6 H :    0.029003
   7 H :    0.041032
   8 H :    0.041083
   9 H :    0.029649
  10 H :    0.021427
  11 H :    0.025025
  12 H :    0.076639

  Mayer bond orders larger than 0.1
B(  0-C ,  1-C ) :   1.0632 B(  0-C ,  6-H ) :   0.9523 B(  0-C ,  7-H ) :   0.9538
B(  0-C ,  8-H ) :   0.9535 B(  1-C ,  2-C ) :   1.1064 B(  1-C ,  4-N ) :   1.8241
B(  2-C ,  3-C ) :   1.9239 B(  2-C ,  9-H ) :   0.9310 B(  3-C ,  4-N ) :   0.1004
B(  3-C , 10-H ) :   0.9369 B(  3-C , 11-H ) :   0.9269 B(  4-N ,  5-O ) :   1.0095
B(  5-O , 12-H ) :   0.9716

FINAL SINGLE POINT ENERGY      -285.968453339063

DIPOLE MOMENT
-------------
                                X             Y             Z
Electronic contribution:      2.80004      -1.88555       2.32901
Nuclear contribution   :     -2.75451       1.86478      -2.31167
                        -----------------------------------------
Total Dipole Moment    :      0.04553      -0.02077       0.01734
                        -----------------------------------------
Magnitude (a.u.)       :      0.05296
Magnitude (Debye)      :      0.13462

                             ****ORCA TERMINATED NORMALLY****
TOTAL RUN TIME: 0 days 0 hours 0 minutes 5 seconds 318 msec
