                         Program Version 3.0.3 - RELEASE   -
|  1> ! RI PBE def2-SVP def2-SVP/J NBO PAL2
|  2> % maxcore 2000
|  3> % output
|  4>     # printlevel mini
|  5>     print[ P_Basis ] 0
|  6>     print[ P_SCFInfo ] 1
|  7>     print[ P_SCFIterInfo ] 1
|  8>     print[ P_OrbEn ] 0
|  9>     print[ P_Cartesian ] 0
| 10> end
| 11> *xyz 0 1
| 12>  C        0.8939600000    -0.0323570000     0.1175250000
| 13>  C        2.4172380000    -0.1057320000     0.0490050000
| 14>  C        3.0368560000     0.0110530000     1.4392860000
| 15>  C        2.8456860000    -1.3781580000    -0.6038050000
| 16>  N        3.5091590000    -1.3583640000    -1.6802250000
| 17>  O        3.8100030000    -2.6366030000    -2.1261680000
| 18>  H        0.5763530000     0.8996820000     0.5914250000
| 19>  H        0.4881840000    -0.8597060000     0.7077180000
| 20>  H        0.4489840000    -0.0785900000    -0.8784230000
| 21>  H        2.7863410000     0.7128400000    -0.5762850000
| 22>  H        2.7158000000    -0.8145740000     2.0817430000
| 23>  H        2.7285520000     0.9432860000     1.9189140000
| 24>  H        4.1274740000    -0.0040790000     1.3905140000
| 25>  H        2.5770390000    -2.3308050000    -0.1369670000
| 26>  H        4.3045600000    -2.4719930000    -2.9334610000
| 27> *
| 28>
| 29>                          ****END OF INPUT****
 Total Charge           Charge          ....    0
 Multiplicity           Mult            ....    1
 Number of Electrons    NEL             ....   48
 Basis Dimension        Dim             ....  129

MULLIKEN ATOMIC CHARGES
-----------------------
   0 C :    0.014652
   1 C :   -0.078953
   2 C :    0.000026
   3 C :   -0.020470
   4 N :   -0.047848
   5 O :   -0.181924
   6 H :    0.018856
   7 H :    0.016974
   8 H :    0.028140
   9 H :    0.008588
  10 H :    0.019432
  11 H :    0.020532
  12 H :    0.035133
  13 H :   -0.002875
  14 H :    0.169737
Sum of atomic charges:   -0.0000000

LOEWDIN ATOMIC CHARGES
----------------------
   0 C :   -0.052928
   1 C :   -0.054205
   2 C :   -0.056185
   3 C :   -0.026179
   4 N :   -0.018837
   5 O :   -0.060331
   6 H :    0.027072
   7 H :    0.024339
   8 H :    0.028539
   9 H :    0.031155
  10 H :    0.024912
  11 H :    0.027229
  12 H :    0.029910
  13 H :    0.003481
  14 H :    0.072029

  Mayer bond orders larger than 0.1
B(  0-C ,  1-C ) :   1.0626 B(  0-C ,  6-H ) :   0.9589 B(  0-C ,  7-H ) :   0.9647
B(  0-C ,  8-H ) :   0.9635 B(  1-C ,  2-C ) :   1.0636 B(  1-C ,  3-C ) :   1.0037
B(  1-C ,  9-H ) :   0.9050 B(  2-C , 10-H ) :   0.9627 B(  2-C , 11-H ) :   0.9587
B(  2-C , 12-H ) :   0.9633 B(  3-C ,  4-N ) :   1.9146 B(  3-C ,  5-O ) :   0.1121
B(  3-C , 13-H ) :   0.9389 B(  4-N ,  5-O ) :   0.9845 B(  5-O , 14-H ) :   0.9768

FINAL SINGLE POINT ENERGY      -287.187489830583

DIPOLE MOMENT
-------------
                                X             Y             Z
Electronic contribution:      3.87000      -4.19193      -6.14329
Nuclear contribution   :     -3.91132       4.29208       6.20049
                        -----------------------------------------
Total Dipole Moment    :     -0.04132       0.10015       0.05720
                        -----------------------------------------
Magnitude (a.u.)       :      0.12251
Magnitude (Debye)      :      0.31140

                             ****ORCA TERMINATED NORMALLY****
TOTAL RUN TIME: 0 days 0 hours 0 minutes 6 seconds 289 msec
