                         Program Version 3.0.3 - RELEASE   -
|  1> ! RI PBE def2-SVP def2-SVP/J NBO PAL2
|  2> % maxcore 2000
|  3> % output
|  4>     # printlevel mini
|  5>     print[ P_Basis ] 0
|  6>     print[ P_SCFInfo ] 1
|  7>     print[ P_SCFIterInfo ] 1
|  8>     print[ P_OrbEn ] 0
|  9>     print[ P_Cartesian ] 0
| 10> end
| 11> *xyz 0 1
| 12>  C        0.8752510000    -0.0879260000     0.1918400000
| 13>  C        2.3898500000    -0.0952990000     0.0215160000
| 14>  C        3.0987650000    -0.2231580000     1.3647900000
| 15>  C        2.7868290000    -1.2664010000    -0.8655630000
| 16>  N        3.4191690000    -0.9433370000    -2.0210890000
| 17>  O        2.5524380000    -2.4166590000    -0.5579340000
| 18>  H        0.5702750000     0.7262680000     0.8533660000
| 19>  H        0.5473250000    -1.0329810000     0.6286460000
| 20>  H        0.3622320000     0.0393410000    -0.7643890000
| 21>  H        2.6993860000     0.8411750000    -0.4571180000
| 22>  H        2.8328220000    -1.1717360000     1.8348240000
| 23>  H        2.8028190000     0.5908220000     2.0306630000
| 24>  H        4.1851410000    -0.1936860000     1.2521920000
| 25>  H        3.6124250000     0.0069100000    -2.2749260000
| 26>  H        3.7004820000    -1.6854330000    -2.6386210000
| 27> *
| 28>
| 29>                          ****END OF INPUT****
 Total Charge           Charge          ....    0
 Multiplicity           Mult            ....    1
 Number of Electrons    NEL             ....   48
 Basis Dimension        Dim             ....  129

MULLIKEN ATOMIC CHARGES
-----------------------
   0 C :    0.031335
   1 C :   -0.145944
   2 C :    0.015349
   3 C :    0.004588
   4 N :   -0.050112
   5 O :   -0.210012
   6 H :    0.016050
   7 H :    0.037504
   8 H :    0.015982
   9 H :   -0.018729
  10 H :    0.039162
  11 H :    0.019154
  12 H :    0.022076
  13 H :    0.107239
  14 H :    0.116357
Sum of atomic charges:   -0.0000000

LOEWDIN ATOMIC CHARGES
----------------------
   0 C :   -0.048569
   1 C :   -0.074048
   2 C :   -0.051755
   3 C :    0.032684
   4 N :    0.014781
   5 O :   -0.196163
   6 H :    0.024933
   7 H :    0.032117
   8 H :    0.025657
   9 H :    0.015144
  10 H :    0.032369
  11 H :    0.025629
  12 H :    0.026788
  13 H :    0.068604
  14 H :    0.071829

  Mayer bond orders larger than 0.1
B(  0-C ,  1-C ) :   1.0754 B(  0-C ,  6-H ) :   0.9609 B(  0-C ,  7-H ) :   0.9606
B(  0-C ,  8-H ) :   0.9607 B(  1-C ,  2-C ) :   1.0752 B(  1-C ,  3-C ) :   0.9194
B(  1-C ,  9-H ) :   0.9080 B(  2-C , 10-H ) :   0.9588 B(  2-C , 11-H ) :   0.9602
B(  2-C , 12-H ) :   0.9613 B(  3-C ,  4-N ) :   1.2511 B(  3-C ,  5-O ) :   2.1095
B(  4-N , 13-H ) :   0.9433 B(  4-N , 14-H ) :   0.9378

FINAL SINGLE POINT ENERGY      -287.271858359739

DIPOLE MOMENT
-------------
                                X             Y             Z
Electronic contribution:      1.75190      -4.25615      -3.82171
Nuclear contribution   :     -1.33288       5.37177       3.15699
                        -----------------------------------------
Total Dipole Moment    :      0.41902       1.11562      -0.66472
                        -----------------------------------------
Magnitude (a.u.)       :      1.36457
Magnitude (Debye)      :      3.46845

                             ****ORCA TERMINATED NORMALLY****
TOTAL RUN TIME: 0 days 0 hours 0 minutes 6 seconds 654 msec
