                         Program Version 3.0.3 - RELEASE   -
|  1> ! RI PBE def2-SVP def2-SVP/J NBO PAL2
|  2> % maxcore 2000
|  3> % output
|  4>     # printlevel mini
|  5>     print[ P_Basis ] 0
|  6>     print[ P_SCFInfo ] 1
|  7>     print[ P_SCFIterInfo ] 1
|  8>     print[ P_OrbEn ] 0
|  9>     print[ P_Cartesian ] 0
| 10> end
| 11> *xyz 0 1
| 12>  C        0.8961190000     0.0249250000     0.0928430000
| 13>  C        2.3423150000    -0.0242810000     0.0598210000
| 14>  C        3.5449070000    -0.0826500000     0.0209380000
| 15>  C        4.9592390000    -0.0783440000     0.0235570000
| 16>  N        5.6146730000    -0.9888780000    -0.5831460000
| 17>  O        6.9691830000    -0.7910540000    -0.4510280000
| 18>  H        0.5464730000     0.9226840000     0.6081550000
| 19>  H        0.4890350000    -0.8453580000     0.6143040000
| 20>  H        0.4839740000     0.0324290000    -0.9195390000
| 21>  H        5.4840800000     0.7178420000     0.5545360000
| 22>  H        7.3462010000    -1.5271230000    -0.9414510000
| 23> *
| 24>
| 25>                          ****END OF INPUT****
 Total Charge           Charge          ....    0
 Multiplicity           Mult            ....    1
 Number of Electrons    NEL             ....   44
 Basis Dimension        Dim             ....  109

MULLIKEN ATOMIC CHARGES
-----------------------
   0 C :    0.051096
   1 C :   -0.167096
   2 C :    0.027299
   3 C :   -0.067082
   4 N :   -0.044751
   5 O :   -0.164691
   6 H :    0.052751
   7 H :    0.056321
   8 H :    0.054333
   9 H :    0.026410
  10 H :    0.175410
Sum of atomic charges:    0.0000000

LOEWDIN ATOMIC CHARGES
----------------------
   0 C :   -0.066728
   1 C :   -0.029954
   2 C :   -0.070447
   3 C :   -0.053258
   4 N :    0.000162
   5 O :   -0.040039
   6 H :    0.053480
   7 H :    0.055225
   8 H :    0.054878
   9 H :    0.018770
  10 H :    0.077911

  Mayer bond orders larger than 0.1
B(  0-C ,  1-C ) :   1.1273 B(  0-C ,  6-H ) :   0.9333 B(  0-C ,  7-H ) :   0.9300
B(  0-C ,  8-H ) :   0.9300 B(  1-C ,  2-C ) :   2.4842 B(  2-C ,  3-C ) :   0.9989
B(  3-C ,  4-N ) :   1.8076 B(  3-C ,  5-O ) :   0.1077 B(  3-C ,  9-H ) :   0.9433
B(  4-N ,  5-O ) :   1.0093 B(  5-O , 10-H ) :   0.9736

FINAL SINGLE POINT ENERGY      -284.733407997755

DIPOLE MOMENT
-------------
                                X             Y             Z
Electronic contribution:      5.72291      -0.97983      -0.65720
Nuclear contribution   :     -6.00162       0.97871       0.65412
                        -----------------------------------------
Total Dipole Moment    :     -0.27871      -0.00112      -0.00308
                        -----------------------------------------
Magnitude (a.u.)       :      0.27873
Magnitude (Debye)      :      0.70847

                             ****ORCA TERMINATED NORMALLY****
TOTAL RUN TIME: 0 days 0 hours 0 minutes 4 seconds 553 msec
