                         Program Version 3.0.3 - RELEASE   -
|  1> ! RI PBE def2-SVP def2-SVP/J NBO PAL2
|  2> % maxcore 2000
|  3> % output
|  4>     # printlevel mini
|  5>     print[ P_Basis ] 0
|  6>     print[ P_SCFInfo ] 1
|  7>     print[ P_SCFIterInfo ] 1
|  8>     print[ P_OrbEn ] 0
|  9>     print[ P_Cartesian ] 0
| 10> end
| 11> *xyz 0 1
| 12>  C        1.0425210000     0.0003250000    -0.0874580000
| 13>  C        2.4897270000     0.0081860000    -0.1073060000
| 14>  C        3.6928560000     0.0093490000    -0.1099990000
| 15>  C        5.1451090000    -0.0142180000    -0.0506750000
| 16>  N        5.7508530000     0.4435220000    -1.1746880000
| 17>  O        5.7527370000    -0.4101750000     0.9205970000
| 18>  H        0.6467040000    -0.6043020000    -0.9071560000
| 19>  H        0.6484170000     1.0137860000    -0.1960840000
| 20>  H        0.6692760000    -0.4121250000     0.8526480000
| 21>  H        5.2192330000     0.7642970000    -1.9623900000
| 22>  H        6.7554770000     0.4556550000    -1.2045780000
| 23> *
| 24>
| 25>                          ****END OF INPUT****
 Total Charge           Charge          ....    0
 Multiplicity           Mult            ....    1
 Number of Electrons    NEL             ....   44
 Basis Dimension        Dim             ....  109

MULLIKEN ATOMIC CHARGES
-----------------------
   0 C :    0.054566
   1 C :   -0.194147
   2 C :   -0.052778
   3 C :    0.028505
   4 N :   -0.056892
   5 O :   -0.181846
   6 H :    0.056100
   7 H :    0.054038
   8 H :    0.058820
   9 H :    0.112843
  10 H :    0.120791
Sum of atomic charges:   -0.0000000

LOEWDIN ATOMIC CHARGES
----------------------
   0 C :   -0.065234
   1 C :   -0.021933
   2 C :   -0.093670
   3 C :    0.010012
   4 N :    0.022436
   5 O :   -0.169991
   6 H :    0.056027
   7 H :    0.055845
   8 H :    0.056489
   9 H :    0.075155
  10 H :    0.074864

  Mayer bond orders larger than 0.1
B(  0-C ,  1-C ) :   1.1306 B(  0-C ,  6-H ) :   0.9305 B(  0-C ,  7-H ) :   0.9300
B(  0-C ,  8-H ) :   0.9291 B(  1-C ,  2-C ) :   2.6504 B(  2-C ,  3-C ) :   0.8414
B(  3-C ,  4-N ) :   1.2630 B(  3-C ,  5-O ) :   2.1178 B(  4-N ,  5-O ) :   0.1026
B(  4-N ,  9-H ) :   0.9411 B(  4-N , 10-H ) :   0.9379

FINAL SINGLE POINT ENERGY      -284.811979598561

DIPOLE MOMENT
-------------
                                X             Y             Z
Electronic contribution:      5.04936      -0.55823       1.37073
Nuclear contribution   :     -5.81276       1.08622      -2.66392
                        -----------------------------------------
Total Dipole Moment    :     -0.76339       0.52799      -1.29319
                        -----------------------------------------
Magnitude (a.u.)       :      1.59182
Magnitude (Debye)      :      4.04608

                             ****ORCA TERMINATED NORMALLY****
TOTAL RUN TIME: 0 days 0 hours 0 minutes 4 seconds 978 msec
