                         Program Version 3.0.3 - RELEASE   -
|  1> ! RI PBE def2-SVP def2-SVP/J NBO PAL2
|  2> % maxcore 2000
|  3> % output
|  4>     # printlevel mini
|  5>     print[ P_Basis ] 0
|  6>     print[ P_SCFInfo ] 1
|  7>     print[ P_SCFIterInfo ] 1
|  8>     print[ P_OrbEn ] 0
|  9>     print[ P_Cartesian ] 0
| 10> end
| 11> *xyz 0 1
| 12>  C        1.9808840000    -0.2533520000     1.3392100000
| 13>  C        2.5311000000     0.0024080000    -0.0600560000
| 14>  C        3.0113360000    -1.2454340000    -0.7327990000
| 15>  C        2.0424490000    -2.3251000000    -1.0925500000
| 16>  N        4.2608110000    -1.3200390000    -0.9614160000
| 17>  O        4.6049690000    -2.5219700000    -1.5721660000
| 18>  H        1.6159220000     0.6740280000     1.7856220000
| 19>  H        2.7565600000    -0.6609750000     1.9912340000
| 20>  H        1.1494710000    -0.9623680000     1.3238340000
| 21>  H        3.3625180000     0.7086170000    -0.0171100000
| 22>  H        1.7484010000     0.4545230000    -0.6812500000
| 23>  H        1.0160290000    -2.0198590000    -0.8896890000
| 24>  H        2.2566740000    -3.2387780000    -0.5317980000
| 25>  H        2.1397220000    -2.5814930000    -2.1499720000
| 26>  H        5.5532550000    -2.4292980000    -1.6937940000
| 27> *
| 28>
| 29>                          ****END OF INPUT****
 Total Charge           Charge          ....    0
 Multiplicity           Mult            ....    1
 Number of Electrons    NEL             ....   48
 Basis Dimension        Dim             ....  129

MULLIKEN ATOMIC CHARGES
-----------------------
   0 C :   -0.045124
   1 C :    0.053111
   2 C :   -0.257989
   3 C :    0.097407
   4 N :   -0.038812
   5 O :   -0.190553
   6 H :    0.026166
   7 H :    0.034069
   8 H :    0.024590
   9 H :    0.014694
  10 H :    0.020780
  11 H :    0.012137
  12 H :    0.039902
  13 H :    0.039940
  14 H :    0.169680
Sum of atomic charges:   -0.0000000

LOEWDIN ATOMIC CHARGES
----------------------
   0 C :   -0.064180
   1 C :   -0.044793
   2 C :   -0.057071
   3 C :   -0.073575
   4 N :   -0.035349
   5 O :   -0.061746
   6 H :    0.028910
   7 H :    0.029708
   8 H :    0.024226
   9 H :    0.032238
  10 H :    0.032234
  11 H :    0.028954
  12 H :    0.045228
  13 H :    0.043901
  14 H :    0.071313

  Mayer bond orders larger than 0.1
B(  0-C ,  1-C ) :   1.1070 B(  0-C ,  6-H ) :   0.9603 B(  0-C ,  7-H ) :   0.9647
B(  0-C ,  8-H ) :   0.9659 B(  1-C ,  2-C ) :   1.0780 B(  1-C ,  9-H ) :   0.9177
B(  1-C , 10-H ) :   0.9130 B(  2-C ,  3-C ) :   1.0625 B(  2-C ,  4-N ) :   1.9252
B(  3-C , 11-H ) :   0.9442 B(  3-C , 12-H ) :   0.9361 B(  3-C , 13-H ) :   0.9312
B(  4-N ,  5-O ) :   0.9956 B(  5-O , 14-H ) :   0.9774

FINAL SINGLE POINT ENERGY      -287.194531386510

DIPOLE MOMENT
-------------
                                X             Y             Z
Electronic contribution:      5.71943      -1.74515      -3.62126
Nuclear contribution   :     -5.87775       1.68155       3.63561
                        -----------------------------------------
Total Dipole Moment    :     -0.15832      -0.06360       0.01435
                        -----------------------------------------
Magnitude (a.u.)       :      0.17122
Magnitude (Debye)      :      0.43520

                             ****ORCA TERMINATED NORMALLY****
TOTAL RUN TIME: 0 days 0 hours 0 minutes 6 seconds 380 msec
