                         Program Version 3.0.3 - RELEASE   -
|  1> ! RI PBE def2-SVP def2-SVP/J NBO PAL2
|  2> % maxcore 2000
|  3> % output
|  4>     # printlevel mini
|  5>     print[ P_Basis ] 0
|  6>     print[ P_SCFInfo ] 1
|  7>     print[ P_SCFIterInfo ] 1
|  8>     print[ P_OrbEn ] 0
|  9>     print[ P_Cartesian ] 0
| 10> end
| 11> *xyz 0 1
| 12>  C        3.5488360000    -1.5098180000     0.0219240000
| 13>  C        3.0215300000    -0.0993740000    -0.1787130000
| 14>  C        3.2199790000     0.7992530000     1.0431710000
| 15>  C        4.6538040000     1.0710600000     1.3339480000
| 16>  N        5.1598460000     0.7441520000     2.4468690000
| 17>  O        6.5022570000     1.0830110000     2.5220170000
| 18>  H        3.3899780000    -2.1214830000    -0.8689320000
| 19>  H        3.0456650000    -2.0007290000     0.8594120000
| 20>  H        4.6192430000    -1.5081840000     0.2412980000
| 21>  H        1.9532390000    -0.1330690000    -0.4133010000
| 22>  H        3.5082840000     0.3596680000    -1.0468220000
| 23>  H        2.7634820000     0.3484890000     1.9285280000
| 24>  H        2.7150490000     1.7566550000     0.8670710000
| 25>  H        5.2721630000     1.5538700000     0.5718990000
| 26>  H        6.7505430000     0.7851110000     3.4012320000
| 27> *
| 28>
| 29>                          ****END OF INPUT****
 Total Charge           Charge          ....    0
 Multiplicity           Mult            ....    1
 Number of Electrons    NEL             ....   48
 Basis Dimension        Dim             ....  129

MULLIKEN ATOMIC CHARGES
-----------------------
   0 C :   -0.032608
   1 C :   -0.065893
   2 C :    0.070849
   3 C :   -0.062035
   4 N :   -0.045914
   5 O :   -0.183367
   6 H :    0.025415
   7 H :    0.023073
   8 H :    0.033960
   9 H :    0.018204
  10 H :    0.012715
  11 H :    0.015004
  12 H :    0.024146
  13 H :   -0.003637
  14 H :    0.170088
Sum of atomic charges:   -0.0000000

LOEWDIN ATOMIC CHARGES
----------------------
   0 C :   -0.069800
   1 C :   -0.044463
   2 C :   -0.047737
   3 C :   -0.034921
   4 N :   -0.018509
   5 O :   -0.059987
   6 H :    0.027713
   7 H :    0.027120
   8 H :    0.027292
   9 H :    0.026556
  10 H :    0.022692
  11 H :    0.031925
  12 H :    0.037042
  13 H :    0.002883
  14 H :    0.072194

  Mayer bond orders larger than 0.1
B(  0-C ,  1-C ) :   1.1121 B(  0-C ,  6-H ) :   0.9628 B(  0-C ,  7-H ) :   0.9653
B(  0-C ,  8-H ) :   0.9635 B(  1-C ,  2-C ) :   1.0827 B(  1-C ,  9-H ) :   0.9353
B(  1-C , 10-H ) :   0.9409 B(  2-C ,  3-C ) :   1.0492 B(  2-C , 11-H ) :   0.9241
B(  2-C , 12-H ) :   0.9121 B(  3-C ,  4-N ) :   1.8935 B(  3-C ,  5-O ) :   0.1115
B(  3-C , 13-H ) :   0.9361 B(  4-N ,  5-O ) :   0.9876 B(  5-O , 14-H ) :   0.9765

FINAL SINGLE POINT ENERGY      -287.186997175302

DIPOLE MOMENT
-------------
                                X             Y             Z
Electronic contribution:      5.17725       3.74688       5.07600
Nuclear contribution   :     -5.27436      -3.78689      -5.13436
                        -----------------------------------------
Total Dipole Moment    :     -0.09710      -0.04001      -0.05836
                        -----------------------------------------
Magnitude (a.u.)       :      0.12015
Magnitude (Debye)      :      0.30540

                             ****ORCA TERMINATED NORMALLY****
TOTAL RUN TIME: 0 days 0 hours 0 minutes 6 seconds 452 msec
