                         Program Version 3.0.3 - RELEASE   -
|  1> ! RI PBE def2-SVP def2-SVP/J NBO PAL2
|  2> % maxcore 2000
|  3> % output
|  4>     # printlevel mini
|  5>     print[ P_Basis ] 0
|  6>     print[ P_SCFInfo ] 1
|  7>     print[ P_SCFIterInfo ] 1
|  8>     print[ P_OrbEn ] 0
|  9>     print[ P_Cartesian ] 0
| 10> end
| 11> *xyz 0 1
| 12>  C        1.0290780000    -0.2611810000     0.0576010000
| 13>  C        2.5468250000    -0.2082010000     0.0354160000
| 14>  C        3.0754190000     1.2126220000     0.0595080000
| 15>  C        4.5900730000     1.2899710000     0.0380550000
| 16>  N        5.0937000000     2.5518470000     0.0589430000
| 17>  O        5.3067120000     0.3128120000     0.0063260000
| 18>  H        0.6697420000    -1.2923400000     0.0397400000
| 19>  H        0.5982750000     0.2533510000    -0.8065030000
| 20>  H        0.6254580000     0.2133360000     0.9570090000
| 21>  H        2.9318140000    -0.7157010000    -0.8527880000
| 22>  H        2.9586490000    -0.7551870000     0.8874020000
| 23>  H        2.7164770000     1.7395490000     0.9523950000
| 24>  H        2.6896600000     1.7792270000    -0.7971500000
| 25>  H        4.5030290000     3.3617790000     0.0857490000
| 26>  H        6.0913900000     2.6709360000     0.0470150000
| 27> *
| 28>
| 29>                          ****END OF INPUT****
 Total Charge           Charge          ....    0
 Multiplicity           Mult            ....    1
 Number of Electrons    NEL             ....   48
 Basis Dimension        Dim             ....  129

MULLIKEN ATOMIC CHARGES
-----------------------
   0 C :    0.004274
   1 C :   -0.039931
   2 C :   -0.063687
   3 C :   -0.000493
   4 N :   -0.049166
   5 O :   -0.206093
   6 H :    0.018108
   7 H :    0.011524
   8 H :    0.010869
   9 H :    0.023811
  10 H :    0.024585
  11 H :    0.024748
  12 H :    0.025388
  13 H :    0.102847
  14 H :    0.113215
Sum of atomic charges:   -0.0000000

LOEWDIN ATOMIC CHARGES
----------------------
   0 C :   -0.065201
   1 C :   -0.040958
   2 C :   -0.077558
   3 C :    0.027877
   4 N :    0.005991
   5 O :   -0.188603
   6 H :    0.027298
   7 H :    0.022354
   8 H :    0.022219
   9 H :    0.029791
  10 H :    0.029992
  11 H :    0.033363
  12 H :    0.033521
  13 H :    0.068611
  14 H :    0.071303

  Mayer bond orders larger than 0.1
B(  0-C ,  1-C ) :   1.1145 B(  0-C ,  6-H ) :   0.9620 B(  0-C ,  7-H ) :   0.9635
B(  0-C ,  8-H ) :   0.9634 B(  1-C ,  2-C ) :   1.0995 B(  1-C ,  9-H ) :   0.9397
B(  1-C , 10-H ) :   0.9395 B(  2-C ,  3-C ) :   0.9384 B(  2-C , 11-H ) :   0.9210
B(  2-C , 12-H ) :   0.9204 B(  3-C ,  4-N ) :   1.2626 B(  3-C ,  5-O ) :   2.1067
B(  4-N , 13-H ) :   0.9445 B(  4-N , 14-H ) :   0.9377

FINAL SINGLE POINT ENERGY      -287.271480204488

DIPOLE MOMENT
-------------
                                X             Y             Z
Electronic contribution:      7.74213       1.49303      -0.08382
Nuclear contribution   :     -8.20537      -0.21654       0.11893
                        -----------------------------------------
Total Dipole Moment    :     -0.46324       1.27650       0.03512
                        -----------------------------------------
Magnitude (a.u.)       :      1.35841
Magnitude (Debye)      :      3.45279

                             ****ORCA TERMINATED NORMALLY****
TOTAL RUN TIME: 0 days 0 hours 0 minutes 6 seconds 113 msec
