                         Program Version 3.0.3 - RELEASE   -
|  1> ! RI PBE def2-SVP def2-SVP/J NBO PAL2
|  2> % maxcore 2000
|  3> % output
|  4>     # printlevel mini
|  5>     print[ P_Basis ] 0
|  6>     print[ P_SCFInfo ] 1
|  7>     print[ P_SCFIterInfo ] 1
|  8>     print[ P_OrbEn ] 0
|  9>     print[ P_Cartesian ] 0
| 10> end
| 11> *xyz 0 1
| 12>  C        1.2713660000     0.7855480000    -0.1241500000
| 13>  C        2.1232520000    -0.1616030000     0.2407930000
| 14>  C        3.1593210000    -0.7503940000    -0.6598300000
| 15>  N        4.4930930000    -0.5921670000    -0.1213970000
| 16>  C        5.3325040000    -1.6289620000     0.0964420000
| 17>  O        5.0896080000    -2.7893480000    -0.1407980000
| 18>  H        0.5254420000     1.1739800000     0.5591190000
| 19>  H        1.2831030000     1.1993140000    -1.1281690000
| 20>  H        2.0954520000    -0.5596810000     1.2528060000
| 21>  H        3.0919100000    -0.3017220000    -1.6567020000
| 22>  H        3.0112320000    -1.8278980000    -0.7703010000
| 23>  H        4.8040310000     0.3306170000     0.1319680000
| 24>  H        6.2964840000    -1.2983820000     0.5271260000
| 25> *
| 26>
| 27>                          ****END OF INPUT****
 Total Charge           Charge          ....    0
 Multiplicity           Mult            ....    1
 Number of Electrons    NEL             ....   46
 Basis Dimension        Dim             ....  119

MULLIKEN ATOMIC CHARGES
-----------------------
   0 C :   -0.034434
   1 C :   -0.114771
   2 C :    0.188880
   3 N :   -0.157940
   4 C :    0.133518
   5 O :   -0.238021
   6 H :    0.033901
   7 H :    0.022982
   8 H :    0.013633
   9 H :    0.013807
  10 H :    0.046597
  11 H :    0.113441
  12 H :   -0.021594
Sum of atomic charges:   -0.0000000

LOEWDIN ATOMIC CHARGES
----------------------
   0 C :   -0.057271
   1 C :   -0.042596
   2 C :    0.026155
   3 N :    0.000696
   4 C :    0.048068
   5 O :   -0.184993
   6 H :    0.028405
   7 H :    0.023452
   8 H :    0.029421
   9 H :    0.026450
  10 H :    0.043156
  11 H :    0.073304
  12 H :   -0.014246

  Mayer bond orders larger than 0.1
B(  0-C ,  1-C ) :   1.9902 B(  0-C ,  6-H ) :   0.9457 B(  0-C ,  7-H ) :   0.9484
B(  1-C ,  2-C ) :   1.0778 B(  1-C ,  8-H ) :   0.9580 B(  2-C ,  3-N ) :   0.9528
B(  2-C ,  9-H ) :   0.9292 B(  2-C , 10-H ) :   0.9027 B(  3-N ,  4-C ) :   1.2214
B(  3-N ,  5-O ) :   0.1062 B(  3-N , 11-H ) :   0.9315 B(  4-C ,  5-O ) :   2.0100
B(  4-C , 12-H ) :   0.9228

FINAL SINGLE POINT ENERGY      -286.035615371418

DIPOLE MOMENT
-------------
                                X             Y             Z
Electronic contribution:      3.76719      -3.24189       0.31442
Nuclear contribution   :     -3.96924       4.57956      -0.21397
                        -----------------------------------------
Total Dipole Moment    :     -0.20205       1.33767       0.10044
                        -----------------------------------------
Magnitude (a.u.)       :      1.35656
Magnitude (Debye)      :      3.44811

                             ****ORCA TERMINATED NORMALLY****
TOTAL RUN TIME: 0 days 0 hours 0 minutes 5 seconds 667 msec
