                         Program Version 3.0.3 - RELEASE   -
|  1> ! RI PBE def2-SVP def2-SVP/J NBO PAL2
|  2> % maxcore 2000
|  3> % output
|  4>     # printlevel mini
|  5>     print[ P_Basis ] 0
|  6>     print[ P_SCFInfo ] 1
|  7>     print[ P_SCFIterInfo ] 1
|  8>     print[ P_OrbEn ] 0
|  9>     print[ P_Cartesian ] 0
| 10> end
| 11> *xyz 0 1
| 12>  C        0.7781330000     0.0491350000    -0.1820630000
| 13>  C        2.2264210000    -0.2981830000    -0.1934920000
| 14>  C        3.1465180000     0.3851350000    -0.8671100000
| 15>  N        4.5012780000     0.0876680000    -0.8979110000
| 16>  C        5.4341210000     0.7930410000    -1.5901340000
| 17>  O        6.6105810000     0.5282420000    -1.6138810000
| 18>  H        0.4251230000     0.2569920000     0.8330850000
| 19>  H        0.1668450000    -0.7740400000    -0.5655400000
| 20>  H        0.5750960000     0.9303820000    -0.7942040000
| 21>  H        2.5351380000    -1.1646190000     0.3882150000
| 22>  H        2.8772450000     1.2552520000    -1.4588050000
| 23>  H        4.8455430000    -0.7059010000    -0.3765210000
| 24>  H        4.9942690000     1.6463170000    -2.1395290000
| 25> *
| 26>
| 27>                          ****END OF INPUT****
 Total Charge           Charge          ....    0
 Multiplicity           Mult            ....    1
 Number of Electrons    NEL             ....   46
 Basis Dimension        Dim             ....  119

MULLIKEN ATOMIC CHARGES
-----------------------
   0 C :    0.024340
   1 C :   -0.131580
   2 C :    0.059148
   3 N :   -0.051562
   4 C :    0.117056
   5 O :   -0.211035
   6 H :    0.036277
   7 H :    0.039090
   8 H :    0.020801
   9 H :   -0.004878
  10 H :    0.004590
  11 H :    0.116427
  12 H :   -0.018676
Sum of atomic charges:   -0.0000000

LOEWDIN ATOMIC CHARGES
----------------------
   0 C :   -0.060809
   1 C :   -0.085802
   2 C :   -0.004507
   3 N :    0.040326
   4 C :    0.054413
   5 O :   -0.168573
   6 H :    0.036091
   7 H :    0.036728
   8 H :    0.031788
   9 H :    0.022605
  10 H :    0.026529
  11 H :    0.085097
  12 H :   -0.013886

  Mayer bond orders larger than 0.1
B(  0-C ,  1-C ) :   1.0987 B(  0-C ,  6-H ) :   0.9485 B(  0-C ,  7-H ) :   0.9488
B(  0-C ,  8-H ) :   0.9629 B(  1-C ,  2-C ) :   1.8173 B(  1-C ,  9-H ) :   0.9598
B(  2-C ,  3-N ) :   1.1118 B(  2-C , 10-H ) :   0.9475 B(  3-N ,  4-C ) :   1.1603
B(  3-N , 11-H ) :   0.9188 B(  4-C ,  5-O ) :   2.0701 B(  4-C , 12-H ) :   0.9211

FINAL SINGLE POINT ENERGY      -286.048070367430

DIPOLE MOMENT
-------------
                                X             Y             Z
Electronic contribution:      8.36276       0.23014      -1.71294
Nuclear contribution   :     -9.59179      -0.36234       2.03888
                        -----------------------------------------
Total Dipole Moment    :     -1.22903      -0.13220       0.32594
                        -----------------------------------------
Magnitude (a.u.)       :      1.27837
Magnitude (Debye)      :      3.24936

                             ****ORCA TERMINATED NORMALLY****
TOTAL RUN TIME: 0 days 0 hours 0 minutes 5 seconds 426 msec
