                         Program Version 3.0.3 - RELEASE   -
|  1> ! RI PBE def2-SVP def2-SVP/J NBO PAL2
|  2> % maxcore 2000
|  3> % output
|  4>     # printlevel mini
|  5>     print[ P_Basis ] 0
|  6>     print[ P_SCFInfo ] 1
|  7>     print[ P_SCFIterInfo ] 1
|  8>     print[ P_OrbEn ] 0
|  9>     print[ P_Cartesian ] 0
| 10> end
| 11> *xyz 0 1
| 12>  C        0.7605630000    -0.3002290000    -1.0230060000
| 13>  C        2.0412380000     0.1622700000    -0.3836370000
| 14>  C        3.1078760000     0.4919590000    -1.1120390000
| 15>  N        1.9828000000     0.2039510000     1.0128820000
| 16>  C        2.9558350000     0.5754560000     1.8908300000
| 17>  O        2.8016580000     0.5746830000     3.0877370000
| 18>  H        0.3615430000     0.4672600000    -1.6880920000
| 19>  H       -0.0085020000    -0.5285950000    -0.2829130000
| 20>  H        0.9276250000    -1.2015390000    -1.6148830000
| 21>  H        3.0488590000     0.4248720000    -2.1898400000
| 22>  H        4.0447440000     0.8277970000    -0.6912450000
| 23>  H        1.1177740000    -0.0721910000     1.4521490000
| 24>  H        3.8989770000     0.8768150000     1.4100770000
| 25> *
| 26>
| 27>                          ****END OF INPUT****
 Total Charge           Charge          ....    0
 Multiplicity           Mult            ....    1
 Number of Electrons    NEL             ....   46
 Basis Dimension        Dim             ....  119

MULLIKEN ATOMIC CHARGES
-----------------------
   0 C :    0.022265
   1 C :   -0.080662
   2 C :   -0.073906
   3 N :   -0.045681
   4 C :    0.126073
   5 O :   -0.211850
   6 H :    0.058529
   7 H :    0.014925
   8 H :    0.056874
   9 H :    0.013398
  10 H :    0.014913
  11 H :    0.110662
  12 H :   -0.005540
Sum of atomic charges:   -0.0000000

LOEWDIN ATOMIC CHARGES
----------------------
   0 C :   -0.060277
   1 C :    0.003709
   2 C :   -0.126456
   3 N :    0.031459
   4 C :    0.068774
   5 O :   -0.161694
   6 H :    0.047263
   7 H :    0.029505
   8 H :    0.047126
   9 H :    0.028416
  10 H :    0.019855
  11 H :    0.078917
  12 H :   -0.006597

  Mayer bond orders larger than 0.1
B(  0-C ,  1-C ) :   1.0606 B(  0-C ,  6-H ) :   0.9527 B(  0-C ,  7-H ) :   0.9492
B(  0-C ,  8-H ) :   0.9519 B(  1-C ,  2-C ) :   1.9162 B(  1-C ,  3-N ) :   1.0984
B(  2-C ,  9-H ) :   0.9325 B(  2-C , 10-H ) :   0.9352 B(  3-N ,  4-C ) :   1.1557
B(  3-N , 11-H ) :   0.9046 B(  4-C ,  5-O ) :   2.0692 B(  4-C , 12-H ) :   0.9272

FINAL SINGLE POINT ENERGY      -286.041636096957

DIPOLE MOMENT
-------------
                                X             Y             Z
Electronic contribution:      1.70873       0.85758       6.30006
Nuclear contribution   :     -2.29083      -1.10397      -7.38765
                        -----------------------------------------
Total Dipole Moment    :     -0.58210      -0.24639      -1.08758
                        -----------------------------------------
Magnitude (a.u.)       :      1.25793
Magnitude (Debye)      :      3.19740

                             ****ORCA TERMINATED NORMALLY****
TOTAL RUN TIME: 0 days 0 hours 0 minutes 5 seconds 740 msec
