                         Program Version 3.0.3 - RELEASE   -
|  1> ! RI PBE def2-SVP def2-SVP/J NBO PAL2
|  2> % maxcore 2000
|  3> % output
|  4>     # printlevel mini
|  5>     print[ P_Basis ] 0
|  6>     print[ P_SCFInfo ] 1
|  7>     print[ P_SCFIterInfo ] 1
|  8>     print[ P_OrbEn ] 0
|  9>     print[ P_Cartesian ] 0
| 10> end
| 11> *xyz 0 1
| 12>  C        1.0389090000     0.0211520000    -0.0817100000
| 13>  C        2.5348120000     0.0416700000    -0.0229920000
| 14>  C        3.1628150000    -0.5551440000     1.1325760000
| 15>  O        2.5660780000    -1.0702260000     2.0555820000
| 16>  C        3.2666270000     0.6010600000    -1.0204640000
| 17>  N        4.6095710000     0.7108150000    -1.1383740000
| 18>  H        0.6584320000    -1.0031100000    -0.0483810000
| 19>  H        0.6715230000     0.4963190000    -0.9936130000
| 20>  H        0.6048630000     0.5397820000     0.7771380000
| 21>  H        4.2762760000    -0.5319300000     1.1610250000
| 22>  H        2.7304740000     1.0327480000    -1.8618440000
| 23>  H        5.2380760000     0.3600570000    -0.4409760000
| 24>  H        5.0090650000     1.1550160000    -1.9410780000
| 25> *
| 26>
| 27>                          ****END OF INPUT****
 Total Charge           Charge          ....    0
 Multiplicity           Mult            ....    1
 Number of Electrons    NEL             ....   46
 Basis Dimension        Dim             ....  119

MULLIKEN ATOMIC CHARGES
-----------------------
   0 C :    0.061887
   1 C :   -0.142247
   2 C :    0.082724
   3 O :   -0.194262
   4 C :   -0.000052
   5 N :   -0.048213
   6 H :    0.032368
   7 H :    0.000302
   8 H :    0.034952
   9 H :   -0.068062
  10 H :   -0.001157
  11 H :    0.116171
  12 H :    0.125588
Sum of atomic charges:   -0.0000000

LOEWDIN ATOMIC CHARGES
----------------------
   0 C :   -0.048379
   1 C :   -0.159705
   2 C :    0.048944
   3 O :   -0.150598
   4 C :    0.033779
   5 N :    0.033761
   6 H :    0.035169
   7 H :    0.023589
   8 H :    0.035816
   9 H :   -0.029647
  10 H :    0.028228
  11 H :    0.070143
  12 H :    0.078900

  Mayer bond orders larger than 0.1
B(  0-C ,  1-C ) :   1.0809 B(  0-C ,  6-H ) :   0.9480 B(  0-C ,  7-H ) :   0.9514
B(  0-C ,  8-H ) :   0.9481 B(  1-C ,  2-C ) :   1.0915 B(  1-C ,  4-C ) :   1.5828
B(  2-C ,  3-O ) :   2.1012 B(  2-C ,  9-H ) :   0.9306 B(  4-C ,  5-N ) :   1.3289
B(  4-C , 10-H ) :   0.9329 B(  5-N , 11-H ) :   0.9510 B(  5-N , 12-H ) :   0.9511

FINAL SINGLE POINT ENERGY      -286.035698025293

DIPOLE MOMENT
-------------
                                X             Y             Z
Electronic contribution:      1.96911      -1.32311       2.59429
Nuclear contribution   :     -0.90682       2.20403      -4.17370
                        -----------------------------------------
Total Dipole Moment    :      1.06230       0.88092      -1.57941
                        -----------------------------------------
Magnitude (a.u.)       :      2.09739
Magnitude (Debye)      :      5.33113

                             ****ORCA TERMINATED NORMALLY****
TOTAL RUN TIME: 0 days 0 hours 0 minutes 5 seconds 746 msec
