                         Program Version 3.0.3 - RELEASE   -
|  1> ! RI PBE def2-SVP def2-SVP/J NBO PAL2
|  2> % maxcore 2000
|  3> % output
|  4>     # printlevel mini
|  5>     print[ P_Basis ] 0
|  6>     print[ P_SCFInfo ] 1
|  7>     print[ P_SCFIterInfo ] 1
|  8>     print[ P_OrbEn ] 0
|  9>     print[ P_Cartesian ] 0
| 10> end
| 11> *xyz 0 1
| 12>  C        1.0346960000    -0.0889840000     0.0216510000
| 13>  C        2.5554460000    -0.0721110000     0.0879670000
| 14>  C        3.0267770000     1.1005130000     0.9526920000
| 15>  N        3.0128780000    -1.3642670000     0.5876780000
| 16>  C        3.1001160000     0.0664410000    -1.3336000000
| 17>  O        4.5119700000     0.0353480000    -1.3992610000
| 18>  H        0.6103640000    -0.2370590000     1.0185890000
| 19>  H        0.6918210000    -0.9088510000    -0.6125360000
| 20>  H        0.6415090000     0.8524520000    -0.3709420000
| 21>  H        2.6156570000     1.0159770000     1.9623890000
| 22>  H        2.7062420000     2.0645420000     0.5446310000
| 23>  H        4.1163960000     1.1078250000     1.0479100000
| 24>  H        2.8057300000    -1.4597910000     1.5749420000
| 25>  H        4.0191710000    -1.4275190000     0.4784840000
| 26>  H        2.7035530000     0.9821730000    -1.7917470000
| 27>  H        2.7544110000    -0.7870240000    -1.9207220000
| 28>  H        4.8503730000     0.8744350000    -1.0784340000
| 29> *
| 30>
| 31>                          ****END OF INPUT****
 Total Charge           Charge          ....    0
 Multiplicity           Mult            ....    1
 Number of Electrons    NEL             ....   50
 Basis Dimension        Dim             ....  139

MULLIKEN ATOMIC CHARGES
-----------------------
   0 C :    0.082741
   1 C :   -0.285470
   2 C :    0.044335
   3 N :   -0.148466
   4 C :    0.214411
   5 O :   -0.277063
   6 H :    0.005478
   7 H :    0.020789
   8 H :    0.004968
   9 H :    0.008490
  10 H :    0.005730
  11 H :    0.001212
  12 H :    0.076755
  13 H :    0.081932
  14 H :   -0.004624
  15 H :    0.014929
  16 H :    0.153852
Sum of atomic charges:   -0.0000000

LOEWDIN ATOMIC CHARGES
----------------------
   0 C :   -0.050561
   1 C :   -0.051540
   2 C :   -0.074092
   3 N :   -0.086786
   4 C :    0.059502
   5 O :   -0.112697
   6 H :    0.023402
   7 H :    0.027892
   8 H :    0.022059
   9 H :    0.024006
  10 H :    0.021752
  11 H :    0.014613
  12 H :    0.045849
  13 H :    0.042962
  14 H :    0.004587
  15 H :    0.022887
  16 H :    0.066166

  Mayer bond orders larger than 0.1
B(  0-C ,  1-C ) :   1.0493 B(  0-C ,  6-H ) :   0.9507 B(  0-C ,  7-H ) :   0.9533
B(  0-C ,  8-H ) :   0.9549 B(  1-C ,  2-C ) :   1.0234 B(  1-C ,  3-N ) :   1.0466
B(  1-C ,  4-C ) :   0.9860 B(  2-C ,  9-H ) :   0.9520 B(  2-C , 10-H ) :   0.9500
B(  2-C , 11-H ) :   0.9493 B(  3-N , 12-H ) :   0.9647 B(  3-N , 13-H ) :   0.9521
B(  4-C ,  5-O ) :   1.0706 B(  4-C , 14-H ) :   0.9440 B(  4-C , 15-H ) :   0.9281
B(  5-O , 16-H ) :   0.9824

FINAL SINGLE POINT ENERGY      -288.428599378419

DIPOLE MOMENT
-------------
                                X             Y             Z
Electronic contribution:      3.30360      -1.73344      -2.23396
Nuclear contribution   :     -3.30683       2.44852       2.70273
                        -----------------------------------------
Total Dipole Moment    :     -0.00323       0.71509       0.46877
                        -----------------------------------------
Magnitude (a.u.)       :      0.85505
Magnitude (Debye)      :      2.17336

                             ****ORCA TERMINATED NORMALLY****
TOTAL RUN TIME: 0 days 0 hours 0 minutes 6 seconds 853 msec
