                         Program Version 3.0.3 - RELEASE   -
|  1> ! RI PBE def2-SVP def2-SVP/J NBO PAL2
|  2> % maxcore 2000
|  3> % output
|  4>     # printlevel mini
|  5>     print[ P_Basis ] 0
|  6>     print[ P_SCFInfo ] 1
|  7>     print[ P_SCFIterInfo ] 1
|  8>     print[ P_OrbEn ] 0
|  9>     print[ P_Cartesian ] 0
| 10> end
| 11> *xyz 0 1
| 12>  C        1.0431590000    -0.1990230000    -0.0623760000
| 13>  C        2.4832930000     0.1866420000    -0.3631970000
| 14>  C        2.8297630000     0.0034970000    -1.8327840000
| 15>  N        2.7478150000     1.5498870000     0.0597710000
| 16>  C        3.6504750000     1.8826000000     1.0069210000
| 17>  O        4.3482590000     1.1075770000     1.6207070000
| 18>  H        0.8566630000    -1.2378930000    -0.3435650000
| 19>  H        0.3438540000     0.4275220000    -0.6254680000
| 20>  H        0.8243820000    -0.0861240000     1.0008170000
| 21>  H        3.1537660000    -0.4262610000     0.2432460000
| 22>  H        2.2009520000     0.6380540000    -2.4657060000
| 23>  H        2.6689740000    -1.0324600000    -2.1394570000
| 24>  H        3.8738040000     0.2595590000    -2.0209180000
| 25>  H        2.2313130000     2.2972830000    -0.3747120000
| 26>  H        3.6914170000     2.9762500000     1.1738320000
| 27> *
| 28>
| 29>                          ****END OF INPUT****
 Total Charge           Charge          ....    0
 Multiplicity           Mult            ....    1
 Number of Electrons    NEL             ....   48
 Basis Dimension        Dim             ....  129

MULLIKEN ATOMIC CHARGES
-----------------------
   0 C :    0.015802
   1 C :   -0.038380
   2 C :    0.020454
   3 N :   -0.130494
   4 C :    0.128291
   5 O :   -0.242094
   6 H :    0.025366
   7 H :    0.007505
   8 H :    0.033294
   9 H :    0.032521
  10 H :    0.007602
  11 H :    0.024838
  12 H :    0.032028
  13 H :    0.107049
  14 H :   -0.023783
Sum of atomic charges:   -0.0000000

LOEWDIN ATOMIC CHARGES
----------------------
   0 C :   -0.063801
   1 C :    0.010907
   2 C :   -0.062992
   3 N :    0.007700
   4 C :    0.044379
   5 O :   -0.190561
   6 H :    0.031426
   7 H :    0.021669
   8 H :    0.031362
   9 H :    0.032756
  10 H :    0.021548
  11 H :    0.031079
  12 H :    0.031348
  13 H :    0.069932
  14 H :   -0.016753

  Mayer bond orders larger than 0.1
B(  0-C ,  1-C ) :   1.0945 B(  0-C ,  6-H ) :   0.9614 B(  0-C ,  7-H ) :   0.9524
B(  0-C ,  8-H ) :   0.9629 B(  1-C ,  2-C ) :   1.0918 B(  1-C ,  3-N ) :   0.9354
B(  1-C ,  9-H ) :   0.9002 B(  2-C , 10-H ) :   0.9531 B(  2-C , 11-H ) :   0.9632
B(  2-C , 12-H ) :   0.9619 B(  3-N ,  4-C ) :   1.2316 B(  3-N ,  5-O ) :   0.1107
B(  3-N , 13-H ) :   0.9272 B(  4-C ,  5-O ) :   2.0046 B(  4-C , 14-H ) :   0.9222

FINAL SINGLE POINT ENERGY      -287.262908534840

DIPOLE MOMENT
-------------
                                X             Y             Z
Electronic contribution:      4.42622       3.11679       4.81800
Nuclear contribution   :     -5.41983      -2.78568      -5.78085
                        -----------------------------------------
Total Dipole Moment    :     -0.99361       0.33110      -0.96285
                        -----------------------------------------
Magnitude (a.u.)       :      1.42266
Magnitude (Debye)      :      3.61612

                             ****ORCA TERMINATED NORMALLY****
TOTAL RUN TIME: 0 days 0 hours 0 minutes 6 seconds 197 msec
