                         Program Version 3.0.3 - RELEASE   -
|  1> ! RI PBE def2-SVP def2-SVP/J NBO PAL2
|  2> % maxcore 2000
|  3> % output
|  4>     # printlevel mini
|  5>     print[ P_Basis ] 0
|  6>     print[ P_SCFInfo ] 1
|  7>     print[ P_SCFIterInfo ] 1
|  8>     print[ P_OrbEn ] 0
|  9>     print[ P_Cartesian ] 0
| 10> end
| 11> *xyz 0 1
| 12>  C        0.9665860000     0.2676690000     0.0033680000
| 13>  C        2.4579800000    -0.0108230000    -0.1306080000
| 14>  C        2.8742360000    -1.2866060000     0.5992010000
| 15>  N        2.2520200000    -2.4782800000     0.0171160000
| 16>  C        2.9041140000    -0.0300080000    -1.5924610000
| 17>  O        2.2463520000    -0.9984140000    -2.3706040000
| 18>  H        0.6524110000     0.2558330000     1.0511020000
| 19>  H        0.3751390000    -0.4674630000    -0.5467350000
| 20>  H        0.7167370000     1.2476800000    -0.4095990000
| 21>  H        3.0067000000     0.8080710000     0.3528900000
| 22>  H        2.6580550000    -1.1763940000     1.6724550000
| 23>  H        3.9578770000    -1.4063800000     0.5045460000
| 24>  H        1.2690270000    -2.5223100000     0.2570730000
| 25>  H        2.6815190000    -3.3198740000     0.3785660000
| 26>  H        3.9966360000    -0.1737880000    -1.6252140000
| 27>  H        2.6963080000     0.9425830000    -2.0505080000
| 28>  H        2.2544020000    -1.8113950000    -1.8359790000
| 29> *
| 30>
| 31>                          ****END OF INPUT****
 Total Charge           Charge          ....    0
 Multiplicity           Mult            ....    1
 Number of Electrons    NEL             ....   50
 Basis Dimension        Dim             ....  139

MULLIKEN ATOMIC CHARGES
-----------------------
   0 C :    0.021335
   1 C :   -0.174771
   2 C :    0.070780
   3 N :   -0.220146
   4 C :    0.223048
   5 O :   -0.299673
   6 H :    0.007401
   7 H :    0.018721
   8 H :    0.015735
   9 H :    0.003301
  10 H :    0.005248
  11 H :    0.014898
  12 H :    0.103875
  13 H :    0.102639
  14 H :   -0.016070
  15 H :   -0.005746
  16 H :    0.129426
Sum of atomic charges:    0.0000000

LOEWDIN ATOMIC CHARGES
----------------------
   0 C :   -0.062825
   1 C :   -0.074899
   2 C :    0.008723
   3 N :   -0.072998
   4 C :    0.060094
   5 O :   -0.138517
   6 H :    0.020721
   7 H :    0.021582
   8 H :    0.029620
   9 H :    0.029707
  10 H :    0.004731
  11 H :    0.022679
  12 H :    0.057246
  13 H :    0.059211
  14 H :   -0.002092
  15 H :    0.013375
  16 H :    0.023641

  Mayer bond orders larger than 0.1
B(  0-C ,  1-C ) :   1.0682 B(  0-C ,  6-H ) :   0.9616 B(  0-C ,  7-H ) :   0.9532
B(  0-C ,  8-H ) :   0.9601 B(  1-C ,  2-C ) :   1.0591 B(  1-C ,  4-C ) :   1.0355
B(  1-C ,  9-H ) :   0.8943 B(  2-C ,  3-N ) :   1.0620 B(  2-C , 10-H ) :   0.9355
B(  2-C , 11-H ) :   0.9376 B(  3-N , 12-H ) :   0.9604 B(  3-N , 13-H ) :   0.9621
B(  3-N , 16-H ) :   0.1557 B(  4-C ,  5-O ) :   1.0935 B(  4-C , 14-H ) :   0.9279
B(  4-C , 15-H ) :   0.9366 B(  5-O , 16-H ) :   0.9347

FINAL SINGLE POINT ENERGY      -288.431015660047

DIPOLE MOMENT
-------------
                                X             Y             Z
Electronic contribution:      0.76645      -1.46406      -2.81715
Nuclear contribution   :     -0.67774       1.06726       4.04913
                        -----------------------------------------
Total Dipole Moment    :      0.08871      -0.39679       1.23198
                        -----------------------------------------
Magnitude (a.u.)       :      1.29734
Magnitude (Debye)      :      3.29758

                             ****ORCA TERMINATED NORMALLY****
TOTAL RUN TIME: 0 days 0 hours 0 minutes 6 seconds 349 msec
