                         Program Version 3.0.3 - RELEASE   -
|  1> ! RI PBE def2-SVP def2-SVP/J NBO PAL2
|  2> % maxcore 2000
|  3> % output
|  4>     # printlevel mini
|  5>     print[ P_Basis ] 0
|  6>     print[ P_SCFInfo ] 1
|  7>     print[ P_SCFIterInfo ] 1
|  8>     print[ P_OrbEn ] 0
|  9>     print[ P_Cartesian ] 0
| 10> end
| 11> *xyz 0 1
| 12>  C        1.4850200000     1.0378090000    -0.5974160000
| 13>  C        1.5914870000     0.3073740000     0.7331090000
| 14>  C        2.9153470000     0.4673670000     1.4881640000
| 15>  N        2.8246480000     0.1114480000     2.9014190000
| 16>  C        4.0586380000    -0.3605190000     0.9245710000
| 17>  O        4.3285580000     0.0071610000    -0.4131140000
| 18>  H        1.6626090000     2.1092520000    -0.4662460000
| 19>  H        0.4848210000     0.9199480000    -1.0218360000
| 20>  H        2.2132840000     0.6693200000    -1.3179540000
| 21>  H        0.7984830000     0.6702750000     1.3977410000
| 22>  H        1.3988120000    -0.7644460000     0.5914780000
| 23>  H        3.2205580000     1.5199710000     1.4392320000
| 24>  H        2.4564330000    -0.8295370000     2.9964060000
| 25>  H        2.1676030000     0.7217080000     3.3715100000
| 26>  H        3.7842080000    -1.4264140000     0.9884000000
| 27>  H        4.9329030000    -0.2023480000     1.5662610000
| 28>  H        5.1069970000    -0.4709880000    -0.7052360000
| 29> *
| 30>
| 31>                          ****END OF INPUT****
 Total Charge           Charge          ....    0
 Multiplicity           Mult            ....    1
 Number of Electrons    NEL             ....   50
 Basis Dimension        Dim             ....  139

MULLIKEN ATOMIC CHARGES
-----------------------
   0 C :   -0.016503
   1 C :   -0.005600
   2 C :   -0.068898
   3 N :   -0.184119
   4 C :    0.185535
   5 O :   -0.267239
   6 H :    0.014886
   7 H :    0.009225
   8 H :    0.033493
   9 H :   -0.008651
  10 H :   -0.005895
  11 H :    0.004788
  12 H :    0.081562
  13 H :    0.087226
  14 H :   -0.020890
  15 H :    0.003617
  16 H :    0.157463
Sum of atomic charges:   -0.0000000

LOEWDIN ATOMIC CHARGES
----------------------
   0 C :   -0.072155
   1 C :   -0.059513
   2 C :   -0.012071
   3 N :   -0.090586
   4 C :    0.053948
   5 O :   -0.120181
   6 H :    0.023634
   7 H :    0.022226
   8 H :    0.024551
   9 H :    0.016242
  10 H :    0.018606
  11 H :    0.022225
  12 H :    0.047145
  13 H :    0.050284
  14 H :   -0.002814
  15 H :    0.006428
  16 H :    0.072030

  Mayer bond orders larger than 0.1
B(  0-C ,  1-C ) :   1.1076 B(  0-C ,  6-H ) :   0.9622 B(  0-C ,  7-H ) :   0.9547
B(  0-C ,  8-H ) :   0.9574 B(  1-C ,  2-C ) :   1.0391 B(  1-C ,  9-H ) :   0.9368
B(  1-C , 10-H ) :   0.9218 B(  2-C ,  3-N ) :   1.0776 B(  2-C ,  4-C ) :   1.0452
B(  2-C , 11-H ) :   0.9088 B(  3-N , 12-H ) :   0.9713 B(  3-N , 13-H ) :   0.9677
B(  4-C ,  5-O ) :   1.0957 B(  4-C , 14-H ) :   0.9203 B(  4-C , 15-H ) :   0.9353
B(  5-O , 16-H ) :   0.9765

FINAL SINGLE POINT ENERGY      -288.421292164232

DIPOLE MOMENT
-------------
                                X             Y             Z
Electronic contribution:      3.34416      -0.57967       0.33194
Nuclear contribution   :     -3.36588       0.17858      -0.22892
                        -----------------------------------------
Total Dipole Moment    :     -0.02172      -0.40109       0.10302
                        -----------------------------------------
Magnitude (a.u.)       :      0.41468
Magnitude (Debye)      :      1.05403

                             ****ORCA TERMINATED NORMALLY****
TOTAL RUN TIME: 0 days 0 hours 0 minutes 6 seconds 919 msec
