                         Program Version 3.0.3 - RELEASE   -
|  1> ! RI PBE def2-SVP def2-SVP/J NBO PAL2
|  2> % maxcore 2000
|  3> % output
|  4>     # printlevel mini
|  5>     print[ P_Basis ] 0
|  6>     print[ P_SCFInfo ] 1
|  7>     print[ P_SCFIterInfo ] 1
|  8>     print[ P_OrbEn ] 0
|  9>     print[ P_Cartesian ] 0
| 10> end
| 11> *xyz 0 1
| 12>  C        3.1129810000     1.4972600000     0.2957170000
| 13>  C        2.6533960000     0.0950930000    -0.0638740000
| 14>  C        3.2087180000    -0.9848590000     0.8557180000
| 15>  N        4.6513750000    -1.0949070000     0.8207520000
| 16>  C        5.2984660000    -1.9172550000    -0.0320580000
| 17>  O        4.7647990000    -2.6508260000    -0.8325310000
| 18>  H        2.6819170000     2.2403520000    -0.3782070000
| 19>  H        4.2001510000     1.5905060000     0.2266260000
| 20>  H        2.8164990000     1.7646300000     1.3147810000
| 21>  H        2.9395980000    -0.1459780000    -1.0917660000
| 22>  H        1.5605310000     0.0400070000    -0.0234580000
| 23>  H        2.8086460000    -1.9581350000     0.5666500000
| 24>  H        2.9080900000    -0.7927030000     1.8903370000
| 25>  H        5.2078830000    -0.5122640000     1.4213280000
| 26>  H        6.3979400000    -1.8590400000     0.0823850000
| 27> *
| 28>
| 29>                          ****END OF INPUT****
 Total Charge           Charge          ....    0
 Multiplicity           Mult            ....    1
 Number of Electrons    NEL             ....   48
 Basis Dimension        Dim             ....  129

MULLIKEN ATOMIC CHARGES
-----------------------
   0 C :   -0.042230
   1 C :   -0.046853
   2 C :    0.093701
   3 N :   -0.138685
   4 C :    0.116924
   5 O :   -0.237167
   6 H :    0.030624
   7 H :    0.016282
   8 H :    0.013292
   9 H :    0.032731
  10 H :    0.027677
  11 H :    0.029716
  12 H :    0.009522
  13 H :    0.114344
  14 H :   -0.019878
Sum of atomic charges:   -0.0000000

LOEWDIN ATOMIC CHARGES
----------------------
   0 C :   -0.073518
   1 C :   -0.055080
   2 C :    0.024049
   3 N :    0.002666
   4 C :    0.043784
   5 O :   -0.188920
   6 H :    0.031621
   7 H :    0.019943
   8 H :    0.022893
   9 H :    0.032378
  10 H :    0.031001
  11 H :    0.032483
  12 H :    0.021844
  13 H :    0.071212
  14 H :   -0.016356

  Mayer bond orders larger than 0.1
B(  0-C ,  1-C ) :   1.1117 B(  0-C ,  6-H ) :   0.9618 B(  0-C ,  7-H ) :   0.9648
B(  0-C ,  8-H ) :   0.9660 B(  1-C ,  2-C ) :   1.0900 B(  1-C ,  9-H ) :   0.9356
B(  1-C , 10-H ) :   0.9360 B(  2-C ,  3-N ) :   0.9990 B(  2-C , 11-H ) :   0.9250
B(  2-C , 12-H ) :   0.9425 B(  3-N ,  4-C ) :   1.2275 B(  3-N , 13-H ) :   0.9285
B(  4-C ,  5-O ) :   2.0097 B(  4-C , 14-H ) :   0.9237

FINAL SINGLE POINT ENERGY      -287.260105058269

DIPOLE MOMENT
-------------
                                X             Y             Z
Electronic contribution:      3.82740      -6.38697      -1.33590
Nuclear contribution   :     -3.80894       7.40187       2.30601
                        -----------------------------------------
Total Dipole Moment    :      0.01846       1.01490       0.97011
                        -----------------------------------------
Magnitude (a.u.)       :      1.40409
Magnitude (Debye)      :      3.56892

                             ****ORCA TERMINATED NORMALLY****
TOTAL RUN TIME: 0 days 0 hours 0 minutes 6 seconds 557 msec
