                         Program Version 3.0.3 - RELEASE   -
|  1> ! RI PBE def2-SVP def2-SVP/J NBO PAL2
|  2> % maxcore 2000
|  3> % output
|  4>     # printlevel mini
|  5>     print[ P_Basis ] 0
|  6>     print[ P_SCFInfo ] 1
|  7>     print[ P_SCFIterInfo ] 1
|  8>     print[ P_OrbEn ] 0
|  9>     print[ P_Cartesian ] 0
| 10> end
| 11> *xyz 0 1
| 12>  C        1.5908610000    -0.9520850000    -0.3118620000
| 13>  C        2.9152840000    -0.1960270000    -0.2992550000
| 14>  C        2.8643040000     1.0200180000     0.5567100000
| 15>  N        3.6441970000     1.1391560000     1.5477290000
| 16>  O        3.4433060000     2.3256030000     2.2224000000
| 17>  C        4.3367180000     2.3995800000     3.3112710000
| 18>  H        1.6434210000    -1.8150430000    -0.9788360000
| 19>  H        0.7721730000    -0.3146520000    -0.6560410000
| 20>  H        1.3370600000    -1.3106580000     0.6879950000
| 21>  H        3.1678540000     0.1065480000    -1.3227200000
| 22>  H        3.7247770000    -0.8366160000     0.0573350000
| 23>  H        2.1387810000     1.8062310000     0.3311200000
| 24>  H        4.1314240000     3.3520420000     3.8001000000
| 25>  H        5.3759150000     2.3762550000     2.9706720000
| 26>  H        4.1685160000     1.5798580000     4.0157830000
| 27> *
| 28>
| 29>                          ****END OF INPUT****
 Total Charge           Charge          ....    0
 Multiplicity           Mult            ....    1
 Number of Electrons    NEL             ....   48
 Basis Dimension        Dim             ....  129

MULLIKEN ATOMIC CHARGES
-----------------------
   0 C :   -0.047959
   1 C :    0.033378
   2 C :   -0.062325
   3 N :   -0.005826
   4 O :   -0.284027
   5 C :    0.157502
   6 H :    0.029145
   7 H :    0.026735
   8 H :    0.031816
   9 H :    0.029006
  10 H :    0.021566
  11 H :   -0.001582
  12 H :    0.029713
  13 H :    0.020897
  14 H :    0.021961
Sum of atomic charges:   -0.0000000

LOEWDIN ATOMIC CHARGES
----------------------
   0 C :   -0.062649
   1 C :   -0.052571
   2 C :   -0.027552
   3 N :   -0.007180
   4 O :   -0.094267
   5 C :    0.040730
   6 H :    0.029626
   7 H :    0.026249
   8 H :    0.028692
   9 H :    0.036400
  10 H :    0.033681
  11 H :    0.003173
  12 H :    0.023186
  13 H :    0.011152
  14 H :    0.011329

  Mayer bond orders larger than 0.1
B(  0-C ,  1-C ) :   1.0951 B(  0-C ,  6-H ) :   0.9602 B(  0-C ,  7-H ) :   0.9700
B(  0-C ,  8-H ) :   0.9686 B(  1-C ,  2-C ) :   1.0484 B(  1-C ,  9-H ) :   0.9205
B(  1-C , 10-H ) :   0.9271 B(  2-C ,  3-N ) :   1.9013 B(  2-C ,  4-O ) :   0.1074
B(  2-C , 11-H ) :   0.9388 B(  3-N ,  4-O ) :   0.9492 B(  4-O ,  5-C ) :   0.9740
B(  5-C , 12-H ) :   0.9735 B(  5-C , 13-H ) :   0.9674 B(  5-C , 14-H ) :   0.9679

FINAL SINGLE POINT ENERGY      -287.176563045044

DIPOLE MOMENT
-------------
                                X             Y             Z
Electronic contribution:      1.58377       3.56790       1.73582
Nuclear contribution   :     -1.66764      -3.62051      -1.83656
                        -----------------------------------------
Total Dipole Moment    :     -0.08386      -0.05261      -0.10074
                        -----------------------------------------
Magnitude (a.u.)       :      0.14125
Magnitude (Debye)      :      0.35902

                             ****ORCA TERMINATED NORMALLY****
TOTAL RUN TIME: 0 days 0 hours 0 minutes 6 seconds 103 msec
