                         Program Version 3.0.3 - RELEASE   -
|  1> ! RI PBE def2-SVP def2-SVP/J NBO PAL2
|  2> % maxcore 2000
|  3> % output
|  4>     # printlevel mini
|  5>     print[ P_Basis ] 0
|  6>     print[ P_SCFInfo ] 1
|  7>     print[ P_SCFIterInfo ] 1
|  8>     print[ P_OrbEn ] 0
|  9>     print[ P_Cartesian ] 0
| 10> end
| 11> *xyz 0 1
| 12>  C        1.0332500000    -0.0643970000     0.0869860000
| 13>  C        2.3678010000    -0.0189700000     0.0759360000
| 14>  C        3.1351380000    -0.7394980000     1.1263960000
| 15>  O        4.3291050000    -0.7598240000     1.2027750000
| 16>  C        3.0941480000     0.7039780000    -0.9183430000
| 17>  N        3.6771320000     1.2871590000    -1.7205180000
| 18>  H        0.5204610000    -0.6256510000     0.8609270000
| 19>  H        0.4313530000     0.4432770000    -0.6555910000
| 20>  H        2.4864210000    -1.2712650000     1.8531420000
| 21> *
| 22>
| 23>                          ****END OF INPUT****
 Total Charge           Charge          ....    0
 Multiplicity           Mult            ....    1
 Number of Electrons    NEL             ....   42
 Basis Dimension        Dim             ....   99

MULLIKEN ATOMIC CHARGES
-----------------------
   0 C :    0.066865
   1 C :   -0.206769
   2 C :    0.164869
   3 O :   -0.107057
   4 C :   -0.111550
   5 N :    0.091816
   6 H :    0.050267
   7 H :    0.063418
   8 H :   -0.011860
Sum of atomic charges:   -0.0000000

LOEWDIN ATOMIC CHARGES
----------------------
   0 C :    0.057393
   1 C :   -0.109899
   2 C :    0.092751
   3 O :   -0.071283
   4 C :   -0.028916
   5 N :   -0.022881
   6 H :    0.038988
   7 H :    0.046741
   8 H :   -0.002894

  Mayer bond orders larger than 0.1
B(  0-C ,  1-C ) :   1.8722 B(  0-C ,  5-N ) :   0.1030 B(  0-C ,  6-H ) :   0.9249
B(  0-C ,  7-H ) :   0.9417 B(  1-C ,  2-C ) :   0.9499 B(  1-C ,  4-C ) :   1.0909
B(  2-C ,  3-O ) :   2.2136 B(  2-C ,  8-H ) :   0.9296 B(  4-C ,  5-N ) :   3.0001

FINAL SINGLE POINT ENERGY      -283.603233182097

DIPOLE MOMENT
-------------
                                X             Y             Z
Electronic contribution:      3.35610       0.95364      -1.21399
Nuclear contribution   :     -5.07847      -1.47210       1.88097
                        -----------------------------------------
Total Dipole Moment    :     -1.72237      -0.51846       0.66699
                        -----------------------------------------
Magnitude (a.u.)       :      1.91839
Magnitude (Debye)      :      4.87616

                             ****ORCA TERMINATED NORMALLY****
TOTAL RUN TIME: 0 days 0 hours 0 minutes 4 seconds 866 msec
