                         Program Version 3.0.3 - RELEASE   -
|  1> ! RI PBE def2-SVP def2-SVP/J NBO PAL2
|  2> % maxcore 2000
|  3> % output
|  4>     # printlevel mini
|  5>     print[ P_Basis ] 0
|  6>     print[ P_SCFInfo ] 1
|  7>     print[ P_SCFIterInfo ] 1
|  8>     print[ P_OrbEn ] 0
|  9>     print[ P_Cartesian ] 0
| 10> end
| 11> *xyz 0 1
| 12>  C        1.3627610000    -0.3078160000     0.0441400000
| 13>  C        1.8702360000     0.4255890000    -0.9424070000
| 14>  C        3.2989600000     0.4481890000    -1.2687460000
| 15>  O        3.7827590000     1.1029770000    -2.1560480000
| 16>  C        4.1736350000    -0.4012310000    -0.4324840000
| 17>  N        4.8635460000    -1.0581520000     0.2114460000
| 18>  H        1.9931890000    -0.9357790000     0.6658300000
| 19>  H        0.3012720000    -0.3025440000     0.2601200000
| 20>  H        1.2571430000     1.0590670000    -1.5743410000
| 21> *
| 22>
| 23>                          ****END OF INPUT****
 Total Charge           Charge          ....    0
 Multiplicity           Mult            ....    1
 Number of Electrons    NEL             ....   42
 Basis Dimension        Dim             ....   99

MULLIKEN ATOMIC CHARGES
-----------------------
   0 C :    0.034094
   1 C :   -0.022583
   2 C :    0.063666
   3 O :   -0.100400
   4 C :   -0.184017
   5 N :    0.059630
   6 H :    0.065621
   7 H :    0.058254
   8 H :    0.025735
Sum of atomic charges:   -0.0000000

LOEWDIN ATOMIC CHARGES
----------------------
   0 C :    0.032524
   1 C :   -0.045562
   2 C :    0.021314
   3 O :   -0.064486
   4 C :   -0.057852
   5 N :   -0.015533
   6 H :    0.041735
   7 H :    0.041809
   8 H :    0.046051

  Mayer bond orders larger than 0.1
B(  0-C ,  1-C ) :   1.8656 B(  0-C ,  3-O ) :   0.1030 B(  0-C ,  6-H ) :   0.9215
B(  0-C ,  7-H ) :   0.9422 B(  1-C ,  2-C ) :   1.0709 B(  1-C ,  8-H ) :   0.9613
B(  2-C ,  3-O ) :   2.1460 B(  2-C ,  4-C ) :   0.9125 B(  4-C ,  5-N ) :   3.0107

FINAL SINGLE POINT ENERGY      -283.601043916162

DIPOLE MOMENT
-------------
                                X             Y             Z
Electronic contribution:      4.25540       0.38868      -1.35515
Nuclear contribution   :     -5.70466      -0.31933       1.57813
                        -----------------------------------------
Total Dipole Moment    :     -1.44927       0.06935       0.22298
                        -----------------------------------------
Magnitude (a.u.)       :      1.46796
Magnitude (Debye)      :      3.73125

                             ****ORCA TERMINATED NORMALLY****
TOTAL RUN TIME: 0 days 0 hours 0 minutes 4 seconds 623 msec
