                         Program Version 3.0.3 - RELEASE   -
|  1> ! RI PBE def2-SVP def2-SVP/J NBO PAL2
|  2> % maxcore 2000
|  3> % output
|  4>     # printlevel mini
|  5>     print[ P_Basis ] 0
|  6>     print[ P_SCFInfo ] 1
|  7>     print[ P_SCFIterInfo ] 1
|  8>     print[ P_OrbEn ] 0
|  9>     print[ P_Cartesian ] 0
| 10> end
| 11> *xyz 0 1
| 12>  C        0.9516470000    -0.1425460000    -0.0159170000
| 13>  C        2.4810420000    -0.0673430000     0.0698130000
| 14>  C        2.9312430000     1.3854490000     0.0376140000
| 15>  O        3.6003030000     1.9254290000     0.8639390000
| 16>  C        2.9990380000    -0.7824860000     1.2259820000
| 17>  N        3.3822620000    -1.3706220000     2.1351400000
| 18>  H        0.5999140000     0.4077300000    -0.8908940000
| 19>  H        0.4953180000     0.2883140000     0.8759700000
| 20>  H        0.6253890000    -1.1781410000    -0.1060540000
| 21>  H        2.9039660000    -0.5325640000    -0.8312770000
| 22>  H        2.5570880000     1.9273700000    -0.8578140000
| 23> *
| 24>
| 25>                          ****END OF INPUT****
 Total Charge           Charge          ....    0
 Multiplicity           Mult            ....    1
 Number of Electrons    NEL             ....   44
 Basis Dimension        Dim             ....  109

MULLIKEN ATOMIC CHARGES
-----------------------
   0 C :   -0.007349
   1 C :   -0.091208
   2 C :    0.108190
   3 O :   -0.111109
   4 C :   -0.211817
   5 N :    0.081176
   6 H :    0.041006
   7 H :    0.059121
   8 H :    0.057847
   9 H :    0.067835
  10 H :    0.006307
Sum of atomic charges:    0.0000000

LOEWDIN ATOMIC CHARGES
----------------------
   0 C :   -0.031703
   1 C :   -0.106691
   2 C :    0.104842
   3 O :   -0.070233
   4 C :   -0.036144
   5 N :   -0.045682
   6 H :    0.034818
   7 H :    0.041468
   8 H :    0.042780
   9 H :    0.071215
  10 H :   -0.004670

  Mayer bond orders larger than 0.1
B(  0-C ,  1-C ) :   1.0732 B(  0-C ,  6-H ) :   0.9580 B(  0-C ,  7-H ) :   0.9633
B(  0-C ,  8-H ) :   0.9620 B(  1-C ,  2-C ) :   0.8866 B(  1-C ,  4-C ) :   1.0615
B(  1-C ,  9-H ) :   0.8551 B(  2-C ,  3-O ) :   2.2520 B(  2-C , 10-H ) :   0.9311
B(  4-C ,  5-N ) :   3.0750

FINAL SINGLE POINT ENERGY      -284.818272276542

DIPOLE MOMENT
-------------
                                X             Y             Z
Electronic contribution:      4.86923       0.28934       3.35736
Nuclear contribution   :     -5.92942      -0.10074      -4.94684
                        -----------------------------------------
Total Dipole Moment    :     -1.06019       0.18861      -1.58949
                        -----------------------------------------
Magnitude (a.u.)       :      1.91991
Magnitude (Debye)      :      4.88002

                             ****ORCA TERMINATED NORMALLY****
TOTAL RUN TIME: 0 days 0 hours 0 minutes 4 seconds 835 msec
