                         Program Version 3.0.3 - RELEASE   -
|  1> ! RI PBE def2-SVP def2-SVP/J NBO PAL2
|  2> % maxcore 2000
|  3> % output
|  4>     # printlevel mini
|  5>     print[ P_Basis ] 0
|  6>     print[ P_SCFInfo ] 1
|  7>     print[ P_SCFIterInfo ] 1
|  8>     print[ P_OrbEn ] 0
|  9>     print[ P_Cartesian ] 0
| 10> end
| 11> *xyz 0 1
| 12>  C        1.0481200000    -0.1265700000     0.0347030000
| 13>  C        2.5644700000    -0.0211760000    -0.0382830000
| 14>  C        2.9993090000     1.4066250000    -0.3291720000
| 15>  O        3.1365580000    -0.4656190000     1.1941890000
| 16>  C        3.1010580000    -0.9946670000    -1.0835770000
| 17>  N        4.5493850000    -0.9459160000    -1.1522470000
| 18>  H        0.6548150000     0.5421660000     0.8057290000
| 19>  H        0.7494130000    -1.1468110000     0.2840960000
| 20>  H        0.5851430000     0.1521130000    -0.9154040000
| 21>  H        2.6612700000     2.0773020000     0.4677170000
| 22>  H        2.5659640000     1.7627910000    -1.2668700000
| 23>  H        4.0846770000     1.4609680000    -0.4098570000
| 24>  H        2.9660450000     0.2023420000     1.8632870000
| 25>  H        2.6904250000    -0.7142770000    -2.0584010000
| 26>  H        2.7010410000    -1.9900300000    -0.8343570000
| 27>  H        4.8961420000    -1.6054230000    -1.8360540000
| 28>  H        4.9302750000    -1.2102170000    -0.2515090000
| 29> *
| 30>
| 31>                          ****END OF INPUT****
 Total Charge           Charge          ....    0
 Multiplicity           Mult            ....    1
 Number of Electrons    NEL             ....   50
 Basis Dimension        Dim             ....  139

MULLIKEN ATOMIC CHARGES
-----------------------
   0 C :    0.080852
   1 C :   -0.177567
   2 C :    0.063428
   3 O :   -0.268211
   4 C :    0.124338
   5 N :   -0.190703
   6 H :    0.000872
   7 H :    0.015292
   8 H :    0.007876
   9 H :   -0.002383
  10 H :    0.005325
  11 H :    0.028124
  12 H :    0.149701
  13 H :   -0.002643
  14 H :   -0.009752
  15 H :    0.085076
  16 H :    0.090375
Sum of atomic charges:   -0.0000000

LOEWDIN ATOMIC CHARGES
----------------------
   0 C :   -0.064753
   1 C :    0.007482
   2 C :   -0.067399
   3 O :   -0.111531
   4 C :    0.007349
   5 N :   -0.103560
   6 H :    0.021207
   7 H :    0.025214
   8 H :    0.026532
   9 H :    0.017023
  10 H :    0.028614
  11 H :    0.027655
  12 H :    0.064520
  13 H :    0.019930
  14 H :    0.001527
  15 H :    0.051913
  16 H :    0.048279

  Mayer bond orders larger than 0.1
B(  0-C ,  1-C ) :   1.0618 B(  0-C ,  6-H ) :   0.9507 B(  0-C ,  7-H ) :   0.9495
B(  0-C ,  8-H ) :   0.9478 B(  1-C ,  2-C ) :   1.0581 B(  1-C ,  3-O ) :   1.0158
B(  1-C ,  4-C ) :   1.0139 B(  2-C ,  9-H ) :   0.9479 B(  2-C , 10-H ) :   0.9479
B(  2-C , 11-H ) :   0.9424 B(  3-O , 12-H ) :   0.9804 B(  4-C ,  5-N ) :   1.1163
B(  4-C , 13-H ) :   0.9289 B(  4-C , 14-H ) :   0.9208 B(  5-N , 15-H ) :   0.9641
B(  5-N , 16-H ) :   0.9559

FINAL SINGLE POINT ENERGY      -288.431874812648

DIPOLE MOMENT
-------------
                                X             Y             Z
Electronic contribution:      2.21331      -1.63632       1.82382
Nuclear contribution   :     -2.46036       1.63567      -1.76891
                        -----------------------------------------
Total Dipole Moment    :     -0.24705      -0.00064       0.05491
                        -----------------------------------------
Magnitude (a.u.)       :      0.25308
Magnitude (Debye)      :      0.64328

                             ****ORCA TERMINATED NORMALLY****
TOTAL RUN TIME: 0 days 0 hours 0 minutes 6 seconds 305 msec
