                         Program Version 3.0.3 - RELEASE   -
|  1> ! RI PBE def2-SVP def2-SVP/J NBO PAL2
|  2> % maxcore 2000
|  3> % output
|  4>     # printlevel mini
|  5>     print[ P_Basis ] 0
|  6>     print[ P_SCFInfo ] 1
|  7>     print[ P_SCFIterInfo ] 1
|  8>     print[ P_OrbEn ] 0
|  9>     print[ P_Cartesian ] 0
| 10> end
| 11> *xyz 0 1
| 12>  C        1.0065980000    -0.0799380000     0.0612950000
| 13>  C        2.5329170000    -0.0455950000     0.0687400000
| 14>  C        3.0687340000     1.2633820000    -0.5060120000
| 15>  O        3.0378940000    -0.2700380000     1.3728580000
| 16>  C        3.0363850000    -1.1637100000    -0.7489260000
| 17>  N        3.4021540000    -2.0135270000    -1.4297190000
| 18>  H        0.6262060000     0.7534680000     0.6583990000
| 19>  H        0.6498940000    -1.0157280000     0.4916410000
| 20>  H        0.6141000000     0.0171400000    -0.9521220000
| 21>  H        2.6906480000     2.0982970000     0.0904440000
| 22>  H        2.7435480000     1.4042770000    -1.5379500000
| 23>  H        4.1582460000     1.2697070000    -0.4734880000
| 24>  H        2.7240780000     0.4474440000     1.9318510000
| 25> *
| 26>
| 27>                          ****END OF INPUT****
 Total Charge           Charge          ....    0
 Multiplicity           Mult            ....    1
 Number of Electrons    NEL             ....   46
 Basis Dimension        Dim             ....  119

MULLIKEN ATOMIC CHARGES
-----------------------
   0 C :    0.054110
   1 C :   -0.150565
   2 C :    0.049277
   3 O :   -0.228961
   4 C :   -0.138353
   5 N :    0.048608
   6 H :    0.018305
   7 H :    0.048034
   8 H :    0.035740
   9 H :    0.017774
  10 H :    0.034699
  11 H :    0.051490
  12 H :    0.159842
Sum of atomic charges:    0.0000000

LOEWDIN ATOMIC CHARGES
----------------------
   0 C :   -0.050303
   1 C :   -0.006975
   2 C :   -0.052229
   3 O :   -0.087046
   4 C :   -0.030230
   5 N :   -0.055292
   6 H :    0.027835
   7 H :    0.038677
   8 H :    0.038195
   9 H :    0.027943
  10 H :    0.038368
  11 H :    0.039201
  12 H :    0.071856

  Mayer bond orders larger than 0.1
B(  0-C ,  1-C ) :   1.0786 B(  0-C ,  6-H ) :   0.9512 B(  0-C ,  7-H ) :   0.9522
B(  0-C ,  8-H ) :   0.9466 B(  1-C ,  2-C ) :   1.0849 B(  1-C ,  3-O ) :   1.1467
B(  1-C ,  4-C ) :   0.9763 B(  2-C ,  9-H ) :   0.9483 B(  2-C , 10-H ) :   0.9438
B(  2-C , 11-H ) :   0.9510 B(  3-O , 12-H ) :   0.9768 B(  4-C ,  5-N ) :   3.1020

FINAL SINGLE POINT ENERGY      -286.019948526476

DIPOLE MOMENT
-------------
                                X             Y             Z
Electronic contribution:      3.29896      -5.26825      -0.45803
Nuclear contribution   :     -4.13365       6.80535       1.08780
                        -----------------------------------------
Total Dipole Moment    :     -0.83470       1.53710       0.62977
                        -----------------------------------------
Magnitude (a.u.)       :      1.85903
Magnitude (Debye)      :      4.72529

                             ****ORCA TERMINATED NORMALLY****
TOTAL RUN TIME: 0 days 0 hours 0 minutes 5 seconds 309 msec
