                         Program Version 3.0.3 - RELEASE   -
|  1> ! RI PBE def2-SVP def2-SVP/J NBO PAL2
|  2> % maxcore 2000
|  3> % output
|  4>     # printlevel mini
|  5>     print[ P_Basis ] 0
|  6>     print[ P_SCFInfo ] 1
|  7>     print[ P_SCFIterInfo ] 1
|  8>     print[ P_OrbEn ] 0
|  9>     print[ P_Cartesian ] 0
| 10> end
| 11> *xyz 0 1
| 12>  C        1.0432350000     0.0821810000    -0.0489260000
| 13>  C        2.5684620000     0.0319290000    -0.0395600000
| 14>  C        3.1011310000    -1.3620500000     0.3324020000
| 15>  O        2.6747910000    -1.7605520000     1.6099640000
| 16>  C        3.1227760000     0.4304750000    -1.3280030000
| 17>  N        3.5635840000     0.7190380000    -2.3502910000
| 18>  H        0.6681950000    -0.2560060000     0.9170590000
| 19>  H        0.6430770000    -0.5732800000    -0.8249380000
| 20>  H        0.6835500000     1.0942860000    -0.2364880000
| 21>  H        2.9489300000     0.7469550000     0.7011010000
| 22>  H        4.1934300000    -1.3750130000     0.2442300000
| 23>  H        2.7035740000    -2.0958190000    -0.3726920000
| 24>  H        3.2007660000    -1.3041530000     2.2713430000
| 25> *
| 26>
| 27>                          ****END OF INPUT****
 Total Charge           Charge          ....    0
 Multiplicity           Mult            ....    1
 Number of Electrons    NEL             ....   46
 Basis Dimension        Dim             ....  119

MULLIKEN ATOMIC CHARGES
-----------------------
   0 C :    0.035783
   1 C :   -0.119987
   2 C :    0.163504
   3 O :   -0.260030
   4 C :   -0.237031
   5 N :    0.052176
   6 H :    0.033778
   7 H :    0.037175
   8 H :    0.038631
   9 H :    0.033725
  10 H :    0.032619
  11 H :    0.029107
  12 H :    0.160550
Sum of atomic charges:   -0.0000000

LOEWDIN ATOMIC CHARGES
----------------------
   0 C :   -0.039641
   1 C :   -0.086733
   2 C :    0.068485
   3 O :   -0.104286
   4 C :   -0.041271
   5 N :   -0.066743
   6 H :    0.031624
   7 H :    0.034965
   8 H :    0.034413
   9 H :    0.049357
  10 H :    0.016532
  11 H :    0.028563
  12 H :    0.074735

  Mayer bond orders larger than 0.1
B(  0-C ,  1-C ) :   1.0691 B(  0-C ,  6-H ) :   0.9514 B(  0-C ,  7-H ) :   0.9629
B(  0-C ,  8-H ) :   0.9638 B(  1-C ,  2-C ) :   1.0193 B(  1-C ,  4-C ) :   1.0301
B(  1-C ,  9-H ) :   0.8665 B(  2-C ,  3-O ) :   1.0915 B(  2-C , 10-H ) :   0.9497
B(  2-C , 11-H ) :   0.9306 B(  3-O , 12-H ) :   0.9822 B(  4-C ,  5-N ) :   3.0717

FINAL SINGLE POINT ENERGY      -286.020276125179

DIPOLE MOMENT
-------------
                                X             Y             Z
Electronic contribution:      3.17163       1.00904      -2.57727
Nuclear contribution   :     -3.32298      -1.09820       3.89525
                        -----------------------------------------
Total Dipole Moment    :     -0.15135      -0.08916       1.31798
                        -----------------------------------------
Magnitude (a.u.)       :      1.32963
Magnitude (Debye)      :      3.37966

                             ****ORCA TERMINATED NORMALLY****
TOTAL RUN TIME: 0 days 0 hours 0 minutes 5 seconds 751 msec
