                         Program Version 3.0.3 - RELEASE   -
|  1> ! RI PBE def2-SVP def2-SVP/J NBO PAL2
|  2> % maxcore 2000
|  3> % output
|  4>     # printlevel mini
|  5>     print[ P_Basis ] 0
|  6>     print[ P_SCFInfo ] 1
|  7>     print[ P_SCFIterInfo ] 1
|  8>     print[ P_OrbEn ] 0
|  9>     print[ P_Cartesian ] 0
| 10> end
| 11> *xyz 0 1
| 12>  C        1.0168280000    -0.2035260000    -0.1298530000
| 13>  C        2.5185210000     0.0377730000    -0.0018680000
| 14>  C        3.0446280000     0.9488210000    -1.0689230000
| 15>  O        3.5890040000     2.0019090000    -0.8864830000
| 16>  C        2.8472810000     0.4639540000    -2.4543500000
| 17>  N        2.6936480000     0.0700720000    -3.5239910000
| 18>  H        0.6839310000    -0.8924180000     0.6472630000
| 19>  H        0.7624870000    -0.6414170000    -1.0972350000
| 20>  H        0.4590880000     0.7281560000    -0.0183320000
| 21>  H        3.0530570000    -0.9154060000    -0.0916050000
| 22>  H        2.7771260000     0.4868000000     0.9581870000
| 23> *
| 24>
| 25>                          ****END OF INPUT****
 Total Charge           Charge          ....    0
 Multiplicity           Mult            ....    1
 Number of Electrons    NEL             ....   44
 Basis Dimension        Dim             ....  109

MULLIKEN ATOMIC CHARGES
-----------------------
   0 C :   -0.052256
   1 C :    0.014459
   2 C :   -0.025335
   3 O :   -0.099397
   4 C :   -0.130760
   5 N :    0.055384
   6 H :    0.046660
   7 H :    0.054681
   8 H :    0.043558
   9 H :    0.057312
  10 H :    0.035694
Sum of atomic charges:    0.0000000

LOEWDIN ATOMIC CHARGES
----------------------
   0 C :   -0.053765
   1 C :   -0.056354
   2 C :    0.036695
   3 O :   -0.059928
   4 C :   -0.060714
   5 N :   -0.012853
   6 H :    0.039160
   7 H :    0.036295
   8 H :    0.035575
   9 H :    0.053580
  10 H :    0.042309

  Mayer bond orders larger than 0.1
B(  0-C ,  1-C ) :   1.0976 B(  0-C ,  6-H ) :   0.9595 B(  0-C ,  7-H ) :   0.9620
B(  0-C ,  8-H ) :   0.9647 B(  1-C ,  2-C ) :   1.0318 B(  1-C ,  9-H ) :   0.9093
B(  1-C , 10-H ) :   0.9101 B(  2-C ,  3-O ) :   2.2184 B(  2-C ,  4-C ) :   0.8895
B(  4-C ,  5-N ) :   3.0195

FINAL SINGLE POINT ENERGY      -284.821745557517

DIPOLE MOMENT
-------------
                                X             Y             Z
Electronic contribution:      4.49946       3.22953      -5.27958
Nuclear contribution   :     -4.93192      -3.77835       6.41039
                        -----------------------------------------
Total Dipole Moment    :     -0.43245      -0.54882       1.13081
                        -----------------------------------------
Magnitude (a.u.)       :      1.32927
Magnitude (Debye)      :      3.37874

                             ****ORCA TERMINATED NORMALLY****
TOTAL RUN TIME: 0 days 0 hours 0 minutes 5 seconds 144 msec
