                         Program Version 3.0.3 - RELEASE   -
|  1> ! RI PBE def2-SVP def2-SVP/J NBO PAL2
|  2> % maxcore 2000
|  3> % output
|  4>     # printlevel mini
|  5>     print[ P_Basis ] 0
|  6>     print[ P_SCFInfo ] 1
|  7>     print[ P_SCFIterInfo ] 1
|  8>     print[ P_OrbEn ] 0
|  9>     print[ P_Cartesian ] 0
| 10> end
| 11> *xyz 0 1
| 12>  C        1.0935030000     0.2712130000    -0.0579930000
| 13>  C        2.6043770000     0.1388130000     0.0257420000
| 14>  C        3.1516120000    -0.9717280000    -0.8459950000
| 15>  O        2.8500360000    -0.6952240000    -2.1935530000
| 16>  C        4.6569210000    -1.1403450000    -0.6933300000
| 17>  N        5.1288870000    -2.1028570000    -1.6812540000
| 18>  H        0.7334290000     1.0927730000     0.5653240000
| 19>  H        0.5991910000    -0.6444700000     0.2790530000
| 20>  H        0.7808220000     0.4599370000    -1.0860670000
| 21>  H        2.9096700000    -0.0500470000     1.0613100000
| 22>  H        3.0794700000     1.0767580000    -0.2826620000
| 23>  H        2.6688060000    -1.9211120000    -0.5461030000
| 24>  H        3.4863120000    -1.2234260000    -2.6991070000
| 25>  H        4.8982120000    -1.4085130000     0.3447220000
| 26>  H        5.1321870000    -0.1781060000    -0.9073870000
| 27>  H        4.9416820000    -3.0529750000    -1.3857100000
| 28>  H        6.1238920000    -2.0226800000    -1.8370910000
| 29> *
| 30>
| 31>                          ****END OF INPUT****
 Total Charge           Charge          ....    0
 Multiplicity           Mult            ....    1
 Number of Electrons    NEL             ....   50
 Basis Dimension        Dim             ....  139

MULLIKEN ATOMIC CHARGES
-----------------------
   0 C :    0.009461
   1 C :   -0.011801
   2 C :    0.052556
   3 O :   -0.268841
   4 C :    0.079815
   5 N :   -0.217754
   6 H :    0.012898
   7 H :    0.007319
   8 H :    0.031215
   9 H :   -0.001131
  10 H :    0.004249
  11 H :   -0.030300
  12 H :    0.135859
  13 H :   -0.006535
  14 H :    0.002663
  15 H :    0.097662
  16 H :    0.102664
Sum of atomic charges:   -0.0000000

LOEWDIN ATOMIC CHARGES
----------------------
   0 C :   -0.064001
   1 C :   -0.050765
   2 C :    0.033103
   3 O :   -0.121920
   4 C :   -0.007403
   5 N :   -0.092363
   6 H :    0.023820
   7 H :    0.022405
   8 H :    0.029850
   9 H :    0.022151
  10 H :    0.023840
  11 H :   -0.003065
  12 H :    0.044019
  13 H :    0.004617
  14 H :    0.021012
  15 H :    0.056261
  16 H :    0.058439

  Mayer bond orders larger than 0.1
B(  0-C ,  1-C ) :   1.1241 B(  0-C ,  6-H ) :   0.9620 B(  0-C ,  7-H ) :   0.9624
B(  0-C ,  8-H ) :   0.9612 B(  1-C ,  2-C ) :   1.0616 B(  1-C ,  9-H ) :   0.9287
B(  1-C , 10-H ) :   0.9200 B(  2-C ,  3-O ) :   1.0874 B(  2-C ,  4-C ) :   1.0473
B(  2-C , 11-H ) :   0.8904 B(  3-O , 12-H ) :   0.9443 B(  4-C ,  5-N ) :   1.0876
B(  4-C , 13-H ) :   0.9263 B(  4-C , 14-H ) :   0.9228 B(  5-N , 12-H ) :   0.1149
B(  5-N , 15-H ) :   0.9679 B(  5-N , 16-H ) :   0.9655

FINAL SINGLE POINT ENERGY      -288.433518186966

DIPOLE MOMENT
-------------
                                X             Y             Z
Electronic contribution:      1.44914      -1.15794      -3.16583
Nuclear contribution   :     -0.55063       0.59199       3.61790
                        -----------------------------------------
Total Dipole Moment    :      0.89852      -0.56595       0.45207
                        -----------------------------------------
Magnitude (a.u.)       :      1.15413
Magnitude (Debye)      :      2.93355

                             ****ORCA TERMINATED NORMALLY****
TOTAL RUN TIME: 0 days 0 hours 0 minutes 6 seconds 798 msec
