                         Program Version 3.0.3 - RELEASE   -
|  1> ! RI PBE def2-SVP def2-SVP/J NBO PAL2
|  2> % maxcore 2000
|  3> % output
|  4>     # printlevel mini
|  5>     print[ P_Basis ] 0
|  6>     print[ P_SCFInfo ] 1
|  7>     print[ P_SCFIterInfo ] 1
|  8>     print[ P_OrbEn ] 0
|  9>     print[ P_Cartesian ] 0
| 10> end
| 11> *xyz 0 1
| 12>  C        0.9713790000     0.1107050000    -0.1052070000
| 13>  C        2.4878180000     0.0814450000    -0.0379930000
| 14>  C        3.0418180000    -1.1319520000     0.7041090000
| 15>  O        4.4434690000    -1.2213870000     0.6463650000
| 16>  C        2.5704240000    -1.1500530000     2.1003790000
| 17>  N        2.2176720000    -1.1271570000     3.1944190000
| 18>  H        0.6288120000     0.9832410000    -0.6636480000
| 19>  H        0.5270420000     0.1571090000     0.8915440000
| 20>  H        0.5802820000    -0.7783260000    -0.6069710000
| 21>  H        2.8641550000     0.9881360000     0.4484750000
| 22>  H        2.9212220000     0.0507000000    -1.0411550000
| 23>  H        2.6706960000    -2.0449030000     0.2273110000
| 24>  H        4.8204910000    -0.4519590000     1.0847720000
| 25> *
| 26>
| 27>                          ****END OF INPUT****
 Total Charge           Charge          ....    0
 Multiplicity           Mult            ....    1
 Number of Electrons    NEL             ....   46
 Basis Dimension        Dim             ....  119

MULLIKEN ATOMIC CHARGES
-----------------------
   0 C :   -0.037875
   1 C :   -0.020121
   2 C :    0.144424
   3 O :   -0.252335
   4 C :   -0.240175
   5 N :    0.040830
   6 H :    0.033514
   7 H :    0.048132
   8 H :    0.028071
   9 H :    0.016714
  10 H :    0.033074
  11 H :    0.040058
  12 H :    0.165687
Sum of atomic charges:   -0.0000000

LOEWDIN ATOMIC CHARGES
----------------------
   0 C :   -0.064187
   1 C :   -0.048434
   2 C :    0.024629
   3 O :   -0.081734
   4 C :   -0.060518
   5 N :   -0.057115
   6 H :    0.035235
   7 H :    0.034450
   8 H :    0.029849
   9 H :    0.027555
  10 H :    0.033955
  11 H :    0.049364
  12 H :    0.076951

  Mayer bond orders larger than 0.1
B(  0-C ,  1-C ) :   1.0938 B(  0-C ,  6-H ) :   0.9560 B(  0-C ,  7-H ) :   0.9623
B(  0-C ,  8-H ) :   0.9663 B(  1-C ,  2-C ) :   1.0741 B(  1-C ,  9-H ) :   0.9235
B(  1-C , 10-H ) :   0.9293 B(  2-C ,  3-O ) :   1.0631 B(  2-C ,  4-C ) :   0.9889
B(  2-C , 11-H ) :   0.8756 B(  3-O , 12-H ) :   0.9784 B(  4-C ,  5-N ) :   3.0598

FINAL SINGLE POINT ENERGY      -286.019492384348

DIPOLE MOMENT
-------------
                                X             Y             Z
Electronic contribution:      3.45552      -3.13687       5.32131
Nuclear contribution   :     -3.34965       3.71054      -6.41813
                        -----------------------------------------
Total Dipole Moment    :      0.10586       0.57367      -1.09682
                        -----------------------------------------
Magnitude (a.u.)       :      1.24230
Magnitude (Debye)      :      3.15769

                             ****ORCA TERMINATED NORMALLY****
TOTAL RUN TIME: 0 days 0 hours 0 minutes 5 seconds 403 msec
