                         Program Version 3.0.3 - RELEASE   -
|  1> ! RI PBE def2-SVP def2-SVP/J NBO PAL2
|  2> % maxcore 2000
|  3> % output
|  4>     # printlevel mini
|  5>     print[ P_Basis ] 0
|  6>     print[ P_SCFInfo ] 1
|  7>     print[ P_SCFIterInfo ] 1
|  8>     print[ P_OrbEn ] 0
|  9>     print[ P_Cartesian ] 0
| 10> end
| 11> *xyz 0 1
| 12>  C        0.7172900000    -1.3798310000     0.4245390000
| 13>  C        1.5631970000    -0.3950470000     0.1630460000
| 14>  C        2.8091430000    -0.1449240000     0.9357890000
| 15>  O        3.8925980000    -0.0813950000     0.0151490000
| 16>  N        5.0079080000     0.4069080000     0.6467940000
| 17>  C        6.0168850000     0.4250150000    -0.1151670000
| 18>  H       -0.2015100000    -1.5031980000    -0.1366070000
| 19>  H        0.9111450000    -2.0966990000     1.2164000000
| 20>  H        1.3559450000     0.3064940000    -0.6413350000
| 21>  H        2.9846960000    -0.9388320000     1.6696880000
| 22>  H        2.7504630000     0.8106160000     1.4698260000
| 23>  H        6.9373420000     0.8059120000     0.3100670000
| 24>  H        5.9820880000     0.0813830000    -1.1480600000
| 25> *
| 26>
| 27>                          ****END OF INPUT****
 Total Charge           Charge          ....    0
 Multiplicity           Mult            ....    1
 Number of Electrons    NEL             ....   46
 Basis Dimension        Dim             ....  119

MULLIKEN ATOMIC CHARGES
-----------------------
   0 C :   -0.024692
   1 C :   -0.109348
   2 C :    0.269918
   3 O :   -0.291054
   4 N :   -0.014880
   5 C :   -0.019283
   6 H :    0.030890
   7 H :    0.026892
   8 H :    0.017712
   9 H :    0.006793
  10 H :    0.021949
  11 H :    0.052261
  12 H :    0.032842
Sum of atomic charges:   -0.0000000

LOEWDIN ATOMIC CHARGES
----------------------
   0 C :   -0.044094
   1 C :   -0.042885
   2 C :    0.057224
   3 O :   -0.086776
   4 N :    0.009474
   5 C :   -0.047509
   6 H :    0.027954
   7 H :    0.024939
   8 H :    0.030470
   9 H :    0.015498
  10 H :    0.021736
  11 H :    0.027047
  12 H :    0.006924

  Mayer bond orders larger than 0.1
B(  0-C ,  1-C ) :   2.0119 B(  0-C ,  6-H ) :   0.9461 B(  0-C ,  7-H ) :   0.9473
B(  1-C ,  2-C ) :   1.0486 B(  1-C ,  8-H ) :   0.9571 B(  2-C ,  3-O ) :   0.9217
B(  2-C ,  9-H ) :   0.9397 B(  2-C , 10-H ) :   0.9197 B(  3-O ,  4-N ) :   0.9735
B(  3-O ,  5-C ) :   0.1227 B(  4-N ,  5-C ) :   1.9392 B(  5-C , 11-H ) :   0.9520
B(  5-C , 12-H ) :   0.9313

FINAL SINGLE POINT ENERGY      -285.945645763607

DIPOLE MOMENT
-------------
                                X             Y             Z
Electronic contribution:      2.58511       1.09084      -0.40382
Nuclear contribution   :     -2.66811      -1.12954       0.33137
                        -----------------------------------------
Total Dipole Moment    :     -0.08300      -0.03870      -0.07245
                        -----------------------------------------
Magnitude (a.u.)       :      0.11677
Magnitude (Debye)      :      0.29681

                             ****ORCA TERMINATED NORMALLY****
TOTAL RUN TIME: 0 days 0 hours 0 minutes 5 seconds 534 msec
