                         Program Version 3.0.3 - RELEASE   -
|  1> ! RI PBE def2-SVP def2-SVP/J NBO PAL2
|  2> % maxcore 2000
|  3> % output
|  4>     # printlevel mini
|  5>     print[ P_Basis ] 0
|  6>     print[ P_SCFInfo ] 1
|  7>     print[ P_SCFIterInfo ] 1
|  8>     print[ P_OrbEn ] 0
|  9>     print[ P_Cartesian ] 0
| 10> end
| 11> *xyz 0 1
| 12>  C        0.9367750000    -0.3457770000    -0.2061430000
| 13>  C        2.4401410000    -0.4436630000    -0.3510240000
| 14>  C        2.8718890000    -1.0070260000    -1.6847210000
| 15>  O        3.0444110000     0.8527900000    -0.2651290000
| 16>  N        3.0023560000     1.3136520000     1.0218580000
| 17>  C        3.4878460000     2.4764250000     1.1330130000
| 18>  H        0.4850230000    -1.3398950000    -0.2454430000
| 19>  H        0.5141190000     0.2581180000    -1.0134260000
| 20>  H        0.6753090000     0.1131930000     0.7483210000
| 21>  H        2.8508600000    -1.0500660000     0.4641220000
| 22>  H        2.5044090000    -0.3817510000    -2.5020570000
| 23>  H        2.4669460000    -2.0124100000    -1.8149500000
| 24>  H        3.9597960000    -1.0591390000    -1.7518960000
| 25>  H        3.5015090000     2.9032090000     2.1283940000
| 26>  H        3.8801210000     3.0350190000     0.2841920000
| 27> *
| 28>
| 29>                          ****END OF INPUT****
 Total Charge           Charge          ....    0
 Multiplicity           Mult            ....    1
 Number of Electrons    NEL             ....   48
 Basis Dimension        Dim             ....  129

MULLIKEN ATOMIC CHARGES
-----------------------
   0 C :    0.011269
   1 C :    0.063990
   2 C :    0.005176
   3 O :   -0.281554
   4 N :   -0.006192
   5 C :   -0.025974
   6 H :    0.016798
   7 H :    0.018965
   8 H :    0.030415
   9 H :    0.007352
  10 H :    0.022985
  11 H :    0.022472
  12 H :    0.032247
  13 H :    0.051143
  14 H :    0.030908
Sum of atomic charges:    0.0000000

LOEWDIN ATOMIC CHARGES
----------------------
   0 C :   -0.073628
   1 C :    0.038947
   2 C :   -0.067774
   3 O :   -0.081466
   4 N :    0.010771
   5 C :   -0.052292
   6 H :    0.030332
   7 H :    0.026947
   8 H :    0.029840
   9 H :    0.013235
  10 H :    0.029160
  11 H :    0.033414
  12 H :    0.031285
  13 H :    0.025735
  14 H :    0.005493

  Mayer bond orders larger than 0.1
B(  0-C ,  1-C ) :   1.0993 B(  0-C ,  6-H ) :   0.9552 B(  0-C ,  7-H ) :   0.9539
B(  0-C ,  8-H ) :   0.9496 B(  1-C ,  2-C ) :   1.0894 B(  1-C ,  3-O ) :   0.9276
B(  1-C ,  9-H ) :   0.9206 B(  2-C , 10-H ) :   0.9547 B(  2-C , 11-H ) :   0.9580
B(  2-C , 12-H ) :   0.9574 B(  3-O ,  4-N ) :   0.9783 B(  3-O ,  5-C ) :   0.1258
B(  4-N ,  5-C ) :   1.9333 B(  5-C , 13-H ) :   0.9534 B(  5-C , 14-H ) :   0.9319

FINAL SINGLE POINT ENERGY      -287.178771977726

DIPOLE MOMENT
-------------
                                X             Y             Z
Electronic contribution:      2.57228       3.43090       2.65440
Nuclear contribution   :     -2.60808      -3.49486      -2.79404
                        -----------------------------------------
Total Dipole Moment    :     -0.03579      -0.06397      -0.13964
                        -----------------------------------------
Magnitude (a.u.)       :      0.15771
Magnitude (Debye)      :      0.40087

                             ****ORCA TERMINATED NORMALLY****
TOTAL RUN TIME: 0 days 0 hours 0 minutes 6 seconds 167 msec
