                         Program Version 3.0.3 - RELEASE   -
|  1> ! RI PBE def2-SVP def2-SVP/J NBO PAL2
|  2> % maxcore 2000
|  3> % output
|  4>     # printlevel mini
|  5>     print[ P_Basis ] 0
|  6>     print[ P_SCFInfo ] 1
|  7>     print[ P_SCFIterInfo ] 1
|  8>     print[ P_OrbEn ] 0
|  9>     print[ P_Cartesian ] 0
| 10> end
| 11> *xyz 0 1
| 12>  C        1.1741290000     0.0386650000    -0.2005610000
| 13>  C        2.6779890000    -0.0365800000    -0.0367280000
| 14>  C        3.0965220000    -0.9355440000     1.1132340000
| 15>  O        2.3031670000    -1.5253030000     1.8203280000
| 16>  N        4.4341810000    -1.0382670000     1.3023780000
| 17>  C        4.9829340000    -1.8552560000     2.3555050000
| 18>  H        0.9099910000     0.6922370000    -1.0343750000
| 19>  H        0.7030600000     0.4229410000     0.7048490000
| 20>  H        0.7533030000    -0.9499760000    -0.3872440000
| 21>  H        3.0991860000     0.9604450000     0.1356480000
| 22>  H        3.1493460000    -0.4090780000    -0.9533700000
| 23>  H        5.0542700000    -0.5339570000     0.6952380000
| 24>  H        4.6839900000    -2.8995290000     2.2382470000
| 25>  H        4.6354910000    -1.5184190000     3.3350240000
| 26>  H        6.0702500000    -1.7922980000     2.3243160000
| 27> *
| 28>
| 29>                          ****END OF INPUT****
 Total Charge           Charge          ....    0
 Multiplicity           Mult            ....    1
 Number of Electrons    NEL             ....   48
 Basis Dimension        Dim             ....  129

MULLIKEN ATOMIC CHARGES
-----------------------
   0 C :    0.004256
   1 C :   -0.058002
   2 C :    0.003614
   3 O :   -0.222759
   4 N :   -0.142545
   5 C :    0.079613
   6 H :    0.010903
   7 H :    0.032084
   8 H :    0.030304
   9 H :    0.028527
  10 H :    0.025676
  11 H :    0.105320
  12 H :    0.042198
  13 H :    0.037223
  14 H :    0.023587
Sum of atomic charges:   -0.0000000

LOEWDIN ATOMIC CHARGES
----------------------
   0 C :   -0.059555
   1 C :   -0.080777
   2 C :    0.024421
   3 O :   -0.193141
   4 N :   -0.010248
   5 C :    0.009542
   6 H :    0.024953
   7 H :    0.031984
   8 H :    0.031553
   9 H :    0.034214
  10 H :    0.033810
  11 H :    0.069568
  12 H :    0.029090
  13 H :    0.028291
  14 H :    0.026295

  Mayer bond orders larger than 0.1
B(  0-C ,  1-C ) :   1.1345 B(  0-C ,  6-H ) :   0.9556 B(  0-C ,  7-H ) :   0.9655
B(  0-C ,  8-H ) :   0.9653 B(  1-C ,  2-C ) :   0.9555 B(  1-C ,  9-H ) :   0.9221
B(  1-C , 10-H ) :   0.9216 B(  2-C ,  3-O ) :   2.0703 B(  2-C ,  4-N ) :   1.2401
B(  4-N ,  5-C ) :   1.0102 B(  4-N , 11-H ) :   0.9331 B(  5-C , 12-H ) :   0.9670
B(  5-C , 13-H ) :   0.9660 B(  5-C , 14-H ) :   0.9707

FINAL SINGLE POINT ENERGY      -287.265396247961

DIPOLE MOMENT
-------------
                                X             Y             Z
Electronic contribution:      0.25046      -1.47012       1.86215
Nuclear contribution   :      0.93890       1.94469      -2.40740
                        -----------------------------------------
Total Dipole Moment    :      1.18936       0.47458      -0.54525
                        -----------------------------------------
Magnitude (a.u.)       :      1.39180
Magnitude (Debye)      :      3.53767

                             ****ORCA TERMINATED NORMALLY****
TOTAL RUN TIME: 0 days 0 hours 0 minutes 6 seconds 98 msec
