                         Program Version 3.0.3 - RELEASE   -
|  1> ! RI PBE def2-SVP def2-SVP/J NBO PAL2
|  2> % maxcore 2000
|  3> % output
|  4>     # printlevel mini
|  5>     print[ P_Basis ] 0
|  6>     print[ P_SCFInfo ] 1
|  7>     print[ P_SCFIterInfo ] 1
|  8>     print[ P_OrbEn ] 0
|  9>     print[ P_Cartesian ] 0
| 10> end
| 11> *xyz 0 1
| 12>  C        0.7575320000    -0.4487090000    -0.3756020000
| 13>  C        2.2424110000    -0.1703140000    -0.2130540000
| 14>  C        2.8303690000    -0.9364300000     0.9468180000
| 15>  O        4.2129830000    -0.6180060000     1.0241610000
| 16>  N        4.7901860000    -1.2929940000     2.0664720000
| 17>  C        6.0247390000    -1.0402470000     2.1749840000
| 18>  H        0.3435200000     0.1103020000    -1.2167640000
| 19>  H        0.1980440000    -0.1626070000     0.5191660000
| 20>  H        0.5686490000    -1.5099830000    -0.5586680000
| 21>  H        2.4119870000     0.8991030000    -0.0544550000
| 22>  H        2.7806300000    -0.4411410000    -1.1265830000
| 23>  H        2.7138690000    -2.0171640000     0.8058720000
| 24>  H        2.3414480000    -0.6631680000     1.8890000000
| 25>  H        6.5524440000    -1.5383070000     2.9790250000
| 26>  H        6.5481760000    -0.3599340000     1.5044390000
| 27> *
| 28>
| 29>                          ****END OF INPUT****
 Total Charge           Charge          ....    0
 Multiplicity           Mult            ....    1
 Number of Electrons    NEL             ....   48
 Basis Dimension        Dim             ....  129

MULLIKEN ATOMIC CHARGES
-----------------------
   0 C :   -0.040994
   1 C :   -0.060256
   2 C :    0.197011
   3 O :   -0.285780
   4 N :   -0.009934
   5 C :   -0.025358
   6 H :    0.027713
   7 H :    0.024816
   8 H :    0.025546
   9 H :    0.028161
  10 H :    0.021616
  11 H :    0.008099
  12 H :    0.006456
  13 H :    0.052097
  14 H :    0.030809
Sum of atomic charges:   -0.0000000

LOEWDIN ATOMIC CHARGES
----------------------
   0 C :   -0.063458
   1 C :   -0.057537
   2 C :    0.054855
   3 O :   -0.085600
   4 N :    0.010214
   5 C :   -0.050632
   6 H :    0.030496
   7 H :    0.026304
   8 H :    0.026594
   9 H :    0.028846
  10 H :    0.027775
  11 H :    0.010197
  12 H :    0.009997
  13 H :    0.026413
  14 H :    0.005535

  Mayer bond orders larger than 0.1
B(  0-C ,  1-C ) :   1.1049 B(  0-C ,  6-H ) :   0.9626 B(  0-C ,  7-H ) :   0.9678
B(  0-C ,  8-H ) :   0.9683 B(  1-C ,  2-C ) :   1.0796 B(  1-C ,  9-H ) :   0.9376
B(  1-C , 10-H ) :   0.9356 B(  2-C ,  3-O ) :   0.9523 B(  2-C , 11-H ) :   0.9429
B(  2-C , 12-H ) :   0.9425 B(  3-O ,  4-N ) :   0.9745 B(  3-O ,  5-C ) :   0.1239
B(  4-N ,  5-C ) :   1.9393 B(  5-C , 13-H ) :   0.9533 B(  5-C , 14-H ) :   0.9321

FINAL SINGLE POINT ENERGY      -287.172757125205

DIPOLE MOMENT
-------------
                                X             Y             Z
Electronic contribution:      6.16784      -0.85021       3.18435
Nuclear contribution   :     -6.25972       0.95756      -3.34953
                        -----------------------------------------
Total Dipole Moment    :     -0.09188       0.10735      -0.16517
                        -----------------------------------------
Magnitude (a.u.)       :      0.21737
Magnitude (Debye)      :      0.55250

                             ****ORCA TERMINATED NORMALLY****
TOTAL RUN TIME: 0 days 0 hours 0 minutes 6 seconds 170 msec
