                         Program Version 3.0.3 - RELEASE   -
|  1> ! RI PBE def2-SVP def2-SVP/J NBO PAL2
|  2> % maxcore 2000
|  3> % output
|  4>     # printlevel mini
|  5>     print[ P_Basis ] 0
|  6>     print[ P_SCFInfo ] 1
|  7>     print[ P_SCFIterInfo ] 1
|  8>     print[ P_OrbEn ] 0
|  9>     print[ P_Cartesian ] 0
| 10> end
| 11> *xyz 0 1
| 12>  C        1.0413820000    -0.0907540000     0.1581440000
| 13>  C        2.5407030000     0.1535420000     0.0012090000
| 14>  N        3.2055710000     0.6001790000     1.2122630000
| 15>  C        3.2123910000    -1.0975220000    -0.5120840000
| 16>  C        4.6038930000    -1.4249800000    -0.2354870000
| 17>  O        3.5458320000    -2.0767460000     0.4624750000
| 18>  H        0.5376420000     0.8143610000     0.5065360000
| 19>  H        0.8602920000    -0.8848400000     0.8878700000
| 20>  H        0.5797010000    -0.3874470000    -0.7883430000
| 21>  H        2.6904710000     0.9261960000    -0.7642060000
| 22>  H        3.1416300000    -0.1293710000     1.9141350000
| 23>  H        2.7470510000     1.4218340000     1.5838490000
| 24>  H        2.7611710000    -1.5124370000    -1.4133070000
| 25>  H        5.1911020000    -0.7364160000     0.3633530000
| 26>  H        5.1509590000    -2.0581000000    -0.9297080000
| 27> *
| 28>
| 29>                          ****END OF INPUT****
 Total Charge           Charge          ....    0
 Multiplicity           Mult            ....    1
 Number of Electrons    NEL             ....   48
 Basis Dimension        Dim             ....  129

MULLIKEN ATOMIC CHARGES
-----------------------
   0 C :    0.012909
   1 C :    0.018217
   2 N :   -0.182354
   3 C :   -0.013620
   4 C :    0.166706
   5 O :   -0.306455
   6 H :    0.013959
   7 H :    0.024035
   8 H :    0.010560
   9 H :    0.016300
  10 H :    0.096204
  11 H :    0.084878
  12 H :    0.008834
  13 H :    0.025232
  14 H :    0.024594
Sum of atomic charges:   -0.0000000

LOEWDIN ATOMIC CHARGES
----------------------
   0 C :   -0.075388
   1 C :   -0.015571
   2 N :   -0.087671
   3 C :    0.037472
   4 C :    0.057309
   5 O :   -0.163980
   6 H :    0.022024
   7 H :    0.027527
   8 H :    0.025176
   9 H :    0.028688
  10 H :    0.049653
  11 H :    0.052314
  12 H :    0.014336
  13 H :    0.014457
  14 H :    0.013656

  Mayer bond orders larger than 0.1
B(  0-C ,  1-C ) :   1.0756 B(  0-C ,  6-H ) :   0.9587 B(  0-C ,  7-H ) :   0.9582
B(  0-C ,  8-H ) :   0.9451 B(  1-C ,  2-N ) :   1.1007 B(  1-C ,  3-C ) :   0.9834
B(  1-C ,  9-H ) :   0.9046 B(  2-N , 10-H ) :   0.9561 B(  2-N , 11-H ) :   0.9645
B(  3-C ,  4-C ) :   1.0984 B(  3-C ,  5-O ) :   0.9813 B(  3-C , 12-H ) :   0.9406
B(  4-C ,  5-O ) :   0.9885 B(  4-C , 13-H ) :   0.9138 B(  4-C , 14-H ) :   0.9358

FINAL SINGLE POINT ENERGY      -287.198205593262

DIPOLE MOMENT
-------------
                                X             Y             Z
Electronic contribution:      2.92116      -2.63568       0.30221
Nuclear contribution   :     -3.22331       3.11446      -0.52567
                        -----------------------------------------
Total Dipole Moment    :     -0.30216       0.47878      -0.22346
                        -----------------------------------------
Magnitude (a.u.)       :      0.60866
Magnitude (Debye)      :      1.54709

                             ****ORCA TERMINATED NORMALLY****
TOTAL RUN TIME: 0 days 0 hours 0 minutes 6 seconds 116 msec
