                         Program Version 3.0.3 - RELEASE   -
|  1> ! RI PBE def2-SVP def2-SVP/J NBO PAL2
|  2> % maxcore 2000
|  3> % output
|  4>     # printlevel mini
|  5>     print[ P_Basis ] 0
|  6>     print[ P_SCFInfo ] 1
|  7>     print[ P_SCFIterInfo ] 1
|  8>     print[ P_OrbEn ] 0
|  9>     print[ P_Cartesian ] 0
| 10> end
| 11> *xyz 0 1
| 12>  C        1.2210660000     0.2410350000    -0.2287240000
| 13>  C        2.6928870000     0.5940190000    -0.2159750000
| 14>  N        3.4433700000    -0.3212730000     0.6249950000
| 15>  C        4.8764380000    -0.0804870000     0.6625520000
| 16>  C        5.1898340000     1.0056660000     1.6788440000
| 17>  O        4.6124540000     0.6957410000     2.9208360000
| 18>  H        0.6597350000     0.9399490000    -0.8519320000
| 19>  H        0.8068000000     0.2686350000     0.7811890000
| 20>  H        1.0598580000    -0.7634460000    -0.6318940000
| 21>  H        2.8222860000     1.6069240000     0.1772730000
| 22>  H        3.0836260000     0.6105700000    -1.2480360000
| 23>  H        3.2532650000    -1.2738430000     0.3441840000
| 24>  H        5.2901750000     0.1934290000    -0.3218520000
| 25>  H        5.3643920000    -1.0041350000     0.9856000000
| 26>  H        4.8341650000     1.9813090000     1.3134570000
| 27>  H        6.2716830000     1.0866320000     1.8150850000
| 28>  H        3.7709620000     0.2715940000     2.6965780000
| 29> *
| 30>
| 31>                          ****END OF INPUT****
 Total Charge           Charge          ....    0
 Multiplicity           Mult            ....    1
 Number of Electrons    NEL             ....   50
 Basis Dimension        Dim             ....  139

MULLIKEN ATOMIC CHARGES
-----------------------
   0 C :   -0.031807
   1 C :    0.058994
   2 N :   -0.273406
   3 C :    0.030269
   4 C :    0.181709
   5 O :   -0.294730
   6 H :    0.028663
   7 H :    0.028772
   8 H :    0.018808
   9 H :    0.020220
  10 H :   -0.004820
  11 H :    0.104531
  12 H :   -0.010363
  13 H :    0.013338
  14 H :   -0.015953
  15 H :    0.010340
  16 H :    0.135435
Sum of atomic charges:   -0.0000000

LOEWDIN ATOMIC CHARGES
----------------------
   0 C :   -0.071013
   1 C :    0.008402
   2 N :   -0.092609
   3 C :   -0.010014
   4 C :    0.045275
   5 O :   -0.132101
   6 H :    0.032795
   7 H :    0.028397
   8 H :    0.023811
   9 H :    0.021585
  10 H :    0.002752
  11 H :    0.056586
  12 H :    0.004860
  13 H :    0.022895
  14 H :   -0.003420
  15 H :    0.018654
  16 H :    0.043145

  Mayer bond orders larger than 0.1
B(  0-C ,  1-C ) :   1.1191 B(  0-C ,  6-H ) :   0.9584 B(  0-C ,  7-H ) :   0.9637
B(  0-C ,  8-H ) :   0.9650 B(  1-C ,  2-N ) :   1.0122 B(  1-C ,  9-H ) :   0.9390
B(  1-C , 10-H ) :   0.9253 B(  2-N ,  3-C ) :   1.0668 B(  2-N , 11-H ) :   0.9418
B(  2-N , 16-H ) :   0.1034 B(  3-C ,  4-C ) :   1.0852 B(  3-C , 12-H ) :   0.9110
B(  3-C , 13-H ) :   0.9362 B(  4-C ,  5-O ) :   1.0850 B(  4-C , 14-H ) :   0.9137
B(  4-C , 15-H ) :   0.9400 B(  5-O , 16-H ) :   0.9563

FINAL SINGLE POINT ENERGY      -288.421628623974

DIPOLE MOMENT
-------------
                                X             Y             Z
Electronic contribution:      2.66327      -0.35892       3.89039
Nuclear contribution   :     -2.98262       0.00408      -4.87720
                        -----------------------------------------
Total Dipole Moment    :     -0.31935      -0.35484      -0.98681
                        -----------------------------------------
Magnitude (a.u.)       :      1.09622
Magnitude (Debye)      :      2.78636

                             ****ORCA TERMINATED NORMALLY****
TOTAL RUN TIME: 0 days 0 hours 0 minutes 6 seconds 877 msec
