                         Program Version 3.0.3 - RELEASE   -
|  1> ! RI PBE def2-SVP def2-SVP/J NBO PAL2
|  2> % maxcore 2000
|  3> % output
|  4>     # printlevel mini
|  5>     print[ P_Basis ] 0
|  6>     print[ P_SCFInfo ] 1
|  7>     print[ P_SCFIterInfo ] 1
|  8>     print[ P_OrbEn ] 0
|  9>     print[ P_Cartesian ] 0
| 10> end
| 11> *xyz 0 1
| 12>  C        1.1481900000    -0.0087280000    -0.3085730000
| 13>  C        2.6181510000     0.1321240000     0.0602820000
| 14>  N        2.9986720000     1.5077630000     0.4046170000
| 15>  C        3.0088830000    -0.8023100000     1.1999470000
| 16>  C        4.5012790000    -0.8279790000     1.4939250000
| 17>  O        4.9906210000     0.3870230000     2.0018430000
| 18>  H        0.8825770000     0.6660480000    -1.1269650000
| 19>  H        0.5123730000     0.2344570000     0.5488080000
| 20>  H        0.9105610000    -1.0285990000    -0.6223420000
| 21>  H        3.2242850000    -0.1398360000    -0.8130750000
| 22>  H        2.3932260000     1.8578170000     1.1408370000
| 23>  H        2.8754400000     2.1216690000    -0.3917880000
| 24>  H        2.6805530000    -1.8165810000     0.9481550000
| 25>  H        2.4677160000    -0.5114200000     2.1097890000
| 26>  H        5.0399150000    -1.1182550000     0.5759780000
| 27>  H        4.7138410000    -1.5971880000     2.2422630000
| 28>  H        4.5912180000     1.0790760000     1.4462080000
| 29> *
| 30>
| 31>                          ****END OF INPUT****
 Total Charge           Charge          ....    0
 Multiplicity           Mult            ....    1
 Number of Electrons    NEL             ....   50
 Basis Dimension        Dim             ....  139

MULLIKEN ATOMIC CHARGES
-----------------------
   0 C :    0.033132
   1 C :   -0.066313
   2 N :   -0.200838
   3 C :   -0.040369
   4 C :    0.216769
   5 O :   -0.302013
   6 H :    0.011758
   7 H :    0.013463
   8 H :    0.017508
   9 H :    0.007669
  10 H :    0.100112
  11 H :    0.099770
  12 H :    0.003091
  13 H :    0.003307
  14 H :   -0.026499
  15 H :    0.001053
  16 H :    0.128399
Sum of atomic charges:   -0.0000000

LOEWDIN ATOMIC CHARGES
----------------------
   0 C :   -0.075909
   1 C :   -0.005214
   2 N :   -0.062402
   3 C :   -0.064290
   4 C :    0.054913
   5 O :   -0.141911
   6 H :    0.021559
   7 H :    0.023676
   8 H :    0.029137
   9 H :    0.022713
  10 H :    0.055547
  11 H :    0.056564
  12 H :    0.028720
  13 H :    0.021463
  14 H :   -0.002988
  15 H :    0.015606
  16 H :    0.022816

  Mayer bond orders larger than 0.1
B(  0-C ,  1-C ) :   1.0836 B(  0-C ,  6-H ) :   0.9586 B(  0-C ,  7-H ) :   0.9533
B(  0-C ,  8-H ) :   0.9470 B(  1-C ,  2-N ) :   1.0427 B(  1-C ,  3-C ) :   1.0642
B(  1-C ,  9-H ) :   0.9139 B(  2-N , 10-H ) :   0.9613 B(  2-N , 11-H ) :   0.9641
B(  2-N , 16-H ) :   0.1571 B(  3-C ,  4-C ) :   1.0804 B(  3-C , 12-H ) :   0.9192
B(  3-C , 13-H ) :   0.9176 B(  4-C ,  5-O ) :   1.0986 B(  4-C , 14-H ) :   0.9157
B(  4-C , 15-H ) :   0.9381 B(  5-O , 16-H ) :   0.9377

FINAL SINGLE POINT ENERGY      -288.434482991464

DIPOLE MOMENT
-------------
                                X             Y             Z
Electronic contribution:      3.79855       1.43293       2.01353
Nuclear contribution   :     -4.87898      -1.26220      -2.77332
                        -----------------------------------------
Total Dipole Moment    :     -1.08043       0.17073      -0.75980
                        -----------------------------------------
Magnitude (a.u.)       :      1.33183
Magnitude (Debye)      :      3.38523

                             ****ORCA TERMINATED NORMALLY****
TOTAL RUN TIME: 0 days 0 hours 0 minutes 7 seconds 9 msec
