                         Program Version 3.0.3 - RELEASE   -
|  1> ! RI PBE def2-SVP def2-SVP/J NBO PAL2
|  2> % maxcore 2000
|  3> % output
|  4>     # printlevel mini
|  5>     print[ P_Basis ] 0
|  6>     print[ P_SCFInfo ] 1
|  7>     print[ P_SCFIterInfo ] 1
|  8>     print[ P_OrbEn ] 0
|  9>     print[ P_Cartesian ] 0
| 10> end
| 11> *xyz 0 1
| 12>  C        1.0860090000    -0.1076710000    -0.0384550000
| 13>  C        2.5800330000    -0.0970470000     0.0057220000
| 14>  N        3.1204910000    -1.1745590000     0.6217320000
| 15>  C        3.2864000000     0.9304610000    -0.5406840000
| 16>  C        4.7190610000     1.0361340000    -0.5512400000
| 17>  O        5.3505420000     1.9513140000    -1.0373410000
| 18>  H        0.7256880000    -0.9942730000    -0.5691500000
| 19>  H        0.7042620000     0.7773550000    -0.5422820000
| 20>  H        0.6739640000    -0.1375860000     0.9748850000
| 21>  H        2.5298660000    -1.8905690000     0.9988880000
| 22>  H        4.1118330000    -1.2876270000     0.7173460000
| 23>  H        2.7390230000     1.7392820000    -1.0078530000
| 24>  H        5.2795360000     0.1998770000    -0.0679890000
| 25> *
| 26>
| 27>                          ****END OF INPUT****
 Total Charge           Charge          ....    0
 Multiplicity           Mult            ....    1
 Number of Electrons    NEL             ....   46
 Basis Dimension        Dim             ....  119

MULLIKEN ATOMIC CHARGES
-----------------------
   0 C :    0.039507
   1 C :   -0.111249
   2 N :   -0.027250
   3 C :   -0.046651
   4 C :    0.094733
   5 O :   -0.203020
   6 H :    0.045321
   7 H :    0.034631
   8 H :    0.043407
   9 H :    0.109193
  10 H :    0.108014
  11 H :   -0.017502
  12 H :   -0.069134
Sum of atomic charges:    0.0000000

LOEWDIN ATOMIC CHARGES
----------------------
   0 C :   -0.056286
   1 C :    0.033249
   2 N :    0.035485
   3 C :   -0.168449
   4 C :    0.044222
   5 O :   -0.154120
   6 H :    0.040977
   7 H :    0.043296
   8 H :    0.040573
   9 H :    0.074311
  10 H :    0.067748
  11 H :    0.030909
  12 H :   -0.031915

  Mayer bond orders larger than 0.1
B(  0-C ,  1-C ) :   1.0690 B(  0-C ,  6-H ) :   0.9460 B(  0-C ,  7-H ) :   0.9495
B(  0-C ,  8-H ) :   0.9457 B(  1-C ,  2-N ) :   1.3517 B(  1-C ,  3-C ) :   1.5335
B(  2-N ,  9-H ) :   0.9474 B(  2-N , 10-H ) :   0.9420 B(  3-C ,  4-C ) :   1.1167
B(  3-C , 11-H ) :   0.9358 B(  4-C ,  5-O ) :   2.0654 B(  4-C , 12-H ) :   0.9224

FINAL SINGLE POINT ENERGY      -286.038538041215

DIPOLE MOMENT
-------------
                                X             Y             Z
Electronic contribution:      5.02572       2.44173      -1.18447
Nuclear contribution   :     -6.34414      -4.12934       2.07760
                        -----------------------------------------
Total Dipole Moment    :     -1.31842      -1.68761       0.89314
                        -----------------------------------------
Magnitude (a.u.)       :      2.32033
Magnitude (Debye)      :      5.89781

                             ****ORCA TERMINATED NORMALLY****
TOTAL RUN TIME: 0 days 0 hours 0 minutes 5 seconds 722 msec
