                         Program Version 3.0.3 - RELEASE   -
|  1> ! RI PBE def2-SVP def2-SVP/J NBO PAL2
|  2> % maxcore 2000
|  3> % output
|  4>     # printlevel mini
|  5>     print[ P_Basis ] 0
|  6>     print[ P_SCFInfo ] 1
|  7>     print[ P_SCFIterInfo ] 1
|  8>     print[ P_OrbEn ] 0
|  9>     print[ P_Cartesian ] 0
| 10> end
| 11> *xyz 0 1
| 12>  C        0.9925120000    -0.0295960000    -0.0188300000
| 13>  C        2.5155610000    -0.0718850000     0.0735150000
| 14>  N        3.1822450000     0.9904640000    -0.6607640000
| 15>  C        2.9863990000    -0.0454700000     1.5319180000
| 16>  C        4.4785450000    -0.2318180000     1.6738950000
| 17>  O        2.6624310000     1.1953130000     2.1497130000
| 18>  H        0.6675170000    -0.1138780000    -1.0589330000
| 19>  H        0.5999050000     0.9192690000     0.3617080000
| 20>  H        0.5271600000    -0.8474230000     0.5409640000
| 21>  H        2.8533080000    -1.0295880000    -0.3430230000
| 22>  H        3.0118980000     1.8742070000    -0.1929810000
| 23>  H        2.8126870000     1.0657770000    -1.5998620000
| 24>  H        2.4711760000    -0.8617710000     2.0594670000
| 25>  H        5.0091410000     0.5613300000     1.1469010000
| 26>  H        4.7851610000    -1.1895800000     1.2478890000
| 27>  H        4.7597200000    -0.2115030000     2.7280100000
| 28>  H        1.7094340000     1.2416730000     2.2578030000
| 29> *
| 30>
| 31>                          ****END OF INPUT****
 Total Charge           Charge          ....    0
 Multiplicity           Mult            ....    1
 Number of Electrons    NEL             ....   50
 Basis Dimension        Dim             ....  139

MULLIKEN ATOMIC CHARGES
-----------------------
   0 C :    0.023930
   1 C :   -0.043030
   2 N :   -0.174383
   3 C :    0.044248
   4 C :    0.065332
   5 O :   -0.270651
   6 H :    0.015829
   7 H :   -0.004522
   8 H :    0.006293
   9 H :   -0.005745
  10 H :    0.082441
  11 H :    0.082721
  12 H :   -0.012811
  13 H :    0.022730
  14 H :    0.003573
  15 H :    0.016158
  16 H :    0.147888
Sum of atomic charges:    0.0000000

LOEWDIN ATOMIC CHARGES
----------------------
   0 C :   -0.083538
   1 C :   -0.020307
   2 N :   -0.090984
   3 C :    0.045628
   4 C :   -0.064186
   5 O :   -0.113977
   6 H :    0.024833
   7 H :    0.014071
   8 H :    0.023075
   9 H :    0.020699
  10 H :    0.042567
  11 H :    0.049025
  12 H :    0.005563
  13 H :    0.029297
  14 H :    0.028581
  15 H :    0.026199
  16 H :    0.063454

  Mayer bond orders larger than 0.1
B(  0-C ,  1-C ) :   1.0656 B(  0-C ,  6-H ) :   0.9580 B(  0-C ,  7-H ) :   0.9460
B(  0-C ,  8-H ) :   0.9448 B(  1-C ,  2-N ) :   1.0828 B(  1-C ,  3-C ) :   1.0006
B(  1-C ,  9-H ) :   0.9003 B(  2-N , 10-H ) :   0.9539 B(  2-N , 11-H ) :   0.9669
B(  3-C ,  4-C ) :   1.0924 B(  3-C ,  5-O ) :   1.0353 B(  3-C , 12-H ) :   0.9207
B(  4-C , 13-H ) :   0.9451 B(  4-C , 14-H ) :   0.9522 B(  4-C , 15-H ) :   0.9550
B(  5-O , 16-H ) :   0.9811

FINAL SINGLE POINT ENERGY      -288.430166134676

DIPOLE MOMENT
-------------
                                X             Y             Z
Electronic contribution:      0.53166       1.93030       1.36307
Nuclear contribution   :     -1.35760      -2.12016      -1.56057
                        -----------------------------------------
Total Dipole Moment    :     -0.82595      -0.18985      -0.19750
                        -----------------------------------------
Magnitude (a.u.)       :      0.87019
Magnitude (Debye)      :      2.21186

                             ****ORCA TERMINATED NORMALLY****
TOTAL RUN TIME: 0 days 0 hours 0 minutes 6 seconds 321 msec
