                         Program Version 3.0.3 - RELEASE   -
|  1> ! RI PBE def2-SVP def2-SVP/J NBO PAL2
|  2> % maxcore 2000
|  3> % output
|  4>     # printlevel mini
|  5>     print[ P_Basis ] 0
|  6>     print[ P_SCFInfo ] 1
|  7>     print[ P_SCFIterInfo ] 1
|  8>     print[ P_OrbEn ] 0
|  9>     print[ P_Cartesian ] 0
| 10> end
| 11> *xyz 0 1
| 12>  C        2.5644000000    -0.6782550000    -1.3891040000
| 13>  C        2.6436290000    -0.1995840000     0.0508670000
| 14>  N        3.0552000000    -1.2342250000     0.9777410000
| 15>  C        2.0813730000    -2.1960740000     1.4171070000
| 16>  C        4.3403980000    -1.2891590000     1.3948490000
| 17>  O        5.2229740000    -0.5321310000     1.0564070000
| 18>  H        2.2385330000     0.1371210000    -2.0388230000
| 19>  H        1.8539600000    -1.4999560000    -1.5073430000
| 20>  H        3.5437160000    -1.0161960000    -1.7326630000
| 21>  H        1.6727500000     0.1852940000     0.3811020000
| 22>  H        3.3737270000     0.6062180000     0.1362880000
| 23>  H        1.2500390000    -1.7053390000     1.9342230000
| 24>  H        2.5497990000    -2.8973610000     2.1092210000
| 25>  H        1.6724640000    -2.7691860000     0.5791640000
| 26>  H        4.5121280000    -2.1212780000     2.1043840000
| 27> *
| 28>
| 29>                          ****END OF INPUT****
 Total Charge           Charge          ....    0
 Multiplicity           Mult            ....    1
 Number of Electrons    NEL             ....   48
 Basis Dimension        Dim             ....  129

MULLIKEN ATOMIC CHARGES
-----------------------
   0 C :   -0.038284
   1 C :    0.071621
   2 N :   -0.254593
   3 C :    0.093653
   4 C :    0.146297
   5 O :   -0.240243
   6 H :    0.031481
   7 H :    0.022170
   8 H :    0.041477
   9 H :    0.009825
  10 H :    0.040940
  11 H :    0.030995
  12 H :    0.035295
  13 H :    0.031997
  14 H :   -0.022632
Sum of atomic charges:    0.0000000

LOEWDIN ATOMIC CHARGES
----------------------
   0 C :   -0.072137
   1 C :    0.025832
   2 N :   -0.028415
   3 C :    0.018465
   4 C :    0.042724
   5 O :   -0.189558
   6 H :    0.034198
   7 H :    0.023089
   8 H :    0.034267
   9 H :    0.020432
  10 H :    0.032049
  11 H :    0.023267
  12 H :    0.029909
  13 H :    0.021989
  14 H :   -0.016109

  Mayer bond orders larger than 0.1
B(  0-C ,  1-C ) :   1.1278 B(  0-C ,  6-H ) :   0.9583 B(  0-C ,  7-H ) :   0.9634
B(  0-C ,  8-H ) :   0.9641 B(  1-C ,  2-N ) :   0.9742 B(  1-C ,  9-H ) :   0.9384
B(  1-C , 10-H ) :   0.9252 B(  2-N ,  3-C ) :   1.0087 B(  2-N ,  4-C ) :   1.1948
B(  2-N ,  5-O ) :   0.1054 B(  3-C , 11-H ) :   0.9609 B(  3-C , 12-H ) :   0.9576
B(  3-C , 13-H ) :   0.9596 B(  4-C ,  5-O ) :   1.9985 B(  4-C , 14-H ) :   0.9206

FINAL SINGLE POINT ENERGY      -287.254640964562

DIPOLE MOMENT
-------------
                                X             Y             Z
Electronic contribution:      5.37725       1.18031       2.99722
Nuclear contribution   :     -6.70583      -1.72749      -3.01953
                        -----------------------------------------
Total Dipole Moment    :     -1.32858      -0.54718      -0.02231
                        -----------------------------------------
Magnitude (a.u.)       :      1.43702
Magnitude (Debye)      :      3.65261

                             ****ORCA TERMINATED NORMALLY****
TOTAL RUN TIME: 0 days 0 hours 0 minutes 6 seconds 283 msec
