                         Program Version 3.0.3 - RELEASE   -
|  1> ! RI PBE def2-SVP def2-SVP/J NBO PAL2
|  2> % maxcore 2000
|  3> % output
|  4>     # printlevel mini
|  5>     print[ P_Basis ] 0
|  6>     print[ P_SCFInfo ] 1
|  7>     print[ P_SCFIterInfo ] 1
|  8>     print[ P_OrbEn ] 0
|  9>     print[ P_Cartesian ] 0
| 10> end
| 11> *xyz 0 1
| 12>  C        2.4471860000     1.1525770000    -0.9539300000
| 13>  C        2.6194370000    -0.0760340000    -0.0775100000
| 14>  N        3.0948710000     0.2347270000     1.2508410000
| 15>  C        4.4019350000     0.1286690000     1.6005120000
| 16>  C        4.7333640000     0.5431620000     3.0132970000
| 17>  O        5.2561910000    -0.2806580000     0.8386940000
| 18>  H        2.0842630000     0.8677310000    -1.9444490000
| 19>  H        3.4000890000     1.6710500000    -1.0751830000
| 20>  H        1.7274960000     1.8531390000    -0.5218440000
| 21>  H        3.3552440000    -0.7513380000    -0.5159700000
| 22>  H        1.6751090000    -0.6219450000     0.0080900000
| 23>  H        2.4538570000     0.6347110000     1.9129520000
| 24>  H        3.8700630000     0.8792100000     3.5899980000
| 25>  H        5.4726480000     1.3446170000     2.9753020000
| 26>  H        5.1958360000    -0.3033090000     3.5229100000
| 27> *
| 28>
| 29>                          ****END OF INPUT****
 Total Charge           Charge          ....    0
 Multiplicity           Mult            ....    1
 Number of Electrons    NEL             ....   48
 Basis Dimension        Dim             ....  129

MULLIKEN ATOMIC CHARGES
-----------------------
   0 C :   -0.034163
   1 C :    0.061867
   2 N :   -0.140349
   3 C :   -0.022638
   4 C :    0.012637
   5 O :   -0.231713
   6 H :    0.025739
   7 H :    0.037798
   8 H :    0.017663
   9 H :    0.039418
  10 H :    0.017090
  11 H :    0.107554
  12 H :    0.000467
  13 H :    0.054679
  14 H :    0.053951
Sum of atomic charges:   -0.0000000

LOEWDIN ATOMIC CHARGES
----------------------
   0 C :   -0.074158
   1 C :    0.017155
   2 N :    0.000377
   3 C :    0.021902
   4 C :   -0.091072
   5 O :   -0.203538
   6 H :    0.031352
   7 H :    0.032722
   8 H :    0.021722
   9 H :    0.032805
  10 H :    0.021802
  11 H :    0.068491
  12 H :    0.021437
  13 H :    0.049127
  14 H :    0.049876

  Mayer bond orders larger than 0.1
B(  0-C ,  1-C ) :   1.1247 B(  0-C ,  6-H ) :   0.9580 B(  0-C ,  7-H ) :   0.9653
B(  0-C ,  8-H ) :   0.9667 B(  1-C ,  2-N ) :   0.9923 B(  1-C ,  9-H ) :   0.9238
B(  1-C , 10-H ) :   0.9451 B(  2-N ,  3-C ) :   1.2096 B(  2-N , 11-H ) :   0.9245
B(  3-C ,  4-C ) :   1.0312 B(  3-C ,  5-O ) :   2.0372 B(  4-C , 12-H ) :   0.9444
B(  4-C , 13-H ) :   0.9457 B(  4-C , 14-H ) :   0.9435

FINAL SINGLE POINT ENERGY      -287.268597565227

DIPOLE MOMENT
-------------
                                X             Y             Z
Electronic contribution:      3.12652      -2.29994       1.01592
Nuclear contribution   :     -4.29373       2.75728      -0.48505
                        -----------------------------------------
Total Dipole Moment    :     -1.16721       0.45733       0.53087
                        -----------------------------------------
Magnitude (a.u.)       :      1.36138
Magnitude (Debye)      :      3.46035

                             ****ORCA TERMINATED NORMALLY****
TOTAL RUN TIME: 0 days 0 hours 0 minutes 6 seconds 338 msec
