                         Program Version 3.0.3 - RELEASE   -
|  1> ! RI PBE def2-SVP def2-SVP/J NBO PAL2
|  2> % maxcore 2000
|  3> % output
|  4>     # printlevel mini
|  5>     print[ P_Basis ] 0
|  6>     print[ P_SCFInfo ] 1
|  7>     print[ P_SCFIterInfo ] 1
|  8>     print[ P_OrbEn ] 0
|  9>     print[ P_Cartesian ] 0
| 10> end
| 11> *xyz 0 1
| 12>  C        1.3562430000     0.3528170000    -0.6501030000
| 13>  C        2.8521710000     0.1356660000    -0.5743350000
| 14>  N        3.2399700000    -0.3580580000     0.7340140000
| 15>  C        4.6498490000    -0.6285110000     0.8675140000
| 16>  C        5.0282820000    -0.8631700000     2.3070860000
| 17>  O        5.9190180000    -1.5826240000     2.6641020000
| 18>  H        1.0718820000     0.7558590000    -1.6240690000
| 19>  H        1.0283460000     1.0487400000     0.1244630000
| 20>  H        0.8140210000    -0.5873880000    -0.5119590000
| 21>  H        3.3735210000     1.0855200000    -0.7369550000
| 22>  H        3.1714890000    -0.5372720000    -1.3887130000
| 23>  H        2.7045330000    -1.1907230000     0.9515700000
| 24>  H        5.2008340000     0.2716920000     0.5590000000
| 25>  H        5.0377070000    -1.4585800000     0.2573470000
| 26>  H        4.4110440000    -0.2933790000     3.0352460000
| 27> *
| 28>
| 29>                          ****END OF INPUT****
 Total Charge           Charge          ....    0
 Multiplicity           Mult            ....    1
 Number of Electrons    NEL             ....   48
 Basis Dimension        Dim             ....  129

MULLIKEN ATOMIC CHARGES
-----------------------
   0 C :   -0.035484
   1 C :    0.072423
   2 N :   -0.290442
   3 C :    0.120402
   4 C :    0.062372
   5 O :   -0.156120
   6 H :    0.023425
   7 H :    0.033661
   8 H :    0.021578
   9 H :    0.010137
  10 H :   -0.007643
  11 H :    0.102185
  12 H :    0.039779
  13 H :    0.013246
  14 H :   -0.009518
Sum of atomic charges:   -0.0000000

LOEWDIN ATOMIC CHARGES
----------------------
   0 C :   -0.071197
   1 C :    0.010349
   2 N :   -0.101942
   3 C :   -0.028716
   4 C :    0.081628
   5 O :   -0.103044
   6 H :    0.031791
   7 H :    0.029622
   8 H :    0.024582
   9 H :    0.020812
  10 H :    0.000424
  11 H :    0.056261
  12 H :    0.047571
  13 H :    0.014436
  14 H :   -0.012576

  Mayer bond orders larger than 0.1
B(  0-C ,  1-C ) :   1.1184 B(  0-C ,  6-H ) :   0.9569 B(  0-C ,  7-H ) :   0.9642
B(  0-C ,  8-H ) :   0.9668 B(  1-C ,  2-N ) :   1.0250 B(  1-C ,  9-H ) :   0.9366
B(  1-C , 10-H ) :   0.9247 B(  2-N ,  3-C ) :   1.0117 B(  2-N , 11-H ) :   0.9472
B(  3-C ,  4-C ) :   0.9497 B(  3-C , 12-H ) :   0.9050 B(  3-C , 13-H ) :   0.9063
B(  4-C ,  5-O ) :   2.1832 B(  4-C , 14-H ) :   0.9220

FINAL SINGLE POINT ENERGY      -287.218780989041

DIPOLE MOMENT
-------------
                                X             Y             Z
Electronic contribution:      6.47784      -3.04853       6.08457
Nuclear contribution   :     -7.17724       3.33146      -6.81223
                        -----------------------------------------
Total Dipole Moment    :     -0.69939       0.28292      -0.72766
                        -----------------------------------------
Magnitude (a.u.)       :      1.04818
Magnitude (Debye)      :      2.66426

                             ****ORCA TERMINATED NORMALLY****
TOTAL RUN TIME: 0 days 0 hours 0 minutes 5 seconds 857 msec
