                         Program Version 3.0.3 - RELEASE   -
|  1> ! RI PBE def2-SVP def2-SVP/J NBO PAL2
|  2> % maxcore 2000
|  3> % output
|  4>     # printlevel mini
|  5>     print[ P_Basis ] 0
|  6>     print[ P_SCFInfo ] 1
|  7>     print[ P_SCFIterInfo ] 1
|  8>     print[ P_OrbEn ] 0
|  9>     print[ P_Cartesian ] 0
| 10> end
| 11> *xyz 0 1
| 12>  C        0.9761410000    -0.0761830000    -0.0565130000
| 13>  C        2.4696990000    -0.0609710000    -0.1382000000
| 14>  N        3.1719530000     0.1357790000    -1.1903380000
| 15>  O        2.4012540000     0.3449810000    -2.3102510000
| 16>  C        3.2043770000    -0.2853540000     1.0637750000
| 17>  C        3.7513140000    -0.4816430000     2.1157390000
| 18>  H        0.5268540000     0.1055050000    -1.0292000000
| 19>  H        0.6386380000     0.6863680000     0.6493360000
| 20>  H        0.6386430000    -1.0421120000     0.3264860000
| 21>  H        3.0609540000     0.4735450000    -2.9976170000
| 22>  H        4.2567640000    -0.6535160000     3.0365740000
| 23> *
| 24>
| 25>                          ****END OF INPUT****
 Total Charge           Charge          ....    0
 Multiplicity           Mult            ....    1
 Number of Electrons    NEL             ....   44
 Basis Dimension        Dim             ....  109

MULLIKEN ATOMIC CHARGES
-----------------------
   0 C :    0.078296
   1 C :   -0.205962
   2 N :   -0.034738
   3 O :   -0.159536
   4 C :    0.439251
   5 C :   -0.436296
   6 H :    0.038880
   7 H :    0.048543
   8 H :    0.045133
   9 H :    0.178128
  10 H :    0.008301
Sum of atomic charges:    0.0000000

LOEWDIN ATOMIC CHARGES
----------------------
   0 C :   -0.063097
   1 C :   -0.073210
   2 N :   -0.004201
   3 O :   -0.037546
   4 C :   -0.014270
   5 C :   -0.056154
   6 H :    0.035276
   7 H :    0.048263
   8 H :    0.047761
   9 H :    0.079623
  10 H :    0.037556

  Mayer bond orders larger than 0.1
B(  0-C ,  1-C ) :   1.0596 B(  0-C ,  6-H ) :   0.9341 B(  0-C ,  7-H ) :   0.9442
B(  0-C ,  8-H ) :   0.9435 B(  1-C ,  2-N ) :   1.8283 B(  1-C ,  3-O ) :   0.1034
B(  1-C ,  4-C ) :   1.0073 B(  2-N ,  3-O ) :   1.0104 B(  3-O ,  9-H ) :   0.9719
B(  4-C ,  5-C ) :   2.2921 B(  5-C , 10-H ) :   1.0892

FINAL SINGLE POINT ENERGY      -284.726557575314

DIPOLE MOMENT
-------------
                                X             Y             Z
Electronic contribution:      3.43002       0.20751      -1.11084
Nuclear contribution   :     -3.69152      -0.17821       0.95494
                        -----------------------------------------
Total Dipole Moment    :     -0.26150       0.02930      -0.15590
                        -----------------------------------------
Magnitude (a.u.)       :      0.30585
Magnitude (Debye)      :      0.77741

                             ****ORCA TERMINATED NORMALLY****
TOTAL RUN TIME: 0 days 0 hours 0 minutes 4 seconds 728 msec
