                         Program Version 3.0.3 - RELEASE   -
|  1> ! RI PBE def2-SVP def2-SVP/J NBO PAL2
|  2> % maxcore 2000
|  3> % output
|  4>     # printlevel mini
|  5>     print[ P_Basis ] 0
|  6>     print[ P_SCFInfo ] 1
|  7>     print[ P_SCFIterInfo ] 1
|  8>     print[ P_OrbEn ] 0
|  9>     print[ P_Cartesian ] 0
| 10> end
| 11> *xyz 0 1
| 12>  C        2.2413770000    -1.3954000000    -0.5216820000
| 13>  C        2.8318790000    -0.0225960000    -0.3937710000
| 14>  O        2.8875200000     0.7539870000    -1.3203260000
| 15>  C        3.3549460000     0.3604680000     0.9484740000
| 16>  C        4.7362570000     0.9203510000     0.9718110000
| 17>  N        3.5941870000     1.7734730000     1.1942400000
| 18>  H        2.0001510000    -1.6071610000    -1.5614520000
| 19>  H        1.3322850000    -1.4576410000     0.0845260000
| 20>  H        2.9338330000    -2.1466880000    -0.1320360000
| 21>  H        3.0084470000    -0.2178870000     1.7987450000
| 22>  H        5.2514550000     0.9803560000     0.0182590000
| 23>  H        5.3586320000     0.7290220000     1.8390900000
| 24>  H        3.3768320000     2.2633070000     0.3271320000
| 25> *
| 26>
| 27>                          ****END OF INPUT****
 Total Charge           Charge          ....    0
 Multiplicity           Mult            ....    1
 Number of Electrons    NEL             ....   46
 Basis Dimension        Dim             ....  119

MULLIKEN ATOMIC CHARGES
-----------------------
   0 C :    0.022597
   1 C :   -0.003694
   2 O :   -0.178863
   3 C :   -0.107933
   4 C :    0.059809
   5 N :   -0.149886
   6 H :    0.035763
   7 H :    0.051697
   8 H :    0.047242
   9 H :    0.017024
  10 H :    0.048015
  11 H :    0.048160
  12 H :    0.110068
Sum of atomic charges:    0.0000000

LOEWDIN ATOMIC CHARGES
----------------------
   0 C :   -0.083340
   1 C :    0.045644
   2 O :   -0.134116
   3 C :   -0.045010
   4 C :    0.028603
   5 N :   -0.072462
   6 H :    0.040185
   7 H :    0.051919
   8 H :    0.046670
   9 H :    0.024438
  10 H :    0.020908
  11 H :    0.025260
  12 H :    0.051301

  Mayer bond orders larger than 0.1
B(  0-C ,  1-C ) :   1.0451 B(  0-C ,  6-H ) :   0.9415 B(  0-C ,  7-H ) :   0.9364
B(  0-C ,  8-H ) :   0.9440 B(  1-C ,  2-O ) :   2.1331 B(  1-C ,  3-C ) :   0.9332
B(  3-C ,  4-C ) :   1.0009 B(  3-C ,  5-N ) :   1.0255 B(  3-C ,  9-H ) :   0.9377
B(  4-C ,  5-N ) :   1.0074 B(  4-C , 10-H ) :   0.9396 B(  4-C , 11-H ) :   0.9423
B(  5-N , 12-H ) :   0.9294

FINAL SINGLE POINT ENERGY      -286.013581413260

DIPOLE MOMENT
-------------
                                X             Y             Z
Electronic contribution:     -0.23850       3.07540      -1.17827
Nuclear contribution   :      0.35945      -3.96105       1.43537
                        -----------------------------------------
Total Dipole Moment    :      0.12095      -0.88565       0.25710
                        -----------------------------------------
Magnitude (a.u.)       :      0.93011
Magnitude (Debye)      :      2.36414

                             ****ORCA TERMINATED NORMALLY****
TOTAL RUN TIME: 0 days 0 hours 0 minutes 5 seconds 769 msec
