                         Program Version 3.0.3 - RELEASE   -
|  1> ! RI PBE def2-SVP def2-SVP/J NBO PAL2
|  2> % maxcore 2000
|  3> % output
|  4>     # printlevel mini
|  5>     print[ P_Basis ] 0
|  6>     print[ P_SCFInfo ] 1
|  7>     print[ P_SCFIterInfo ] 1
|  8>     print[ P_OrbEn ] 0
|  9>     print[ P_Cartesian ] 0
| 10> end
| 11> *xyz 0 1
| 12>  C        1.0552200000     0.0582270000    -0.2900690000
| 13>  C        2.5600310000     0.1152830000    -0.0975550000
| 14>  O        3.2081210000    -0.9359880000    -0.7937620000
| 15>  C        3.1292460000     1.4191260000    -0.6004980000
| 16>  C        4.5261990000     1.5229600000    -1.0493830000
| 17>  N        3.4267050000     1.5892980000    -2.0152970000
| 18>  H        0.6479960000    -0.8861850000     0.0840550000
| 19>  H        0.8014460000     0.1521950000    -1.3484790000
| 20>  H        0.5641690000     0.8674750000     0.2553530000
| 21>  H        2.7878360000     0.0420200000     0.9771240000
| 22>  H        2.7458220000    -1.7551380000    -0.6041410000
| 23>  H        2.6699220000     2.2891280000    -0.1372300000
| 24>  H        5.1250910000     0.6194960000    -1.0249500000
| 25>  H        5.0699430000     2.4507230000    -0.9075110000
| 26>  H        3.3478630000     0.6818880000    -2.4665350000
| 27> *
| 28>
| 29>                          ****END OF INPUT****
 Total Charge           Charge          ....    0
 Multiplicity           Mult            ....    1
 Number of Electrons    NEL             ....   48
 Basis Dimension        Dim             ....  129

MULLIKEN ATOMIC CHARGES
-----------------------
   0 C :    0.009307
   1 C :    0.107409
   2 O :   -0.261914
   3 C :   -0.114874
   4 C :    0.054287
   5 N :   -0.199655
   6 H :    0.012301
   7 H :    0.024458
   8 H :    0.021206
   9 H :    0.005908
  10 H :    0.156983
  11 H :    0.017626
  12 H :    0.032467
  13 H :    0.029246
  14 H :    0.105245
Sum of atomic charges:    0.0000000

LOEWDIN ATOMIC CHARGES
----------------------
   0 C :   -0.074329
   1 C :    0.037468
   2 O :   -0.109079
   3 C :   -0.021510
   4 C :    0.000133
   5 N :   -0.104199
   6 H :    0.021764
   7 H :    0.030034
   8 H :    0.033692
   9 H :    0.012661
  10 H :    0.071682
  11 H :    0.021783
  12 H :    0.016779
  13 H :    0.017944
  14 H :    0.045177

  Mayer bond orders larger than 0.1
B(  0-C ,  1-C ) :   1.0875 B(  0-C ,  6-H ) :   0.9542 B(  0-C ,  7-H ) :   0.9575
B(  0-C ,  8-H ) :   0.9474 B(  1-C ,  2-O ) :   1.0621 B(  1-C ,  3-C ) :   1.0013
B(  1-C ,  9-H ) :   0.9121 B(  2-O , 10-H ) :   0.9741 B(  3-C ,  4-C ) :   1.0593
B(  3-C ,  5-N ) :   1.0115 B(  3-C , 11-H ) :   0.9343 B(  4-C ,  5-N ) :   1.0034
B(  4-C , 12-H ) :   0.9332 B(  4-C , 13-H ) :   0.9409 B(  5-N , 14-H ) :   0.9411

FINAL SINGLE POINT ENERGY      -287.197443983343

DIPOLE MOMENT
-------------
                                X             Y             Z
Electronic contribution:      2.34702      -0.16747      -1.33221
Nuclear contribution   :     -2.77004      -0.59959       1.98474
                        -----------------------------------------
Total Dipole Moment    :     -0.42302      -0.76706       0.65253
                        -----------------------------------------
Magnitude (a.u.)       :      1.09230
Magnitude (Debye)      :      2.77641

                             ****ORCA TERMINATED NORMALLY****
TOTAL RUN TIME: 0 days 0 hours 0 minutes 6 seconds 266 msec
