                         Program Version 3.0.3 - RELEASE   -
|  1> ! RI PBE def2-SVP def2-SVP/J NBO PAL2
|  2> % maxcore 2000
|  3> % output
|  4>     # printlevel mini
|  5>     print[ P_Basis ] 0
|  6>     print[ P_SCFInfo ] 1
|  7>     print[ P_SCFIterInfo ] 1
|  8>     print[ P_OrbEn ] 0
|  9>     print[ P_Cartesian ] 0
| 10> end
| 11> *xyz 0 1
| 12>  C        1.1480730000    -0.7232080000     0.2512250000
| 13>  C        2.6247930000    -0.5028590000     0.0418600000
| 14>  O        3.2363600000    -1.7357000000    -0.2438830000
| 15>  C        4.6228730000    -1.6260660000    -0.4562670000
| 16>  C        5.1556300000    -2.9823880000    -0.8429180000
| 17>  N        4.5919140000    -3.3946430000    -2.1162700000
| 18>  H        0.6516720000     0.2227590000     0.4783840000
| 19>  H        0.9753020000    -1.4116970000     1.0807430000
| 20>  H        0.6905770000    -1.1450770000    -0.6459240000
| 21>  H        3.0799540000    -0.0599090000     0.9416640000
| 22>  H        2.7975670000     0.2009790000    -0.7868070000
| 23>  H        5.1212540000    -1.2692380000     0.4581390000
| 24>  H        4.8260690000    -0.9060200000    -1.2628910000
| 25>  H        4.9534740000    -3.6794370000    -0.0144380000
| 26>  H        6.2427000000    -2.9041830000    -0.9440250000
| 27>  H        3.5825960000    -3.4247040000    -2.0366650000
| 28>  H        4.9021930000    -4.3256180000    -2.3623370000
| 29> *
| 30>
| 31>                          ****END OF INPUT****
 Total Charge           Charge          ....    0
 Multiplicity           Mult            ....    1
 Number of Electrons    NEL             ....   50
 Basis Dimension        Dim             ....  139

MULLIKEN ATOMIC CHARGES
-----------------------
   0 C :   -0.018211
   1 C :    0.134015
   2 O :   -0.358894
   3 C :    0.143207
   4 C :    0.072422
   5 N :   -0.223206
   6 H :    0.018917
   7 H :    0.030452
   8 H :    0.029195
   9 H :   -0.009466
  10 H :    0.001483
  11 H :   -0.007915
  12 H :   -0.002251
  13 H :    0.001170
  14 H :    0.011143
  15 H :    0.092054
  16 H :    0.085884
Sum of atomic charges:    0.0000000

LOEWDIN ATOMIC CHARGES
----------------------
   0 C :   -0.074363
   1 C :    0.057499
   2 O :   -0.153331
   3 C :    0.053382
   4 C :   -0.007081
   5 N :   -0.113548
   6 H :    0.032097
   7 H :    0.029539
   8 H :    0.029342
   9 H :    0.002442
  10 H :    0.005191
  11 H :    0.004189
  12 H :    0.005928
  13 H :    0.003657
  14 H :    0.025543
  15 H :    0.048291
  16 H :    0.051222

  Mayer bond orders larger than 0.1
B(  0-C ,  1-C ) :   1.1176 B(  0-C ,  6-H ) :   0.9523 B(  0-C ,  7-H ) :   0.9646
B(  0-C ,  8-H ) :   0.9636 B(  1-C ,  2-O ) :   1.0038 B(  1-C ,  9-H ) :   0.9291
B(  1-C , 10-H ) :   0.9346 B(  2-O ,  3-C ) :   1.0102 B(  3-C ,  4-C ) :   1.0950
B(  3-C , 11-H ) :   0.9261 B(  3-C , 12-H ) :   0.9192 B(  4-C ,  5-N ) :   1.0901
B(  4-C , 13-H ) :   0.9182 B(  4-C , 14-H ) :   0.9247 B(  5-N , 15-H ) :   0.9655
B(  5-N , 16-H ) :   0.9661

FINAL SINGLE POINT ENERGY      -288.416888193608

DIPOLE MOMENT
-------------
                                X             Y             Z
Electronic contribution:      1.19388      -1.47362      -0.81408
Nuclear contribution   :     -1.21339       1.46296       1.09424
                        -----------------------------------------
Total Dipole Moment    :     -0.01951      -0.01066       0.28015
                        -----------------------------------------
Magnitude (a.u.)       :      0.28103
Magnitude (Debye)      :      0.71433

                             ****ORCA TERMINATED NORMALLY****
TOTAL RUN TIME: 0 days 0 hours 0 minutes 6 seconds 439 msec
