                         Program Version 3.0.3 - RELEASE   -
|  1> ! RI PBE def2-SVP def2-SVP/J NBO PAL2
|  2> % maxcore 2000
|  3> % output
|  4>     # printlevel mini
|  5>     print[ P_Basis ] 0
|  6>     print[ P_SCFInfo ] 1
|  7>     print[ P_SCFIterInfo ] 1
|  8>     print[ P_OrbEn ] 0
|  9>     print[ P_Cartesian ] 0
| 10> end
| 11> *xyz 0 1
| 12>  C        3.1051060000     1.3478340000    -0.7680000000
| 13>  C        2.4877190000     0.3378220000    -0.1671370000
| 14>  O        3.0460280000    -0.7096990000     0.4805340000
| 15>  C        4.4488290000    -0.7208770000     0.5170660000
| 16>  C        4.8939790000    -1.9017020000     1.2453840000
| 17>  N        5.2850900000    -2.8200950000     1.8124960000
| 18>  H        2.5044350000     2.1103440000    -1.2433260000
| 19>  H        4.1798280000     1.4604030000    -0.8146020000
| 20>  H        1.4079020000     0.2510960000    -0.1366580000
| 21>  H        4.8372130000     0.1744620000     1.0195940000
| 22>  H        4.8693810000    -0.7485970000    -0.4965510000
| 23> *
| 24>
| 25>                          ****END OF INPUT****
 Total Charge           Charge          ....    0
 Multiplicity           Mult            ....    1
 Number of Electrons    NEL             ....   44
 Basis Dimension        Dim             ....  109

MULLIKEN ATOMIC CHARGES
-----------------------
   0 C :   -0.105890
   1 C :    0.102694
   2 O :   -0.248651
   3 C :    0.190632
   4 C :   -0.226705
   5 N :    0.064522
   6 H :    0.035017
   7 H :    0.036769
   8 H :    0.032670
   9 H :    0.058710
  10 H :    0.060232
Sum of atomic charges:    0.0000000

LOEWDIN ATOMIC CHARGES
----------------------
   0 C :   -0.146474
   1 C :    0.038181
   2 O :   -0.053930
   3 C :    0.053724
   4 C :   -0.046153
   5 N :   -0.035024
   6 H :    0.039429
   7 H :    0.025244
   8 H :    0.031895
   9 H :    0.046357
  10 H :    0.046750

  Mayer bond orders larger than 0.1
B(  0-C ,  1-C ) :   1.8662 B(  0-C ,  6-H ) :   0.9331 B(  0-C ,  7-H ) :   0.9505
B(  1-C ,  2-O ) :   1.1347 B(  1-C ,  8-H ) :   0.9645 B(  2-O ,  3-C ) :   1.0394
B(  3-C ,  4-C ) :   1.0895 B(  3-C ,  9-H ) :   0.9072 B(  3-C , 10-H ) :   0.9059
B(  4-C ,  5-N ) :   3.0654

FINAL SINGLE POINT ENERGY      -284.788138549947

DIPOLE MOMENT
-------------
                                X             Y             Z
Electronic contribution:      1.20959      -5.19556       3.18577
Nuclear contribution   :     -1.37675       6.35684      -3.89438
                        -----------------------------------------
Total Dipole Moment    :     -0.16715       1.16128      -0.70861
                        -----------------------------------------
Magnitude (a.u.)       :      1.37063
Magnitude (Debye)      :      3.48387

                             ****ORCA TERMINATED NORMALLY****
TOTAL RUN TIME: 0 days 0 hours 0 minutes 5 seconds 72 msec
