                         Program Version 3.0.3 - RELEASE   -
|  1> ! RI PBE def2-SVP def2-SVP/J NBO PAL2
|  2> % maxcore 2000
|  3> % output
|  4>     # printlevel mini
|  5>     print[ P_Basis ] 0
|  6>     print[ P_SCFInfo ] 1
|  7>     print[ P_SCFIterInfo ] 1
|  8>     print[ P_OrbEn ] 0
|  9>     print[ P_Cartesian ] 0
| 10> end
| 11> *xyz 0 1
| 12>  C        3.4144080000     1.1755030000     0.8026450000
| 13>  C        2.6090460000     0.1329010000     0.0532430000
| 14>  O        1.3992480000     0.0902530000     0.1873670000
| 15>  C        3.2942330000    -0.8067970000    -0.8180440000
| 16>  C        4.6275240000    -0.8198010000    -1.0144410000
| 17>  N        5.3088040000    -1.6707390000    -1.8118220000
| 18>  H        2.7272900000     1.7766720000     1.3948830000
| 19>  H        3.9571970000     1.8283130000     0.1138780000
| 20>  H        4.1455140000     0.7092010000     1.4684100000
| 21>  H        2.6523880000    -1.5242680000    -1.3209910000
| 22>  H        5.2565780000    -0.0964550000    -0.5048540000
| 23>  H        4.8317580000    -2.3829540000    -2.3336770000
| 24>  H        6.3038100000    -1.6120180000    -1.9023950000
| 25> *
| 26>
| 27>                          ****END OF INPUT****
 Total Charge           Charge          ....    0
 Multiplicity           Mult            ....    1
 Number of Electrons    NEL             ....   46
 Basis Dimension        Dim             ....  119

MULLIKEN ATOMIC CHARGES
-----------------------
   0 C :    0.021132
   1 C :   -0.054975
   2 O :   -0.200228
   3 C :   -0.042644
   4 C :    0.022728
   5 N :   -0.050636
   6 H :    0.026827
   7 H :    0.030077
   8 H :    0.029228
   9 H :   -0.027513
  10 H :    0.006074
  11 H :    0.117675
  12 H :    0.122255
Sum of atomic charges:   -0.0000000

LOEWDIN ATOMIC CHARGES
----------------------
   0 C :   -0.096094
   1 C :    0.029374
   2 O :   -0.163100
   3 C :   -0.148593
   4 C :    0.028144
   5 N :    0.033675
   6 H :    0.036742
   7 H :    0.035376
   8 H :    0.034875
   9 H :    0.026146
  10 H :    0.028364
  11 H :    0.078388
  12 H :    0.076701

  Mayer bond orders larger than 0.1
B(  0-C ,  1-C ) :   1.0455 B(  0-C ,  6-H ) :   0.9426 B(  0-C ,  7-H ) :   0.9348
B(  0-C ,  8-H ) :   0.9369 B(  1-C ,  2-O ) :   2.0791 B(  1-C ,  3-C ) :   1.0911
B(  3-C ,  4-C ) :   1.5841 B(  3-C ,  9-H ) :   0.9663 B(  4-C ,  5-N ) :   1.3077
B(  4-C , 10-H ) :   0.9316 B(  5-N , 11-H ) :   0.9567 B(  5-N , 12-H ) :   0.9520

FINAL SINGLE POINT ENERGY      -286.041745661277

DIPOLE MOMENT
-------------
                                X             Y             Z
Electronic contribution:     -3.18323      -1.46759      -0.77298
Nuclear contribution   :      5.29319       0.86810      -0.02028
                        -----------------------------------------
Total Dipole Moment    :      2.10997      -0.59949      -0.79327
                        -----------------------------------------
Magnitude (a.u.)       :      2.33251
Magnitude (Debye)      :      5.92877

                             ****ORCA TERMINATED NORMALLY****
TOTAL RUN TIME: 0 days 0 hours 0 minutes 5 seconds 492 msec
