                         Program Version 3.0.3 - RELEASE   -
|  1> ! RI PBE def2-SVP def2-SVP/J NBO PAL2
|  2> % maxcore 2000
|  3> % output
|  4>     # printlevel mini
|  5>     print[ P_Basis ] 0
|  6>     print[ P_SCFInfo ] 1
|  7>     print[ P_SCFIterInfo ] 1
|  8>     print[ P_OrbEn ] 0
|  9>     print[ P_Cartesian ] 0
| 10> end
| 11> *xyz 0 1
| 12>  C        0.9662050000    -0.2102670000    -0.2876260000
| 13>  C        2.3384210000     0.1418340000     0.1908880000
| 14>  O        2.7313740000     1.2679660000     0.3246010000
| 15>  C        3.2848970000    -1.0093240000     0.5710260000
| 16>  C        2.9985150000    -2.2871970000    -0.0508140000
| 17>  N        2.7562260000    -3.2900820000    -0.5577370000
| 18>  H        0.3736580000     0.6942770000    -0.4054650000
| 19>  H        0.4813500000    -0.8977860000     0.4113190000
| 20>  H        1.0335730000    -0.7416400000    -1.2415000000
| 21>  H        3.2210890000    -1.1226840000     1.6593360000
| 22>  H        4.3053920000    -0.6956960000     0.3436710000
| 23> *
| 24>
| 25>                          ****END OF INPUT****
 Total Charge           Charge          ....    0
 Multiplicity           Mult            ....    1
 Number of Electrons    NEL             ....   44
 Basis Dimension        Dim             ....  109

MULLIKEN ATOMIC CHARGES
-----------------------
   0 C :    0.035092
   1 C :   -0.097252
   2 O :   -0.139936
   3 C :    0.107261
   4 C :   -0.297921
   5 N :    0.046647
   6 H :    0.050026
   7 H :    0.057771
   8 H :    0.070021
   9 H :    0.093572
  10 H :    0.074718
Sum of atomic charges:    0.0000000

LOEWDIN ATOMIC CHARGES
----------------------
   0 C :   -0.085115
   1 C :    0.068859
   2 O :   -0.099310
   3 C :   -0.086960
   4 C :   -0.053891
   5 N :   -0.059130
   6 H :    0.045263
   7 H :    0.053671
   8 H :    0.061503
   9 H :    0.082119
  10 H :    0.072991

  Mayer bond orders larger than 0.1
B(  0-C ,  1-C ) :   1.0759 B(  0-C ,  6-H ) :   0.9430 B(  0-C ,  7-H ) :   0.9370
B(  0-C ,  8-H ) :   0.9130 B(  1-C ,  2-O ) :   2.1939 B(  1-C ,  3-C ) :   0.8994
B(  3-C ,  4-C ) :   1.0601 B(  3-C ,  9-H ) :   0.8820 B(  3-C , 10-H ) :   0.8865
B(  4-C ,  5-N ) :   3.0353

FINAL SINGLE POINT ENERGY      -284.832478480317

DIPOLE MOMENT
-------------
                                X             Y             Z
Electronic contribution:      2.64702      -0.94299      -0.07462
Nuclear contribution   :     -2.84590       1.32024       0.53789
                        -----------------------------------------
Total Dipole Moment    :     -0.19887       0.37725       0.46327
                        -----------------------------------------
Magnitude (a.u.)       :      0.62967
Magnitude (Debye)      :      1.60051

                             ****ORCA TERMINATED NORMALLY****
TOTAL RUN TIME: 0 days 0 hours 0 minutes 4 seconds 959 msec
