                         Program Version 3.0.3 - RELEASE   -
|  1> ! RI PBE def2-SVP def2-SVP/J NBO PAL2
|  2> % maxcore 2000
|  3> % output
|  4>     # printlevel mini
|  5>     print[ P_Basis ] 0
|  6>     print[ P_SCFInfo ] 1
|  7>     print[ P_SCFIterInfo ] 1
|  8>     print[ P_OrbEn ] 0
|  9>     print[ P_Cartesian ] 0
| 10> end
| 11> *xyz 0 1
| 12>  C        3.5896390000    -0.0828940000    -1.6439170000
| 13>  C        2.9200790000    -0.2230250000    -0.2848580000
| 14>  O        3.1991110000    -1.4821050000     0.2916190000
| 15>  C        3.2554980000     0.9215060000     0.6743590000
| 16>  C        4.7296880000     1.0694220000     1.0181760000
| 17>  N        5.2430290000    -0.1374590000     1.6688330000
| 18>  H        3.2613660000    -0.8933360000    -2.2967540000
| 19>  H        4.6774970000    -0.1485390000    -1.5602270000
| 20>  H        3.3364370000     0.8691030000    -2.1200470000
| 21>  H        1.8350750000    -0.2045380000    -0.4416880000
| 22>  H        4.0744810000    -1.3957500000     0.7071890000
| 23>  H        2.6844490000     0.7672160000     1.5975960000
| 24>  H        2.9035770000     1.8652370000     0.2442270000
| 25>  H        4.8670820000     1.9739480000     1.6279080000
| 26>  H        5.3100470000     1.2229260000     0.1041550000
| 27>  H        4.8462660000    -0.2335360000     2.5966640000
| 28>  H        6.2480780000    -0.0929570000     1.7774640000
| 29> *
| 30>
| 31>                          ****END OF INPUT****
 Total Charge           Charge          ....    0
 Multiplicity           Mult            ....    1
 Number of Electrons    NEL             ....   50
 Basis Dimension        Dim             ....  139

MULLIKEN ATOMIC CHARGES
-----------------------
   0 C :   -0.008796
   1 C :    0.089428
   2 O :   -0.296798
   3 C :   -0.025943
   4 C :    0.051040
   5 N :   -0.225374
   6 H :    0.026488
   7 H :    0.015690
   8 H :    0.004988
   9 H :   -0.003801
  10 H :    0.130288
  11 H :    0.010575
  12 H :    0.005439
  13 H :    0.003766
  14 H :    0.014849
  15 H :    0.104518
  16 H :    0.103642
Sum of atomic charges:   -0.0000000

LOEWDIN ATOMIC CHARGES
----------------------
   0 C :   -0.083952
   1 C :    0.042750
   2 O :   -0.133929
   3 C :   -0.063721
   4 C :    0.004840
   5 N :   -0.078140
   6 H :    0.030676
   7 H :    0.020676
   8 H :    0.022370
   9 H :    0.017574
  10 H :    0.023871
  11 H :    0.023627
  12 H :    0.028853
  13 H :    0.006247
  14 H :    0.020841
  15 H :    0.058310
  16 H :    0.059105

  Mayer bond orders larger than 0.1
B(  0-C ,  1-C ) :   1.0650 B(  0-C ,  6-H ) :   0.9529 B(  0-C ,  7-H ) :   0.9535
B(  0-C ,  8-H ) :   0.9489 B(  1-C ,  2-O ) :   1.0671 B(  1-C ,  3-C ) :   1.0593
B(  1-C ,  9-H ) :   0.9130 B(  2-O , 10-H ) :   0.9394 B(  3-C ,  4-C ) :   1.0920
B(  3-C , 11-H ) :   0.9265 B(  3-C , 12-H ) :   0.9202 B(  4-C ,  5-N ) :   1.0579
B(  4-C , 13-H ) :   0.9356 B(  4-C , 14-H ) :   0.9355 B(  5-N , 10-H ) :   0.1514
B(  5-N , 15-H ) :   0.9617 B(  5-N , 16-H ) :   0.9634

FINAL SINGLE POINT ENERGY      -288.433715267706

DIPOLE MOMENT
-------------
                                X             Y             Z
Electronic contribution:     -0.85624      -2.78737       1.62018
Nuclear contribution   :      1.59514       3.66668      -1.07346
                        -----------------------------------------
Total Dipole Moment    :      0.73890       0.87930       0.54672
                        -----------------------------------------
Magnitude (a.u.)       :      1.27203
Magnitude (Debye)      :      3.23323

                             ****ORCA TERMINATED NORMALLY****
TOTAL RUN TIME: 0 days 0 hours 0 minutes 7 seconds 25 msec
