                         Program Version 3.0.3 - RELEASE   -
|  1> ! RI PBE def2-SVP def2-SVP/J NBO PAL2
|  2> % maxcore 2000
|  3> % output
|  4>     # printlevel mini
|  5>     print[ P_Basis ] 0
|  6>     print[ P_SCFInfo ] 1
|  7>     print[ P_SCFIterInfo ] 1
|  8>     print[ P_OrbEn ] 0
|  9>     print[ P_Cartesian ] 0
| 10> end
| 11> *xyz 0 1
| 12>  C        0.9168090000     0.0478390000     0.0599510000
| 13>  C        2.4283960000     0.1183530000    -0.0292400000
| 14>  O        2.8638000000     0.5700980000    -1.2886040000
| 15>  C        2.9972540000     0.9847240000     1.1034210000
| 16>  C        4.4499190000     1.0227960000     1.1180650000
| 17>  N        5.5986520000     1.0441970000     1.1441330000
| 18>  H        0.5259400000    -0.5638490000    -0.7540360000
| 19>  H        0.4755680000     1.0472600000    -0.0187560000
| 20>  H        0.5913840000    -0.3881920000     1.0072630000
| 21>  H        2.8482270000    -0.8868090000     0.0668130000
| 22>  H        2.4387630000     1.4113670000    -1.4822710000
| 23>  H        2.6530550000     0.6081160000     2.0713630000
| 24>  H        2.6210330000     2.0094910000     1.0079990000
| 25> *
| 26>
| 27>                          ****END OF INPUT****
 Total Charge           Charge          ....    0
 Multiplicity           Mult            ....    1
 Number of Electrons    NEL             ....   46
 Basis Dimension        Dim             ....  119

MULLIKEN ATOMIC CHARGES
-----------------------
   0 C :    0.036621
   1 C :    0.019931
   2 O :   -0.260405
   3 C :    0.039934
   4 C :   -0.241136
   5 N :    0.066560
   6 H :    0.044177
   7 H :    0.008474
   8 H :    0.021094
   9 H :    0.028914
  10 H :    0.154393
  11 H :    0.046716
  12 H :    0.034726
Sum of atomic charges:    0.0000000

LOEWDIN ATOMIC CHARGES
----------------------
   0 C :   -0.075298
   1 C :    0.050467
   2 O :   -0.097862
   3 C :   -0.074873
   4 C :   -0.043973
   5 N :   -0.064234
   6 H :    0.036859
   7 H :    0.024258
   8 H :    0.033659
   9 H :    0.031849
  10 H :    0.069601
  11 H :    0.058579
  12 H :    0.050968

  Mayer bond orders larger than 0.1
B(  0-C ,  1-C ) :   1.1027 B(  0-C ,  6-H ) :   0.9577 B(  0-C ,  7-H ) :   0.9467
B(  0-C ,  8-H ) :   0.9458 B(  1-C ,  2-O ) :   1.0469 B(  1-C ,  3-C ) :   1.0308
B(  1-C ,  9-H ) :   0.9085 B(  2-O , 10-H ) :   0.9810 B(  3-C ,  4-C ) :   1.1405
B(  3-C , 11-H ) :   0.8893 B(  3-C , 12-H ) :   0.8823 B(  4-C ,  5-N ) :   3.0589

FINAL SINGLE POINT ENERGY      -286.023657772059

DIPOLE MOMENT
-------------
                                X             Y             Z
Electronic contribution:      7.21639       1.24702       0.26973
Nuclear contribution   :     -9.12270      -1.06018      -0.11840
                        -----------------------------------------
Total Dipole Moment    :     -1.90631       0.18684       0.15133
                        -----------------------------------------
Magnitude (a.u.)       :      1.92141
Magnitude (Debye)      :      4.88385

                             ****ORCA TERMINATED NORMALLY****
TOTAL RUN TIME: 0 days 0 hours 0 minutes 5 seconds 352 msec
