                         Program Version 3.0.3 - RELEASE   -
|  1> ! RI PBE def2-SVP def2-SVP/J NBO PAL2
|  2> % maxcore 2000
|  3> % output
|  4>     # printlevel mini
|  5>     print[ P_Basis ] 0
|  6>     print[ P_SCFInfo ] 1
|  7>     print[ P_SCFIterInfo ] 1
|  8>     print[ P_OrbEn ] 0
|  9>     print[ P_Cartesian ] 0
| 10> end
| 11> *xyz 0 1
| 12>  C        1.1635580000    -1.2277570000    -0.3772540000
| 13>  C        2.3341960000    -0.3264510000    -0.0878510000
| 14>  O        1.8354320000     0.9553520000     0.2586130000
| 15>  C        2.8311650000     1.8727980000     0.5792360000
| 16>  C        3.6681020000     2.2465780000    -0.5721830000
| 17>  N        4.3219440000     2.5305950000    -1.4736540000
| 18>  H        1.5171140000    -2.2256460000    -0.6443690000
| 19>  H        0.5747370000    -0.8369400000    -1.2088300000
| 20>  H        0.5145890000    -1.3127540000     0.4962310000
| 21>  H        2.9902570000    -0.2447200000    -0.9645970000
| 22>  H        2.9365690000    -0.7190130000     0.7446300000
| 23>  H        3.4971090000     1.4976490000     1.3703880000
| 24>  H        2.3398270000     2.7742880000     0.9521300000
| 25> *
| 26>
| 27>                          ****END OF INPUT****
 Total Charge           Charge          ....    0
 Multiplicity           Mult            ....    1
 Number of Electrons    NEL             ....   46
 Basis Dimension        Dim             ....  119

MULLIKEN ATOMIC CHARGES
-----------------------
   0 C :   -0.028396
   1 C :    0.116371
   2 O :   -0.329538
   3 C :    0.287412
   4 C :   -0.312660
   5 N :    0.035801
   6 H :    0.027928
   7 H :    0.039964
   8 H :    0.037673
   9 H :    0.027863
  10 H :    0.002790
  11 H :    0.038427
  12 H :    0.056364
Sum of atomic charges:   -0.0000000

LOEWDIN ATOMIC CHARGES
----------------------
   0 C :   -0.071595
   1 C :    0.060753
   2 O :   -0.128994
   3 C :    0.042383
   4 C :   -0.067105
   5 N :   -0.051478
   6 H :    0.036714
   7 H :    0.034667
   8 H :    0.032394
   9 H :    0.014248
  10 H :    0.008774
  11 H :    0.035101
  12 H :    0.054138

  Mayer bond orders larger than 0.1
B(  0-C ,  1-C ) :   1.1228 B(  0-C ,  6-H ) :   0.9522 B(  0-C ,  7-H ) :   0.9639
B(  0-C ,  8-H ) :   0.9650 B(  1-C ,  2-O ) :   0.9825 B(  1-C ,  9-H ) :   0.9306
B(  1-C , 10-H ) :   0.9291 B(  2-O ,  3-C ) :   1.0952 B(  3-C ,  4-C ) :   1.0291
B(  3-C , 11-H ) :   0.9157 B(  3-C , 12-H ) :   0.9003 B(  4-C ,  5-N ) :   3.0613

FINAL SINGLE POINT ENERGY      -286.007736705656

DIPOLE MOMENT
-------------
                                X             Y             Z
Electronic contribution:      3.44378       6.58577      -1.38426
Nuclear contribution   :     -3.84149      -7.20142       2.34034
                        -----------------------------------------
Total Dipole Moment    :     -0.39770      -0.61564       0.95608
                        -----------------------------------------
Magnitude (a.u.)       :      1.20469
Magnitude (Debye)      :      3.06207

                             ****ORCA TERMINATED NORMALLY****
TOTAL RUN TIME: 0 days 0 hours 0 minutes 5 seconds 650 msec
