                         Program Version 3.0.3 - RELEASE   -
|  1> ! RI PBE def2-SVP def2-SVP/J NBO PAL2
|  2> % maxcore 2000
|  3> % output
|  4>     # printlevel mini
|  5>     print[ P_Basis ] 0
|  6>     print[ P_SCFInfo ] 1
|  7>     print[ P_SCFIterInfo ] 1
|  8>     print[ P_OrbEn ] 0
|  9>     print[ P_Cartesian ] 0
| 10> end
| 11> *xyz 0 1
| 12>  C        2.2977830000    -1.0298210000    -1.7123720000
| 13>  C        2.8391210000    -0.6427170000    -0.3639360000
| 14>  O        2.9938120000     0.5021840000    -0.0151820000
| 15>  N        3.0451380000    -1.7143360000     0.4976500000
| 16>  C        4.1110110000    -2.6752090000     0.3469300000
| 17>  C        4.0892600000    -1.7058610000     1.4786510000
| 18>  H        2.4853300000    -0.2270120000    -2.4227040000
| 19>  H        1.2172090000    -1.1701440000    -1.6235220000
| 20>  H        2.7223050000    -1.9675680000    -2.0728730000
| 21>  H        4.8404560000    -2.5004820000    -0.4389280000
| 22>  H        3.8462140000    -3.7144540000     0.5111840000
| 23>  H        4.7806510000    -0.8700780000     1.4464270000
| 24>  H        3.8109100000    -2.0464020000     2.4697640000
| 25> *
| 26>
| 27>                          ****END OF INPUT****
 Total Charge           Charge          ....    0
 Multiplicity           Mult            ....    1
 Number of Electrons    NEL             ....   46
 Basis Dimension        Dim             ....  119

MULLIKEN ATOMIC CHARGES
-----------------------
   0 C :    0.015512
   1 C :   -0.011410
   2 O :   -0.176928
   3 N :   -0.220008
   4 C :    0.028852
   5 C :    0.041424
   6 H :    0.046109
   7 H :    0.061675
   8 H :    0.021675
   9 H :    0.048575
  10 H :    0.046746
  11 H :    0.051711
  12 H :    0.046068
Sum of atomic charges:    0.0000000

LOEWDIN ATOMIC CHARGES
----------------------
   0 C :   -0.087698
   1 C :    0.028695
   2 O :   -0.151362
   3 N :   -0.070112
   4 C :    0.023740
   5 C :    0.025941
   6 H :    0.042683
   7 H :    0.056016
   8 H :    0.033570
   9 H :    0.022566
  10 H :    0.024221
  11 H :    0.024695
  12 H :    0.027044

  Mayer bond orders larger than 0.1
B(  0-C ,  1-C ) :   1.0383 B(  0-C ,  6-H ) :   0.9531 B(  0-C ,  7-H ) :   0.9361
B(  0-C ,  8-H ) :   0.9448 B(  1-C ,  2-O ) :   2.1332 B(  1-C ,  3-N ) :   1.0643
B(  3-N ,  4-C ) :   0.9445 B(  3-N ,  5-C ) :   0.9553 B(  4-C ,  5-C ) :   1.0713
B(  4-C ,  9-H ) :   0.9403 B(  4-C , 10-H ) :   0.9482 B(  5-C , 11-H ) :   0.9408
B(  5-C , 12-H ) :   0.9507

FINAL SINGLE POINT ENERGY      -286.019837238956

DIPOLE MOMENT
-------------
                                X             Y             Z
Electronic contribution:     -0.70325       2.83248       1.88225
Nuclear contribution   :      1.04077      -3.88581      -2.11782
                        -----------------------------------------
Total Dipole Moment    :      0.33752      -1.05333      -0.23557
                        -----------------------------------------
Magnitude (a.u.)       :      1.13089
Magnitude (Debye)      :      2.87451

                             ****ORCA TERMINATED NORMALLY****
TOTAL RUN TIME: 0 days 0 hours 0 minutes 5 seconds 617 msec
