                         Program Version 3.0.3 - RELEASE   -
|  1> ! RI PBE def2-SVP def2-SVP/J NBO PAL2
|  2> % maxcore 2000
|  3> % output
|  4>     # printlevel mini
|  5>     print[ P_Basis ] 0
|  6>     print[ P_SCFInfo ] 1
|  7>     print[ P_SCFIterInfo ] 1
|  8>     print[ P_OrbEn ] 0
|  9>     print[ P_Cartesian ] 0
| 10> end
| 11> *xyz 0 1
| 12>  C        1.1824630000     0.2510940000     0.0185300000
| 13>  C        2.6865390000     0.3279200000    -0.0421380000
| 14>  O        3.3041520000     1.3652410000     0.0397050000
| 15>  N        3.3065320000    -0.8871000000    -0.2014030000
| 16>  C        4.6806330000    -1.0342760000    -0.2811330000
| 17>  C        5.3102780000    -2.1944380000    -0.4349840000
| 18>  H        0.7852550000     1.2551150000     0.1442130000
| 19>  H        0.8592990000    -0.3722750000     0.8563120000
| 20>  H        0.7787940000    -0.1843360000    -0.8992780000
| 21>  H        2.7330250000    -1.7122230000    -0.2633680000
| 22>  H        5.2044270000    -0.0893150000    -0.2040020000
| 23>  H        4.7805150000    -3.1379490000    -0.5116660000
| 24>  H        6.3892000000    -2.2208770000    -0.4879680000
| 25> *
| 26>
| 27>                          ****END OF INPUT****
 Total Charge           Charge          ....    0
 Multiplicity           Mult            ....    1
 Number of Electrons    NEL             ....   46
 Basis Dimension        Dim             ....  119

MULLIKEN ATOMIC CHARGES
-----------------------
   0 C :   -0.007277
   1 C :   -0.003687
   2 O :   -0.199542
   3 N :   -0.073353
   4 C :    0.040581
   5 C :   -0.078213
   6 H :    0.046337
   7 H :    0.046101
   8 H :    0.044769
   9 H :    0.107572
  10 H :    0.029303
  11 H :    0.010559
  12 H :    0.036849
Sum of atomic charges:   -0.0000000

LOEWDIN ATOMIC CHARGES
----------------------
   0 C :   -0.090126
   1 C :    0.031978
   2 O :   -0.170234
   3 N :    0.029876
   4 C :    0.019767
   5 C :   -0.116886
   6 H :    0.045916
   7 H :    0.042206
   8 H :    0.042049
   9 H :    0.079699
  10 H :    0.034299
  11 H :    0.018879
  12 H :    0.032576

  Mayer bond orders larger than 0.1
B(  0-C ,  1-C ) :   1.0205 B(  0-C ,  6-H ) :   0.9500 B(  0-C ,  7-H ) :   0.9494
B(  0-C ,  8-H ) :   0.9486 B(  1-C ,  2-O ) :   2.0864 B(  1-C ,  3-N ) :   1.1285
B(  3-N ,  4-C ) :   1.1197 B(  3-N ,  9-H ) :   0.9238 B(  4-C ,  5-C ) :   1.8932
B(  4-C , 10-H ) :   0.9535 B(  5-C , 11-H ) :   0.9513 B(  5-C , 12-H ) :   0.9475

FINAL SINGLE POINT ENERGY      -286.052954672238

DIPOLE MOMENT
-------------
                                X             Y             Z
Electronic contribution:      1.24672       2.75239       0.23660
Nuclear contribution   :     -1.97564      -3.80837      -0.31837
                        -----------------------------------------
Total Dipole Moment    :     -0.72892      -1.05598      -0.08177
                        -----------------------------------------
Magnitude (a.u.)       :      1.28573
Magnitude (Debye)      :      3.26806

                             ****ORCA TERMINATED NORMALLY****
TOTAL RUN TIME: 0 days 0 hours 0 minutes 5 seconds 539 msec
