                         Program Version 3.0.3 - RELEASE   -
|  1> ! RI PBE def2-SVP def2-SVP/J NBO PAL2
|  2> % maxcore 2000
|  3> % output
|  4>     # printlevel mini
|  5>     print[ P_Basis ] 0
|  6>     print[ P_SCFInfo ] 1
|  7>     print[ P_SCFIterInfo ] 1
|  8>     print[ P_OrbEn ] 0
|  9>     print[ P_Cartesian ] 0
| 10> end
| 11> *xyz 0 1
| 12>  C        0.1127760000     0.3555540000     0.2948350000
| 13>  C        1.0934410000    -0.5943150000    -0.3420590000
| 14>  O        2.3389550000    -0.4272650000     0.3176550000
| 15>  N        3.2719670000    -1.2786550000    -0.2318140000
| 16>  C        4.4037850000    -1.1656800000     0.3260620000
| 17>  C        5.5446860000    -2.0008380000    -0.1254400000
| 18>  H       -0.8630970000     0.2588550000    -0.1855750000
| 19>  H        0.4465680000     1.3897020000     0.1891360000
| 20>  H       -0.0051720000     0.1392610000     1.3584870000
| 21>  H        1.2175590000    -0.3830030000    -1.4099020000
| 22>  H        0.7654560000    -1.6346160000    -0.2394050000
| 23>  H        4.5432640000    -0.4526380000     1.1418260000
| 24>  H        5.2380150000    -2.6541740000    -0.9419530000
| 25>  H        5.9251380000    -2.6136160000     0.6974970000
| 26>  H        6.3739600000    -1.3723730000    -0.4642600000
| 27> *
| 28>
| 29>                          ****END OF INPUT****
 Total Charge           Charge          ....    0
 Multiplicity           Mult            ....    1
 Number of Electrons    NEL             ....   48
 Basis Dimension        Dim             ....  129

MULLIKEN ATOMIC CHARGES
-----------------------
   0 C :   -0.048373
   1 C :    0.169768
   2 O :   -0.294005
   3 N :    0.005102
   4 C :   -0.092651
   5 C :    0.031184
   6 H :    0.026857
   7 H :    0.034586
   8 H :    0.034145
   9 H :    0.009346
  10 H :    0.006813
  11 H :    0.003757
  12 H :    0.034547
  13 H :    0.039365
  14 H :    0.039560
Sum of atomic charges:   -0.0000000

LOEWDIN ATOMIC CHARGES
----------------------
   0 C :   -0.077161
   1 C :    0.051577
   2 O :   -0.095611
   3 N :   -0.007098
   4 C :   -0.035763
   5 C :   -0.071688
   6 H :    0.035093
   7 H :    0.030695
   8 H :    0.031034
   9 H :    0.009374
  10 H :    0.008327
  11 H :    0.003247
  12 H :    0.037585
  13 H :    0.040185
  14 H :    0.040204

  Mayer bond orders larger than 0.1
B(  0-C ,  1-C ) :   1.1136 B(  0-C ,  6-H ) :   0.9573 B(  0-C ,  7-H ) :   0.9646
B(  0-C ,  8-H ) :   0.9626 B(  1-C ,  2-O ) :   0.9499 B(  1-C ,  9-H ) :   0.9432
B(  1-C , 10-H ) :   0.9448 B(  2-O ,  3-N ) :   0.9544 B(  2-O ,  4-C ) :   0.1090
B(  3-N ,  4-C ) :   1.9035 B(  4-C ,  5-C ) :   1.0766 B(  4-C , 11-H ) :   0.9403
B(  5-C , 12-H ) :   0.9543 B(  5-C , 13-H ) :   0.9461 B(  5-C , 14-H ) :   0.9460

FINAL SINGLE POINT ENERGY      -287.182248758333

DIPOLE MOMENT
-------------
                                X             Y             Z
Electronic contribution:      1.27901      -0.17941       0.30118
Nuclear contribution   :     -1.18635       0.21139      -0.23131
                        -----------------------------------------
Total Dipole Moment    :      0.09266       0.03198       0.06988
                        -----------------------------------------
Magnitude (a.u.)       :      0.12038
Magnitude (Debye)      :      0.30598

                             ****ORCA TERMINATED NORMALLY****
TOTAL RUN TIME: 0 days 0 hours 0 minutes 6 seconds 92 msec
