                         Program Version 3.0.3 - RELEASE   -
|  1> ! RI PBE def2-SVP def2-SVP/J NBO PAL2
|  2> % maxcore 2000
|  3> % output
|  4>     # printlevel mini
|  5>     print[ P_Basis ] 0
|  6>     print[ P_SCFInfo ] 1
|  7>     print[ P_SCFIterInfo ] 1
|  8>     print[ P_OrbEn ] 0
|  9>     print[ P_Cartesian ] 0
| 10> end
| 11> *xyz 0 1
| 12>  C        1.0262780000     0.2801780000    -0.2056940000
| 13>  N        2.4654770000     0.2859010000    -0.0595150000
| 14>  C        3.1714710000    -0.7698320000    -0.7579970000
| 15>  C        3.2300260000     0.6259670000    -1.2461530000
| 16>  C        4.4223430000     1.5028170000    -1.0058510000
| 17>  O        4.0418280000     2.8163380000    -0.6625060000
| 18>  H        0.5869670000    -0.3730080000     0.5517850000
| 19>  H        0.6961640000    -0.0682720000    -1.1967520000
| 20>  H        0.6392900000     1.2900000000    -0.0518850000
| 21>  H        2.5775940000    -1.4757210000    -1.3336840000
| 22>  H        4.0203880000    -1.2006390000    -0.2367280000
| 23>  H        2.6511260000     0.8540290000    -2.1404200000
| 24>  H        5.0283980000     1.5809690000    -1.9119970000
| 25>  H        5.0457530000     1.0544540000    -0.2204590000
| 26>  H        3.4848060000     2.7421200000     0.1189470000
| 27> *
| 28>
| 29>                          ****END OF INPUT****
 Total Charge           Charge          ....    0
 Multiplicity           Mult            ....    1
 Number of Electrons    NEL             ....   48
 Basis Dimension        Dim             ....  129

MULLIKEN ATOMIC CHARGES
-----------------------
   0 C :    0.097776
   1 N :   -0.309380
   2 C :    0.083876
   3 C :   -0.142764
   4 C :    0.303528
   5 O :   -0.296222
   6 H :    0.029929
   7 H :   -0.004282
   8 H :    0.023242
   9 H :    0.023239
  10 H :    0.028120
  11 H :    0.017962
  12 H :    0.008971
  13 H :   -0.016847
  14 H :    0.152852
Sum of atomic charges:   -0.0000000

LOEWDIN ATOMIC CHARGES
----------------------
   0 C :    0.002223
   1 N :   -0.118099
   2 C :    0.009639
   3 C :   -0.024764
   4 C :    0.055869
   5 O :   -0.122776
   6 H :    0.025497
   7 H :    0.002972
   8 H :    0.023232
   9 H :    0.014651
  10 H :    0.019964
  11 H :    0.013400
  12 H :    0.023606
  13 H :    0.007892
  14 H :    0.066697

  Mayer bond orders larger than 0.1
B(  0-C ,  1-N ) :   1.0230 B(  0-C ,  6-H ) :   0.9707 B(  0-C ,  7-H ) :   0.9384
B(  0-C ,  8-H ) :   0.9714 B(  1-N ,  2-C ) :   0.9814 B(  1-N ,  3-C ) :   0.8884
B(  2-C ,  3-C ) :   1.0306 B(  2-C ,  9-H ) :   0.9322 B(  2-C , 10-H ) :   0.9315
B(  3-C ,  4-C ) :   1.0594 B(  3-C , 11-H ) :   0.9275 B(  4-C ,  5-O ) :   1.0548
B(  4-C , 12-H ) :   0.9283 B(  4-C , 13-H ) :   0.9116 B(  5-O , 14-H ) :   0.9811

FINAL SINGLE POINT ENERGY      -287.188551373724

DIPOLE MOMENT
-------------
                                X             Y             Z
Electronic contribution:      2.20822       2.32308       0.47229
Nuclear contribution   :     -2.61155      -2.93550      -0.54252
                        -----------------------------------------
Total Dipole Moment    :     -0.40332      -0.61241      -0.07024
                        -----------------------------------------
Magnitude (a.u.)       :      0.73665
Magnitude (Debye)      :      1.87242

                             ****ORCA TERMINATED NORMALLY****
TOTAL RUN TIME: 0 days 0 hours 0 minutes 6 seconds 233 msec
