                         Program Version 3.0.3 - RELEASE   -
|  1> ! RI PBE def2-SVP def2-SVP/J NBO PAL2
|  2> % maxcore 2000
|  3> % output
|  4>     # printlevel mini
|  5>     print[ P_Basis ] 0
|  6>     print[ P_SCFInfo ] 1
|  7>     print[ P_SCFIterInfo ] 1
|  8>     print[ P_OrbEn ] 0
|  9>     print[ P_Cartesian ] 0
| 10> end
| 11> *xyz 0 1
| 12>  C        1.0547010000     0.1749990000    -0.1143250000
| 13>  N        2.4984150000     0.1343540000    -0.0261790000
| 14>  C        3.1829740000    -0.6851880000    -0.9799590000
| 15>  C        3.2150540000     0.8043650000    -1.0993460000
| 16>  C        4.4358420000     1.5382160000    -0.7009720000
| 17>  O        4.9130720000     2.4447900000    -1.3274710000
| 18>  H        0.6400670000    -0.6481450000     0.4711090000
| 19>  H        0.6836570000     0.0898490000    -1.1470530000
| 20>  H        0.6933440000     1.1136670000     0.3093930000
| 21>  H        2.5984830000    -1.2026870000    -1.7377500000
| 22>  H        4.0551500000    -1.2204850000    -0.6181110000
| 23>  H        2.6464110000     1.2449510000    -1.9150070000
| 24>  H        4.8934310000     1.1713250000     0.2431710000
| 25> *
| 26>
| 27>                          ****END OF INPUT****
 Total Charge           Charge          ....    0
 Multiplicity           Mult            ....    1
 Number of Electrons    NEL             ....   46
 Basis Dimension        Dim             ....  119

MULLIKEN ATOMIC CHARGES
-----------------------
   0 C :    0.090886
   1 N :   -0.282773
   2 C :    0.088522
   3 C :   -0.086237
   4 C :    0.190794
   5 O :   -0.156703
   6 H :    0.037018
   7 H :    0.001791
   8 H :    0.036475
   9 H :    0.036894
  10 H :    0.042945
  11 H :    0.021816
  12 H :   -0.021425
Sum of atomic charges:    0.0000000

LOEWDIN ATOMIC CHARGES
----------------------
   0 C :    0.006407
   1 N :   -0.093035
   2 C :    0.026312
   3 C :   -0.036989
   4 C :    0.084303
   5 O :   -0.108875
   6 H :    0.029746
   7 H :    0.005629
   8 H :    0.029758
   9 H :    0.019922
  10 H :    0.024188
  11 H :    0.022066
  12 H :   -0.009432

  Mayer bond orders larger than 0.1
B(  0-C ,  1-N ) :   1.0159 B(  0-C ,  6-H ) :   0.9698 B(  0-C ,  7-H ) :   0.9404
B(  0-C ,  8-H ) :   0.9717 B(  1-N ,  2-C ) :   0.9834 B(  1-N ,  3-C ) :   0.8694
B(  2-C ,  3-C ) :   0.9776 B(  2-C ,  9-H ) :   0.9293 B(  2-C , 10-H ) :   0.9419
B(  3-C ,  4-C ) :   0.9852 B(  3-C , 11-H ) :   0.9336 B(  4-C ,  5-O ) :   2.1784
B(  4-C , 12-H ) :   0.9222

FINAL SINGLE POINT ENERGY      -285.992184765030

DIPOLE MOMENT
-------------
                                X             Y             Z
Electronic contribution:      4.97749       3.49561      -0.57862
Nuclear contribution   :     -5.81584      -4.36816       0.56390
                        -----------------------------------------
Total Dipole Moment    :     -0.83835      -0.87255      -0.01472
                        -----------------------------------------
Magnitude (a.u.)       :      1.21012
Magnitude (Debye)      :      3.07588

                             ****ORCA TERMINATED NORMALLY****
TOTAL RUN TIME: 0 days 0 hours 0 minutes 5 seconds 594 msec
