                         Program Version 3.0.3 - RELEASE   -
|  1> ! RI PBE def2-SVP def2-SVP/J NBO PAL2
|  2> % maxcore 2000
|  3> % output
|  4>     # printlevel mini
|  5>     print[ P_Basis ] 0
|  6>     print[ P_SCFInfo ] 1
|  7>     print[ P_SCFIterInfo ] 1
|  8>     print[ P_OrbEn ] 0
|  9>     print[ P_Cartesian ] 0
| 10> end
| 11> *xyz 0 1
| 12>  C        1.0558920000     0.0320220000     0.2362910000
| 13>  N        2.4655540000     0.0619450000    -0.0278940000
| 14>  C        3.4288510000     1.1506220000    -0.1316880000
| 15>  C        4.5061620000     0.0826530000    -0.4124380000
| 16>  C        3.3646150000    -0.9322780000    -0.2696290000
| 17>  O        3.2460070000    -2.1262720000    -0.3331440000
| 18>  H        0.6986320000     1.0527570000     0.3744030000
| 19>  H        0.8354270000    -0.5394230000     1.1421460000
| 20>  H        0.5076180000    -0.4191070000    -0.5953050000
| 21>  H        3.5628410000     1.7155880000     0.7955370000
| 22>  H        3.2313410000     1.8418990000    -0.9563140000
| 23>  H        5.2849720000    -0.0123470000     0.3435480000
| 24>  H        4.9537770000     0.1136390000    -1.4053010000
| 25> *
| 26>
| 27>                          ****END OF INPUT****
 Total Charge           Charge          ....    0
 Multiplicity           Mult            ....    1
 Number of Electrons    NEL             ....   46
 Basis Dimension        Dim             ....  119

MULLIKEN ATOMIC CHARGES
-----------------------
   0 C :    0.095947
   1 N :   -0.310597
   2 C :    0.154400
   3 C :   -0.091683
   4 C :    0.078105
   5 O :   -0.183713
   6 H :    0.030250
   7 H :    0.042559
   8 H :    0.045776
   9 H :    0.021263
  10 H :    0.023986
  11 H :    0.049297
  12 H :    0.044411
Sum of atomic charges:   -0.0000000

LOEWDIN ATOMIC CHARGES
----------------------
   0 C :    0.009627
   1 N :   -0.043733
   2 C :    0.045694
   3 C :   -0.060917
   4 C :    0.013828
   5 O :   -0.172099
   6 H :    0.033048
   7 H :    0.032234
   8 H :    0.032779
   9 H :    0.016140
  10 H :    0.016775
  11 H :    0.038677
  12 H :    0.037946

  Mayer bond orders larger than 0.1
B(  0-C ,  1-N ) :   0.9766 B(  0-C ,  6-H ) :   0.9695 B(  0-C ,  7-H ) :   0.9661
B(  0-C ,  8-H ) :   0.9667 B(  1-N ,  2-C ) :   1.0209 B(  1-N ,  4-C ) :   1.1779
B(  1-N ,  5-O ) :   0.1032 B(  2-C ,  3-C ) :   1.1096 B(  2-C ,  9-H ) :   0.9321
B(  2-C , 10-H ) :   0.9323 B(  3-C ,  4-C ) :   0.9503 B(  3-C , 11-H ) :   0.9187
B(  3-C , 12-H ) :   0.9186 B(  4-C ,  5-O ) :   2.1544

FINAL SINGLE POINT ENERGY      -286.043859903108

DIPOLE MOMENT
-------------
                                X             Y             Z
Electronic contribution:      1.44270      -4.04998      -0.56463
Nuclear contribution   :     -1.71117       5.45343       0.71544
                        -----------------------------------------
Total Dipole Moment    :     -0.26847       1.40345       0.15080
                        -----------------------------------------
Magnitude (a.u.)       :      1.43684
Magnitude (Debye)      :      3.65215

                             ****ORCA TERMINATED NORMALLY****
TOTAL RUN TIME: 0 days 0 hours 0 minutes 5 seconds 829 msec
