                         Program Version 3.0.3 - RELEASE   -
|  1> ! RI PBE def2-SVP def2-SVP/J NBO PAL2
|  2> % maxcore 2000
|  3> % output
|  4>     # printlevel mini
|  5>     print[ P_Basis ] 0
|  6>     print[ P_SCFInfo ] 1
|  7>     print[ P_SCFIterInfo ] 1
|  8>     print[ P_OrbEn ] 0
|  9>     print[ P_Cartesian ] 0
| 10> end
| 11> *xyz 0 1
| 12>  C        0.9188350000    -0.0315890000     0.0601550000
| 13>  N        2.3562320000    -0.0387490000     0.0636600000
| 14>  C        3.0417040000     1.0444520000     0.7839600000
| 15>  C        3.9653030000    -0.0113650000     1.3746930000
| 16>  O        4.9885930000    -0.0001020000     1.9813180000
| 17>  C        3.0309320000    -1.0882350000     0.8417270000
| 18>  H        0.5528610000     0.8374380000    -0.4909410000
| 19>  H        0.4863880000    -0.0018130000     1.0769570000
| 20>  H        0.5439730000    -0.9254970000    -0.4430940000
| 21>  H        2.4357240000     1.5152610000     1.5754620000
| 22>  H        3.4899160000     1.8242650000     0.1626450000
| 23>  H        2.4204500000    -1.5093660000     1.6573910000
| 24>  H        3.4710780000    -1.9050210000     0.2636570000
| 25> *
| 26>
| 27>                          ****END OF INPUT****
 Total Charge           Charge          ....    0
 Multiplicity           Mult            ....    1
 Number of Electrons    NEL             ....   46
 Basis Dimension        Dim             ....  119

MULLIKEN ATOMIC CHARGES
-----------------------
   0 C :    0.080884
   1 N :   -0.373406
   2 C :    0.140599
   3 C :   -0.081749
   4 O :   -0.109693
   5 C :    0.140695
   6 H :    0.033178
   7 H :   -0.004326
   8 H :    0.032711
   9 H :    0.023974
  10 H :    0.046550
  11 H :    0.024046
  12 H :    0.046538
Sum of atomic charges:   -0.0000000

LOEWDIN ATOMIC CHARGES
----------------------
   0 C :   -0.005309
   1 N :   -0.123164
   2 C :    0.000103
   3 C :    0.052298
   4 O :   -0.086058
   5 C :    0.000096
   6 H :    0.027114
   7 H :   -0.001501
   8 H :    0.027072
   9 H :    0.024523
  10 H :    0.030117
  11 H :    0.024563
  12 H :    0.030144

  Mayer bond orders larger than 0.1
B(  0-C ,  1-N ) :   1.0282 B(  0-C ,  6-H ) :   0.9710 B(  0-C ,  7-H ) :   0.9378
B(  0-C ,  8-H ) :   0.9710 B(  1-N ,  2-C ) :   1.0047 B(  1-N ,  5-C ) :   1.0041
B(  2-C ,  3-C ) :   0.9582 B(  2-C ,  5-C ) :  -0.1019 B(  2-C ,  9-H ) :   0.8954
B(  2-C , 10-H ) :   0.9257 B(  3-C ,  4-O ) :   2.2557 B(  3-C ,  5-C ) :   0.9588
B(  5-C , 11-H ) :   0.8958 B(  5-C , 12-H ) :   0.9256

FINAL SINGLE POINT ENERGY      -286.002376524864

DIPOLE MOMENT
-------------
                                X             Y             Z
Electronic contribution:      6.35574       0.01776       1.85959
Nuclear contribution   :     -7.30575      -0.01913      -2.06800
                        -----------------------------------------
Total Dipole Moment    :     -0.95001      -0.00137      -0.20841
                        -----------------------------------------
Magnitude (a.u.)       :      0.97260
Magnitude (Debye)      :      2.47216

                             ****ORCA TERMINATED NORMALLY****
TOTAL RUN TIME: 0 days 0 hours 0 minutes 5 seconds 653 msec
