                         Program Version 3.0.3 - RELEASE   -
|  1> ! RI PBE def2-SVP def2-SVP/J NBO PAL2
|  2> % maxcore 2000
|  3> % output
|  4>     # printlevel mini
|  5>     print[ P_Basis ] 0
|  6>     print[ P_SCFInfo ] 1
|  7>     print[ P_SCFIterInfo ] 1
|  8>     print[ P_OrbEn ] 0
|  9>     print[ P_Cartesian ] 0
| 10> end
| 11> *xyz 0 1
| 12>  C        0.9621670000     0.0326580000     0.1226270000
| 13>  N        2.3951680000     0.0310880000     0.1885950000
| 14>  C        3.0720210000     1.0873580000     0.9477510000
| 15>  C        4.1424690000     0.0543850000     1.3420240000
| 16>  O        5.2755530000     0.0325620000     0.5182410000
| 17>  C        3.0674950000    -0.9912950000     0.9965920000
| 18>  H        0.6149680000     0.9034250000    -0.4392060000
| 19>  H        0.4902500000     0.0571630000     1.1218570000
| 20>  H        0.6111250000    -0.8620160000    -0.3977250000
| 21>  H        2.4925610000     1.4276480000     1.8213770000
| 22>  H        3.3999510000     1.9551350000     0.3679430000
| 23>  H        4.5021700000     0.0777350000     2.3690730000
| 24>  H        4.9684600000     0.0117960000    -0.3940400000
| 25>  H        2.4866490000    -1.2876540000     1.8851770000
| 26>  H        3.3915850000    -1.8867660000     0.4582150000
| 27> *
| 28>
| 29>                          ****END OF INPUT****
 Total Charge           Charge          ....    0
 Multiplicity           Mult            ....    1
 Number of Electrons    NEL             ....   48
 Basis Dimension        Dim             ....  129

MULLIKEN ATOMIC CHARGES
-----------------------
   0 C :    0.086700
   1 N :   -0.373262
   2 C :    0.175564
   3 C :   -0.022777
   4 O :   -0.248700
   5 C :    0.175961
   6 H :    0.026281
   7 H :   -0.007889
   8 H :    0.025824
   9 H :   -0.011821
  10 H :    0.008674
  11 H :    0.013841
  12 H :    0.154987
  13 H :   -0.011721
  14 H :    0.008338
Sum of atomic charges:   -0.0000000

LOEWDIN ATOMIC CHARGES
----------------------
   0 C :   -0.007803
   1 N :   -0.126429
   2 C :    0.013893
   3 C :    0.045595
   4 O :   -0.101587
   5 C :    0.014008
   6 H :    0.024969
   7 H :   -0.002347
   8 H :    0.024930
   9 H :    0.004447
  10 H :    0.010485
  11 H :    0.015137
  12 H :    0.069863
  13 H :    0.004401
  14 H :    0.010437

  Mayer bond orders larger than 0.1
B(  0-C ,  1-N ) :   1.0466 B(  0-C ,  6-H ) :   0.9690 B(  0-C ,  7-H ) :   0.9396
B(  0-C ,  8-H ) :   0.9690 B(  1-N ,  2-C ) :   0.9995 B(  1-N ,  5-C ) :   0.9989
B(  2-C ,  3-C ) :   1.0294 B(  2-C ,  9-H ) :   0.9072 B(  2-C , 10-H ) :   0.9274
B(  3-C ,  4-O ) :   1.0879 B(  3-C ,  5-C ) :   1.0289 B(  3-C , 11-H ) :   0.9346
B(  4-O , 12-H ) :   0.9760 B(  5-C , 13-H ) :   0.9077 B(  5-C , 14-H ) :   0.9276

FINAL SINGLE POINT ENERGY      -287.193791400721

DIPOLE MOMENT
-------------
                                X             Y             Z
Electronic contribution:      4.59433      -0.02673      -0.69022
Nuclear contribution   :     -5.19808       0.02721       0.67626
                        -----------------------------------------
Total Dipole Moment    :     -0.60374       0.00048      -0.01396
                        -----------------------------------------
Magnitude (a.u.)       :      0.60390
Magnitude (Debye)      :      1.53500

                             ****ORCA TERMINATED NORMALLY****
TOTAL RUN TIME: 0 days 0 hours 0 minutes 6 seconds 353 msec
