                         Program Version 3.0.3 - RELEASE   -
|  1> ! RI PBE def2-SVP def2-SVP/J NBO PAL2
|  2> % maxcore 2000
|  3> % output
|  4>     # printlevel mini
|  5>     print[ P_Basis ] 0
|  6>     print[ P_SCFInfo ] 1
|  7>     print[ P_SCFIterInfo ] 1
|  8>     print[ P_OrbEn ] 0
|  9>     print[ P_Cartesian ] 0
| 10> end
| 11> *xyz 0 1
| 12>  C        2.7663560000     1.0601300000     0.4290970000
| 13>  N        2.1330500000    -0.1883180000     0.0635220000
| 14>  C        2.6796680000    -1.3305760000     0.7197870000
| 15>  C        2.7513960000    -2.6437150000     0.0079540000
| 16>  C        4.0140740000    -1.9255860000     0.3499140000
| 17>  O        4.8157140000    -2.5255740000     1.3179350000
| 18>  H        2.3169170000     1.8798120000    -0.1347270000
| 19>  H        3.8553140000     1.0784040000     0.2613370000
| 20>  H        2.5923700000     1.2588870000     1.4904250000
| 21>  H        2.1343000000    -0.3172960000    -0.9388680000
| 22>  H        2.4341520000    -1.3872590000     1.7779710000
| 23>  H        2.4509040000    -2.6842220000    -1.0331120000
| 24>  H        2.5292710000    -3.5342500000     0.5818500000
| 25>  H        4.5492890000    -1.4540990000    -0.4742120000
| 26>  H        5.2223250000    -1.8317180000     1.8440160000
| 27> *
| 28>
| 29>                          ****END OF INPUT****
 Total Charge           Charge          ....    0
 Multiplicity           Mult            ....    1
 Number of Electrons    NEL             ....   48
 Basis Dimension        Dim             ....  129

MULLIKEN ATOMIC CHARGES
-----------------------
   0 C :    0.076840
   1 N :   -0.172210
   2 C :   -0.072341
   3 C :    0.003670
   4 C :    0.038337
   5 O :   -0.234763
   6 H :    0.018898
   7 H :   -0.003555
   8 H :    0.015661
   9 H :    0.089677
  10 H :    0.014430
  11 H :    0.026295
  12 H :    0.037524
  13 H :    0.003087
  14 H :    0.158449
Sum of atomic charges:    0.0000000

LOEWDIN ATOMIC CHARGES
----------------------
   0 C :   -0.004685
   1 N :   -0.082206
   2 C :   -0.022581
   3 C :   -0.050362
   4 C :    0.007069
   5 O :   -0.100592
   6 H :    0.022598
   7 H :   -0.003281
   8 H :    0.021598
   9 H :    0.053655
  10 H :    0.019859
  11 H :    0.026204
  12 H :    0.035284
  13 H :    0.003506
  14 H :    0.073934

  Mayer bond orders larger than 0.1
B(  0-C ,  1-N ) :   1.0618 B(  0-C ,  6-H ) :   0.9712 B(  0-C ,  7-H ) :   0.9482
B(  0-C ,  8-H ) :   0.9656 B(  1-N ,  2-C ) :   1.1289 B(  1-N ,  9-H ) :   0.9385
B(  2-C ,  3-C ) :   1.0018 B(  2-C ,  4-C ) :   0.8902 B(  2-C , 10-H ) :   0.9278
B(  3-C ,  4-C ) :   0.9766 B(  3-C , 11-H ) :   0.9399 B(  3-C , 12-H ) :   0.9310
B(  4-C ,  5-O ) :   1.1344 B(  4-C , 13-H ) :   0.9367 B(  5-O , 14-H ) :   0.9836

FINAL SINGLE POINT ENERGY      -287.189123852904

DIPOLE MOMENT
-------------
                                X             Y             Z
Electronic contribution:      1.18896      -3.33497       0.87698
Nuclear contribution   :     -0.95561       3.91590      -1.03767
                        -----------------------------------------
Total Dipole Moment    :      0.23335       0.58092      -0.16069
                        -----------------------------------------
Magnitude (a.u.)       :      0.64633
Magnitude (Debye)      :      1.64285

                             ****ORCA TERMINATED NORMALLY****
TOTAL RUN TIME: 0 days 0 hours 0 minutes 6 seconds 245 msec
