                         Program Version 3.0.3 - RELEASE   -
|  1> ! RI PBE def2-SVP def2-SVP/J NBO PAL2
|  2> % maxcore 2000
|  3> % output
|  4>     # printlevel mini
|  5>     print[ P_Basis ] 0
|  6>     print[ P_SCFInfo ] 1
|  7>     print[ P_SCFIterInfo ] 1
|  8>     print[ P_OrbEn ] 0
|  9>     print[ P_Cartesian ] 0
| 10> end
| 11> *xyz 0 1
| 12>  C        2.1308540000    -1.2809670000     0.3062620000
| 13>  N        2.2173110000     0.1325430000     0.0063950000
| 14>  C        2.8018180000     0.9159870000     1.0506630000
| 15>  C        2.8134870000     2.4314100000     0.8483390000
| 16>  O        2.2966020000     2.6561420000     2.1661040000
| 17>  C        2.0303220000     1.2598860000     2.3469520000
| 18>  H        1.6598530000    -1.8055290000    -0.5269910000
| 19>  H        1.5664370000    -1.5178100000     1.2223690000
| 20>  H        3.1388760000    -1.6880960000     0.4245150000
| 21>  H        1.3041820000     0.4998550000    -0.2336450000
| 22>  H        3.7956970000     0.5160810000     1.2688000000
| 23>  H        2.1138750000     2.7663220000     0.0708320000
| 24>  H        3.7808240000     2.9161220000     0.6928160000
| 25>  H        0.9556960000     1.0371530000     2.2871560000
| 26>  H        2.4249540000     0.8885900000     3.2972220000
| 27> *
| 28>
| 29>                          ****END OF INPUT****
 Total Charge           Charge          ....    0
 Multiplicity           Mult            ....    1
 Number of Electrons    NEL             ....   48
 Basis Dimension        Dim             ....  129

MULLIKEN ATOMIC CHARGES
-----------------------
   0 C :    0.062977
   1 N :   -0.190109
   2 C :   -0.199872
   3 C :    0.268645
   4 O :   -0.366327
   5 C :    0.267508
   6 H :    0.027472
   7 H :    0.000360
   8 H :    0.021452
   9 H :    0.094618
  10 H :    0.014976
  11 H :   -0.004962
  12 H :    0.013729
  13 H :   -0.017511
  14 H :    0.007044
Sum of atomic charges:   -0.0000000

LOEWDIN ATOMIC CHARGES
----------------------
   0 C :   -0.005027
   1 N :   -0.087988
   2 C :   -0.020267
   3 C :    0.082902
   4 O :   -0.185551
   5 C :    0.063343
   6 H :    0.024988
   7 H :   -0.000301
   8 H :    0.023550
   9 H :    0.051520
  10 H :    0.024314
  11 H :    0.006375
  12 H :    0.012298
  13 H :    0.001831
  14 H :    0.008013

  Mayer bond orders larger than 0.1
B(  0-C ,  1-N ) :   1.0620 B(  0-C ,  6-H ) :   0.9733 B(  0-C ,  7-H ) :   0.9499
B(  0-C ,  8-H ) :   0.9660 B(  1-N ,  2-C ) :   1.1055 B(  1-N ,  9-H ) :   0.9322
B(  2-C ,  3-C ) :   1.0735 B(  2-C ,  5-C ) :   1.0468 B(  2-C , 10-H ) :   0.9018
B(  3-C ,  4-O ) :   1.0400 B(  3-C , 11-H ) :   0.9170 B(  3-C , 12-H ) :   0.9360
B(  4-O ,  5-C ) :   1.0429 B(  5-C , 13-H ) :   0.9069 B(  5-C , 14-H ) :   0.9344

FINAL SINGLE POINT ENERGY      -287.186137444690

DIPOLE MOMENT
-------------
                                X             Y             Z
Electronic contribution:      0.39004       4.46397       1.28494
Nuclear contribution   :     -0.52144      -5.11460      -1.51053
                        -----------------------------------------
Total Dipole Moment    :     -0.13140      -0.65062      -0.22559
                        -----------------------------------------
Magnitude (a.u.)       :      0.70105
Magnitude (Debye)      :      1.78192

                             ****ORCA TERMINATED NORMALLY****
TOTAL RUN TIME: 0 days 0 hours 0 minutes 6 seconds 241 msec
