                         Program Version 3.0.3 - RELEASE   -
|  1> ! RI PBE def2-SVP def2-SVP/J NBO PAL2
|  2> % maxcore 2000
|  3> % output
|  4>     # printlevel mini
|  5>     print[ P_Basis ] 0
|  6>     print[ P_SCFInfo ] 1
|  7>     print[ P_SCFIterInfo ] 1
|  8>     print[ P_OrbEn ] 0
|  9>     print[ P_Cartesian ] 0
| 10> end
| 11> *xyz 0 1
| 12>  C        1.2809960000     0.0918170000    -0.3565700000
| 13>  N        2.6286820000    -0.3024410000    -0.7026140000
| 14>  C        3.4363390000    -0.6466840000     0.4455320000
| 15>  C        4.7873970000    -1.1317080000     0.0096270000
| 16>  C        5.9436820000    -0.2398780000    -0.0320570000
| 17>  O        5.7888930000    -1.1880690000     1.0098320000
| 18>  H        0.7385110000     0.3828060000    -1.2580780000
| 19>  H        1.2269380000     0.9252180000     0.3635040000
| 20>  H        0.7549720000    -0.7591330000     0.0848700000
| 21>  H        3.0815690000     0.4362770000    -1.2264470000
| 22>  H        2.9292030000    -1.4527850000     0.9886550000
| 23>  H        3.5715820000     0.1808850000     1.1640610000
| 24>  H        4.7754290000    -1.9832940000    -0.6688950000
| 25>  H        5.8242210000     0.7993240000     0.2687960000
| 26>  H        6.7572870000    -0.4383350000    -0.7253250000
| 27> *
| 28>
| 29>                          ****END OF INPUT****
 Total Charge           Charge          ....    0
 Multiplicity           Mult            ....    1
 Number of Electrons    NEL             ....   48
 Basis Dimension        Dim             ....  129

MULLIKEN ATOMIC CHARGES
-----------------------
   0 C :    0.063431
   1 N :   -0.277576
   2 C :    0.193739
   3 C :   -0.047475
   4 C :    0.134419
   5 O :   -0.287955
   6 H :    0.023804
   7 H :   -0.001195
   8 H :    0.023353
   9 H :    0.096633
  10 H :    0.014155
  11 H :   -0.018387
  12 H :    0.025852
  13 H :    0.022471
  14 H :    0.034731
Sum of atomic charges:   -0.0000000

LOEWDIN ATOMIC CHARGES
----------------------
   0 C :   -0.007250
   1 N :   -0.104299
   2 C :    0.003964
   3 C :    0.032946
   4 C :    0.049254
   5 O :   -0.151568
   6 H :    0.023731
   7 H :   -0.000295
   8 H :    0.023296
   9 H :    0.053159
  10 H :    0.027862
  11 H :    0.002701
  12 H :    0.017385
  13 H :    0.012360
  14 H :    0.016753

  Mayer bond orders larger than 0.1
B(  0-C ,  1-N ) :   1.0616 B(  0-C ,  6-H ) :   0.9720 B(  0-C ,  7-H ) :   0.9459
B(  0-C ,  8-H ) :   0.9684 B(  1-N ,  2-C ) :   1.0292 B(  1-N ,  9-H ) :   0.9478
B(  2-C ,  3-C ) :   1.0374 B(  2-C , 10-H ) :   0.9169 B(  2-C , 11-H ) :   0.8965
B(  3-C ,  4-C ) :   1.0914 B(  3-C ,  5-O ) :   0.9808 B(  3-C , 12-H ) :   0.9373
B(  4-C ,  5-O ) :   1.0016 B(  4-C , 13-H ) :   0.9268 B(  4-C , 14-H ) :   0.9394

FINAL SINGLE POINT ENERGY      -287.184773646201

DIPOLE MOMENT
-------------
                                X             Y             Z
Electronic contribution:      5.28596      -2.29617       1.08281
Nuclear contribution   :     -5.57931       2.88278      -1.52774
                        -----------------------------------------
Total Dipole Moment    :     -0.29335       0.58661      -0.44493
                        -----------------------------------------
Magnitude (a.u.)       :      0.79255
Magnitude (Debye)      :      2.01449

                             ****ORCA TERMINATED NORMALLY****
TOTAL RUN TIME: 0 days 0 hours 0 minutes 5 seconds 929 msec
