                         Program Version 3.0.3 - RELEASE   -
|  1> ! RI PBE def2-SVP def2-SVP/J NBO PAL2
|  2> % maxcore 2000
|  3> % output
|  4>     # printlevel mini
|  5>     print[ P_Basis ] 0
|  6>     print[ P_SCFInfo ] 1
|  7>     print[ P_SCFIterInfo ] 1
|  8>     print[ P_OrbEn ] 0
|  9>     print[ P_Cartesian ] 0
| 10> end
| 11> *xyz 0 1
| 12>  C        1.0520780000     0.0170920000     0.0864210000
| 13>  N        2.4959050000     0.1301940000     0.0477030000
| 14>  C        3.1329370000    -0.2276430000     1.3088360000
| 15>  C        4.6485090000    -0.1801590000     1.2061130000
| 16>  C        5.2153990000    -1.1847950000     0.2152050000
| 17>  O        4.8297860000    -0.9276780000    -1.1121690000
| 18>  H        0.6273720000     0.3667750000    -0.8560370000
| 19>  H        0.5901740000     0.5854230000     0.9088850000
| 20>  H        0.7719410000    -1.0321030000     0.2092000000
| 21>  H        2.7563550000     1.0801600000    -0.1930640000
| 22>  H        2.8196110000    -1.2496950000     1.5542520000
| 23>  H        2.7856420000     0.4113900000     2.1383580000
| 24>  H        5.0713900000    -0.3771340000     2.1969890000
| 25>  H        4.9710560000     0.8285100000     0.9200510000
| 26>  H        4.9128760000    -2.1993680000     0.5245130000
| 27>  H        6.3086410000    -1.1564200000     0.2431070000
| 28>  H        3.8801270000    -0.7190490000    -1.0743740000
| 29> *
| 30>
| 31>                          ****END OF INPUT****
 Total Charge           Charge          ....    0
 Multiplicity           Mult            ....    1
 Number of Electrons    NEL             ....   50
 Basis Dimension        Dim             ....  139

MULLIKEN ATOMIC CHARGES
-----------------------
   0 C :    0.076944
   1 N :   -0.295850
   2 C :    0.089179
   3 C :   -0.054249
   4 C :    0.185158
   5 O :   -0.301899
   6 H :    0.028000
   7 H :    0.002517
   8 H :    0.025363
   9 H :    0.113628
  10 H :    0.004598
  11 H :   -0.002938
  12 H :    0.006174
  13 H :    0.010689
  14 H :   -0.022541
  15 H :    0.008177
  16 H :    0.127051
Sum of atomic charges:   -0.0000000

LOEWDIN ATOMIC CHARGES
----------------------
   0 C :   -0.002350
   1 N :   -0.080386
   2 C :    0.010621
   3 C :   -0.069673
   4 C :    0.054185
   5 O :   -0.141369
   6 H :    0.025775
   7 H :    0.004268
   8 H :    0.024483
   9 H :    0.059138
  10 H :    0.020381
  11 H :    0.003542
  12 H :    0.031570
  13 H :    0.022323
  14 H :   -0.002917
  15 H :    0.016502
  16 H :    0.023906

  Mayer bond orders larger than 0.1
B(  0-C ,  1-N ) :   1.0501 B(  0-C ,  6-H ) :   0.9731 B(  0-C ,  7-H ) :   0.9490
B(  0-C ,  8-H ) :   0.9703 B(  1-N ,  2-C ) :   1.0148 B(  1-N ,  9-H ) :   0.9353
B(  1-N , 16-H ) :   0.1505 B(  2-C ,  3-C ) :   1.0913 B(  2-C , 10-H ) :   0.9325
B(  2-C , 11-H ) :   0.9255 B(  3-C ,  4-C ) :   1.0768 B(  3-C , 12-H ) :   0.9134
B(  3-C , 13-H ) :   0.9288 B(  4-C ,  5-O ) :   1.0955 B(  4-C , 14-H ) :   0.9238
B(  4-C , 15-H ) :   0.9402 B(  5-O , 16-H ) :   0.9389

FINAL SINGLE POINT ENERGY      -288.423403810530

DIPOLE MOMENT
-------------
                                X             Y             Z
Electronic contribution:      2.59192      -0.37638      -2.69671
Nuclear contribution   :     -3.35820       0.84956       3.44318
                        -----------------------------------------
Total Dipole Moment    :     -0.76628       0.47318       0.74647
                        -----------------------------------------
Magnitude (a.u.)       :      1.16975
Magnitude (Debye)      :      2.97326

                             ****ORCA TERMINATED NORMALLY****
TOTAL RUN TIME: 0 days 0 hours 0 minutes 6 seconds 944 msec
