                         Program Version 3.0.3 - RELEASE   -
|  1> ! RI PBE def2-SVP def2-SVP/J NBO PAL2
|  2> % maxcore 2000
|  3> % output
|  4>     # printlevel mini
|  5>     print[ P_Basis ] 0
|  6>     print[ P_SCFInfo ] 1
|  7>     print[ P_SCFIterInfo ] 1
|  8>     print[ P_OrbEn ] 0
|  9>     print[ P_Cartesian ] 0
| 10> end
| 11> *xyz 0 1
| 12>  C        0.9351140000    -0.0063080000     0.3556910000
| 13>  N        2.3629180000     0.0362680000     0.1548950000
| 14>  C        2.9386860000    -0.6319010000    -0.9122010000
| 15>  C        2.2921990000    -1.3499270000    -1.8267160000
| 16>  C        3.1484070000     0.7415520000     1.0255620000
| 17>  O        2.7481780000     1.3554720000     1.9825500000
| 18>  H        0.4169710000     0.4139500000    -0.5100990000
| 19>  H        0.7053540000     0.5803790000     1.2420410000
| 20>  H        0.6021090000    -1.0375010000     0.4986260000
| 21>  H        4.0180030000    -0.5236710000    -0.9545620000
| 22>  H        1.2186240000    -1.4825570000    -1.8205190000
| 23>  H        2.8518050000    -1.8283740000    -2.6178620000
| 24>  H        4.2172430000     0.6874400000     0.7516840000
| 25> *
| 26>
| 27>                          ****END OF INPUT****
 Total Charge           Charge          ....    0
 Multiplicity           Mult            ....    1
 Number of Electrons    NEL             ....   46
 Basis Dimension        Dim             ....  119

MULLIKEN ATOMIC CHARGES
-----------------------
   0 C :    0.071615
   1 N :   -0.197178
   2 C :    0.057009
   3 C :   -0.085524
   4 C :    0.149357
   5 O :   -0.206225
   6 H :    0.047219
   7 H :    0.053782
   8 H :    0.045572
   9 H :    0.016856
  10 H :    0.025182
  11 H :    0.027528
  12 H :   -0.005194
Sum of atomic charges:   -0.0000000

LOEWDIN ATOMIC CHARGES
----------------------
   0 C :    0.021460
   1 N :    0.007984
   2 C :    0.007957
   3 C :   -0.116720
   4 C :    0.060155
   5 O :   -0.157761
   6 H :    0.031713
   7 H :    0.036078
   8 H :    0.031237
   9 H :    0.028504
  10 H :    0.024294
  11 H :    0.032679
  12 H :   -0.007580

  Mayer bond orders larger than 0.1
B(  0-C ,  1-N ) :   0.9901 B(  0-C ,  6-H ) :   0.9625 B(  0-C ,  7-H ) :   0.9475
B(  0-C ,  8-H ) :   0.9627 B(  1-N ,  2-C ) :   1.0939 B(  1-N ,  4-C ) :   1.1211
B(  2-C ,  3-C ) :   1.8986 B(  2-C ,  9-H ) :   0.9453 B(  3-C , 10-H ) :   0.9503
B(  3-C , 11-H ) :   0.9342 B(  4-C ,  5-O ) :   2.0451 B(  4-C , 12-H ) :   0.9226

FINAL SINGLE POINT ENERGY      -286.040814074579

DIPOLE MOMENT
-------------
                                X             Y             Z
Electronic contribution:      2.38694       2.73819       3.49528
Nuclear contribution   :     -2.50304      -3.28290      -4.26442
                        -----------------------------------------
Total Dipole Moment    :     -0.11611      -0.54471      -0.76914
                        -----------------------------------------
Magnitude (a.u.)       :      0.94962
Magnitude (Debye)      :      2.41374

                             ****ORCA TERMINATED NORMALLY****
TOTAL RUN TIME: 0 days 0 hours 0 minutes 5 seconds 780 msec
