                         Program Version 3.0.3 - RELEASE   -
|  1> ! RI PBE def2-SVP def2-SVP/J NBO PAL2
|  2> % maxcore 2000
|  3> % output
|  4>     # printlevel mini
|  5>     print[ P_Basis ] 0
|  6>     print[ P_SCFInfo ] 1
|  7>     print[ P_SCFIterInfo ] 1
|  8>     print[ P_OrbEn ] 0
|  9>     print[ P_Cartesian ] 0
| 10> end
| 11> *xyz 0 1
| 12>  C        0.8988450000     0.0692130000     0.8345810000
| 13>  N        2.0994970000    -0.0318300000     0.0334330000
| 14>  C        2.8844710000    -1.1832370000     0.4174770000
| 15>  C        1.8224030000    -0.0050670000    -1.3930400000
| 16>  C        1.4937950000     1.4051500000    -1.8496820000
| 17>  O        2.4923270000     2.3024110000    -1.4353740000
| 18>  H        1.1655690000     0.1244140000     1.8920470000
| 19>  H        0.2264520000    -0.7956110000     0.6946110000
| 20>  H        0.3438300000     0.9740850000     0.5832460000
| 21>  H        3.1342710000    -1.1221690000     1.4792320000
| 22>  H        3.8165930000    -1.2054560000    -0.1503720000
| 23>  H        2.3550880000    -2.1374400000     0.2485140000
| 24>  H        1.0113120000    -0.7002540000    -1.6749220000
| 25>  H        2.7294330000    -0.3289290000    -1.9112430000
| 26>  H        0.5074410000     1.7149570000    -1.4734510000
| 27>  H        1.4424410000     1.4321460000    -2.9415580000
| 28>  H        2.7794310000     1.9689270000    -0.5732970000
| 29> *
| 30>
| 31>                          ****END OF INPUT****
 Total Charge           Charge          ....    0
 Multiplicity           Mult            ....    1
 Number of Electrons    NEL             ....   50
 Basis Dimension        Dim             ....  139

MULLIKEN ATOMIC CHARGES
-----------------------
   0 C :    0.090317
   1 N :   -0.372761
   2 C :    0.097223
   3 C :    0.041607
   4 C :    0.189427
   5 O :   -0.290621
   6 H :    0.027275
   7 H :   -0.003477
   8 H :    0.031733
   9 H :    0.022834
  10 H :    0.027575
  11 H :   -0.004513
  12 H :   -0.008309
  13 H :    0.013134
  14 H :   -0.012418
  15 H :    0.012300
  16 H :    0.138675
Sum of atomic charges:    0.0000000

LOEWDIN ATOMIC CHARGES
----------------------
   0 C :    0.001979
   1 N :   -0.111910
   2 C :    0.003861
   3 C :   -0.003770
   4 C :    0.047470
   5 O :   -0.129834
   6 H :    0.024518
   7 H :    0.002827
   8 H :    0.024001
   9 H :    0.023044
  10 H :    0.024260
  11 H :    0.001880
  12 H :    0.004701
  13 H :    0.023334
  14 H :   -0.002762
  15 H :    0.020689
  16 H :    0.045711

  Mayer bond orders larger than 0.1
B(  0-C ,  1-N ) :   1.0166 B(  0-C ,  6-H ) :   0.9663 B(  0-C ,  7-H ) :   0.9409
B(  0-C ,  8-H ) :   0.9660 B(  1-N ,  2-C ) :   1.0350 B(  1-N ,  3-C ) :   1.0158
B(  2-C ,  9-H ) :   0.9669 B(  2-C , 10-H ) :   0.9659 B(  2-C , 11-H ) :   0.9432
B(  3-C ,  4-C ) :   1.0832 B(  3-C , 12-H ) :   0.9088 B(  3-C , 13-H ) :   0.9306
B(  4-C ,  5-O ) :   1.0895 B(  4-C , 14-H ) :   0.9130 B(  4-C , 15-H ) :   0.9357
B(  5-O , 16-H ) :   0.9585

FINAL SINGLE POINT ENERGY      -288.412404972812

DIPOLE MOMENT
-------------
                                X             Y             Z
Electronic contribution:      1.61292       3.83284      -1.81626
Nuclear contribution   :     -1.85628      -4.64794       2.21912
                        -----------------------------------------
Total Dipole Moment    :     -0.24337      -0.81510       0.40286
                        -----------------------------------------
Magnitude (a.u.)       :      0.94122
Magnitude (Debye)      :      2.39240

                             ****ORCA TERMINATED NORMALLY****
TOTAL RUN TIME: 0 days 0 hours 0 minutes 7 seconds 34 msec
