                         Program Version 3.0.3 - RELEASE   -
|  1> ! RI PBE def2-SVP def2-SVP/J NBO PAL2
|  2> % maxcore 2000
|  3> % output
|  4>     # printlevel mini
|  5>     print[ P_Basis ] 0
|  6>     print[ P_SCFInfo ] 1
|  7>     print[ P_SCFIterInfo ] 1
|  8>     print[ P_OrbEn ] 0
|  9>     print[ P_Cartesian ] 0
| 10> end
| 11> *xyz 0 1
| 12>  C        0.9828300000    -0.0242380000     0.0418990000
| 13>  N        2.4284050000    -0.0882740000     0.0435290000
| 14>  C        3.2091250000     1.1329540000     0.0121510000
| 15>  C        3.1352390000    -1.2485410000     0.0733200000
| 16>  C        2.3831170000    -2.5572060000     0.1070460000
| 17>  O        4.3543360000    -1.2399840000     0.0731860000
| 18>  H        0.6796590000     1.0208840000     0.0150890000
| 19>  H        0.5470740000    -0.4690900000     0.9412770000
| 20>  H        0.5470580000    -0.5146220000    -0.8334760000
| 21>  H        2.5363330000     1.9885520000    -0.0097440000
| 22>  H        3.8555750000     1.1605610000    -0.8681840000
| 23>  H        3.8557000000     1.2056450000     0.8898190000
| 24>  H        1.2984100000    -2.4773400000     0.1049320000
| 25>  H        2.6993670000    -3.1009770000     0.9987700000
| 26>  H        2.6994620000    -3.1462240000    -0.7554230000
| 27> *
| 28>
| 29>                          ****END OF INPUT****
 Total Charge           Charge          ....    0
 Multiplicity           Mult            ....    1
 Number of Electrons    NEL             ....   48
 Basis Dimension        Dim             ....  129

MULLIKEN ATOMIC CHARGES
-----------------------
   0 C :    0.083211
   1 N :   -0.282148
   2 C :    0.104490
   3 C :    0.016716
   4 C :    0.001529
   5 O :   -0.244062
   6 H :    0.026511
   7 H :    0.043615
   8 H :    0.044036
   9 H :    0.013117
  10 H :    0.039705
  11 H :    0.039782
  12 H :    0.012275
  13 H :    0.050111
  14 H :    0.051112
Sum of atomic charges:   -0.0000000

LOEWDIN ATOMIC CHARGES
----------------------
   0 C :    0.014006
   1 N :   -0.042737
   2 C :    0.019330
   3 C :    0.024281
   4 C :   -0.093806
   5 O :   -0.204283
   6 H :    0.030555
   7 H :    0.024859
   8 H :    0.024953
   9 H :    0.020824
  10 H :    0.028559
  11 H :    0.028529
  12 H :    0.024097
  13 H :    0.050337
  14 H :    0.050496

  Mayer bond orders larger than 0.1
B(  0-C ,  1-N ) :   0.9993 B(  0-C ,  6-H ) :   0.9624 B(  0-C ,  7-H ) :   0.9645
B(  0-C ,  8-H ) :   0.9645 B(  1-N ,  2-C ) :   0.9900 B(  1-N ,  3-C ) :   1.1762
B(  2-C ,  9-H ) :   0.9621 B(  2-C , 10-H ) :   0.9663 B(  2-C , 11-H ) :   0.9663
B(  3-C ,  4-C ) :   1.0440 B(  3-C ,  5-O ) :   2.0226 B(  4-C , 12-H ) :   0.9409
B(  4-C , 13-H ) :   0.9423 B(  4-C , 14-H ) :   0.9425

FINAL SINGLE POINT ENERGY      -287.252166678777

DIPOLE MOMENT
-------------
                                X             Y             Z
Electronic contribution:      4.23379      -1.10201       0.02768
Nuclear contribution   :     -5.59700       1.53520      -0.03931
                        -----------------------------------------
Total Dipole Moment    :     -1.36321       0.43319      -0.01162
                        -----------------------------------------
Magnitude (a.u.)       :      1.43043
Magnitude (Debye)      :      3.63586

                             ****ORCA TERMINATED NORMALLY****
TOTAL RUN TIME: 0 days 0 hours 0 minutes 6 seconds 431 msec
