                         Program Version 3.0.3 - RELEASE   -
|  1> ! RI PBE def2-SVP def2-SVP/J NBO PAL2
|  2> % maxcore 2000
|  3> % output
|  4>     # printlevel mini
|  5>     print[ P_Basis ] 0
|  6>     print[ P_SCFInfo ] 1
|  7>     print[ P_SCFIterInfo ] 1
|  8>     print[ P_OrbEn ] 0
|  9>     print[ P_Cartesian ] 0
| 10> end
| 11> *xyz 0 1
| 12>  C        1.1253860000    -0.0435030000     0.0916770000
| 13>  N        2.5365380000    -0.2604260000    -0.1277920000
| 14>  C        2.8462330000    -1.6683270000    -0.2424040000
| 15>  C        3.0392210000     0.4840170000    -1.2539960000
| 16>  C        4.5437460000     0.5910830000    -1.2279600000
| 17>  O        5.2292330000     0.7241830000    -2.2025050000
| 18>  H        0.8087810000    -0.5723740000     0.9934160000
| 19>  H        0.4983870000    -0.3969200000    -0.7461120000
| 20>  H        0.9297740000     1.0209290000     0.2381010000
| 21>  H        2.5333790000    -2.1906480000     0.6638390000
| 22>  H        3.9235290000    -1.8123320000    -0.3569000000
| 23>  H        2.3482120000    -2.1448650000    -1.1056650000
| 24>  H        2.6688790000     1.5157420000    -1.1899910000
| 25>  H        2.7257010000     0.0910170000    -2.2368760000
| 26>  H        4.9809010000     0.5679350000    -0.2055440000
| 27> *
| 28>
| 29>                          ****END OF INPUT****
 Total Charge           Charge          ....    0
 Multiplicity           Mult            ....    1
 Number of Electrons    NEL             ....   48
 Basis Dimension        Dim             ....  129

MULLIKEN ATOMIC CHARGES
-----------------------
   0 C :    0.095980
   1 N :   -0.355688
   2 C :    0.089180
   3 C :    0.129112
   4 C :    0.064086
   5 O :   -0.158568
   6 H :    0.021578
   7 H :   -0.004140
   8 H :    0.024045
   9 H :    0.028833
  10 H :    0.029916
  11 H :   -0.005447
  12 H :    0.041647
  13 H :    0.003225
  14 H :   -0.003758
Sum of atomic charges:    0.0000000

LOEWDIN ATOMIC CHARGES
----------------------
   0 C :    0.004299
   1 N :   -0.113727
   2 C :    0.004700
   3 C :   -0.022562
   4 C :    0.082652
   5 O :   -0.102676
   6 H :    0.023712
   7 H :    0.000763
   8 H :    0.023296
   9 H :    0.025316
  10 H :    0.024050
  11 H :    0.001553
  12 H :    0.047256
  13 H :    0.012566
  14 H :   -0.011199

  Mayer bond orders larger than 0.1
B(  0-C ,  1-N ) :   1.0331 B(  0-C ,  6-H ) :   0.9669 B(  0-C ,  7-H ) :   0.9411
B(  0-C ,  8-H ) :   0.9682 B(  1-N ,  2-C ) :   1.0299 B(  1-N ,  3-C ) :   1.0132
B(  2-C ,  9-H ) :   0.9688 B(  2-C , 10-H ) :   0.9647 B(  2-C , 11-H ) :   0.9374
B(  3-C ,  4-C ) :   0.9472 B(  3-C , 12-H ) :   0.9091 B(  3-C , 13-H ) :   0.8965
B(  4-C ,  5-O ) :   2.1817 B(  4-C , 14-H ) :   0.9181

FINAL SINGLE POINT ENERGY      -287.210373877801

DIPOLE MOMENT
-------------
                                X             Y             Z
Electronic contribution:      6.12230       3.11216      -2.78882
Nuclear contribution   :     -6.97473      -3.31401       3.32056
                        -----------------------------------------
Total Dipole Moment    :     -0.85242      -0.20185       0.53174
                        -----------------------------------------
Magnitude (a.u.)       :      1.02475
Magnitude (Debye)      :      2.60471

                             ****ORCA TERMINATED NORMALLY****
TOTAL RUN TIME: 0 days 0 hours 0 minutes 6 seconds 485 msec
