                         Program Version 3.0.3 - RELEASE   -
|  1> ! RI PBE def2-SVP def2-SVP/J NBO PAL2
|  2> % maxcore 2000
|  3> % output
|  4>     # printlevel mini
|  5>     print[ P_Basis ] 0
|  6>     print[ P_SCFInfo ] 1
|  7>     print[ P_SCFIterInfo ] 1
|  8>     print[ P_OrbEn ] 0
|  9>     print[ P_Cartesian ] 0
| 10> end
| 11> *xyz 0 1
| 12>  C        1.3987770000     0.3472790000     0.5554920000
| 13>  N        2.7304080000    -0.0730160000     0.2001560000
| 14>  C        3.3226930000     0.2474460000    -0.9613050000
| 15>  C        4.5625650000    -0.1020540000    -1.3745660000
| 16>  C        5.0283040000     0.3392590000    -2.6623860000
| 17>  O        6.1122100000     0.0964420000    -3.1478260000
| 18>  H        1.1539260000    -0.0418490000     1.5428820000
| 19>  H        0.6531930000    -0.0339060000    -0.1490590000
| 20>  H        1.3163030000     1.4377850000     0.5953590000
| 21>  H        3.2438460000    -0.6355130000     0.8554700000
| 22>  H        2.7094310000     0.8579830000    -1.6225900000
| 23>  H        5.2264500000    -0.7084980000    -0.7664660000
| 24>  H        4.2885830000     0.9569420000    -3.2252500000
| 25> *
| 26>
| 27>                          ****END OF INPUT****
 Total Charge           Charge          ....    0
 Multiplicity           Mult            ....    1
 Number of Electrons    NEL             ....   46
 Basis Dimension        Dim             ....  119

MULLIKEN ATOMIC CHARGES
-----------------------
   0 C :    0.076097
   1 N :   -0.135940
   2 C :    0.043348
   3 C :   -0.049578
   4 C :    0.093116
   5 O :   -0.207249
   6 H :    0.031670
   7 H :    0.043163
   8 H :    0.045950
   9 H :    0.122659
  10 H :    0.005051
  11 H :   -0.016098
  12 H :   -0.052188
Sum of atomic charges:   -0.0000000

LOEWDIN ATOMIC CHARGES
----------------------
   0 C :    0.012008
   1 N :    0.021761
   2 C :    0.035873
   3 C :   -0.150815
   4 C :    0.041261
   5 O :   -0.161512
   6 H :    0.035009
   7 H :    0.028403
   8 H :    0.028664
   9 H :    0.081148
  10 H :    0.027973
  11 H :    0.025687
  12 H :   -0.025461

  Mayer bond orders larger than 0.1
B(  0-C ,  1-N ) :   1.0192 B(  0-C ,  6-H ) :   0.9715 B(  0-C ,  7-H ) :   0.9652
B(  0-C ,  8-H ) :   0.9661 B(  1-N ,  2-C ) :   1.2889 B(  1-N ,  9-H ) :   0.9415
B(  2-C ,  3-C ) :   1.5466 B(  2-C , 10-H ) :   0.9464 B(  3-C ,  4-C ) :   1.1161
B(  3-C , 11-H ) :   0.9648 B(  4-C ,  5-O ) :   2.0571 B(  4-C , 12-H ) :   0.9273

FINAL SINGLE POINT ENERGY      -286.028787489333

DIPOLE MOMENT
-------------
                                X             Y             Z
Electronic contribution:      5.82172      -0.77813      -3.64753
Nuclear contribution   :     -7.73853       0.76393       5.38386
                        -----------------------------------------
Total Dipole Moment    :     -1.91681      -0.01421       1.73633
                        -----------------------------------------
Magnitude (a.u.)       :      2.58635
Magnitude (Debye)      :      6.57398

                             ****ORCA TERMINATED NORMALLY****
TOTAL RUN TIME: 0 days 0 hours 0 minutes 5 seconds 438 msec
