                         Program Version 3.0.3 - RELEASE   -
|  1> ! RI PBE def2-SVP def2-SVP/J NBO PAL2
|  2> % maxcore 2000
|  3> % output
|  4>     # printlevel mini
|  5>     print[ P_Basis ] 0
|  6>     print[ P_SCFInfo ] 1
|  7>     print[ P_SCFIterInfo ] 1
|  8>     print[ P_OrbEn ] 0
|  9>     print[ P_Cartesian ] 0
| 10> end
| 11> *xyz 0 1
| 12>  C        1.4433310000    -0.7818450000     0.4480990000
| 13>  N        2.8357560000    -0.6582470000     0.8185420000
| 14>  C        3.2027410000     0.6370120000     1.3589980000
| 15>  C        2.6513640000     0.8344570000     2.7605060000
| 16>  C        4.7129540000     0.7374310000     1.3776920000
| 17>  O        5.1882310000     0.6079850000     0.0492910000
| 18>  H        1.2919750000    -1.7239140000    -0.0822930000
| 19>  H        1.0812510000     0.0367630000    -0.1973110000
| 20>  H        0.8077000000    -0.8079290000     1.3365450000
| 21>  H        3.4176770000    -0.8223980000     0.0060050000
| 22>  H        2.8285000000     1.4574030000     0.7165800000
| 23>  H        3.0048060000     0.0399940000     3.4227400000
| 24>  H        1.5604740000     0.8157370000     2.7651870000
| 25>  H        2.9634820000     1.7993010000     3.1679270000
| 26>  H        5.1107600000    -0.0631530000     2.0157280000
| 27>  H        5.0067200000     1.7048480000     1.8054040000
| 28>  H        6.1383580000     0.4801740000     0.0713610000
| 29> *
| 30>
| 31>                          ****END OF INPUT****
 Total Charge           Charge          ....    0
 Multiplicity           Mult            ....    1
 Number of Electrons    NEL             ....   50
 Basis Dimension        Dim             ....  139

MULLIKEN ATOMIC CHARGES
-----------------------
   0 C :    0.067881
   1 N :   -0.249280
   2 C :   -0.043293
   3 C :    0.015356
   4 C :    0.174740
   5 O :   -0.280317
   6 H :    0.018143
   7 H :   -0.006958
   8 H :    0.017928
   9 H :    0.097922
  10 H :   -0.014984
  11 H :    0.020525
  12 H :    0.025607
  13 H :    0.008535
  14 H :   -0.002471
  15 H :   -0.008056
  16 H :    0.158720
Sum of atomic charges:   -0.0000000

LOEWDIN ATOMIC CHARGES
----------------------
   0 C :   -0.007373
   1 N :   -0.101436
   2 C :   -0.009022
   3 C :   -0.064340
   4 C :    0.056543
   5 O :   -0.124642
   6 H :    0.023266
   7 H :   -0.001399
   8 H :    0.016896
   9 H :    0.046773
  10 H :    0.001703
  11 H :    0.026633
  12 H :    0.026998
  13 H :    0.025200
  14 H :    0.006249
  15 H :    0.005065
  16 H :    0.072889

  Mayer bond orders larger than 0.1
B(  0-C ,  1-N ) :   1.0668 B(  0-C ,  6-H ) :   0.9711 B(  0-C ,  7-H ) :   0.9414
B(  0-C ,  8-H ) :   0.9664 B(  1-N ,  2-C ) :   1.0469 B(  1-N ,  9-H ) :   0.9293
B(  2-C ,  3-C ) :   1.0766 B(  2-C ,  4-C ) :   1.0513 B(  2-C , 10-H ) :   0.8887
B(  3-C , 11-H ) :   0.9519 B(  3-C , 12-H ) :   0.9549 B(  3-C , 13-H ) :   0.9534
B(  4-C ,  5-O ) :   1.0820 B(  4-C , 14-H ) :   0.9257 B(  4-C , 15-H ) :   0.9305
B(  5-O , 16-H ) :   0.9783

FINAL SINGLE POINT ENERGY      -288.417899899317

DIPOLE MOMENT
-------------
                                X             Y             Z
Electronic contribution:      4.04780      -0.23443      -2.56029
Nuclear contribution   :     -3.60348       0.35365       2.64171
                        -----------------------------------------
Total Dipole Moment    :      0.44432       0.11922       0.08142
                        -----------------------------------------
Magnitude (a.u.)       :      0.46718
Magnitude (Debye)      :      1.18748

                             ****ORCA TERMINATED NORMALLY****
TOTAL RUN TIME: 0 days 0 hours 0 minutes 6 seconds 917 msec
