                         Program Version 3.0.3 - RELEASE   -
|  1> ! RI PBE def2-SVP def2-SVP/J NBO PAL2
|  2> % maxcore 2000
|  3> % output
|  4>     # printlevel mini
|  5>     print[ P_Basis ] 0
|  6>     print[ P_SCFInfo ] 1
|  7>     print[ P_SCFIterInfo ] 1
|  8>     print[ P_OrbEn ] 0
|  9>     print[ P_Cartesian ] 0
| 10> end
| 11> *xyz 0 1
| 12>  C        2.9347630000     0.5927630000     1.0612190000
| 13>  N        2.6861870000     0.2527250000    -0.3275420000
| 14>  C        3.1552620000    -1.0552380000    -0.7046720000
| 15>  C        2.5729400000    -1.4855000000    -2.0500220000
| 16>  C        4.6645160000    -1.1838270000    -0.7966860000
| 17>  O        5.4202970000    -0.2516190000    -0.8136390000
| 18>  H        2.5766660000     1.6060660000     1.2511920000
| 19>  H        3.9909500000     0.5421840000     1.3600120000
| 20>  H        2.3630330000    -0.0810290000     1.7058970000
| 21>  H        3.1277260000     0.9413760000    -0.9265210000
| 22>  H        2.8229200000    -1.7748660000     0.0565850000
| 23>  H        2.8546090000    -0.7728280000    -2.8295730000
| 24>  H        1.4852800000    -1.5104440000    -1.9849450000
| 25>  H        2.9314980000    -2.4735830000    -2.3488950000
| 26>  H        5.0475640000    -2.2256700000    -0.8911210000
| 27> *
| 28>
| 29>                          ****END OF INPUT****
 Total Charge           Charge          ....    0
 Multiplicity           Mult            ....    1
 Number of Electrons    NEL             ....   48
 Basis Dimension        Dim             ....  129

MULLIKEN ATOMIC CHARGES
-----------------------
   0 C :    0.065429
   1 N :   -0.225286
   2 C :   -0.036559
   3 C :    0.017146
   4 C :    0.104928
   5 O :   -0.165046
   6 H :    0.022507
   7 H :    0.010238
   8 H :    0.016514
   9 H :    0.101819
  10 H :    0.016279
  11 H :    0.026514
  12 H :    0.045172
  13 H :    0.020678
  14 H :   -0.020334
Sum of atomic charges:    0.0000000

LOEWDIN ATOMIC CHARGES
----------------------
   0 C :   -0.005270
   1 N :   -0.089330
   2 C :   -0.043171
   3 C :   -0.053453
   4 C :    0.084509
   5 O :   -0.108616
   6 H :    0.025276
   7 H :    0.002083
   8 H :    0.020245
   9 H :    0.053903
  10 H :    0.034082
  11 H :    0.030037
  12 H :    0.036413
  13 H :    0.028963
  14 H :   -0.015669

  Mayer bond orders larger than 0.1
B(  0-C ,  1-N ) :   1.0551 B(  0-C ,  6-H ) :   0.9729 B(  0-C ,  7-H ) :   0.9498
B(  0-C ,  8-H ) :   0.9651 B(  1-N ,  2-C ) :   1.0876 B(  1-N ,  9-H ) :   0.9364
B(  2-C ,  3-C ) :   1.0683 B(  2-C ,  4-C ) :   0.8968 B(  2-C , 10-H ) :   0.8893
B(  3-C , 11-H ) :   0.9567 B(  3-C , 12-H ) :   0.9567 B(  3-C , 13-H ) :   0.9546
B(  4-C ,  5-O ) :   2.1745 B(  4-C , 14-H ) :   0.9128

FINAL SINGLE POINT ENERGY      -287.220556508230

DIPOLE MOMENT
-------------
                                X             Y             Z
Electronic contribution:      4.27768       0.67020      -0.72393
Nuclear contribution   :     -4.68151      -1.13117       0.73086
                        -----------------------------------------
Total Dipole Moment    :     -0.40383      -0.46097       0.00693
                        -----------------------------------------
Magnitude (a.u.)       :      0.61288
Magnitude (Debye)      :      1.55781

                             ****ORCA TERMINATED NORMALLY****
TOTAL RUN TIME: 0 days 0 hours 0 minutes 6 seconds 223 msec
