                         Program Version 3.0.3 - RELEASE   -
|  1> ! RI PBE def2-SVP def2-SVP/J NBO PAL2
|  2> % maxcore 2000
|  3> % output
|  4>     # printlevel mini
|  5>     print[ P_Basis ] 0
|  6>     print[ P_SCFInfo ] 1
|  7>     print[ P_SCFIterInfo ] 1
|  8>     print[ P_OrbEn ] 0
|  9>     print[ P_Cartesian ] 0
| 10> end
| 11> *xyz 0 1
| 12>  C        1.4705650000    -0.2353090000     0.5075250000
| 13>  N        2.8071620000    -0.4418880000    -0.0074540000
| 14>  C        3.1607750000     0.4741780000    -1.0725680000
| 15>  C        4.6543450000     0.4093710000    -1.3774770000
| 16>  C        5.5012340000     1.0118190000    -0.2738570000
| 17>  O        5.0460190000    -0.9288440000    -1.6500470000
| 18>  H        1.2362720000    -1.0049850000     1.2458240000
| 19>  H        0.6851390000    -0.2511200000    -0.2661330000
| 20>  H        1.4166320000     0.7330350000     1.0124400000
| 21>  H        2.8818090000    -1.3859910000    -0.3657670000
| 22>  H        2.9089910000     1.4912150000    -0.7526820000
| 23>  H        2.5936710000     0.2810550000    -1.9984110000
| 24>  H        4.8331720000     0.9535150000    -2.3104030000
| 25>  H        5.2855170000     0.5195340000     0.6785180000
| 26>  H        5.2897330000     2.0773050000    -0.1554800000
| 27>  H        6.5621190000     0.8965200000    -0.5043690000
| 28>  H        5.1693440000    -1.3652010000    -0.8017600000
| 29> *
| 30>
| 31>                          ****END OF INPUT****
 Total Charge           Charge          ....    0
 Multiplicity           Mult            ....    1
 Number of Electrons    NEL             ....   50
 Basis Dimension        Dim             ....  139

MULLIKEN ATOMIC CHARGES
-----------------------
   0 C :    0.071419
   1 N :   -0.288513
   2 C :    0.122613
   3 C :    0.068572
   4 C :   -0.018997
   5 O :   -0.285761
   6 H :    0.022102
   7 H :   -0.004211
   8 H :    0.020090
   9 H :    0.090855
  10 H :   -0.004031
  11 H :   -0.009268
  12 H :   -0.001785
  13 H :    0.017531
  14 H :    0.016007
  15 H :    0.031998
  16 H :    0.151378
Sum of atomic charges:   -0.0000000

LOEWDIN ATOMIC CHARGES
----------------------
   0 C :   -0.005907
   1 N :   -0.108090
   2 C :   -0.000854
   3 C :    0.036698
   4 C :   -0.081806
   5 O :   -0.114780
   6 H :    0.022329
   7 H :   -0.000181
   8 H :    0.020872
   9 H :    0.047147
  10 H :    0.020608
  11 H :    0.001567
  12 H :    0.019919
  13 H :    0.022957
  14 H :    0.030169
  15 H :    0.027677
  16 H :    0.061674

  Mayer bond orders larger than 0.1
B(  0-C ,  1-N ) :   1.0657 B(  0-C ,  6-H ) :   0.9727 B(  0-C ,  7-H ) :   0.9436
B(  0-C ,  8-H ) :   0.9700 B(  1-N ,  2-C ) :   1.0259 B(  1-N ,  9-H ) :   0.9351
B(  2-C ,  3-C ) :   1.0217 B(  2-C , 10-H ) :   0.9259 B(  2-C , 11-H ) :   0.9140
B(  3-C ,  4-C ) :   1.0962 B(  3-C ,  5-O ) :   1.0433 B(  3-C , 12-H ) :   0.9120
B(  4-C , 13-H ) :   0.9478 B(  4-C , 14-H ) :   0.9486 B(  4-C , 15-H ) :   0.9595
B(  5-O , 16-H ) :   0.9806

FINAL SINGLE POINT ENERGY      -288.419703192391

DIPOLE MOMENT
-------------
                                X             Y             Z
Electronic contribution:      2.22349      -2.45614      -2.34154
Nuclear contribution   :     -2.52329       2.53120       2.67393
                        -----------------------------------------
Total Dipole Moment    :     -0.29980       0.07506       0.33238
                        -----------------------------------------
Magnitude (a.u.)       :      0.45386
Magnitude (Debye)      :      1.15363

                             ****ORCA TERMINATED NORMALLY****
TOTAL RUN TIME: 0 days 0 hours 0 minutes 6 seconds 908 msec
