                         Program Version 3.0.3 - RELEASE   -
|  1> ! RI PBE def2-SVP def2-SVP/J NBO PAL2
|  2> % maxcore 2000
|  3> % output
|  4>     # printlevel mini
|  5>     print[ P_Basis ] 0
|  6>     print[ P_SCFInfo ] 1
|  7>     print[ P_SCFIterInfo ] 1
|  8>     print[ P_OrbEn ] 0
|  9>     print[ P_Cartesian ] 0
| 10> end
| 11> *xyz 0 1
| 12>  C        1.2732060000    -0.2723200000     0.3244860000
| 13>  N        2.7158460000    -0.1696170000     0.3959230000
| 14>  C        3.1879630000     1.1946360000     0.3935280000
| 15>  C        4.6690870000     1.3385440000     0.6956540000
| 16>  C        5.2953190000     0.3179500000     1.6020370000
| 17>  O        5.2908550000     2.2671860000     0.2417490000
| 18>  H        0.9817590000    -1.3229400000     0.2725450000
| 19>  H        0.8271210000     0.2530260000    -0.5351650000
| 20>  H        0.8339400000     0.1482920000     1.2332460000
| 21>  H        3.1284890000    -0.6747530000    -0.3785590000
| 22>  H        2.6731120000     1.7312520000     1.2030090000
| 23>  H        2.9808940000     1.7573060000    -0.5294750000
| 24>  H        4.6690790000     0.1460100000     2.4801790000
| 25>  H        6.2920980000     0.6486680000     1.8883640000
| 26>  H        5.3603630000    -0.6451500000     1.0884810000
| 27> *
| 28>
| 29>                          ****END OF INPUT****
 Total Charge           Charge          ....    0
 Multiplicity           Mult            ....    1
 Number of Electrons    NEL             ....   48
 Basis Dimension        Dim             ....  129

MULLIKEN ATOMIC CHARGES
-----------------------
   0 C :    0.070022
   1 N :   -0.275268
   2 C :    0.121256
   3 C :   -0.110311
   4 C :    0.059875
   5 O :   -0.162658
   6 H :    0.023124
   7 H :    0.000418
   8 H :    0.021848
   9 H :    0.105854
  10 H :    0.037929
  11 H :    0.008210
  12 H :    0.035739
  13 H :    0.029534
  14 H :    0.034427
Sum of atomic charges:   -0.0000000

LOEWDIN ATOMIC CHARGES
----------------------
   0 C :   -0.003773
   1 N :   -0.103525
   2 C :   -0.019081
   3 C :    0.046557
   4 C :   -0.085811
   5 O :   -0.123057
   6 H :    0.023798
   7 H :    0.001254
   8 H :    0.022696
   9 H :    0.057102
  10 H :    0.044433
  11 H :    0.012335
  12 H :    0.044712
  13 H :    0.034864
  14 H :    0.047496

  Mayer bond orders larger than 0.1
B(  0-C ,  1-N ) :   1.0608 B(  0-C ,  6-H ) :   0.9724 B(  0-C ,  7-H ) :   0.9486
B(  0-C ,  8-H ) :   0.9695 B(  1-N ,  2-C ) :   1.0564 B(  1-N ,  9-H ) :   0.9474
B(  2-C ,  3-C ) :   0.9479 B(  2-C , 10-H ) :   0.9038 B(  2-C , 11-H ) :   0.9131
B(  3-C ,  4-C ) :   1.0357 B(  3-C ,  5-O ) :   2.1869 B(  4-C , 12-H ) :   0.9391
B(  4-C , 13-H ) :   0.9436 B(  4-C , 14-H ) :   0.9244

FINAL SINGLE POINT ENERGY      -287.227959542871

DIPOLE MOMENT
-------------
                                X             Y             Z
Electronic contribution:      4.64423       3.76930      -1.16339
Nuclear contribution   :     -5.34447      -4.55406       1.22100
                        -----------------------------------------
Total Dipole Moment    :     -0.70024      -0.78476       0.05761
                        -----------------------------------------
Magnitude (a.u.)       :      1.05333
Magnitude (Debye)      :      2.67735

                             ****ORCA TERMINATED NORMALLY****
TOTAL RUN TIME: 0 days 0 hours 0 minutes 6 seconds 133 msec
