                         Program Version 3.0.3 - RELEASE   -
|  1> ! RI PBE def2-SVP def2-SVP/J NBO PAL2
|  2> % maxcore 2000
|  3> % output
|  4>     # printlevel mini
|  5>     print[ P_Basis ] 0
|  6>     print[ P_SCFInfo ] 1
|  7>     print[ P_SCFIterInfo ] 1
|  8>     print[ P_OrbEn ] 0
|  9>     print[ P_Cartesian ] 0
| 10> end
| 11> *xyz 0 1
| 12>  C        1.3819980000    -0.0292280000    -0.3959390000
| 13>  N        2.8118400000     0.0831250000    -0.2056970000
| 14>  C        3.1693530000     0.5432320000     1.1191870000
| 15>  C        4.6718700000     0.6341960000     1.2667710000
| 16>  C        5.1429770000     0.9814850000     2.6442310000
| 17>  O        4.4277460000     1.1523770000     3.5935480000
| 18>  H        1.1681370000    -0.3264260000    -1.4243420000
| 19>  H        0.8262930000     0.8983670000    -0.1802510000
| 20>  H        0.9876910000    -0.8085080000     0.2619860000
| 21>  H        3.1982860000     0.7108560000    -0.9005280000
| 22>  H        2.7810840000    -0.1734340000     1.8495190000
| 23>  H        2.7139300000     1.5134750000     1.3800950000
| 24>  H        5.1029760000     1.3769810000     0.5803660000
| 25>  H        5.1438090000    -0.3162950000     0.9842670000
| 26>  H        6.2468110000     1.0718840000     2.7491880000
| 27> *
| 28>
| 29>                          ****END OF INPUT****
 Total Charge           Charge          ....    0
 Multiplicity           Mult            ....    1
 Number of Electrons    NEL             ....   48
 Basis Dimension        Dim             ....  129

MULLIKEN ATOMIC CHARGES
-----------------------
   0 C :    0.068456
   1 N :   -0.275019
   2 C :    0.098097
   3 C :   -0.020289
   4 C :    0.072060
   5 O :   -0.161569
   6 H :    0.019993
   7 H :   -0.003638
   8 H :    0.022034
   9 H :    0.098837
  10 H :    0.018038
  11 H :   -0.005116
  12 H :    0.031369
  13 H :    0.040708
  14 H :   -0.003961
Sum of atomic charges:   -0.0000000

LOEWDIN ATOMIC CHARGES
----------------------
   0 C :   -0.006017
   1 N :   -0.106382
   2 C :    0.014034
   3 C :   -0.090345
   4 C :    0.091709
   5 O :   -0.109055
   6 H :    0.022676
   7 H :   -0.000838
   8 H :    0.022852
   9 H :    0.052394
  10 H :    0.025663
  11 H :    0.002825
  12 H :    0.042417
  13 H :    0.049386
  14 H :   -0.011321

  Mayer bond orders larger than 0.1
B(  0-C ,  1-N ) :   1.0645 B(  0-C ,  6-H ) :   0.9725 B(  0-C ,  7-H ) :   0.9459
B(  0-C ,  8-H ) :   0.9691 B(  1-N ,  2-C ) :   1.0487 B(  1-N ,  9-H ) :   0.9462
B(  2-C ,  3-C ) :   1.0750 B(  2-C , 10-H ) :   0.9308 B(  2-C , 11-H ) :   0.9188
B(  3-C ,  4-C ) :   0.9712 B(  3-C , 12-H ) :   0.9062 B(  3-C , 13-H ) :   0.8962
B(  4-C ,  5-O ) :   2.1819 B(  4-C , 14-H ) :   0.9314

FINAL SINGLE POINT ENERGY      -287.219080979669

DIPOLE MOMENT
-------------
                                X             Y             Z
Electronic contribution:      3.96193       1.18933       5.30293
Nuclear contribution   :     -3.72179      -1.05543      -6.20750
                        -----------------------------------------
Total Dipole Moment    :      0.24014       0.13390      -0.90458
                        -----------------------------------------
Magnitude (a.u.)       :      0.94544
Magnitude (Debye)      :      2.40312

                             ****ORCA TERMINATED NORMALLY****
TOTAL RUN TIME: 0 days 0 hours 0 minutes 6 seconds 301 msec
