                         Program Version 3.0.3 - RELEASE   -
|  1> ! RI PBE def2-SVP def2-SVP/J NBO PAL2
|  2> % maxcore 2000
|  3> % output
|  4>     # printlevel mini
|  5>     print[ P_Basis ] 0
|  6>     print[ P_SCFInfo ] 1
|  7>     print[ P_SCFIterInfo ] 1
|  8>     print[ P_OrbEn ] 0
|  9>     print[ P_Cartesian ] 0
| 10> end
| 11> *xyz 0 1
| 12>  C        0.9243050000    -0.1112440000    -0.5363790000
| 13>  N        2.2799360000     0.2086590000    -0.1537560000
| 14>  C        2.8835610000    -0.7954600000     0.6911350000
| 15>  C        4.2524030000    -0.3608210000     1.1472480000
| 16>  O        4.1146230000     0.7905750000     1.9448130000
| 17>  C        5.3466030000     1.3064820000     2.3634090000
| 18>  H        0.5001370000     0.7093230000    -1.1184040000
| 19>  H        0.2532620000    -0.3123870000     0.3161060000
| 20>  H        0.9209780000    -1.0015190000    -1.1725530000
| 21>  H        2.3066000000     1.0946510000     0.3356230000
| 22>  H        2.9873340000    -1.7252830000     0.1199810000
| 23>  H        2.2711080000    -1.0321400000     1.5802800000
| 24>  H        4.8827470000    -0.1399940000     0.2729880000
| 25>  H        4.7328670000    -1.1668830000     1.7224640000
| 26>  H        5.1471710000     2.1915110000     2.9683420000
| 27>  H        5.9754400000     1.5930190000     1.5089810000
| 28>  H        5.9020150000     0.5788010000     2.9719330000
| 29> *
| 30>
| 31>                          ****END OF INPUT****
 Total Charge           Charge          ....    0
 Multiplicity           Mult            ....    1
 Number of Electrons    NEL             ....   50
 Basis Dimension        Dim             ....  139

MULLIKEN ATOMIC CHARGES
-----------------------
   0 C :    0.068599
   1 N :   -0.278665
   2 C :    0.107312
   3 C :    0.149268
   4 O :   -0.355891
   5 C :    0.146295
   6 H :    0.022224
   7 H :   -0.007402
   8 H :    0.014735
   9 H :    0.103003
  10 H :    0.003259
  11 H :   -0.012288
  12 H :    0.000808
  13 H :   -0.006641
  14 H :    0.032316
  15 H :    0.007570
  16 H :    0.005498
Sum of atomic charges:   -0.0000000

LOEWDIN ATOMIC CHARGES
----------------------
   0 C :   -0.008159
   1 N :   -0.106100
   2 C :    0.001179
   3 C :    0.053526
   4 O :   -0.152352
   5 C :    0.049075
   6 H :    0.022536
   7 H :   -0.002143
   8 H :    0.019461
   9 H :    0.051245
  10 H :    0.023891
  11 H :    0.000765
  12 H :    0.006806
  13 H :    0.005942
  14 H :    0.022722
  15 H :    0.006474
  16 H :    0.005134

  Mayer bond orders larger than 0.1
B(  0-C ,  1-N ) :   1.0693 B(  0-C ,  6-H ) :   0.9732 B(  0-C ,  7-H ) :   0.9426
B(  0-C ,  8-H ) :   0.9680 B(  1-N ,  2-C ) :   1.0529 B(  1-N ,  9-H ) :   0.9406
B(  2-C ,  3-C ) :   1.0873 B(  2-C , 10-H ) :   0.9219 B(  2-C , 11-H ) :   0.9049
B(  3-C ,  4-O ) :   1.0169 B(  3-C , 12-H ) :   0.9184 B(  3-C , 13-H ) :   0.9220
B(  4-O ,  5-C ) :   1.0184 B(  5-C , 14-H ) :   0.9759 B(  5-C , 15-H ) :   0.9565
B(  5-C , 16-H ) :   0.9556

FINAL SINGLE POINT ENERGY      -288.405492144580

DIPOLE MOMENT
-------------
                                X             Y             Z
Electronic contribution:      0.72546       1.15279       0.83055
Nuclear contribution   :     -0.48144      -1.19968      -0.63218
                        -----------------------------------------
Total Dipole Moment    :      0.24402      -0.04689       0.19837
                        -----------------------------------------
Magnitude (a.u.)       :      0.31796
Magnitude (Debye)      :      0.80818

                             ****ORCA TERMINATED NORMALLY****
TOTAL RUN TIME: 0 days 0 hours 0 minutes 6 seconds 716 msec
