                         Program Version 3.0.3 - RELEASE   -
|  1> ! RI PBE def2-SVP def2-SVP/J NBO PAL2
|  2> % maxcore 2000
|  3> % output
|  4>     # printlevel mini
|  5>     print[ P_Basis ] 0
|  6>     print[ P_SCFInfo ] 1
|  7>     print[ P_SCFIterInfo ] 1
|  8>     print[ P_OrbEn ] 0
|  9>     print[ P_Cartesian ] 0
| 10> end
| 11> *xyz 0 1
| 12>  C        1.0744950000     0.1430760000    -0.1281980000
| 13>  N        2.5030340000    -0.0380420000    -0.0963900000
| 14>  C        3.0514800000    -1.2389740000     0.2085800000
| 15>  O        2.3693060000    -2.2130760000     0.4679560000
| 16>  C        4.5399500000    -1.2605080000     0.1984950000
| 17>  C        5.2021070000    -2.3730660000     0.4794090000
| 18>  H        0.8516330000     1.1758440000    -0.3935440000
| 19>  H        0.6315300000    -0.0796850000     0.8453440000
| 20>  H        0.6134870000    -0.5222500000    -0.8619750000
| 21>  H        3.1051320000     0.7376610000    -0.3035400000
| 22>  H        5.0683730000    -0.3421750000    -0.0446940000
| 23>  H        4.6520300000    -3.2767600000     0.7190350000
| 24>  H        6.2846430000    -2.4102550000     0.4776220000
| 25> *
| 26>
| 27>                          ****END OF INPUT****
 Total Charge           Charge          ....    0
 Multiplicity           Mult            ....    1
 Number of Electrons    NEL             ....   46
 Basis Dimension        Dim             ....  119

MULLIKEN ATOMIC CHARGES
-----------------------
   0 C :    0.087589
   1 N :   -0.147891
   2 C :    0.069309
   3 O :   -0.218458
   4 C :   -0.078331
   5 C :    0.015989
   6 H :    0.016846
   7 H :    0.042647
   8 H :    0.043867
   9 H :    0.110587
  10 H :   -0.014268
  11 H :    0.042034
  12 H :    0.030079
Sum of atomic charges:   -0.0000000

LOEWDIN ATOMIC CHARGES
----------------------
   0 C :    0.012291
   1 N :    0.001608
   2 C :    0.017849
   3 O :   -0.197252
   4 C :   -0.076730
   5 C :   -0.000390
   6 H :    0.026010
   7 H :    0.030870
   8 H :    0.031110
   9 H :    0.071019
  10 H :    0.020521
  11 H :    0.034279
  12 H :    0.028815

  Mayer bond orders larger than 0.1
B(  0-C ,  1-N ) :   1.0086 B(  0-C ,  6-H ) :   0.9688 B(  0-C ,  7-H ) :   0.9661
B(  0-C ,  8-H ) :   0.9660 B(  1-N ,  2-C ) :   1.2120 B(  1-N ,  9-H ) :   0.9304
B(  2-C ,  3-O ) :   2.0630 B(  2-C ,  4-C ) :   0.9567 B(  4-C ,  5-C ) :   1.9886
B(  4-C , 10-H ) :   0.9390 B(  5-C , 11-H ) :   0.9308 B(  5-C , 12-H ) :   0.9398

FINAL SINGLE POINT ENERGY      -286.042950343873

DIPOLE MOMENT
-------------
                                X             Y             Z
Electronic contribution:      0.64270      -1.81660       0.46198
Nuclear contribution   :     -0.25102       3.08805      -0.79663
                        -----------------------------------------
Total Dipole Moment    :      0.39168       1.27144      -0.33465
                        -----------------------------------------
Magnitude (a.u.)       :      1.37185
Magnitude (Debye)      :      3.48696

                             ****ORCA TERMINATED NORMALLY****
TOTAL RUN TIME: 0 days 0 hours 0 minutes 5 seconds 695 msec
