                         Program Version 3.0.3 - RELEASE   -
|  1> ! RI PBE def2-SVP def2-SVP/J NBO PAL2
|  2> % maxcore 2000
|  3> % output
|  4>     # printlevel mini
|  5>     print[ P_Basis ] 0
|  6>     print[ P_SCFInfo ] 1
|  7>     print[ P_SCFIterInfo ] 1
|  8>     print[ P_OrbEn ] 0
|  9>     print[ P_Cartesian ] 0
| 10> end
| 11> *xyz 0 1
| 12>  C        0.9431870000     0.1133470000     0.1228010000
| 13>  N        2.3753820000     0.0037480000    -0.0217700000
| 14>  C        3.0324550000    -0.7093840000    -0.9649230000
| 15>  O        4.2430990000    -0.7675600000    -1.0412710000
| 16>  C        2.1754360000    -1.4199170000    -1.9055250000
| 17>  C        1.5154000000    -2.0243340000    -2.7054890000
| 18>  H        0.7331050000     0.7580150000     0.9752850000
| 19>  H        0.4793500000    -0.8584730000     0.3073620000
| 20>  H        0.4796620000     0.5558070000    -0.7620760000
| 21>  H        2.9782430000     0.4898710000     0.6216730000
| 22>  H        0.9431810000    -2.5660290000    -3.4222660000
| 23> *
| 24>
| 25>                          ****END OF INPUT****
 Total Charge           Charge          ....    0
 Multiplicity           Mult            ....    1
 Number of Electrons    NEL             ....   44
 Basis Dimension        Dim             ....  109

MULLIKEN ATOMIC CHARGES
-----------------------
   0 C :    0.090656
   1 N :   -0.160149
   2 C :    0.102609
   3 O :   -0.185865
   4 C :    0.293239
   5 C :   -0.403835
   6 H :    0.034800
   7 H :    0.044004
   8 H :    0.045235
   9 H :    0.125146
  10 H :    0.014160
Sum of atomic charges:   -0.0000000

LOEWDIN ATOMIC CHARGES
----------------------
   0 C :    0.010712
   1 N :    0.007667
   2 C :    0.007079
   3 O :   -0.165973
   4 C :   -0.041861
   5 C :   -0.032751
   6 H :    0.034485
   7 H :    0.030488
   8 H :    0.030725
   9 H :    0.078913
  10 H :    0.040516

  Mayer bond orders larger than 0.1
B(  0-C ,  1-N ) :   1.0187 B(  0-C ,  6-H ) :   0.9690 B(  0-C ,  7-H ) :   0.9616
B(  0-C ,  8-H ) :   0.9616 B(  1-N ,  2-C ) :   1.2104 B(  1-N ,  3-O ) :   0.1087
B(  1-N ,  9-H ) :   0.9230 B(  2-C ,  3-O ) :   2.0873 B(  2-C ,  4-C ) :   0.8615
B(  4-C ,  5-C ) :   2.3863 B(  5-C , 10-H ) :   1.0884

FINAL SINGLE POINT ENERGY      -284.789537002162

DIPOLE MOMENT
-------------
                                X             Y             Z
Electronic contribution:      4.52663      -1.63397      -2.16019
Nuclear contribution   :     -5.93512       2.00552       2.65129
                        -----------------------------------------
Total Dipole Moment    :     -1.40849       0.37155       0.49110
                        -----------------------------------------
Magnitude (a.u.)       :      1.53723
Magnitude (Debye)      :      3.90733

                             ****ORCA TERMINATED NORMALLY****
TOTAL RUN TIME: 0 days 0 hours 0 minutes 5 seconds 442 msec
