                         Program Version 3.0.3 - RELEASE   -
|  1> ! RI PBE def2-SVP def2-SVP/J NBO PAL2
|  2> % maxcore 2000
|  3> % output
|  4>     # printlevel mini
|  5>     print[ P_Basis ] 0
|  6>     print[ P_SCFInfo ] 1
|  7>     print[ P_SCFIterInfo ] 1
|  8>     print[ P_OrbEn ] 0
|  9>     print[ P_Cartesian ] 0
| 10> end
| 11> *xyz 0 1
| 12>  C        2.2108960000     0.0836310000    -0.5068550000
| 13>  N        3.4194710000     0.1007630000    -0.1369620000
| 14>  O        3.5763090000    -0.4465260000     1.1183800000
| 15>  C        4.9240970000    -0.4177390000     1.4881460000
| 16>  C        5.4710030000     0.8275370000     2.0949710000
| 17>  C        5.1663430000    -0.3723880000     2.9514910000
| 18>  H        1.9992420000     0.4921480000    -1.4874990000
| 19>  H        1.4095780000    -0.3173130000     0.1125340000
| 20>  H        5.5650200000    -1.0242060000     0.8565110000
| 21>  H        4.7940770000     1.6692440000     2.1649490000
| 22>  H        6.5042090000     1.0827420000     1.8963650000
| 23>  H        4.2896350000    -0.3171880000     3.5842740000
| 24>  H        5.9842180000    -0.9570950000     3.3523840000
| 25> *
| 26>
| 27>                          ****END OF INPUT****
 Total Charge           Charge          ....    0
 Multiplicity           Mult            ....    1
 Number of Electrons    NEL             ....   46
 Basis Dimension        Dim             ....  119

MULLIKEN ATOMIC CHARGES
-----------------------
   0 C :   -0.013475
   1 N :   -0.009219
   2 O :   -0.245508
   3 C :    0.081651
   4 C :   -0.041914
   5 C :   -0.054135
   6 H :    0.052576
   7 H :    0.030938
   8 H :    0.024320
   9 H :    0.041390
  10 H :    0.039038
  11 H :    0.050976
  12 H :    0.043361
Sum of atomic charges:   -0.0000000

LOEWDIN ATOMIC CHARGES
----------------------
   0 C :   -0.045622
   1 N :    0.013174
   2 O :   -0.066253
   3 C :    0.026955
   4 C :   -0.054168
   5 C :   -0.051392
   6 H :    0.027437
   7 H :    0.005931
   8 H :    0.014185
   9 H :    0.033421
  10 H :    0.030096
  11 H :    0.034942
  12 H :    0.031294

  Mayer bond orders larger than 0.1
B(  0-C ,  1-N ) :   1.9439 B(  0-C ,  2-O ) :   0.1132 B(  0-C ,  6-H ) :   0.9520
B(  0-C ,  7-H ) :   0.9313 B(  1-N ,  2-O ) :   0.9549 B(  2-O ,  3-C ) :   1.0185
B(  3-C ,  4-C ) :   1.0106 B(  3-C ,  5-C ) :   0.9967 B(  3-C ,  8-H ) :   0.9468
B(  4-C ,  5-C ) :   1.0326 B(  4-C ,  9-H ) :   0.9406 B(  4-C , 10-H ) :   0.9470
B(  5-C , 11-H ) :   0.9457 B(  5-C , 12-H ) :   0.9460

FINAL SINGLE POINT ENERGY      -285.944106617457

DIPOLE MOMENT
-------------
                                X             Y             Z
Electronic contribution:     -1.73282      -0.87157      -2.08383
Nuclear contribution   :      1.68683       0.86561       2.18930
                        -----------------------------------------
Total Dipole Moment    :     -0.04599      -0.00596       0.10547
                        -----------------------------------------
Magnitude (a.u.)       :      0.11521
Magnitude (Debye)      :      0.29285

                             ****ORCA TERMINATED NORMALLY****
TOTAL RUN TIME: 0 days 0 hours 0 minutes 5 seconds 633 msec
