                         Program Version 3.0.3 - RELEASE   -
|  1> ! RI PBE def2-SVP def2-SVP/J NBO PAL2
|  2> % maxcore 2000
|  3> % output
|  4>     # printlevel mini
|  5>     print[ P_Basis ] 0
|  6>     print[ P_SCFInfo ] 1
|  7>     print[ P_SCFIterInfo ] 1
|  8>     print[ P_OrbEn ] 0
|  9>     print[ P_Cartesian ] 0
| 10> end
| 11> *xyz 0 1
| 12>  C        1.1757070000    -0.3298220000    -0.3944060000
| 13>  N        2.4249210000    -0.2643200000    -0.2133330000
| 14>  O        2.8788470000     1.0327970000    -0.2348120000
| 15>  C        4.2849580000     1.0212870000    -0.0249390000
| 16>  C        4.7727040000     2.3869800000    -0.0471370000
| 17>  C        5.2043970000     3.5053260000    -0.0604810000
| 18>  H        0.7388500000    -1.3209010000    -0.3916120000
| 19>  H        0.5549750000     0.5517420000    -0.5470150000
| 20>  H        4.7715040000     0.4316630000    -0.8096970000
| 21>  H        4.5114950000     0.5530050000     0.9392420000
| 22>  H        5.5831530000     4.5000340000    -0.0731010000
| 23> *
| 24>
| 25>                          ****END OF INPUT****
 Total Charge           Charge          ....    0
 Multiplicity           Mult            ....    1
 Number of Electrons    NEL             ....   44
 Basis Dimension        Dim             ....  109

MULLIKEN ATOMIC CHARGES
-----------------------
   0 C :   -0.016360
   1 N :   -0.016747
   2 O :   -0.280430
   3 C :    0.275235
   4 C :    0.286362
   5 C :   -0.432668
   6 H :    0.056135
   7 H :    0.040285
   8 H :    0.041234
   9 H :    0.037257
  10 H :    0.009698
Sum of atomic charges:   -0.0000000

LOEWDIN ATOMIC CHARGES
----------------------
   0 C :   -0.040039
   1 N :    0.008710
   2 O :   -0.080515
   3 C :    0.052013
   4 C :   -0.033142
   5 C :   -0.055258
   6 H :    0.028835
   7 H :    0.010156
   8 H :    0.035871
   9 H :    0.035147
  10 H :    0.038221

  Mayer bond orders larger than 0.1
B(  0-C ,  1-N ) :   1.9396 B(  0-C ,  2-O ) :   0.1203 B(  0-C ,  6-H ) :   0.9523
B(  0-C ,  7-H ) :   0.9326 B(  1-N ,  2-O ) :   0.9698 B(  2-O ,  3-C ) :   0.9590
B(  3-C ,  4-C ) :   1.0102 B(  3-C ,  8-H ) :   0.9182 B(  3-C ,  9-H ) :   0.9175
B(  4-C ,  5-C ) :   2.4133 B(  5-C , 10-H ) :   1.0874

FINAL SINGLE POINT ENERGY      -284.698317515507

DIPOLE MOMENT
-------------
                                X             Y             Z
Electronic contribution:      0.70188       1.01998       0.03256
Nuclear contribution   :     -0.75755      -1.04233      -0.04056
                        -----------------------------------------
Total Dipole Moment    :     -0.05567      -0.02235      -0.00800
                        -----------------------------------------
Magnitude (a.u.)       :      0.06052
Magnitude (Debye)      :      0.15384

                             ****ORCA TERMINATED NORMALLY****
TOTAL RUN TIME: 0 days 0 hours 0 minutes 5 seconds 99 msec
