                         Program Version 3.0.3 - RELEASE   -
|  1> ! RI PBE def2-SVP def2-SVP/J NBO PAL2
|  2> % maxcore 2000
|  3> % output
|  4>     # printlevel mini
|  5>     print[ P_Basis ] 0
|  6>     print[ P_SCFInfo ] 1
|  7>     print[ P_SCFIterInfo ] 1
|  8>     print[ P_OrbEn ] 0
|  9>     print[ P_Cartesian ] 0
| 10> end
| 11> *xyz 0 1
| 12>  C        2.9112410000     0.0648050000     0.9247740000
| 13>  O        2.0835040000     0.0990270000    -0.2106460000
| 14>  C        2.7479480000     0.5625620000    -1.3340280000
| 15>  C        1.9085420000     1.2062260000    -2.3825010000
| 16>  C        2.8614250000     2.0433760000    -1.5842020000
| 17>  N        3.9793770000     2.6585550000    -2.2343150000
| 18>  H        2.3108010000    -0.3088140000     1.7544360000
| 19>  H        3.2907510000     1.0632330000     1.1766180000
| 20>  H        3.7678300000    -0.6065560000     0.7762250000
| 21>  H        3.5850220000    -0.0571370000    -1.6617410000
| 22>  H        0.8518880000     1.3053780000    -2.1693710000
| 23>  H        2.1477530000     1.0048590000    -3.4207190000
| 24>  H        2.3933170000     2.6672050000    -0.8275030000
| 25>  H        4.1735950000     2.2248390000    -3.1263990000
| 26>  H        4.8181240000     2.5996100000    -1.6703480000
| 27> *
| 28>
| 29>                          ****END OF INPUT****
 Total Charge           Charge          ....    0
 Multiplicity           Mult            ....    1
 Number of Electrons    NEL             ....   48
 Basis Dimension        Dim             ....  129

MULLIKEN ATOMIC CHARGES
-----------------------
   0 C :    0.167598
   1 O :   -0.302375
   2 C :    0.062821
   3 C :   -0.007071
   4 C :   -0.103338
   5 N :   -0.119012
   6 H :    0.031542
   7 H :   -0.000134
   8 H :    0.000967
   9 H :   -0.008674
  10 H :    0.049608
  11 H :    0.027690
  12 H :    0.027877
  13 H :    0.080149
  14 H :    0.092353
Sum of atomic charges:   -0.0000000

LOEWDIN ATOMIC CHARGES
----------------------
   0 C :    0.054438
   1 O :   -0.128068
   2 C :    0.009720
   3 C :   -0.052342
   4 C :   -0.026185
   5 N :   -0.084072
   6 H :    0.022456
   7 H :    0.004262
   8 H :    0.005266
   9 H :    0.000497
  10 H :    0.037176
  11 H :    0.027459
  12 H :    0.023289
  13 H :    0.051464
  14 H :    0.054639

  Mayer bond orders larger than 0.1
B(  0-C ,  1-O ) :   1.0081 B(  0-C ,  6-H ) :   0.9767 B(  0-C ,  7-H ) :   0.9548
B(  0-C ,  8-H ) :   0.9555 B(  1-O ,  2-C ) :   1.0857 B(  2-C ,  3-C ) :   0.9802
B(  2-C ,  4-C ) :   0.9069 B(  2-C ,  9-H ) :   0.9253 B(  3-C ,  4-C ) :   0.9999
B(  3-C , 10-H ) :   0.9373 B(  3-C , 11-H ) :   0.9339 B(  4-C ,  5-N ) :   1.1554
B(  4-C , 12-H ) :   0.9291 B(  5-N , 13-H ) :   0.9607 B(  5-N , 14-H ) :   0.9714

FINAL SINGLE POINT ENERGY      -287.184972159823

DIPOLE MOMENT
-------------
                                X             Y             Z
Electronic contribution:     -1.57359      -0.27074      -0.67764
Nuclear contribution   :      2.20151       0.03285       0.75447
                        -----------------------------------------
Total Dipole Moment    :      0.62793      -0.23790       0.07683
                        -----------------------------------------
Magnitude (a.u.)       :      0.67586
Magnitude (Debye)      :      1.71790

                             ****ORCA TERMINATED NORMALLY****
TOTAL RUN TIME: 0 days 0 hours 0 minutes 6 seconds 204 msec
