                         Program Version 3.0.3 - RELEASE   -
|  1> ! RI PBE def2-SVP def2-SVP/J NBO PAL2
|  2> % maxcore 2000
|  3> % output
|  4>     # printlevel mini
|  5>     print[ P_Basis ] 0
|  6>     print[ P_SCFInfo ] 1
|  7>     print[ P_SCFIterInfo ] 1
|  8>     print[ P_OrbEn ] 0
|  9>     print[ P_Cartesian ] 0
| 10> end
| 11> *xyz 0 1
| 12>  C        2.6727610000    -1.2682710000     0.0578870000
| 13>  O        2.3969690000     0.1042800000     0.1538270000
| 14>  C        2.9047150000     0.8306990000    -0.9179600000
| 15>  C        2.6696520000     2.3380230000    -0.8380670000
| 16>  N        4.0326380000     2.5358970000    -1.3613630000
| 17>  C        4.4093700000     1.1735970000    -0.9490930000
| 18>  H        2.2156590000    -1.7555120000     0.9191420000
| 19>  H        3.7524410000    -1.4685270000     0.0706160000
| 20>  H        2.2509740000    -1.6983380000    -0.8610200000
| 21>  H        2.5679040000     0.4047390000    -1.8726260000
| 22>  H        2.5354080000     2.6339740000     0.2100700000
| 23>  H        1.8714240000     2.7703600000    -1.4458460000
| 24>  H        4.5605380000     3.2834690000    -0.9312590000
| 25>  H        4.8284230000     1.1037090000     0.0639360000
| 26>  H        5.0575140000     0.6441920000    -1.6522430000
| 27> *
| 28>
| 29>                          ****END OF INPUT****
 Total Charge           Charge          ....    0
 Multiplicity           Mult            ....    1
 Number of Electrons    NEL             ....   48
 Basis Dimension        Dim             ....  129

MULLIKEN ATOMIC CHARGES
-----------------------
   0 C :    0.155739
   1 O :   -0.308376
   2 C :   -0.037416
   3 C :    0.166736
   4 N :   -0.286933
   5 C :    0.144732
   6 H :    0.033517
   7 H :    0.006127
   8 H :    0.004113
   9 H :   -0.002249
  10 H :    0.001982
  11 H :    0.013482
  12 H :    0.097969
  13 H :   -0.004503
  14 H :    0.015080
Sum of atomic charges:   -0.0000000

LOEWDIN ATOMIC CHARGES
----------------------
   0 C :    0.051691
   1 O :   -0.132150
   2 C :    0.037673
   3 C :    0.022981
   4 N :   -0.113466
   5 C :    0.005440
   6 H :    0.023742
   7 H :    0.005582
   8 H :    0.006568
   9 H :    0.007558
  10 H :    0.009424
  11 H :    0.011798
  12 H :    0.047529
  13 H :    0.006462
  14 H :    0.009169

  Mayer bond orders larger than 0.1
B(  0-C ,  1-O ) :   1.0114 B(  0-C ,  6-H ) :   0.9774 B(  0-C ,  7-H ) :   0.9567
B(  0-C ,  8-H ) :   0.9530 B(  1-O ,  2-C ) :   1.0778 B(  2-C ,  3-C ) :   1.0532
B(  2-C ,  5-C ) :   1.0535 B(  2-C ,  9-H ) :   0.8929 B(  3-C ,  4-N ) :   1.0380
B(  3-C , 10-H ) :   0.9166 B(  3-C , 11-H ) :   0.9370 B(  4-N ,  5-C ) :   1.0550
B(  4-N , 12-H ) :   0.9431 B(  5-C , 13-H ) :   0.9057 B(  5-C , 14-H ) :   0.9383

FINAL SINGLE POINT ENERGY      -287.183840318161

DIPOLE MOMENT
-------------
                                X             Y             Z
Electronic contribution:     -0.75942       1.95393       0.09520
Nuclear contribution   :      0.98132      -2.21172       0.07644
                        -----------------------------------------
Total Dipole Moment    :      0.22190      -0.25779       0.17163
                        -----------------------------------------
Magnitude (a.u.)       :      0.38099
Magnitude (Debye)      :      0.96841

                             ****ORCA TERMINATED NORMALLY****
TOTAL RUN TIME: 0 days 0 hours 0 minutes 5 seconds 369 msec
