                         Program Version 3.0.3 - RELEASE   -
|  1> ! RI PBE def2-SVP def2-SVP/J NBO PAL2
|  2> % maxcore 2000
|  3> % output
|  4>     # printlevel mini
|  5>     print[ P_Basis ] 0
|  6>     print[ P_SCFInfo ] 1
|  7>     print[ P_SCFIterInfo ] 1
|  8>     print[ P_OrbEn ] 0
|  9>     print[ P_Cartesian ] 0
| 10> end
| 11> *xyz 0 1
| 12>  C        1.8868860000     0.7677620000     0.0676930000
| 13>  O        3.0877690000     0.2796670000    -0.4632090000
| 14>  C        3.2868590000    -1.0816960000    -0.1921980000
| 15>  C        4.6124280000    -1.5236440000    -0.7435830000
| 16>  C        5.1600910000    -0.9361800000    -1.9770900000
| 17>  N        5.7639130000    -0.6377110000    -0.6757230000
| 18>  H        1.8232690000     1.8272090000    -0.1809090000
| 19>  H        1.8550400000     0.6550280000     1.1600680000
| 20>  H        1.0182330000     0.2485880000    -0.3596820000
| 21>  H        2.4797600000    -1.6865170000    -0.6355340000
| 22>  H        3.2645880000    -1.2547540000     0.8962140000
| 23>  H        4.8385620000    -2.5634760000    -0.5201820000
| 24>  H        4.5793240000    -0.1564300000    -2.4571940000
| 25>  H        5.7700130000    -1.5413040000    -2.6389940000
| 26>  H        5.4441660000     0.2795490000    -0.3778770000
| 27> *
| 28>
| 29>                          ****END OF INPUT****
 Total Charge           Charge          ....    0
 Multiplicity           Mult            ....    1
 Number of Electrons    NEL             ....   48
 Basis Dimension        Dim             ....  129

MULLIKEN ATOMIC CHARGES
-----------------------
   0 C :    0.148219
   1 O :   -0.358220
   2 C :    0.242385
   3 C :   -0.130203
   4 C :    0.043588
   5 N :   -0.201461
   6 H :    0.036807
   7 H :    0.012199
   8 H :    0.005994
   9 H :    0.002403
  10 H :    0.003618
  11 H :    0.025399
  12 H :    0.032273
  13 H :    0.032655
  14 H :    0.104345
Sum of atomic charges:    0.0000000

LOEWDIN ATOMIC CHARGES
----------------------
   0 C :    0.052845
   1 O :   -0.145627
   2 C :    0.055482
   3 C :   -0.025571
   4 C :    0.000283
   5 N :   -0.104200
   6 H :    0.025087
   7 H :    0.008128
   8 H :    0.007442
   9 H :    0.011002
  10 H :    0.009757
  11 H :    0.024464
  12 H :    0.015288
  13 H :    0.018622
  14 H :    0.046998

  Mayer bond orders larger than 0.1
B(  0-C ,  1-O ) :   1.0130 B(  0-C ,  6-H ) :   0.9758 B(  0-C ,  7-H ) :   0.9570
B(  0-C ,  8-H ) :   0.9563 B(  1-O ,  2-C ) :   1.0098 B(  2-C ,  3-C ) :   1.0435
B(  2-C ,  9-H ) :   0.9172 B(  2-C , 10-H ) :   0.9182 B(  3-C ,  4-C ) :   1.0658
B(  3-C ,  5-N ) :   1.0089 B(  3-C , 11-H ) :   0.9228 B(  4-C ,  5-N ) :   0.9956
B(  4-C , 12-H ) :   0.9392 B(  4-C , 13-H ) :   0.9433 B(  5-N , 14-H ) :   0.9443

FINAL SINGLE POINT ENERGY      -287.181389689083

DIPOLE MOMENT
-------------
                                X             Y             Z
Electronic contribution:      2.89183      -0.09222      -0.51748
Nuclear contribution   :     -3.89657       0.14791       0.65173
                        -----------------------------------------
Total Dipole Moment    :     -1.00474       0.05569       0.13425
                        -----------------------------------------
Magnitude (a.u.)       :      1.01520
Magnitude (Debye)      :      2.58043

                             ****ORCA TERMINATED NORMALLY****
TOTAL RUN TIME: 0 days 0 hours 0 minutes 6 seconds 154 msec
