                         Program Version 3.0.3 - RELEASE   -
|  1> ! RI PBE def2-SVP def2-SVP/J NBO PAL2
|  2> % maxcore 2000
|  3> % output
|  4>     # printlevel mini
|  5>     print[ P_Basis ] 0
|  6>     print[ P_SCFInfo ] 1
|  7>     print[ P_SCFIterInfo ] 1
|  8>     print[ P_OrbEn ] 0
|  9>     print[ P_Cartesian ] 0
| 10> end
| 11> *xyz 0 1
| 12>  C        0.8716200000     0.4186010000     1.8555400000
| 13>  O        2.2617850000     0.5019930000     1.9857630000
| 14>  C        2.8861160000     0.9525450000     0.8086840000
| 15>  C        4.3795340000     1.0253140000     1.0218110000
| 16>  C        4.7975670000     2.0558610000     2.0539470000
| 17>  N        6.2503400000     2.0993400000     2.1616060000
| 18>  H        0.4703810000     0.0587670000     2.8035120000
| 19>  H        0.5813840000    -0.2812950000     1.0586830000
| 20>  H        0.4262570000     1.3983300000     1.6305410000
| 21>  H        2.4902070000     1.9437440000     0.5309350000
| 22>  H        2.6545920000     0.2681820000    -0.0223630000
| 23>  H        4.8633730000     1.2609360000     0.0689490000
| 24>  H        4.7374400000     0.0339630000     1.3238330000
| 25>  H        4.2862180000     1.8406180000     3.0021370000
| 26>  H        4.4562450000     3.0442860000     1.7263400000
| 27>  H        6.5982200000     1.2123650000     2.5076570000
| 28>  H        6.5346200000     2.8013690000     2.8334250000
| 29> *
| 30>
| 31>                          ****END OF INPUT****
 Total Charge           Charge          ....    0
 Multiplicity           Mult            ....    1
 Number of Electrons    NEL             ....   50
 Basis Dimension        Dim             ....  139

MULLIKEN ATOMIC CHARGES
-----------------------
   0 C :    0.149244
   1 O :   -0.350979
   2 C :    0.169589
   3 C :   -0.013598
   4 C :    0.052642
   5 N :   -0.207223
   6 H :    0.030258
   7 H :    0.002608
   8 H :    0.001888
   9 H :   -0.017785
  10 H :   -0.004966
  11 H :    0.009701
  12 H :    0.008173
  13 H :    0.004619
  14 H :   -0.004044
  15 H :    0.084610
  16 H :    0.085263
Sum of atomic charges:   -0.0000000

LOEWDIN ATOMIC CHARGES
----------------------
   0 C :    0.048960
   1 O :   -0.151706
   2 C :    0.061537
   3 C :   -0.056910
   4 C :    0.004940
   5 N :   -0.115327
   6 H :    0.022135
   7 H :    0.003906
   8 H :    0.003996
   9 H :    0.001174
  10 H :    0.004551
  11 H :    0.030699
  12 H :    0.024122
  13 H :    0.001397
  14 H :    0.016829
  15 H :    0.048443
  16 H :    0.051254

  Mayer bond orders larger than 0.1
B(  0-C ,  1-O ) :   1.0236 B(  0-C ,  6-H ) :   0.9766 B(  0-C ,  7-H ) :   0.9551
B(  0-C ,  8-H ) :   0.9547 B(  1-O ,  2-C ) :   1.0114 B(  2-C ,  3-C ) :   1.0858
B(  2-C ,  9-H ) :   0.9169 B(  2-C , 10-H ) :   0.9269 B(  3-C ,  4-C ) :   1.0944
B(  3-C , 11-H ) :   0.9171 B(  3-C , 12-H ) :   0.9291 B(  4-C ,  5-N ) :   1.0922
B(  4-C , 13-H ) :   0.9347 B(  4-C , 14-H ) :   0.9337 B(  5-N , 15-H ) :   0.9689
B(  5-N , 16-H ) :   0.9661

FINAL SINGLE POINT ENERGY      -288.410009496168

DIPOLE MOMENT
-------------
                                X             Y             Z
Electronic contribution:      0.70172      -0.63091       0.95742
Nuclear contribution   :     -1.01929       0.62632      -0.81204
                        -----------------------------------------
Total Dipole Moment    :     -0.31757      -0.00458       0.14538
                        -----------------------------------------
Magnitude (a.u.)       :      0.34930
Magnitude (Debye)      :      0.88785

                             ****ORCA TERMINATED NORMALLY****
TOTAL RUN TIME: 0 days 0 hours 0 minutes 6 seconds 472 msec
