                         Program Version 3.0.3 - RELEASE   -
|  1> ! RI PBE def2-SVP def2-SVP/J NBO PAL2
|  2> % maxcore 2000
|  3> % output
|  4>     # printlevel mini
|  5>     print[ P_Basis ] 0
|  6>     print[ P_SCFInfo ] 1
|  7>     print[ P_SCFIterInfo ] 1
|  8>     print[ P_OrbEn ] 0
|  9>     print[ P_Cartesian ] 0
| 10> end
| 11> *xyz 0 1
| 12>  C        4.0192470000     1.1966150000     0.3838830000
| 13>  O        2.9445880000     0.6223440000    -0.3207880000
| 14>  C        3.2585310000    -0.2952260000    -1.2545380000
| 15>  C        4.4642280000    -0.7425190000    -1.6004380000
| 16>  C        4.6488360000    -1.7719130000    -2.6642250000
| 17>  N        5.4950910000    -1.2546520000    -3.7337970000
| 18>  H        3.5859390000     1.9045450000     1.0884510000
| 19>  H        4.6993600000     1.7236030000    -0.2942630000
| 20>  H        4.5844860000     0.4336910000     0.9305980000
| 21>  H        2.3577570000    -0.6699400000    -1.7319360000
| 22>  H        5.3668410000    -0.3586510000    -1.1379300000
| 23>  H        3.6597280000    -2.1205080000    -3.0015620000
| 24>  H        5.1596250000    -2.6465900000    -2.2444080000
| 25>  H        5.0383180000    -0.4733720000    -4.1886510000
| 26>  H        5.6577250000    -1.9640280000    -4.4378960000
| 27> *
| 28>
| 29>                          ****END OF INPUT****
 Total Charge           Charge          ....    0
 Multiplicity           Mult            ....    1
 Number of Electrons    NEL             ....   48
 Basis Dimension        Dim             ....  129

MULLIKEN ATOMIC CHARGES
-----------------------
   0 C :    0.128287
   1 O :   -0.266869
   2 C :    0.140017
   3 C :   -0.179183
   4 C :    0.150272
   5 N :   -0.225086
   6 H :    0.037575
   7 H :    0.031549
   8 H :    0.029940
   9 H :   -0.000854
  10 H :   -0.000976
  11 H :   -0.020501
  12 H :    0.007602
  13 H :    0.082509
  14 H :    0.085718
Sum of atomic charges:   -0.0000000

LOEWDIN ATOMIC CHARGES
----------------------
   0 C :    0.059905
   1 O :   -0.069896
   2 C :    0.020252
   3 C :   -0.130008
   4 C :    0.012065
   5 N :   -0.115512
   6 H :    0.026405
   7 H :    0.016790
   8 H :    0.016524
   9 H :    0.018706
  10 H :    0.023429
  11 H :    0.000043
  12 H :    0.024535
  13 H :    0.047333
  14 H :    0.049431

  Mayer bond orders larger than 0.1
B(  0-C ,  1-O ) :   0.9874 B(  0-C ,  6-H ) :   0.9728 B(  0-C ,  7-H ) :   0.9599
B(  0-C ,  8-H ) :   0.9592 B(  1-O ,  2-C ) :   1.1617 B(  2-C ,  3-C ) :   1.7485
B(  2-C ,  9-H ) :   0.9657 B(  3-C ,  4-C ) :   1.0798 B(  3-C , 10-H ) :   0.9582
B(  4-C ,  5-N ) :   1.0630 B(  4-C , 11-H ) :   0.9214 B(  4-C , 12-H ) :   0.9141
B(  5-N , 13-H ) :   0.9707 B(  5-N , 14-H ) :   0.9649

FINAL SINGLE POINT ENERGY      -287.198530812187

DIPOLE MOMENT
-------------
                                X             Y             Z
Electronic contribution:     -2.63191       0.89738       0.98704
Nuclear contribution   :      2.59574      -0.88040      -1.07214
                        -----------------------------------------
Total Dipole Moment    :     -0.03617       0.01699      -0.08509
                        -----------------------------------------
Magnitude (a.u.)       :      0.09401
Magnitude (Debye)      :      0.23895

                             ****ORCA TERMINATED NORMALLY****
TOTAL RUN TIME: 0 days 0 hours 0 minutes 5 seconds 821 msec
