                         Program Version 3.0.3 - RELEASE   -
|  1> ! RI PBE def2-SVP def2-SVP/J NBO PAL2
|  2> % maxcore 2000
|  3> % output
|  4>     # printlevel mini
|  5>     print[ P_Basis ] 0
|  6>     print[ P_SCFInfo ] 1
|  7>     print[ P_SCFIterInfo ] 1
|  8>     print[ P_OrbEn ] 0
|  9>     print[ P_Cartesian ] 0
| 10> end
| 11> *xyz 0 1
| 12>  C        1.0700810000    -0.4620620000    -0.2121920000
| 13>  O        2.4537870000    -0.2318510000    -0.0017670000
| 14>  C        3.1238950000     0.2601520000    -1.0391770000
| 15>  C        4.4350300000     0.5225020000    -0.9719950000
| 16>  C        5.1265510000     1.0453030000    -2.0877300000
| 17>  N        5.7067450000     1.4723310000    -2.9890220000
| 18>  H        0.6772080000    -0.8587300000     0.7213580000
| 19>  H        0.9139970000    -1.1924670000    -1.0110020000
| 20>  H        0.5530320000     0.4701250000    -0.4564250000
| 21>  H        2.5577090000     0.4416420000    -1.9510220000
| 22>  H        4.9917650000     0.3390550000    -0.0606260000
| 23> *
| 24>
| 25>                          ****END OF INPUT****
 Total Charge           Charge          ....    0
 Multiplicity           Mult            ....    1
 Number of Electrons    NEL             ....   44
 Basis Dimension        Dim             ....  109

MULLIKEN ATOMIC CHARGES
-----------------------
   0 C :    0.126281
   1 O :   -0.244163
   2 C :    0.134286
   3 C :   -0.119160
   4 C :   -0.123958
   5 N :    0.018235
   6 H :    0.054226
   7 H :    0.043088
   8 H :    0.042506
   9 H :    0.019735
  10 H :    0.048923
Sum of atomic charges:    0.0000000

LOEWDIN ATOMIC CHARGES
----------------------
   0 C :    0.068075
   1 O :   -0.046685
   2 C :    0.073032
   3 C :   -0.127036
   4 C :   -0.051170
   5 N :   -0.076757
   6 H :    0.034936
   7 H :    0.023322
   8 H :    0.023415
   9 H :    0.024655
  10 H :    0.054214

  Mayer bond orders larger than 0.1
B(  0-C ,  1-O ) :   0.9508 B(  0-C ,  6-H ) :   0.9771 B(  0-C ,  7-H ) :   0.9661
B(  0-C ,  8-H ) :   0.9657 B(  1-O ,  2-C ) :   1.1969 B(  2-C ,  3-C ) :   1.7164
B(  2-C ,  9-H ) :   0.9493 B(  3-C ,  4-C ) :   1.1361 B(  3-C , 10-H ) :   0.9468
B(  4-C ,  5-N ) :   2.9468

FINAL SINGLE POINT ENERGY      -284.801700904359

DIPOLE MOMENT
-------------
                                X             Y             Z
Electronic contribution:      5.70569       1.86828      -1.88429
Nuclear contribution   :     -7.51789      -2.58967       2.86531
                        -----------------------------------------
Total Dipole Moment    :     -1.81220      -0.72138       0.98101
                        -----------------------------------------
Magnitude (a.u.)       :      2.18331
Magnitude (Debye)      :      5.54953

                             ****ORCA TERMINATED NORMALLY****
TOTAL RUN TIME: 0 days 0 hours 0 minutes 5 seconds 161 msec
