                         Program Version 3.0.3 - RELEASE   -
|  1> ! RI PBE def2-SVP def2-SVP/J NBO PAL2
|  2> % maxcore 2000
|  3> % output
|  4>     # printlevel mini
|  5>     print[ P_Basis ] 0
|  6>     print[ P_SCFInfo ] 1
|  7>     print[ P_SCFIterInfo ] 1
|  8>     print[ P_OrbEn ] 0
|  9>     print[ P_Cartesian ] 0
| 10> end
| 11> *xyz 0 1
| 12>  C        1.5781470000    -0.6874200000    -0.7088360000
| 13>  O        2.9188290000    -0.2666360000    -0.7746720000
| 14>  C        3.2115530000     0.7464160000    -1.6227230000
| 15>  C        2.3330610000     1.4118270000    -2.3708590000
| 16>  C        4.6789570000     1.0355370000    -1.5846840000
| 17>  N        5.4480880000    -0.1456090000    -1.9534380000
| 18>  H        1.5470820000    -1.5178240000    -0.0051930000
| 19>  H        1.2231380000    -1.0227060000    -1.6890220000
| 20>  H        0.9289340000     0.1186940000    -0.3503640000
| 21>  H        1.2717740000     1.2073240000    -2.3640360000
| 22>  H        2.6866970000     2.1961650000    -3.0246220000
| 23>  H        4.9148760000     1.4173750000    -0.5773010000
| 24>  H        4.8904300000     1.8362520000    -2.2952230000
| 25>  H        5.2141870000    -0.9059660000    -1.3266500000
| 26>  H        6.4377380000     0.0362610000    -1.8434880000
| 27> *
| 28>
| 29>                          ****END OF INPUT****
 Total Charge           Charge          ....    0
 Multiplicity           Mult            ....    1
 Number of Electrons    NEL             ....   48
 Basis Dimension        Dim             ....  129

MULLIKEN ATOMIC CHARGES
-----------------------
   0 C :    0.129134
   1 O :   -0.280789
   2 C :    0.010157
   3 C :   -0.110424
   4 C :    0.169701
   5 N :   -0.224703
   6 H :    0.037536
   7 H :    0.033689
   8 H :    0.032295
   9 H :    0.010786
  10 H :    0.012927
  11 H :    0.000250
  12 H :   -0.000170
  13 H :    0.091943
  14 H :    0.087667
Sum of atomic charges:    0.0000000

LOEWDIN ATOMIC CHARGES
----------------------
   0 C :    0.060309
   1 O :   -0.071805
   2 C :    0.024217
   3 C :   -0.154638
   4 C :    0.007754
   5 N :   -0.111425
   6 H :    0.026493
   7 H :    0.018500
   8 H :    0.016644
   9 H :    0.019747
  10 H :    0.028354
  11 H :    0.009240
  12 H :    0.027809
  13 H :    0.047198
  14 H :    0.051603

  Mayer bond orders larger than 0.1
B(  0-C ,  1-O ) :   0.9837 B(  0-C ,  6-H ) :   0.9729 B(  0-C ,  7-H ) :   0.9587
B(  0-C ,  8-H ) :   0.9600 B(  1-O ,  2-C ) :   1.1405 B(  2-C ,  3-C ) :   1.8571
B(  2-C ,  4-C ) :   1.0418 B(  3-C ,  9-H ) :   0.9402 B(  3-C , 10-H ) :   0.9216
B(  4-C ,  5-N ) :   1.0753 B(  4-C , 11-H ) :   0.8965 B(  4-C , 12-H ) :   0.9230
B(  5-N , 13-H ) :   0.9649 B(  5-N , 14-H ) :   0.9636

FINAL SINGLE POINT ENERGY      -287.200561657449

DIPOLE MOMENT
-------------
                                X             Y             Z
Electronic contribution:      1.07202      -0.60819       0.64357
Nuclear contribution   :     -1.18448       0.51116      -0.14686
                        -----------------------------------------
Total Dipole Moment    :     -0.11246      -0.09702       0.49671
                        -----------------------------------------
Magnitude (a.u.)       :      0.51844
Magnitude (Debye)      :      1.31778

                             ****ORCA TERMINATED NORMALLY****
TOTAL RUN TIME: 0 days 0 hours 0 minutes 6 seconds 149 msec
