                         Program Version 3.0.3 - RELEASE   -
|  1> ! RI PBE def2-SVP def2-SVP/J NBO PAL2
|  2> % maxcore 2000
|  3> % output
|  4>     # printlevel mini
|  5>     print[ P_Basis ] 0
|  6>     print[ P_SCFInfo ] 1
|  7>     print[ P_SCFIterInfo ] 1
|  8>     print[ P_OrbEn ] 0
|  9>     print[ P_Cartesian ] 0
| 10> end
| 11> *xyz 0 1
| 12>  C        2.9531290000    -0.6299800000    -1.1648330000
| 13>  O        2.2439960000    -0.3449580000     0.0299130000
| 14>  C        2.9516710000    -0.0791730000     1.1468680000
| 15>  C        2.3550030000     0.1967520000     2.3060960000
| 16>  C        4.3857790000    -0.0996140000     1.0613420000
| 17>  N        5.5348370000    -0.1174150000     0.9863410000
| 18>  H        2.1932590000    -0.8099800000    -1.9223460000
| 19>  H        3.5764700000    -1.5212280000    -1.0544400000
| 20>  H        3.5775000000     0.2146170000    -1.4679470000
| 21>  H        1.2753010000     0.2129880000     2.3742780000
| 22>  H        2.9486660000     0.4055130000     3.1831970000
| 23> *
| 24>
| 25>                          ****END OF INPUT****
 Total Charge           Charge          ....    0
 Multiplicity           Mult            ....    1
 Number of Electrons    NEL             ....   44
 Basis Dimension        Dim             ....  109

MULLIKEN ATOMIC CHARGES
-----------------------
   0 C :    0.131097
   1 O :   -0.263922
   2 C :    0.050407
   3 C :   -0.015395
   4 C :   -0.178460
   5 N :    0.050862
   6 H :    0.049830
   7 H :    0.046737
   8 H :    0.047657
   9 H :    0.043412
  10 H :    0.037776
Sum of atomic charges:   -0.0000000

LOEWDIN ATOMIC CHARGES
----------------------
   0 C :    0.066546
   1 O :   -0.065368
   2 C :   -0.011655
   3 C :   -0.058873
   4 C :   -0.053048
   5 N :   -0.041557
   6 H :    0.033591
   7 H :    0.024542
   8 H :    0.024518
   9 H :    0.038504
  10 H :    0.042800

  Mayer bond orders larger than 0.1
B(  0-C ,  1-O ) :   0.9555 B(  0-C ,  6-H ) :   0.9732 B(  0-C ,  7-H ) :   0.9630
B(  0-C ,  8-H ) :   0.9633 B(  1-O ,  2-C ) :   1.1732 B(  2-C ,  3-C ) :   1.8645
B(  2-C ,  4-C ) :   1.0111 B(  3-C ,  5-N ) :   0.1124 B(  3-C ,  9-H ) :   0.9317
B(  3-C , 10-H ) :   0.9298 B(  4-C ,  5-N ) :   2.9728

FINAL SINGLE POINT ENERGY      -284.791810438566

DIPOLE MOMENT
-------------
                                X             Y             Z
Electronic contribution:      2.18343       0.41732       1.74260
Nuclear contribution   :     -3.02303      -0.50263      -2.10531
                        -----------------------------------------
Total Dipole Moment    :     -0.83960      -0.08532      -0.36272
                        -----------------------------------------
Magnitude (a.u.)       :      0.91857
Magnitude (Debye)      :      2.33482

                             ****ORCA TERMINATED NORMALLY****
TOTAL RUN TIME: 0 days 0 hours 0 minutes 5 seconds 264 msec
