                         Program Version 3.0.3 - RELEASE   -
|  1> ! RI PBE def2-SVP def2-SVP/J NBO PAL2
|  2> % maxcore 2000
|  3> % output
|  4>     # printlevel mini
|  5>     print[ P_Basis ] 0
|  6>     print[ P_SCFInfo ] 1
|  7>     print[ P_SCFIterInfo ] 1
|  8>     print[ P_OrbEn ] 0
|  9>     print[ P_Cartesian ] 0
| 10> end
| 11> *xyz 0 1
| 12>  C        2.3847010000     1.6288930000     1.8406280000
| 13>  O        3.4702050000     2.0616390000     1.0683810000
| 14>  C        3.2280480000     2.0720540000    -0.3293320000
| 15>  C        2.4165240000     3.2824850000    -0.7521040000
| 16>  C        4.5872690000     2.0390550000    -0.9962090000
| 17>  N        5.2846110000     0.8131630000    -0.6538810000
| 18>  H        2.7172930000     1.5953930000     2.8788460000
| 19>  H        2.0555860000     0.6244310000     1.5412030000
| 20>  H        1.5258820000     2.3090460000     1.7756410000
| 21>  H        2.6950820000     1.1475720000    -0.5997790000
| 22>  H        2.9503020000     4.2036590000    -0.5062870000
| 23>  H        1.4454460000     3.3079120000    -0.2543300000
| 24>  H        2.2336940000     3.2631410000    -1.8291510000
| 25>  H        5.1238310000     2.9584610000    -0.7099630000
| 26>  H        4.4398440000     2.0732160000    -2.0799220000
| 27>  H        5.3947840000     0.7710260000     0.3522690000
| 28>  H        6.2112080000     0.8021440000    -1.0598200000
| 29> *
| 30>
| 31>                          ****END OF INPUT****
 Total Charge           Charge          ....    0
 Multiplicity           Mult            ....    1
 Number of Electrons    NEL             ....   50
 Basis Dimension        Dim             ....  139

MULLIKEN ATOMIC CHARGES
-----------------------
   0 C :    0.155115
   1 O :   -0.352759
   2 C :    0.016250
   3 C :    0.031882
   4 C :    0.105360
   5 N :   -0.208748
   6 H :    0.029590
   7 H :    0.003010
   8 H :    0.005818
   9 H :   -0.004454
  10 H :    0.018474
  11 H :    0.014197
  12 H :    0.018665
  13 H :   -0.010955
  14 H :    0.003561
  15 H :    0.089403
  16 H :    0.085591
Sum of atomic charges:    0.0000000

LOEWDIN ATOMIC CHARGES
----------------------
   0 C :    0.049971
   1 O :   -0.148755
   2 C :    0.038493
   3 C :   -0.072553
   4 C :   -0.000111
   5 N :   -0.112560
   6 H :    0.022309
   7 H :    0.006259
   8 H :    0.002653
   9 H :    0.007933
  10 H :    0.027152
  11 H :    0.025462
  12 H :    0.031088
  13 H :    0.001355
  14 H :    0.022680
  15 H :    0.047140
  16 H :    0.051485

  Mayer bond orders larger than 0.1
B(  0-C ,  1-O ) :   1.0168 B(  0-C ,  6-H ) :   0.9759 B(  0-C ,  7-H ) :   0.9552
B(  0-C ,  8-H ) :   0.9551 B(  1-O ,  2-C ) :   0.9955 B(  2-C ,  3-C ) :   1.0881
B(  2-C ,  4-C ) :   1.0493 B(  2-C ,  9-H ) :   0.9057 B(  3-C , 10-H ) :   0.9509
B(  3-C , 11-H ) :   0.9483 B(  3-C , 12-H ) :   0.9501 B(  4-C ,  5-N ) :   1.1062
B(  4-C , 13-H ) :   0.9118 B(  4-C , 14-H ) :   0.9274 B(  5-N , 15-H ) :   0.9619
B(  5-N , 16-H ) :   0.9646

FINAL SINGLE POINT ENERGY      -288.415214024191

DIPOLE MOMENT
-------------
                                X             Y             Z
Electronic contribution:      2.22222      -1.06309       1.00750
Nuclear contribution   :     -2.30936       1.25101      -0.98141
                        -----------------------------------------
Total Dipole Moment    :     -0.08714       0.18791       0.02609
                        -----------------------------------------
Magnitude (a.u.)       :      0.20877
Magnitude (Debye)      :      0.53066

                             ****ORCA TERMINATED NORMALLY****
TOTAL RUN TIME: 0 days 0 hours 0 minutes 6 seconds 697 msec
