                         Program Version 3.0.3 - RELEASE   -
|  1> ! RI PBE def2-SVP def2-SVP/J NBO PAL2
|  2> % maxcore 2000
|  3> % output
|  4>     # printlevel mini
|  5>     print[ P_Basis ] 0
|  6>     print[ P_SCFInfo ] 1
|  7>     print[ P_SCFIterInfo ] 1
|  8>     print[ P_OrbEn ] 0
|  9>     print[ P_Cartesian ] 0
| 10> end
| 11> *xyz 0 1
| 12>  C        2.3730810000    -0.9326380000    -0.7910820000
| 13>  O        2.2400170000     0.1056670000     0.1529750000
| 14>  C        2.8044100000     1.3189350000    -0.2549710000
| 15>  C        2.4363870000     2.3850230000     0.7575550000
| 16>  C        4.2717200000     1.2084570000    -0.3905930000
| 17>  N        5.4124880000     1.1163810000    -0.4984050000
| 18>  H        1.8627240000    -1.8013660000    -0.3780230000
| 19>  H        3.4251860000    -1.1845860000    -0.9678860000
| 20>  H        1.9059320000    -0.6611880000    -1.7466490000
| 21>  H        2.4214850000     1.6004040000    -1.2489560000
| 22>  H        2.8152620000     2.1115950000     1.7425850000
| 23>  H        1.3504180000     2.4685210000     0.8054490000
| 24>  H        2.8587380000     3.3485050000     0.4703120000
| 25> *
| 26>
| 27>                          ****END OF INPUT****
 Total Charge           Charge          ....    0
 Multiplicity           Mult            ....    1
 Number of Electrons    NEL             ....   46
 Basis Dimension        Dim             ....  119

MULLIKEN ATOMIC CHARGES
-----------------------
   0 C :    0.140148
   1 O :   -0.322999
   2 C :    0.126889
   3 C :    0.017434
   4 C :   -0.250268
   5 N :    0.038492
   6 H :    0.043282
   7 H :    0.032989
   8 H :    0.008703
   9 H :    0.032007
  10 H :    0.048717
  11 H :    0.045959
  12 H :    0.038645
Sum of atomic charges:    0.0000000

LOEWDIN ATOMIC CHARGES
----------------------
   0 C :    0.055354
   1 O :   -0.126220
   2 C :    0.026261
   3 C :   -0.047684
   4 C :   -0.057587
   5 N :   -0.055870
   6 H :    0.029399
   7 H :    0.015360
   8 H :    0.009953
   9 H :    0.031884
  10 H :    0.040132
  11 H :    0.038528
  12 H :    0.040490

  Mayer bond orders larger than 0.1
B(  0-C ,  1-O ) :   0.9978 B(  0-C ,  6-H ) :   0.9767 B(  0-C ,  7-H ) :   0.9551
B(  0-C ,  8-H ) :   0.9521 B(  1-O ,  2-C ) :   1.0815 B(  2-C ,  3-C ) :   1.0804
B(  2-C ,  4-C ) :   0.9809 B(  2-C ,  9-H ) :   0.9047 B(  3-C , 10-H ) :   0.9559
B(  3-C , 11-H ) :   0.9566 B(  3-C , 12-H ) :   0.9526 B(  4-C ,  5-N ) :   3.0731

FINAL SINGLE POINT ENERGY      -286.007567955828

DIPOLE MOMENT
-------------
                                X             Y             Z
Electronic contribution:      4.14213       0.06015      -0.06573
Nuclear contribution   :     -5.31654       0.02581      -0.15633
                        -----------------------------------------
Total Dipole Moment    :     -1.17441       0.08596      -0.22206
                        -----------------------------------------
Magnitude (a.u.)       :      1.19830
Magnitude (Debye)      :      3.04585

                             ****ORCA TERMINATED NORMALLY****
TOTAL RUN TIME: 0 days 0 hours 0 minutes 5 seconds 31 msec
