                         Program Version 3.0.3 - RELEASE   -
|  1> ! RI PBE def2-SVP def2-SVP/J NBO PAL2
|  2> % maxcore 2000
|  3> % output
|  4>     # printlevel mini
|  5>     print[ P_Basis ] 0
|  6>     print[ P_SCFInfo ] 1
|  7>     print[ P_SCFIterInfo ] 1
|  8>     print[ P_OrbEn ] 0
|  9>     print[ P_Cartesian ] 0
| 10> end
| 11> *xyz 0 1
| 12>  C        1.4788260000     1.1082680000     2.3435540000
| 13>  O        2.8589200000     0.8931790000     2.2640680000
| 14>  C        3.1941460000    -0.1573470000     1.3902040000
| 15>  C        4.6935800000    -0.3767640000     1.4316250000
| 16>  C        5.4578200000     0.8457480000     0.9335360000
| 17>  N        5.0548410000    -0.8088770000     2.7747130000
| 18>  H        1.3104190000     1.9308210000     3.0394960000
| 19>  H        0.9521990000     0.2167740000     2.7116880000
| 20>  H        1.0559310000     1.3792920000     1.3657170000
| 21>  H        2.8746750000     0.0860720000     0.3651380000
| 22>  H        2.6847340000    -1.0810590000     1.7000840000
| 23>  H        4.8944800000    -1.2147180000     0.7524230000
| 24>  H        5.2460800000     1.7122610000     1.5635320000
| 25>  H        5.1849150000     1.0978480000    -0.0956670000
| 26>  H        6.5346250000     0.6585940000     0.9568010000
| 27>  H        4.7620160000    -0.0996480000     3.4375490000
| 28>  H        6.0600840000    -0.8978340000     2.8585190000
| 29> *
| 30>
| 31>                          ****END OF INPUT****
 Total Charge           Charge          ....    0
 Multiplicity           Mult            ....    1
 Number of Electrons    NEL             ....   50
 Basis Dimension        Dim             ....  139

MULLIKEN ATOMIC CHARGES
-----------------------
   0 C :    0.149537
   1 O :   -0.359438
   2 C :    0.193287
   3 C :   -0.051502
   4 C :    0.013929
   5 N :   -0.185503
   6 H :    0.031508
   7 H :    0.007686
   8 H :    0.002664
   9 H :   -0.009651
  10 H :   -0.002961
  11 H :    0.004162
  12 H :    0.020914
  13 H :    0.002849
  14 H :    0.013288
  15 H :    0.088421
  16 H :    0.080809
Sum of atomic charges:    0.0000000

LOEWDIN ATOMIC CHARGES
----------------------
   0 C :    0.050628
   1 O :   -0.149978
   2 C :    0.061986
   3 C :   -0.017217
   4 C :   -0.079246
   5 N :   -0.096649
   6 H :    0.022268
   7 H :    0.006250
   8 H :    0.004689
   9 H :    0.003255
  10 H :    0.006547
  11 H :    0.025038
  12 H :    0.024180
  13 H :    0.023513
  14 H :    0.020537
  15 H :    0.046343
  16 H :    0.047856

  Mayer bond orders larger than 0.1
B(  0-C ,  1-O ) :   1.0207 B(  0-C ,  6-H ) :   0.9765 B(  0-C ,  7-H ) :   0.9561
B(  0-C ,  8-H ) :   0.9550 B(  1-O ,  2-C ) :   1.0066 B(  2-C ,  3-C ) :   1.0536
B(  2-C ,  9-H ) :   0.9264 B(  2-C , 10-H ) :   0.9200 B(  3-C ,  4-C ) :   1.0683
B(  3-C ,  5-N ) :   1.0922 B(  3-C , 11-H ) :   0.9039 B(  4-C , 12-H ) :   0.9552
B(  4-C , 13-H ) :   0.9444 B(  4-C , 14-H ) :   0.9611 B(  5-N , 15-H ) :   0.9636
B(  5-N , 16-H ) :   0.9707

FINAL SINGLE POINT ENERGY      -288.415109822015

DIPOLE MOMENT
-------------
                                X             Y             Z
Electronic contribution:     -0.12337      -0.59867       1.63894
Nuclear contribution   :      0.02704       0.79823      -1.83876
                        -----------------------------------------
Total Dipole Moment    :     -0.09633       0.19956      -0.19981
                        -----------------------------------------
Magnitude (a.u.)       :      0.29838
Magnitude (Debye)      :      0.75842

                             ****ORCA TERMINATED NORMALLY****
TOTAL RUN TIME: 0 days 0 hours 0 minutes 6 seconds 635 msec
