                         Program Version 3.0.3 - RELEASE   -
|  1> ! RI PBE def2-SVP def2-SVP/J NBO PAL2
|  2> % maxcore 2000
|  3> % output
|  4>     # printlevel mini
|  5>     print[ P_Basis ] 0
|  6>     print[ P_SCFInfo ] 1
|  7>     print[ P_SCFIterInfo ] 1
|  8>     print[ P_OrbEn ] 0
|  9>     print[ P_Cartesian ] 0
| 10> end
| 11> *xyz 0 1
| 12>  C        1.6917350000    -0.4556060000    -0.0623350000
| 13>  O        3.0038220000     0.0134380000    -0.2336500000
| 14>  C        3.0874030000     1.4067140000    -0.1608770000
| 15>  C        4.5490030000     1.7788690000    -0.3607610000
| 16>  C        4.7540660000     3.2153860000    -0.3039860000
| 17>  N        4.8967860000     4.3548650000    -0.2557670000
| 18>  H        1.7224610000    -1.5422980000    -0.1347480000
| 19>  H        1.0211620000    -0.0639000000    -0.8388120000
| 20>  H        1.2899760000    -0.1734740000     0.9200150000
| 21>  H        2.7345410000     1.7730490000     0.8141630000
| 22>  H        2.4678270000     1.8804140000    -0.9362100000
| 23>  H        4.8937230000     1.4057650000    -1.3288030000
| 24>  H        5.1585850000     1.2992680000     0.4096600000
| 25> *
| 26>
| 27>                          ****END OF INPUT****
 Total Charge           Charge          ....    0
 Multiplicity           Mult            ....    1
 Number of Electrons    NEL             ....   46
 Basis Dimension        Dim             ....  119

MULLIKEN ATOMIC CHARGES
-----------------------
   0 C :    0.138247
   1 O :   -0.343836
   2 C :    0.146239
   3 C :    0.076598
   4 C :   -0.285820
   5 N :    0.045676
   6 H :    0.043241
   7 H :    0.015076
   8 H :    0.010196
   9 H :    0.012798
  10 H :    0.018106
  11 H :    0.059652
  12 H :    0.063825
Sum of atomic charges:   -0.0000000

LOEWDIN ATOMIC CHARGES
----------------------
   0 C :    0.053764
   1 O :   -0.147279
   2 C :    0.072101
   3 C :   -0.062354
   4 C :   -0.044737
   5 N :   -0.064071
   6 H :    0.027276
   7 H :    0.009422
   8 H :    0.008429
   9 H :    0.011552
  10 H :    0.012762
  11 H :    0.061107
  12 H :    0.062029

  Mayer bond orders larger than 0.1
B(  0-C ,  1-O ) :   1.0052 B(  0-C ,  6-H ) :   0.9769 B(  0-C ,  7-H ) :   0.9588
B(  0-C ,  8-H ) :   0.9576 B(  1-O ,  2-C ) :   1.0517 B(  2-C ,  3-C ) :   1.0673
B(  2-C ,  9-H ) :   0.9312 B(  2-C , 10-H ) :   0.9316 B(  3-C ,  4-C ) :   1.0750
B(  3-C , 11-H ) :   0.8940 B(  3-C , 12-H ) :   0.8924 B(  4-C ,  5-N ) :   3.0576

FINAL SINGLE POINT ENERGY      -286.008710254890

DIPOLE MOMENT
-------------
                                X             Y             Z
Electronic contribution:      4.78245       5.04340      -0.42257
Nuclear contribution   :     -5.45889      -6.30289       0.44568
                        -----------------------------------------
Total Dipole Moment    :     -0.67644      -1.25949       0.02311
                        -----------------------------------------
Magnitude (a.u.)       :      1.42983
Magnitude (Debye)      :      3.63434

                             ****ORCA TERMINATED NORMALLY****
TOTAL RUN TIME: 0 days 0 hours 0 minutes 5 seconds 430 msec
