                         Program Version 3.0.3 - RELEASE   -
|  1> ! RI PBE def2-SVP def2-SVP/J NBO PAL2
|  2> % maxcore 2000
|  3> % output
|  4>     # printlevel mini
|  5>     print[ P_Basis ] 0
|  6>     print[ P_SCFInfo ] 1
|  7>     print[ P_SCFIterInfo ] 1
|  8>     print[ P_OrbEn ] 0
|  9>     print[ P_Cartesian ] 0
| 10> end
| 11> *xyz 0 1
| 12>  C        1.6261800000     0.2589360000    -0.9317810000
| 13>  O        3.0075010000     0.1708450000    -0.6636000000
| 14>  N        3.3238340000     1.0482590000     0.3579530000
| 15>  C        4.5641380000     1.0136230000     0.6464590000
| 16>  C        5.5488750000     0.1265930000    -0.0440030000
| 17>  C        5.0239350000     1.9201490000     1.7370220000
| 18>  H        1.4318240000    -0.4477250000    -1.7390040000
| 19>  H        1.3508780000     1.2685200000    -1.2504620000
| 20>  H        1.0363690000    -0.0141070000    -0.0519040000
| 21>  H        5.2563210000    -0.9214110000     0.0596330000
| 22>  H        6.5516820000     0.2594490000     0.3616620000
| 23>  H        5.5653540000     0.3371030000    -1.1164130000
| 24>  H        4.1890680000     2.4961870000     2.1341290000
| 25>  H        5.7901480000     2.6083330000     1.3659030000
| 26>  H        5.4797840000     1.3434530000     2.5482150000
| 27> *
| 28>
| 29>                          ****END OF INPUT****
 Total Charge           Charge          ....    0
 Multiplicity           Mult            ....    1
 Number of Electrons    NEL             ....   48
 Basis Dimension        Dim             ....  129

MULLIKEN ATOMIC CHARGES
-----------------------
   0 C :    0.165935
   1 O :   -0.290904
   2 N :    0.003117
   3 C :   -0.277422
   4 C :    0.078912
   5 C :    0.068197
   6 H :    0.027628
   7 H :    0.016288
   8 H :    0.018636
   9 H :    0.045244
  10 H :    0.010368
  11 H :    0.043714
  12 H :    0.025093
  13 H :    0.033988
  14 H :    0.031207
Sum of atomic charges:   -0.0000000

LOEWDIN ATOMIC CHARGES
----------------------
   0 C :    0.041191
   1 O :   -0.095191
   2 N :   -0.024682
   3 C :   -0.056122
   4 C :   -0.075729
   5 C :   -0.060470
   6 H :    0.021501
   7 H :    0.010139
   8 H :    0.010614
   9 H :    0.045389
  10 H :    0.029342
  11 H :    0.045075
  12 H :    0.035094
  13 H :    0.037139
  14 H :    0.036711

  Mayer bond orders larger than 0.1
B(  0-C ,  1-O ) :   0.9779 B(  0-C ,  6-H ) :   0.9739 B(  0-C ,  7-H ) :   0.9666
B(  0-C ,  8-H ) :   0.9670 B(  1-O ,  2-N ) :   0.9646 B(  2-N ,  3-C ) :   1.9148
B(  3-C ,  4-C ) :   1.0632 B(  3-C ,  5-C ) :   1.0998 B(  4-C ,  9-H ) :   0.9354
B(  4-C , 10-H ) :   0.9498 B(  4-C , 11-H ) :   0.9352 B(  5-C , 12-H ) :   0.9474
B(  5-C , 13-H ) :   0.9425 B(  5-C , 14-H ) :   0.9419

FINAL SINGLE POINT ENERGY      -287.185081462674

DIPOLE MOMENT
-------------
                                X             Y             Z
Electronic contribution:     -1.86338      -0.36176      -0.87519
Nuclear contribution   :      2.10124       0.26589       0.83636
                        -----------------------------------------
Total Dipole Moment    :      0.23786      -0.09587      -0.03883
                        -----------------------------------------
Magnitude (a.u.)       :      0.25938
Magnitude (Debye)      :      0.65929

                             ****ORCA TERMINATED NORMALLY****
TOTAL RUN TIME: 0 days 0 hours 0 minutes 6 seconds 240 msec
