                         Program Version 3.0.3 - RELEASE   -
|  1> ! RI PBE def2-SVP def2-SVP/J NBO PAL2
|  2> % maxcore 2000
|  3> % output
|  4>     # printlevel mini
|  5>     print[ P_Basis ] 0
|  6>     print[ P_SCFInfo ] 1
|  7>     print[ P_SCFIterInfo ] 1
|  8>     print[ P_OrbEn ] 0
|  9>     print[ P_Cartesian ] 0
| 10> end
| 11> *xyz 0 1
| 12>  C        4.7073760000     1.0120410000    -0.5794540000
| 13>  O        5.2444820000    -0.1359860000     0.0451410000
| 14>  N        4.5515060000    -0.3991310000     1.1950630000
| 15>  C        5.0025140000    -1.4302250000     1.7947240000
| 16>  C        4.3911270000    -1.8596830000     3.0304600000
| 17>  C        4.8036830000    -2.9249090000     3.7158210000
| 18>  H        5.3005680000     1.1634310000    -1.4808290000
| 19>  H        4.7916250000     1.8862240000     0.0716250000
| 20>  H        3.6587930000     0.8565350000    -0.8468310000
| 21>  H        5.8447040000    -1.9897970000     1.3831340000
| 22>  H        3.5588140000    -1.2577120000     3.3823220000
| 23>  H        5.6346020000    -3.5320520000     3.3714760000
| 24>  H        4.3252070000    -3.2229370000     4.6402360000
| 25> *
| 26>
| 27>                          ****END OF INPUT****
 Total Charge           Charge          ....    0
 Multiplicity           Mult            ....    1
 Number of Electrons    NEL             ....   46
 Basis Dimension        Dim             ....  119

MULLIKEN ATOMIC CHARGES
-----------------------
   0 C :    0.162262
   1 O :   -0.268582
   2 N :   -0.008046
   3 C :    0.000853
   4 C :    0.004519
   5 C :   -0.027086
   6 H :    0.032713
   7 H :    0.023863
   8 H :    0.023906
   9 H :   -0.008227
  10 H :    0.007551
  11 H :    0.024827
  12 H :    0.031448
Sum of atomic charges:   -0.0000000

LOEWDIN ATOMIC CHARGES
----------------------
   0 C :    0.045205
   1 O :   -0.075869
   2 N :   -0.000837
   3 C :   -0.033849
   4 C :   -0.038843
   5 C :   -0.044253
   6 H :    0.024531
   7 H :    0.013775
   8 H :    0.014172
   9 H :    0.009088
  10 H :    0.034266
  11 H :    0.024423
  12 H :    0.028191

  Mayer bond orders larger than 0.1
B(  0-C ,  1-O ) :   0.9688 B(  0-C ,  6-H ) :   0.9735 B(  0-C ,  7-H ) :   0.9680
B(  0-C ,  8-H ) :   0.9680 B(  1-O ,  2-N ) :   0.9731 B(  2-N ,  3-C ) :   1.7779
B(  2-N ,  5-C ) :   0.1181 B(  3-C ,  4-C ) :   1.1259 B(  3-C ,  9-H ) :   0.9477
B(  4-C ,  5-C ) :   1.8683 B(  4-C , 10-H ) :   0.9580 B(  5-C , 11-H ) :   0.9519
B(  5-C , 12-H ) :   0.9443

FINAL SINGLE POINT ENERGY      -285.960499970670

DIPOLE MOMENT
-------------
                                X             Y             Z
Electronic contribution:      0.46751      -0.13140      -0.42986
Nuclear contribution   :     -0.41904       0.19018       0.30362
                        -----------------------------------------
Total Dipole Moment    :      0.04847       0.05878      -0.12625
                        -----------------------------------------
Magnitude (a.u.)       :      0.14745
Magnitude (Debye)      :      0.37480

                             ****ORCA TERMINATED NORMALLY****
TOTAL RUN TIME: 0 days 0 hours 0 minutes 5 seconds 483 msec
