                         Program Version 3.0.3 - RELEASE   -
|  1> ! RI PBE def2-SVP def2-SVP/J NBO PAL2
|  2> % maxcore 2000
|  3> % output
|  4>     # printlevel mini
|  5>     print[ P_Basis ] 0
|  6>     print[ P_SCFInfo ] 1
|  7>     print[ P_SCFIterInfo ] 1
|  8>     print[ P_OrbEn ] 0
|  9>     print[ P_Cartesian ] 0
| 10> end
| 11> *xyz 0 1
| 12>  C        1.3253430000     0.6637850000     0.3079160000
| 13>  O        2.7040000000     0.3953640000     0.1341850000
| 14>  N        3.0719710000    -0.6473940000     0.9292890000
| 15>  C        4.3128750000    -0.9165540000     0.7954460000
| 16>  C        4.8974030000    -1.9707550000     1.5364770000
| 17>  C        5.4573750000    -2.8513340000     2.1332520000
| 18>  H        1.1043850000     1.5031710000    -0.3502860000
| 19>  H        1.1104500000     0.9358610000     1.3440820000
| 20>  H        0.7224080000    -0.2018750000     0.0232760000
| 21>  H        4.9394200000    -0.3420610000     0.1119300000
| 22>  H        5.9367800000    -3.6353170000     2.6704320000
| 23> *
| 24>
| 25>                          ****END OF INPUT****
 Total Charge           Charge          ....    0
 Multiplicity           Mult            ....    1
 Number of Electrons    NEL             ....   44
 Basis Dimension        Dim             ....  109

MULLIKEN ATOMIC CHARGES
-----------------------
   0 C :    0.155248
   1 O :   -0.265665
   2 N :    0.004516
   3 C :   -0.056838
   4 C :    0.400134
   5 C :   -0.385550
   6 H :    0.037340
   7 H :    0.029788
   8 H :    0.032561
   9 H :    0.035135
  10 H :    0.013331
Sum of atomic charges:   -0.0000000

LOEWDIN ATOMIC CHARGES
----------------------
   0 C :    0.047420
   1 O :   -0.069052
   2 N :    0.019791
   3 C :   -0.049335
   4 C :   -0.027621
   5 C :   -0.044012
   6 H :    0.026436
   7 H :    0.016906
   8 H :    0.017393
   9 H :    0.023205
  10 H :    0.038868

  Mayer bond orders larger than 0.1
B(  0-C ,  1-O ) :   0.9595 B(  0-C ,  6-H ) :   0.9737 B(  0-C ,  7-H ) :   0.9687
B(  0-C ,  8-H ) :   0.9692 B(  1-O ,  2-N ) :   0.9878 B(  1-O ,  3-C ) :   0.1088
B(  2-N ,  3-C ) :   1.7884 B(  2-N ,  5-C ) :   0.1050 B(  3-C ,  4-C ) :   1.0180
B(  3-C ,  9-H ) :   0.9414 B(  4-C ,  5-C ) :   2.3015 B(  5-C , 10-H ) :   1.0813

FINAL SINGLE POINT ENERGY      -284.709225083290

DIPOLE MOMENT
-------------
                                X             Y             Z
Electronic contribution:      3.39427      -1.87384       0.62209
Nuclear contribution   :     -3.55732       2.08069      -0.75584
                        -----------------------------------------
Total Dipole Moment    :     -0.16305       0.20685      -0.13375
                        -----------------------------------------
Magnitude (a.u.)       :      0.29540
Magnitude (Debye)      :      0.75086

                             ****ORCA TERMINATED NORMALLY****
TOTAL RUN TIME: 0 days 0 hours 0 minutes 5 seconds 218 msec
