                         Program Version 3.0.3 - RELEASE   -
|  1> ! RI PBE def2-SVP def2-SVP/J NBO PAL2
|  2> % maxcore 2000
|  3> % output
|  4>     # printlevel mini
|  5>     print[ P_Basis ] 0
|  6>     print[ P_SCFInfo ] 1
|  7>     print[ P_SCFIterInfo ] 1
|  8>     print[ P_OrbEn ] 0
|  9>     print[ P_Cartesian ] 0
| 10> end
| 11> *xyz 0 1
| 12>  N        0.9741260000     0.1954840000    -0.0333610000
| 13>  C        2.4024890000     0.1015290000     0.0478020000
| 14>  C        3.2166410000    -0.8508750000    -0.7878390000
| 15>  C        3.2394260000     0.6318080000    -1.0614250000
| 16>  C        4.4802400000     1.4241580000    -0.7730940000
| 17>  O        4.2279000000     2.7528900000    -0.3653070000
| 18>  H        0.5360630000    -0.6052580000     0.4064890000
| 19>  H        0.6677760000     0.2105100000    -0.9981060000
| 20>  H        2.7781750000     0.3016430000     1.0466340000
| 21>  H        2.6846440000    -1.4840170000    -1.4882890000
| 22>  H        4.1054790000    -1.2998300000    -0.3577730000
| 23>  H        2.6937690000     0.9509860000    -1.9484360000
| 24>  H        5.1438300000     1.4045490000    -1.6501370000
| 25>  H        5.0266720000     0.9606500000     0.0528010000
| 26>  H        3.6567800000     3.1672720000    -1.0168690000
| 27> *
| 28>
| 29>                          ****END OF INPUT****
 Total Charge           Charge          ....    0
 Multiplicity           Mult            ....    1
 Number of Electrons    NEL             ....   48
 Basis Dimension        Dim             ....  129

MULLIKEN ATOMIC CHARGES
-----------------------
   0 N :   -0.119036
   1 C :   -0.057690
   2 C :    0.014100
   3 C :   -0.204756
   4 C :    0.267882
   5 O :   -0.283966
   6 H :    0.094682
   7 H :    0.073843
   8 H :    0.025229
   9 H :    0.011245
  10 H :    0.023090
  11 H :    0.013419
  12 H :   -0.002384
  13 H :   -0.007142
  14 H :    0.151484
Sum of atomic charges:   -0.0000000

LOEWDIN ATOMIC CHARGES
----------------------
   0 N :   -0.084337
   1 C :   -0.001734
   2 C :   -0.064474
   3 C :   -0.074781
   4 C :    0.060168
   5 O :   -0.122943
   6 H :    0.055970
   7 H :    0.049642
   8 H :    0.024118
   9 H :    0.021190
  10 H :    0.023828
  11 H :    0.020013
  12 H :    0.005817
  13 H :    0.021024
  14 H :    0.066499

  Mayer bond orders larger than 0.1
B(  0-N ,  1-C ) :   1.1478 B(  0-N ,  6-H ) :   0.9659 B(  0-N ,  7-H ) :   0.9588
B(  1-C ,  2-C ) :   0.9695 B(  1-C ,  3-C ) :   0.9352 B(  1-C ,  8-H ) :   0.9411
B(  2-C ,  3-C ) :   0.9648 B(  2-C ,  9-H ) :   0.9301 B(  2-C , 10-H ) :   0.9338
B(  3-C ,  4-C ) :   1.0772 B(  3-C , 11-H ) :   0.9341 B(  4-C ,  5-O ) :   1.0727
B(  4-C , 12-H ) :   0.9262 B(  4-C , 13-H ) :   0.9183 B(  5-O , 14-H ) :   0.9857

FINAL SINGLE POINT ENERGY      -287.195148434090

DIPOLE MOMENT
-------------
                                X             Y             Z
Electronic contribution:      0.14693       2.41595       0.71827
Nuclear contribution   :     -0.46060      -2.99732      -1.39081
                        -----------------------------------------
Total Dipole Moment    :     -0.31367      -0.58137      -0.67254
                        -----------------------------------------
Magnitude (a.u.)       :      0.94271
Magnitude (Debye)      :      2.39617

                             ****ORCA TERMINATED NORMALLY****
TOTAL RUN TIME: 0 days 0 hours 0 minutes 5 seconds 800 msec
