                         Program Version 3.0.3 - RELEASE   -
|  1> ! RI PBE def2-SVP def2-SVP/J NBO PAL2
|  2> % maxcore 2000
|  3> % output
|  4>     # printlevel mini
|  5>     print[ P_Basis ] 0
|  6>     print[ P_SCFInfo ] 1
|  7>     print[ P_SCFIterInfo ] 1
|  8>     print[ P_OrbEn ] 0
|  9>     print[ P_Cartesian ] 0
| 10> end
| 11> *xyz 0 1
| 12>  N        1.1583750000     0.2460460000    -0.2764070000
| 13>  C        2.5667390000     0.3144550000    -0.0019720000
| 14>  C        3.0570530000     1.2687330000     1.0998210000
| 15>  C        4.2142220000     0.2855760000     1.3662360000
| 16>  C        3.3506060000    -0.8026250000     0.7038330000
| 17>  O        3.9302970000    -1.7519060000    -0.1492190000
| 18>  H        0.6443830000    -0.0546450000     0.5431750000
| 19>  H        0.9641400000    -0.4149590000    -1.0182420000
| 20>  H        3.0945760000     0.5428130000    -0.9338660000
| 21>  H        2.3513410000     1.2942460000     1.9347220000
| 22>  H        3.2979550000     2.2920080000     0.8140490000
| 23>  H        5.0791730000     0.5097050000     0.7382960000
| 24>  H        4.5413510000     0.1338210000     2.3954140000
| 25>  H        2.7042500000    -1.2826240000     1.4544750000
| 26>  H        4.3755280000    -2.4195340000     0.3784750000
| 27> *
| 28>
| 29>                          ****END OF INPUT****
 Total Charge           Charge          ....    0
 Multiplicity           Mult            ....    1
 Number of Electrons    NEL             ....   48
 Basis Dimension        Dim             ....  129

MULLIKEN ATOMIC CHARGES
-----------------------
   0 N :   -0.129194
   1 C :   -0.099366
   2 C :    0.029328
   3 C :    0.028499
   4 C :    0.076413
   5 O :   -0.241308
   6 H :    0.079625
   7 H :    0.093607
   8 H :    0.005401
   9 H :    0.006007
  10 H :    0.014684
  11 H :    0.007276
  12 H :    0.003044
  13 H :   -0.029259
  14 H :    0.155245
Sum of atomic charges:    0.0000000

LOEWDIN ATOMIC CHARGES
----------------------
   0 N :   -0.090918
   1 C :   -0.010380
   2 C :   -0.033017
   3 C :   -0.053785
   4 C :    0.022135
   5 O :   -0.112951
   6 H :    0.047167
   7 H :    0.056346
   8 H :    0.026513
   9 H :    0.021840
  10 H :    0.019908
  11 H :    0.024995
  12 H :    0.013155
  13 H :   -0.001611
  14 H :    0.070602

  Mayer bond orders larger than 0.1
B(  0-N ,  1-C ) :   1.1623 B(  0-N ,  6-H ) :   0.9565 B(  0-N ,  7-H ) :   0.9665
B(  1-C ,  2-C ) :   1.0512 B(  1-C ,  4-C ) :   0.9991 B(  1-C ,  8-H ) :   0.8912
B(  2-C ,  3-C ) :   1.1072 B(  2-C ,  9-H ) :   0.9239 B(  2-C , 10-H ) :   0.9257
B(  3-C ,  4-C ) :   1.0636 B(  3-C , 11-H ) :   0.9091 B(  3-C , 12-H ) :   0.9290
B(  4-C ,  5-O ) :   1.1564 B(  4-C , 13-H ) :   0.8962 B(  5-O , 14-H ) :   0.9789

FINAL SINGLE POINT ENERGY      -287.208738329378

DIPOLE MOMENT
-------------
                                X             Y             Z
Electronic contribution:      0.35960      -2.20499      -1.65646
Nuclear contribution   :     -0.27898       1.62442       2.20683
                        -----------------------------------------
Total Dipole Moment    :      0.08062      -0.58057       0.55037
                        -----------------------------------------
Magnitude (a.u.)       :      0.80403
Magnitude (Debye)      :      2.04368

                             ****ORCA TERMINATED NORMALLY****
TOTAL RUN TIME: 0 days 0 hours 0 minutes 5 seconds 895 msec
