                         Program Version 3.0.3 - RELEASE   -
|  1> ! RI PBE def2-SVP def2-SVP/J NBO PAL2
|  2> % maxcore 2000
|  3> % output
|  4>     # printlevel mini
|  5>     print[ P_Basis ] 0
|  6>     print[ P_SCFInfo ] 1
|  7>     print[ P_SCFIterInfo ] 1
|  8>     print[ P_OrbEn ] 0
|  9>     print[ P_Cartesian ] 0
| 10> end
| 11> *xyz 0 1
| 12>  N        0.9212560000    -0.0514740000     0.0017860000
| 13>  C        2.2722230000     0.1023040000     0.0070530000
| 14>  C        3.0964850000     1.1869890000     0.0081630000
| 15>  C        4.4237460000     0.6516660000     0.0146680000
| 16>  C        4.3084130000    -0.6907950000     0.0169880000
| 17>  O        2.9805660000    -1.0400650000     0.0123110000
| 18>  H        0.3205000000     0.7467820000    -0.0016030000
| 19>  H        0.5228640000    -0.9693050000     0.0027440000
| 20>  H        2.8015890000     2.2233040000     0.0047960000
| 21>  H        5.3469360000     1.2095500000     0.0172620000
| 22>  H        5.0069230000    -1.5087760000     0.0215220000
| 23> *
| 24>
| 25>                          ****END OF INPUT****
 Total Charge           Charge          ....    0
 Multiplicity           Mult            ....    1
 Number of Electrons    NEL             ....   44
 Basis Dimension        Dim             ....  109

MULLIKEN ATOMIC CHARGES
-----------------------
   0 N :   -0.055672
   1 C :    0.126091
   2 C :   -0.138154
   3 C :    0.004071
   4 C :    0.084551
   5 O :   -0.194455
   6 H :    0.118771
   7 H :    0.119890
   8 H :   -0.040698
   9 H :   -0.015497
  10 H :   -0.008897
Sum of atomic charges:   -0.0000000

LOEWDIN ATOMIC CHARGES
----------------------
   0 N :   -0.009442
   1 C :    0.040663
   2 C :   -0.159694
   3 C :   -0.072906
   4 C :   -0.017431
   5 O :    0.001146
   6 H :    0.078444
   7 H :    0.075437
   8 H :    0.020803
   9 H :    0.027772
  10 H :    0.015208

  Mayer bond orders larger than 0.1
B(  0-N ,  1-C ) :   1.2238 B(  0-N ,  6-H ) :   0.9548 B(  0-N ,  7-H ) :   0.9418
B(  1-C ,  2-C ) :   1.4621 B(  1-C ,  5-O ) :   1.1814 B(  2-C ,  3-C ) :   1.1803
B(  2-C ,  8-H ) :   1.0250 B(  3-C ,  4-C ) :   1.5734 B(  3-C ,  9-H ) :   0.9938
B(  4-C ,  5-O ) :   1.0685 B(  4-C , 10-H ) :   1.0061

FINAL SINGLE POINT ENERGY      -284.834756485514

DIPOLE MOMENT
-------------
                                X             Y             Z
Electronic contribution:     -0.15930      -1.57424       0.00231
Nuclear contribution   :     -0.65598       1.61642      -0.00491
                        -----------------------------------------
Total Dipole Moment    :     -0.81528       0.04218      -0.00261
                        -----------------------------------------
Magnitude (a.u.)       :      0.81637
Magnitude (Debye)      :      2.07506

                             ****ORCA TERMINATED NORMALLY****
TOTAL RUN TIME: 0 days 0 hours 0 minutes 5 seconds 214 msec
