                         Program Version 3.0.3 - RELEASE   -
|  1> ! RI PBE def2-SVP def2-SVP/J NBO PAL2
|  2> % maxcore 2000
|  3> % output
|  4>     # printlevel mini
|  5>     print[ P_Basis ] 0
|  6>     print[ P_SCFInfo ] 1
|  7>     print[ P_SCFIterInfo ] 1
|  8>     print[ P_OrbEn ] 0
|  9>     print[ P_Cartesian ] 0
| 10> end
| 11> *xyz 0 1
| 12>  N        0.9119070000    -0.0082190000    -0.0911650000
| 13>  C        2.2828250000    -0.0119610000    -0.0863970000
| 14>  C        3.1409860000     1.0458740000    -0.0838090000
| 15>  O        4.4340460000     0.6044500000    -0.0793950000
| 16>  C        4.3900390000    -0.7343320000    -0.0791990000
| 17>  C        3.1112740000    -1.1796740000    -0.0832830000
| 18>  H        0.3956520000     0.8477460000    -0.0915770000
| 19>  H        0.4023760000    -0.8674380000    -0.0908430000
| 20>  H        2.9999450000     2.1128630000    -0.0846000000
| 21>  H        5.3389740000    -1.2452940000    -0.0759220000
| 22>  H        2.7873650000    -2.2090170000    -0.0840910000
| 23> *
| 24>
| 25>                          ****END OF INPUT****
 Total Charge           Charge          ....    0
 Multiplicity           Mult            ....    1
 Number of Electrons    NEL             ....   44
 Basis Dimension        Dim             ....  109

MULLIKEN ATOMIC CHARGES
-----------------------
   0 N :   -0.074545
   1 C :    0.056286
   2 C :   -0.015497
   3 O :   -0.168671
   4 C :    0.118704
   5 C :   -0.069499
   6 H :    0.104898
   7 H :    0.105124
   8 H :   -0.023892
   9 H :    0.000182
  10 H :   -0.033088
Sum of atomic charges:   -0.0000000

LOEWDIN ATOMIC CHARGES
----------------------
   0 N :   -0.019716
   1 C :   -0.035865
   2 C :   -0.063456
   3 O :    0.027147
   4 C :    0.012433
   5 C :   -0.112204
   6 H :    0.068639
   7 H :    0.068425
   8 H :    0.011455
   9 H :    0.018087
  10 H :    0.025056

  Mayer bond orders larger than 0.1
B(  0-N ,  1-C ) :   1.2183 B(  0-N ,  6-H ) :   0.9571 B(  0-N ,  7-H ) :   0.9554
B(  1-C ,  2-C ) :   1.4467 B(  1-C ,  5-C ) :   1.2134 B(  2-C ,  3-O ) :   1.0994
B(  2-C ,  8-H ) :   1.0221 B(  3-O ,  4-C ) :   1.1913 B(  4-C ,  5-C ) :   1.4992
B(  4-C ,  9-H ) :   0.9938 B(  5-C , 10-H ) :   1.0104

FINAL SINGLE POINT ENERGY      -284.828484495333

DIPOLE MOMENT
-------------
                                X             Y             Z
Electronic contribution:      2.12770       0.92157       0.00612
Nuclear contribution   :     -2.97260      -1.13273      -0.00691
                        -----------------------------------------
Total Dipole Moment    :     -0.84490      -0.21116      -0.00079
                        -----------------------------------------
Magnitude (a.u.)       :      0.87089
Magnitude (Debye)      :      2.21362

                             ****ORCA TERMINATED NORMALLY****
TOTAL RUN TIME: 0 days 0 hours 0 minutes 5 seconds 253 msec
