                         Program Version 3.0.3 - RELEASE   -
|  1> ! RI PBE def2-SVP def2-SVP/J NBO PAL2
|  2> % maxcore 2000
|  3> % output
|  4>     # printlevel mini
|  5>     print[ P_Basis ] 0
|  6>     print[ P_SCFInfo ] 1
|  7>     print[ P_SCFIterInfo ] 1
|  8>     print[ P_OrbEn ] 0
|  9>     print[ P_Cartesian ] 0
| 10> end
| 11> *xyz 0 1
| 12>  N        0.9563220000    -0.0978600000     0.0094440000
| 13>  C        2.3936390000     0.0032560000     0.1269690000
| 14>  C        2.9900050000     1.1097700000     1.0017650000
| 15>  C        4.3748560000     0.5637970000     1.2875350000
| 16>  O        4.2369790000    -0.8517540000     1.3379340000
| 17>  C        2.9951250000    -1.2365880000     0.7805680000
| 18>  H        0.5741190000     0.6997280000    -0.4820680000
| 19>  H        0.5258640000    -0.1213410000     0.9271460000
| 20>  H        2.8005330000     0.0999600000    -0.8859770000
| 21>  H        2.4068410000     1.1926570000     1.9255390000
| 22>  H        3.0043310000     2.0872440000     0.5155710000
| 23>  H        4.7931470000     0.9074690000     2.2370880000
| 24>  H        5.0793570000     0.8348750000     0.4893830000
| 25>  H        2.3240810000    -1.5998220000     1.5732180000
| 26>  H        3.1494920000    -2.0530000000     0.0704740000
| 27> *
| 28>
| 29>                          ****END OF INPUT****
 Total Charge           Charge          ....    0
 Multiplicity           Mult            ....    1
 Number of Electrons    NEL             ....   48
 Basis Dimension        Dim             ....  129

MULLIKEN ATOMIC CHARGES
-----------------------
   0 N :   -0.151619
   1 C :   -0.165116
   2 C :   -0.005475
   3 C :    0.207727
   4 O :   -0.371540
   5 C :    0.265409
   6 H :    0.092109
   7 H :    0.086034
   8 H :    0.016530
   9 H :    0.001312
  10 H :    0.013491
  11 H :    0.006334
  12 H :    0.003538
  13 H :   -0.011279
  14 H :    0.012545
Sum of atomic charges:   -0.0000000

LOEWDIN ATOMIC CHARGES
----------------------
   0 N :   -0.087807
   1 C :   -0.020892
   2 C :   -0.073000
   3 C :    0.068164
   4 O :   -0.168197
   5 C :    0.063146
   6 H :    0.054105
   7 H :    0.049002
   8 H :    0.025511
   9 H :    0.021181
  10 H :    0.025066
  11 H :    0.015198
  12 H :    0.006742
  13 H :    0.004077
  14 H :    0.017705

  Mayer bond orders larger than 0.1
B(  0-N ,  1-C ) :   1.1214 B(  0-N ,  6-H ) :   0.9658 B(  0-N ,  7-H ) :   0.9600
B(  1-C ,  2-C ) :   1.0377 B(  1-C ,  5-C ) :   1.0453 B(  1-C ,  8-H ) :   0.9087
B(  2-C ,  3-C ) :   1.0915 B(  2-C ,  9-H ) :   0.9152 B(  2-C , 10-H ) :   0.9307
B(  3-C ,  4-O ) :   1.0036 B(  3-C , 11-H ) :   0.9390 B(  3-C , 12-H ) :   0.9382
B(  4-O ,  5-C ) :   1.0240 B(  5-C , 13-H ) :   0.9295 B(  5-C , 14-H ) :   0.9334

FINAL SINGLE POINT ENERGY      -287.221578190614

DIPOLE MOMENT
-------------
                                X             Y             Z
Electronic contribution:      1.52634      -1.83256       0.40214
Nuclear contribution   :     -1.98205       2.65085      -0.45014
                        -----------------------------------------
Total Dipole Moment    :     -0.45570       0.81829      -0.04800
                        -----------------------------------------
Magnitude (a.u.)       :      0.93785
Magnitude (Debye)      :      2.38384

                             ****ORCA TERMINATED NORMALLY****
TOTAL RUN TIME: 0 days 0 hours 0 minutes 6 seconds 166 msec
