                         Program Version 3.0.3 - RELEASE   -
|  1> ! RI PBE def2-SVP def2-SVP/J NBO PAL2
|  2> % maxcore 2000
|  3> % output
|  4>     # printlevel mini
|  5>     print[ P_Basis ] 0
|  6>     print[ P_SCFInfo ] 1
|  7>     print[ P_SCFIterInfo ] 1
|  8>     print[ P_OrbEn ] 0
|  9>     print[ P_Cartesian ] 0
| 10> end
| 11> *xyz 0 1
| 12>  N        0.9504500000     0.0336630000     0.0326240000
| 13>  C        2.3849160000     0.1289350000    -0.0060940000
| 14>  C        3.1842380000     1.1672040000     0.8266020000
| 15>  C        4.2350560000     0.0833810000     1.0905910000
| 16>  O        5.2682090000     0.2087270000     0.1354840000
| 17>  C        3.1779080000    -0.9740980000     0.7148580000
| 18>  H        0.5162770000     0.7897130000    -0.4817900000
| 19>  H        0.6095400000     0.0801800000     0.9858640000
| 20>  H        2.6962320000     0.1841780000    -1.0512280000
| 21>  H        2.6479390000     1.4289470000     1.7426850000
| 22>  H        3.5409580000     2.0751190000     0.3377120000
| 23>  H        4.6493170000     0.0282690000     2.1035360000
| 24>  H        5.7933030000    -0.5956800000     0.1537100000
| 25>  H        2.6383670000    -1.3203290000     1.6014600000
| 26>  H        3.5060910000    -1.8411170000     0.1373960000
| 27> *
| 28>
| 29>                          ****END OF INPUT****
 Total Charge           Charge          ....    0
 Multiplicity           Mult            ....    1
 Number of Electrons    NEL             ....   48
 Basis Dimension        Dim             ....  129

MULLIKEN ATOMIC CHARGES
-----------------------
   0 N :   -0.130423
   1 C :   -0.152961
   2 C :    0.136613
   3 C :   -0.023222
   4 O :   -0.260095
   5 C :    0.114616
   6 H :    0.091229
   7 H :    0.077572
   8 H :    0.015693
   9 H :   -0.018000
  10 H :    0.010436
  11 H :   -0.009131
  12 H :    0.154360
  13 H :   -0.009090
  14 H :    0.002403
Sum of atomic charges:   -0.0000000

LOEWDIN ATOMIC CHARGES
----------------------
   0 N :   -0.091799
   1 C :    0.000446
   2 C :   -0.056779
   3 C :    0.049199
   4 O :   -0.116075
   5 C :   -0.052254
   6 H :    0.053777
   7 H :    0.046416
   8 H :    0.025505
   9 H :    0.019382
  10 H :    0.019814
  11 H :   -0.005496
  12 H :    0.068689
  13 H :    0.023200
  14 H :    0.015977

  Mayer bond orders larger than 0.1
B(  0-N ,  1-C ) :   1.1619 B(  0-N ,  6-H ) :   0.9655 B(  0-N ,  7-H ) :   0.9569
B(  1-C ,  2-C ) :   1.0447 B(  1-C ,  5-C ) :   1.0630 B(  1-C ,  8-H ) :   0.9043
B(  2-C ,  3-C ) :   1.0824 B(  2-C ,  9-H ) :   0.8981 B(  2-C , 10-H ) :   0.9119
B(  3-C ,  4-O ) :   1.0760 B(  3-C ,  5-C ) :   1.0581 B(  3-C , 11-H ) :   0.9254
B(  4-O , 12-H ) :   0.9833 B(  5-C , 13-H ) :   0.9018 B(  5-C , 14-H ) :   0.9126

FINAL SINGLE POINT ENERGY      -287.205189332419

DIPOLE MOMENT
-------------
                                X             Y             Z
Electronic contribution:      2.12273       0.08112      -0.93728
Nuclear contribution   :     -2.19800      -0.14323       1.32910
                        -----------------------------------------
Total Dipole Moment    :     -0.07526      -0.06211       0.39181
                        -----------------------------------------
Magnitude (a.u.)       :      0.40378
Magnitude (Debye)      :      1.02633

                             ****ORCA TERMINATED NORMALLY****
TOTAL RUN TIME: 0 days 0 hours 0 minutes 5 seconds 913 msec
