                         Program Version 3.0.3 - RELEASE   -
|  1> ! RI PBE def2-SVP def2-SVP/J NBO PAL2
|  2> % maxcore 2000
|  3> % output
|  4>     # printlevel mini
|  5>     print[ P_Basis ] 0
|  6>     print[ P_SCFInfo ] 1
|  7>     print[ P_SCFIterInfo ] 1
|  8>     print[ P_OrbEn ] 0
|  9>     print[ P_Cartesian ] 0
| 10> end
| 11> *xyz 0 1
| 12>  N        0.9258460000    -0.0251970000    -0.1097690000
| 13>  C        2.3597960000     0.0099000000    -0.0251100000
| 14>  C        2.7982190000     0.1238080000     1.4202170000
| 15>  O        4.1939350000     0.1199440000     1.6106030000
| 16>  C        3.2178820000    -0.7368150000    -1.0115900000
| 17>  C        3.1094890000     0.7651280000    -1.0636170000
| 18>  H        0.5688790000    -0.9598150000     0.0478130000
| 19>  H        0.5974980000     0.2851050000    -1.0134890000
| 20>  H        2.3160070000    -0.6763910000     2.0005730000
| 21>  H        2.4294250000     1.0729520000     1.8157640000
| 22>  H        4.5163590000    -0.7744150000     1.4790190000
| 23>  H        2.7044790000    -1.3106810000    -1.7739450000
| 24>  H        4.1683540000    -1.1536760000    -0.6981550000
| 25>  H        2.5470300000     1.2108540000    -1.8764520000
| 26>  H        3.9724830000     1.3331190000    -0.7389630000
| 27> *
| 28>
| 29>                          ****END OF INPUT****
 Total Charge           Charge          ....    0
 Multiplicity           Mult            ....    1
 Number of Electrons    NEL             ....   48
 Basis Dimension        Dim             ....  129

MULLIKEN ATOMIC CHARGES
-----------------------
   0 N :   -0.120623
   1 C :   -0.259186
   2 C :    0.279792
   3 O :   -0.281591
   4 C :   -0.027811
   5 C :   -0.009685
   6 H :    0.091942
   7 H :    0.079667
   8 H :   -0.009118
   9 H :    0.009006
  10 H :    0.154280
  11 H :    0.018062
  12 H :    0.006315
  13 H :    0.028255
  14 H :    0.040693
Sum of atomic charges:    0.0000000

LOEWDIN ATOMIC CHARGES
----------------------
   0 N :   -0.072844
   1 C :   -0.052231
   2 C :    0.061760
   3 O :   -0.112795
   4 C :   -0.069057
   5 C :   -0.044045
   6 H :    0.053681
   7 H :    0.052651
   8 H :    0.004521
   9 H :    0.024004
  10 H :    0.066125
  11 H :    0.020765
  12 H :    0.014087
  13 H :    0.023373
  14 H :    0.030006

  Mayer bond orders larger than 0.1
B(  0-N ,  1-C ) :   1.1029 B(  0-N ,  6-H ) :   0.9645 B(  0-N ,  7-H ) :   0.9541
B(  1-C ,  2-C ) :   0.9897 B(  1-C ,  4-C ) :   0.9631 B(  1-C ,  5-C ) :   0.9783
B(  2-C ,  3-O ) :   1.0613 B(  2-C ,  8-H ) :   0.9389 B(  2-C ,  9-H ) :   0.9270
B(  3-O , 10-H ) :   0.9817 B(  4-C ,  5-C ) :   1.0022 B(  4-C , 11-H ) :   0.9437
B(  4-C , 12-H ) :   0.9304 B(  5-C , 13-H ) :   0.9466 B(  5-C , 14-H ) :   0.9386

FINAL SINGLE POINT ENERGY      -287.198659546044

DIPOLE MOMENT
-------------
                                X             Y             Z
Electronic contribution:      0.83718       0.41863       1.72775
Nuclear contribution   :     -1.09811      -1.15708      -2.17396
                        -----------------------------------------
Total Dipole Moment    :     -0.26093      -0.73845      -0.44620
                        -----------------------------------------
Magnitude (a.u.)       :      0.90138
Magnitude (Debye)      :      2.29113

                             ****ORCA TERMINATED NORMALLY****
TOTAL RUN TIME: 0 days 0 hours 0 minutes 6 seconds 332 msec
