                         Program Version 3.0.3 - RELEASE   -
|  1> ! RI PBE def2-SVP def2-SVP/J NBO PAL2
|  2> % maxcore 2000
|  3> % output
|  4>     # printlevel mini
|  5>     print[ P_Basis ] 0
|  6>     print[ P_SCFInfo ] 1
|  7>     print[ P_SCFIterInfo ] 1
|  8>     print[ P_OrbEn ] 0
|  9>     print[ P_Cartesian ] 0
| 10> end
| 11> *xyz 0 1
| 12>  N        1.1414480000    -0.2334990000    -0.2986370000
| 13>  C        2.5863860000    -0.1533150000    -0.0958230000
| 14>  C        3.1087120000    -1.3144280000     0.7649620000
| 15>  O        3.4429250000    -0.7750130000     2.0549830000
| 16>  C        3.4616650000     0.5696070000     1.9092350000
| 17>  C        3.0619640000     1.0202100000     0.7242140000
| 18>  H        0.8441400000     0.4636140000    -0.9710300000
| 19>  H        0.6642840000    -0.0162890000     0.5702010000
| 20>  H        3.0439100000    -0.1894000000    -1.0880110000
| 21>  H        4.0197240000    -1.7483430000     0.3448300000
| 22>  H        2.3585820000    -2.0946980000     0.8955850000
| 23>  H        3.7875300000     1.1150420000     2.7851650000
| 24>  H        2.9928300000     2.0566230000     0.4298060000
| 25> *
| 26>
| 27>                          ****END OF INPUT****
 Total Charge           Charge          ....    0
 Multiplicity           Mult            ....    1
 Number of Electrons    NEL             ....   46
 Basis Dimension        Dim             ....  119

MULLIKEN ATOMIC CHARGES
-----------------------
   0 N :   -0.152935
   1 C :   -0.080554
   2 C :    0.267640
   3 O :   -0.287218
   4 C :    0.130814
   5 C :   -0.103885
   6 H :    0.085271
   7 H :    0.086107
   8 H :    0.013190
   9 H :    0.021414
  10 H :    0.018350
  11 H :    0.008671
  12 H :   -0.006864
Sum of atomic charges:   -0.0000000

LOEWDIN ATOMIC CHARGES
----------------------
   0 N :   -0.094075
   1 C :   -0.010153
   2 C :    0.083527
   3 O :   -0.090113
   4 C :    0.038231
   5 C :   -0.145022
   6 H :    0.051318
   7 H :    0.050154
   8 H :    0.026266
   9 H :    0.022694
  10 H :    0.023825
  11 H :    0.021163
  12 H :    0.022187

  Mayer bond orders larger than 0.1
B(  0-N ,  1-C ) :   1.1029 B(  0-N ,  6-H ) :   0.9662 B(  0-N ,  7-H ) :   0.9661
B(  1-C ,  2-C ) :   1.0499 B(  1-C ,  5-C ) :   1.0217 B(  1-C ,  8-H ) :   0.9054
B(  2-C ,  3-O ) :   0.9555 B(  2-C ,  9-H ) :   0.9376 B(  2-C , 10-H ) :   0.9315
B(  3-O ,  4-C ) :   1.1335 B(  3-O ,  5-C ) :   0.1188 B(  4-C ,  5-C ) :   1.7063
B(  4-C , 11-H ) :   0.9851 B(  5-C , 12-H ) :   0.9907

FINAL SINGLE POINT ENERGY      -286.011567065475

DIPOLE MOMENT
-------------
                                X             Y             Z
Electronic contribution:      1.47598      -0.26496       2.46841
Nuclear contribution   :     -1.56956       0.73105      -2.71105
                        -----------------------------------------
Total Dipole Moment    :     -0.09357       0.46609      -0.24264
                        -----------------------------------------
Magnitude (a.u.)       :      0.53373
Magnitude (Debye)      :      1.35664

                             ****ORCA TERMINATED NORMALLY****
TOTAL RUN TIME: 0 days 0 hours 0 minutes 6 seconds 87 msec
