                         Program Version 3.0.3 - RELEASE   -
|  1> ! RI PBE def2-SVP def2-SVP/J NBO PAL2
|  2> % maxcore 2000
|  3> % output
|  4>     # printlevel mini
|  5>     print[ P_Basis ] 0
|  6>     print[ P_SCFInfo ] 1
|  7>     print[ P_SCFIterInfo ] 1
|  8>     print[ P_OrbEn ] 0
|  9>     print[ P_Cartesian ] 0
| 10> end
| 11> *xyz 0 1
| 12>  N        3.5528150000    -0.1626620000     0.8863070000
| 13>  C        2.4156020000    -0.1004260000    -0.0201550000
| 14>  C        2.8448030000     0.3677040000    -1.3788820000
| 15>  C        1.8519980000     0.9973490000    -2.3178690000
| 16>  C        2.9095790000     1.8325830000    -1.6898260000
| 17>  O        3.8978100000     2.3208550000    -2.5404030000
| 18>  H        3.2756610000    -0.5347870000     1.7859450000
| 19>  H        3.9193300000     0.7672570000     1.0511580000
| 20>  H        1.5973590000     0.5494560000     0.3328840000
| 21>  H        1.9951850000    -1.1084370000    -0.1011630000
| 22>  H        3.6196750000    -0.2322650000    -1.8457270000
| 23>  H        0.8293790000     1.1241400000    -1.9824560000
| 24>  H        1.9702500000     0.7927570000    -3.3740800000
| 25>  H        2.5958240000     2.5229400000    -0.9068560000
| 26>  H        4.7411280000     2.2711350000    -2.0824770000
| 27> *
| 28>
| 29>                          ****END OF INPUT****
 Total Charge           Charge          ....    0
 Multiplicity           Mult            ....    1
 Number of Electrons    NEL             ....   48
 Basis Dimension        Dim             ....  129

MULLIKEN ATOMIC CHARGES
-----------------------
   0 N :   -0.209404
   1 C :    0.160673
   2 C :   -0.174314
   3 C :    0.010408
   4 C :    0.042265
   5 O :   -0.236071
   6 H :    0.087209
   7 H :    0.081006
   8 H :   -0.020703
   9 H :    0.008021
  10 H :    0.024082
  11 H :    0.026162
  12 H :    0.038767
  13 H :    0.002596
  14 H :    0.159302
Sum of atomic charges:    0.0000000

LOEWDIN ATOMIC CHARGES
----------------------
   0 N :   -0.112870
   1 C :    0.011778
   2 C :   -0.067738
   3 C :   -0.048804
   4 C :    0.027329
   5 O :   -0.098747
   6 H :    0.051846
   7 H :    0.047207
   8 H :   -0.000937
   9 H :    0.024100
  10 H :    0.029031
  11 H :    0.025730
  12 H :    0.034304
  13 H :    0.003581
  14 H :    0.074189

  Mayer bond orders larger than 0.1
B(  0-N ,  1-C ) :   1.0886 B(  0-N ,  6-H ) :   0.9621 B(  0-N ,  7-H ) :   0.9708
B(  1-C ,  2-C ) :   1.0686 B(  1-C ,  8-H ) :   0.9119 B(  1-C ,  9-H ) :   0.9188
B(  2-C ,  3-C ) :   0.9741 B(  2-C ,  4-C ) :   0.9374 B(  2-C , 10-H ) :   0.9375
B(  3-C ,  4-C ) :   0.9987 B(  3-C , 11-H ) :   0.9363 B(  3-C , 12-H ) :   0.9322
B(  4-C ,  5-O ) :   1.1380 B(  4-C , 13-H ) :   0.9396 B(  5-O , 14-H ) :   0.9828

FINAL SINGLE POINT ENERGY      -287.197033443793

DIPOLE MOMENT
-------------
                                X             Y             Z
Electronic contribution:      1.84924       1.85511      -2.25213
Nuclear contribution   :     -1.88715      -1.79718       3.03382
                        -----------------------------------------
Total Dipole Moment    :     -0.03791       0.05794       0.78169
                        -----------------------------------------
Magnitude (a.u.)       :      0.78475
Magnitude (Debye)      :      1.99468

                             ****ORCA TERMINATED NORMALLY****
TOTAL RUN TIME: 0 days 0 hours 0 minutes 6 seconds 207 msec
