                         Program Version 3.0.3 - RELEASE   -
|  1> ! RI PBE def2-SVP def2-SVP/J NBO PAL2
|  2> % maxcore 2000
|  3> % output
|  4>     # printlevel mini
|  5>     print[ P_Basis ] 0
|  6>     print[ P_SCFInfo ] 1
|  7>     print[ P_SCFIterInfo ] 1
|  8>     print[ P_OrbEn ] 0
|  9>     print[ P_Cartesian ] 0
| 10> end
| 11> *xyz 0 1
| 12>  N        1.0632160000    -0.3690980000     0.0313990000
| 13>  C        2.4680630000    -0.0190580000    -0.0627800000
| 14>  C        2.9271220000    -0.1447780000    -1.4904600000
| 15>  C        4.4299400000    -0.0430720000    -1.7673210000
| 16>  C        4.2773350000    -1.4552460000    -2.3358190000
| 17>  O        2.8984650000    -1.5152070000    -1.9469870000
| 18>  H        0.7431680000    -0.3273020000     0.9901450000
| 19>  H        0.9348530000    -1.3230770000    -0.2861190000
| 20>  H        3.1321480000    -0.6345790000     0.5662860000
| 21>  H        2.5989510000     1.0246810000     0.2463330000
| 22>  H        2.2972980000     0.4814490000    -2.1335380000
| 23>  H        5.0423700000     0.0208020000    -0.8668870000
| 24>  H        4.7370560000     0.7293020000    -2.4705310000
| 25>  H        4.8714430000    -2.2408950000    -1.8596140000
| 26>  H        4.3920590000    -1.5313430000    -3.4225050000
| 27> *
| 28>
| 29>                          ****END OF INPUT****
 Total Charge           Charge          ....    0
 Multiplicity           Mult            ....    1
 Number of Electrons    NEL             ....   48
 Basis Dimension        Dim             ....  129

MULLIKEN ATOMIC CHARGES
-----------------------
   0 N :   -0.214537
   1 C :    0.162939
   2 C :    0.016752
   3 C :   -0.026020
   4 C :    0.190138
   5 O :   -0.361533
   6 H :    0.086761
   7 H :    0.094806
   8 H :   -0.026812
   9 H :    0.003306
  10 H :    0.006670
  11 H :    0.012750
  12 H :    0.026843
  13 H :    0.013421
  14 H :    0.014515
Sum of atomic charges:   -0.0000000

LOEWDIN ATOMIC CHARGES
----------------------
   0 N :   -0.109374
   1 C :   -0.004356
   2 C :    0.061547
   3 C :   -0.053331
   4 C :    0.085248
   5 O :   -0.189776
   6 H :    0.052372
   7 H :    0.053470
   8 H :   -0.002200
   9 H :    0.023884
  10 H :    0.012172
  11 H :    0.025319
  12 H :    0.026407
  13 H :    0.009185
  14 H :    0.009431

  Mayer bond orders larger than 0.1
B(  0-N ,  1-C ) :   1.0990 B(  0-N ,  6-H ) :   0.9646 B(  0-N ,  7-H ) :   0.9634
B(  1-C ,  2-C ) :   1.0558 B(  1-C ,  8-H ) :   0.8962 B(  1-C ,  9-H ) :   0.9202
B(  2-C ,  3-C ) :   1.0811 B(  2-C ,  5-O ) :   1.0342 B(  2-C , 10-H ) :   0.9048
B(  3-C ,  4-C ) :   1.1210 B(  3-C , 11-H ) :   0.9234 B(  3-C , 12-H ) :   0.9386
B(  4-C ,  5-O ) :   1.0304 B(  4-C , 13-H ) :   0.9400 B(  4-C , 14-H ) :   0.9363

FINAL SINGLE POINT ENERGY      -287.197344273043

DIPOLE MOMENT
-------------
                                X             Y             Z
Electronic contribution:     -1.20803      -1.44632      -1.41803
Nuclear contribution   :      1.79778       1.57866       1.79419
                        -----------------------------------------
Total Dipole Moment    :      0.58974       0.13234       0.37615
                        -----------------------------------------
Magnitude (a.u.)       :      0.71190
Magnitude (Debye)      :      1.80951

                             ****ORCA TERMINATED NORMALLY****
TOTAL RUN TIME: 0 days 0 hours 0 minutes 6 seconds 42 msec
