                         Program Version 3.0.3 - RELEASE   -
|  1> ! RI PBE def2-SVP def2-SVP/J NBO PAL2
|  2> % maxcore 2000
|  3> % output
|  4>     # printlevel mini
|  5>     print[ P_Basis ] 0
|  6>     print[ P_SCFInfo ] 1
|  7>     print[ P_SCFIterInfo ] 1
|  8>     print[ P_OrbEn ] 0
|  9>     print[ P_Cartesian ] 0
| 10> end
| 11> *xyz 0 1
| 12>  N        1.1062660000    -0.2215010000     0.4832350000
| 13>  C        2.2285250000    -0.0718960000     0.2841890000
| 14>  C        3.6508910000     0.1512600000     0.0339900000
| 15>  C        4.3363980000     1.2074060000     0.9197750000
| 16>  C        5.1907760000     0.0318560000     1.4006430000
| 17>  O        4.4795610000    -0.8900900000     0.5511610000
| 18>  H        3.7923100000     0.2856260000    -1.0439710000
| 19>  H        3.6922030000     1.6584500000     1.6707870000
| 20>  H        4.8609380000     1.9838020000     0.3671950000
| 21>  H        5.0850670000    -0.2329670000     2.4554360000
| 22>  H        6.2509640000     0.0765530000     1.1390290000
| 23> *
| 24>
| 25>                          ****END OF INPUT****
 Total Charge           Charge          ....    0
 Multiplicity           Mult            ....    1
 Number of Electrons    NEL             ....   44
 Basis Dimension        Dim             ....  109

MULLIKEN ATOMIC CHARGES
-----------------------
   0 N :    0.059987
   1 C :   -0.138103
   2 C :    0.031201
   3 C :   -0.026677
   4 C :    0.189220
   5 O :   -0.323645
   6 H :    0.052277
   7 H :    0.047690
   8 H :    0.041283
   9 H :    0.034079
  10 H :    0.032688
Sum of atomic charges:   -0.0000000

LOEWDIN ATOMIC CHARGES
----------------------
   0 N :   -0.045054
   1 C :   -0.053166
   2 C :    0.044400
   3 C :   -0.030353
   4 C :    0.092183
   5 O :   -0.157430
   6 H :    0.040024
   7 H :    0.038421
   8 H :    0.035031
   9 H :    0.018754
  10 H :    0.017190

  Mayer bond orders larger than 0.1
B(  0-N ,  1-C ) :   3.0685 B(  1-C ,  2-C ) :   1.0265 B(  2-C ,  3-C ) :   1.1176
B(  2-C ,  5-O ) :   1.1470 B(  2-C ,  6-H ) :   0.8785 B(  3-C ,  4-C ) :   1.1028
B(  3-C ,  7-H ) :   0.9388 B(  3-C ,  8-H ) :   0.9363 B(  4-C ,  5-O ) :   1.0040
B(  4-C ,  9-H ) :   0.9422 B(  4-C , 10-H ) :   0.9428

FINAL SINGLE POINT ENERGY      -284.786397232534

DIPOLE MOMENT
-------------
                                X             Y             Z
Electronic contribution:     -4.15727      -2.48067      -1.34881
Nuclear contribution   :      5.50191       3.39370       1.37267
                        -----------------------------------------
Total Dipole Moment    :      1.34464       0.91303       0.02386
                        -----------------------------------------
Magnitude (a.u.)       :      1.62550
Magnitude (Debye)      :      4.13170

                             ****ORCA TERMINATED NORMALLY****
TOTAL RUN TIME: 0 days 0 hours 0 minutes 5 seconds 50 msec
