                         Program Version 3.0.3 - RELEASE   -
|  1> ! RI PBE def2-SVP def2-SVP/J NBO PAL2
|  2> % maxcore 2000
|  3> % output
|  4>     # printlevel mini
|  5>     print[ P_Basis ] 0
|  6>     print[ P_SCFInfo ] 1
|  7>     print[ P_SCFIterInfo ] 1
|  8>     print[ P_OrbEn ] 0
|  9>     print[ P_Cartesian ] 0
| 10> end
| 11> *xyz 0 1
| 12>  N        3.0629790000    -1.2312560000    -0.2161180000
| 13>  C        2.4568810000     0.0312840000     0.1751650000
| 14>  C        2.9885960000     1.1631000000    -0.6718490000
| 15>  C        2.5556070000     2.5738820000    -0.2587050000
| 16>  O        3.8983870000     2.9455940000     0.0798520000
| 17>  C        4.3991430000     1.6685050000    -0.3335280000
| 18>  H        2.6721530000    -1.9974210000     0.3172120000
| 19>  H        4.0577920000    -1.2208990000    -0.0235110000
| 20>  H        2.6041620000     0.2891790000     1.2375790000
| 21>  H        1.3757720000    -0.0498200000     0.0183450000
| 22>  H        2.8417250000     0.9298400000    -1.7273500000
| 23>  H        1.8872590000     2.6254730000     0.6089020000
| 24>  H        2.1501560000     3.2004020000    -1.0598740000
| 25>  H        4.9049920000     1.1464890000     0.4889380000
| 26>  H        5.0903050000     1.7570390000    -1.1780590000
| 27> *
| 28>
| 29>                          ****END OF INPUT****
 Total Charge           Charge          ....    0
 Multiplicity           Mult            ....    1
 Number of Electrons    NEL             ....   48
 Basis Dimension        Dim             ....  129

MULLIKEN ATOMIC CHARGES
-----------------------
   0 N :   -0.211304
   1 C :    0.134683
   2 C :   -0.290722
   3 C :    0.258518
   4 O :   -0.366638
   5 C :    0.247038
   6 H :    0.091477
   7 H :    0.086413
   8 H :   -0.007654
   9 H :    0.012305
  10 H :    0.019062
  11 H :    0.002760
  12 H :    0.011309
  13 H :   -0.001682
  14 H :    0.014436
Sum of atomic charges:   -0.0000000

LOEWDIN ATOMIC CHARGES
----------------------
   0 N :   -0.110866
   1 C :    0.008013
   2 C :   -0.065396
   3 C :    0.087774
   4 O :   -0.186982
   5 C :    0.083103
   6 H :    0.054623
   7 H :    0.049294
   8 H :   -0.000304
   9 H :    0.023582
  10 H :    0.026304
  11 H :    0.007337
  12 H :    0.009844
  13 H :    0.003575
  14 H :    0.010099

  Mayer bond orders larger than 0.1
B(  0-N ,  1-C ) :   1.0928 B(  0-N ,  6-H ) :   0.9640 B(  0-N ,  7-H ) :   0.9702
B(  1-C ,  2-C ) :   1.0438 B(  1-C ,  8-H ) :   0.9168 B(  1-C ,  9-H ) :   0.9244
B(  2-C ,  3-C ) :   1.0701 B(  2-C ,  5-C ) :   1.0800 B(  2-C , 10-H ) :   0.9169
B(  3-C ,  4-O ) :   1.0382 B(  3-C , 11-H ) :   0.9263 B(  3-C , 12-H ) :   0.9298
B(  4-O ,  5-C ) :   1.0441 B(  5-C , 13-H ) :   0.9253 B(  5-C , 14-H ) :   0.9311

FINAL SINGLE POINT ENERGY      -287.190526507794

DIPOLE MOMENT
-------------
                                X             Y             Z
Electronic contribution:      1.23885       2.93032      -0.13551
Nuclear contribution   :     -1.44447      -3.59697       0.33329
                        -----------------------------------------
Total Dipole Moment    :     -0.20562      -0.66665       0.19778
                        -----------------------------------------
Magnitude (a.u.)       :      0.72513
Magnitude (Debye)      :      1.84315

                             ****ORCA TERMINATED NORMALLY****
TOTAL RUN TIME: 0 days 0 hours 0 minutes 6 seconds 92 msec
