                         Program Version 3.0.3 - RELEASE   -
|  1> ! RI PBE def2-SVP def2-SVP/J NBO PAL2
|  2> % maxcore 2000
|  3> % output
|  4>     # printlevel mini
|  5>     print[ P_Basis ] 0
|  6>     print[ P_SCFInfo ] 1
|  7>     print[ P_SCFIterInfo ] 1
|  8>     print[ P_OrbEn ] 0
|  9>     print[ P_Cartesian ] 0
| 10> end
| 11> *xyz 0 1
| 12>  N        0.8211530000    -0.0312970000     0.0384170000
| 13>  C        1.9705970000    -0.0316620000    -0.0014170000
| 14>  C        3.4148270000    -0.0320680000    -0.0313650000
| 15>  C        4.1601530000     0.9966610000     0.8425060000
| 16>  O        4.9714580000    -0.0300460000     1.4176470000
| 17>  C        4.1596370000    -1.0582570000     0.8459280000
| 18>  H        3.7592570000    -0.0338750000    -1.0661010000
| 19>  H        3.5228090000     1.4855140000     1.5858670000
| 20>  H        4.7498840000     1.7433720000     0.3069000000
| 21>  H        3.5220430000    -1.5443040000     1.5909120000
| 22>  H        4.7489920000    -1.8070470000     0.3128170000
| 23> *
| 24>
| 25>                          ****END OF INPUT****
 Total Charge           Charge          ....    0
 Multiplicity           Mult            ....    1
 Number of Electrons    NEL             ....   44
 Basis Dimension        Dim             ....  109

MULLIKEN ATOMIC CHARGES
-----------------------
   0 N :    0.072858
   1 C :   -0.117645
   2 C :   -0.351972
   3 C :    0.284127
   4 O :   -0.358286
   5 C :    0.284160
   6 H :    0.071167
   7 H :    0.025649
   8 H :    0.032163
   9 H :    0.025639
  10 H :    0.032139
Sum of atomic charges:   -0.0000000

LOEWDIN ATOMIC CHARGES
----------------------
   0 N :   -0.055503
   1 C :   -0.046749
   2 C :   -0.082580
   3 C :    0.110272
   4 O :   -0.173871
   5 C :    0.110286
   6 H :    0.059731
   7 H :    0.019317
   8 H :    0.019894
   9 H :    0.019315
  10 H :    0.019887

  Mayer bond orders larger than 0.1
B(  0-N ,  1-C ) :   3.0620 B(  1-C ,  2-C ) :   1.0474 B(  2-C ,  3-C ) :   1.0838
B(  2-C ,  5-C ) :   1.0837 B(  2-C ,  6-H ) :   0.8738 B(  3-C ,  4-O ) :   1.0299
B(  3-C ,  7-H ) :   0.9308 B(  3-C ,  8-H ) :   0.9378 B(  4-O ,  5-C ) :   1.0299
B(  5-C ,  9-H ) :   0.9308 B(  5-C , 10-H ) :   0.9378

FINAL SINGLE POINT ENERGY      -284.787235013336

DIPOLE MOMENT
-------------
                                X             Y             Z
Electronic contribution:     -2.52822       0.00004      -0.33805
Nuclear contribution   :      3.46996      -0.00089      -0.01733
                        -----------------------------------------
Total Dipole Moment    :      0.94174      -0.00085      -0.35537
                        -----------------------------------------
Magnitude (a.u.)       :      1.00656
Magnitude (Debye)      :      2.55848

                             ****ORCA TERMINATED NORMALLY****
TOTAL RUN TIME: 0 days 0 hours 0 minutes 5 seconds 26 msec
