                         Program Version 3.0.3 - RELEASE   -
|  1> ! RI PBE def2-SVP def2-SVP/J NBO PAL2
|  2> % maxcore 2000
|  3> % output
|  4>     # printlevel mini
|  5>     print[ P_Basis ] 0
|  6>     print[ P_SCFInfo ] 1
|  7>     print[ P_SCFIterInfo ] 1
|  8>     print[ P_OrbEn ] 0
|  9>     print[ P_Cartesian ] 0
| 10> end
| 11> *xyz 0 1
| 12>  N        1.3115000000    -0.5269260000     1.0201700000
| 13>  C        2.3355510000    -0.0354170000     0.1168260000
| 14>  C        3.0370430000    -1.1438820000    -0.6343820000
| 15>  O        4.0588240000    -0.6643800000    -1.4614490000
| 16>  C        3.2148400000    -2.5067120000    -0.0393930000
| 17>  C        2.2729120000    -2.2827200000    -1.1966860000
| 18>  H        0.6502280000     0.2033220000     1.2441160000
| 19>  H        1.7147200000    -0.8422790000     1.8924330000
| 20>  H        3.1082020000     0.5739440000     0.6160780000
| 21>  H        1.8635880000     0.6148000000    -0.6259020000
| 22>  H        4.7907950000    -0.3876090000    -0.9021070000
| 23>  H        2.7759550000    -2.7260930000     0.9262460000
| 24>  H        4.1513170000    -3.0090720000    -0.2484920000
| 25>  H        1.2124110000    -2.3205880000    -0.9832150000
| 26>  H        2.5833240000    -2.6373760000    -2.1709450000
| 27> *
| 28>
| 29>                          ****END OF INPUT****
 Total Charge           Charge          ....    0
 Multiplicity           Mult            ....    1
 Number of Electrons    NEL             ....   48
 Basis Dimension        Dim             ....  129

MULLIKEN ATOMIC CHARGES
-----------------------
   0 N :   -0.207886
   1 C :    0.145199
   2 C :   -0.097033
   3 O :   -0.241013
   4 C :   -0.045738
   5 C :    0.007165
   6 H :    0.094213
   7 H :    0.092683
   8 H :   -0.023495
   9 H :    0.015526
  10 H :    0.152785
  11 H :    0.014493
  12 H :    0.027555
  13 H :    0.036294
  14 H :    0.029251
Sum of atomic charges:   -0.0000000

LOEWDIN ATOMIC CHARGES
----------------------
   0 N :   -0.101571
   1 C :    0.000542
   2 C :   -0.005118
   3 O :   -0.090589
   4 C :   -0.064350
   5 C :   -0.041844
   6 H :    0.056873
   7 H :    0.052127
   8 H :   -0.002986
   9 H :    0.026731
  10 H :    0.068497
  11 H :    0.019524
  12 H :    0.025886
  13 H :    0.027511
  14 H :    0.028767

  Mayer bond orders larger than 0.1
B(  0-N ,  1-C ) :   1.1017 B(  0-N ,  6-H ) :   0.9644 B(  0-N ,  7-H ) :   0.9640
B(  1-C ,  2-C ) :   1.0048 B(  1-C ,  8-H ) :   0.9163 B(  1-C ,  9-H ) :   0.9244
B(  2-C ,  3-O ) :   1.0846 B(  2-C ,  4-C ) :   0.9960 B(  2-C ,  5-C ) :   0.9740
B(  3-O , 10-H ) :   0.9804 B(  4-C ,  5-C ) :   1.0207 B(  4-C , 11-H ) :   0.9304
B(  4-C , 12-H ) :   0.9387 B(  5-C , 13-H ) :   0.9349 B(  5-C , 14-H ) :   0.9378

FINAL SINGLE POINT ENERGY      -287.200328426071

DIPOLE MOMENT
-------------
                                X             Y             Z
Electronic contribution:      1.65041       0.59211      -1.82918
Nuclear contribution   :     -1.49845      -0.14697       2.70200
                        -----------------------------------------
Total Dipole Moment    :      0.15196       0.44515       0.87282
                        -----------------------------------------
Magnitude (a.u.)       :      0.99150
Magnitude (Debye)      :      2.52018

                             ****ORCA TERMINATED NORMALLY****
TOTAL RUN TIME: 0 days 0 hours 0 minutes 6 seconds 356 msec
