                         Program Version 3.0.3 - RELEASE   -
|  1> ! RI PBE def2-SVP def2-SVP/J NBO PAL2
|  2> % maxcore 2000
|  3> % output
|  4>     # printlevel mini
|  5>     print[ P_Basis ] 0
|  6>     print[ P_SCFInfo ] 1
|  7>     print[ P_SCFIterInfo ] 1
|  8>     print[ P_OrbEn ] 0
|  9>     print[ P_Cartesian ] 0
| 10> end
| 11> *xyz 0 1
| 12>  N        0.7947410000     0.0779520000    -0.1420560000
| 13>  C        2.1810400000     0.3565890000     0.1964950000
| 14>  C        3.0909690000     0.0070500000    -0.9687620000
| 15>  C        4.5212320000     0.3686010000    -0.7051700000
| 16>  C        5.4775590000    -0.5845930000    -0.1497680000
| 17>  O        5.5033860000    -0.2442910000    -1.5256180000
| 18>  H        0.1804240000     0.3368420000     0.6193950000
| 19>  H        0.6631550000    -0.9138340000    -0.3018780000
| 20>  H        2.5350100000    -0.1696160000     1.0976650000
| 21>  H        2.2642210000     1.4278840000     0.4091330000
| 22>  H        2.7363270000     0.5288820000    -1.8631120000
| 23>  H        3.0362000000    -1.0662800000    -1.1826030000
| 24>  H        4.7102040000     1.4267440000    -0.5194750000
| 25>  H        5.1464990000    -1.5975460000     0.0705170000
| 26>  H        6.3241430000    -0.2312830000     0.4340390000
| 27> *
| 28>
| 29>                          ****END OF INPUT****
 Total Charge           Charge          ....    0
 Multiplicity           Mult            ....    1
 Number of Electrons    NEL             ....   48
 Basis Dimension        Dim             ....  129

MULLIKEN ATOMIC CHARGES
-----------------------
   0 N :   -0.209326
   1 C :    0.050041
   2 C :    0.085318
   3 C :   -0.046583
   4 C :    0.146715
   5 O :   -0.286569
   6 H :    0.089130
   7 H :    0.088321
   8 H :   -0.009292
   9 H :    0.008474
  10 H :    0.023894
  11 H :   -0.006175
  12 H :    0.018065
  13 H :    0.019247
  14 H :    0.028740
Sum of atomic charges:   -0.0000000

LOEWDIN ATOMIC CHARGES
----------------------
   0 N :   -0.112668
   1 C :    0.007376
   2 C :   -0.053006
   3 C :    0.037739
   4 C :    0.051763
   5 O :   -0.155294
   6 H :    0.053522
   7 H :    0.050270
   8 H :   -0.002137
   9 H :    0.020381
  10 H :    0.034248
  11 H :    0.026405
  12 H :    0.014803
  13 H :    0.011900
  14 H :    0.014697

  Mayer bond orders larger than 0.1
B(  0-N ,  1-C ) :   1.0880 B(  0-N ,  6-H ) :   0.9640 B(  0-N ,  7-H ) :   0.9702
B(  1-C ,  2-C ) :   1.0816 B(  1-C ,  8-H ) :   0.9312 B(  1-C ,  9-H ) :   0.9331
B(  2-C ,  3-C ) :   1.0455 B(  2-C , 10-H ) :   0.9134 B(  2-C , 11-H ) :   0.9110
B(  3-C ,  4-C ) :   1.0881 B(  3-C ,  5-O ) :   0.9847 B(  3-C , 12-H ) :   0.9355
B(  4-C ,  5-O ) :   1.0053 B(  4-C , 13-H ) :   0.9277 B(  4-C , 14-H ) :   0.9392

FINAL SINGLE POINT ENERGY      -287.191550606472

DIPOLE MOMENT
-------------
                                X             Y             Z
Electronic contribution:      3.78177      -0.06691      -2.42155
Nuclear contribution   :     -4.18091      -0.11880       3.40114
                        -----------------------------------------
Total Dipole Moment    :     -0.39914      -0.18571       0.97960
                        -----------------------------------------
Magnitude (a.u.)       :      1.07397
Magnitude (Debye)      :      2.72981

                             ****ORCA TERMINATED NORMALLY****
TOTAL RUN TIME: 0 days 0 hours 0 minutes 5 seconds 922 msec
