                         Program Version 3.0.3 - RELEASE   -
|  1> ! RI PBE def2-SVP def2-SVP/J NBO PAL2
|  2> % maxcore 2000
|  3> % output
|  4>     # printlevel mini
|  5>     print[ P_Basis ] 0
|  6>     print[ P_SCFInfo ] 1
|  7>     print[ P_SCFIterInfo ] 1
|  8>     print[ P_OrbEn ] 0
|  9>     print[ P_Cartesian ] 0
| 10> end
| 11> *xyz 0 1
| 12>  N        4.7415490000     1.7264030000    -1.4699630000
| 13>  C        4.2161490000     0.9548550000    -0.7998310000
| 14>  C        3.5671620000    -0.0227310000     0.0619340000
| 15>  C        4.2885710000    -1.3479130000     0.0789510000
| 16>  C        3.5586070000    -2.5848000000     0.3270530000
| 17>  O        3.9945080000    -2.2353020000    -0.9773190000
| 18>  H        2.5396330000    -0.1700150000    -0.2810160000
| 19>  H        3.5245370000     0.3889310000     1.0755710000
| 20>  H        5.3417480000    -1.2985300000     0.3486970000
| 21>  H        2.4827450000    -2.5473740000     0.4826230000
| 22>  H        4.0709710000    -3.4287130000     0.7807000000
| 23> *
| 24>
| 25>                          ****END OF INPUT****
 Total Charge           Charge          ....    0
 Multiplicity           Mult            ....    1
 Number of Electrons    NEL             ....   44
 Basis Dimension        Dim             ....  109

MULLIKEN ATOMIC CHARGES
-----------------------
   0 N :    0.055466
   1 C :   -0.272753
   2 C :    0.147452
   3 C :   -0.035107
   4 C :    0.147211
   5 O :   -0.269259
   6 H :    0.046573
   7 H :    0.066511
   8 H :    0.041059
   9 H :    0.032030
  10 H :    0.040818
Sum of atomic charges:   -0.0000000

LOEWDIN ATOMIC CHARGES
----------------------
   0 N :   -0.057113
   1 C :   -0.043707
   2 C :   -0.062666
   3 C :    0.048357
   4 C :    0.060894
   5 O :   -0.141393
   6 H :    0.064998
   7 H :    0.066237
   8 H :    0.025124
   9 H :    0.017396
  10 H :    0.021872

  Mayer bond orders larger than 0.1
B(  0-N ,  1-C ) :   3.0586 B(  1-C ,  2-C ) :   1.1111 B(  2-C ,  3-C ) :   1.0314
B(  2-C ,  6-H ) :   0.8713 B(  2-C ,  7-H ) :   0.8930 B(  3-C ,  4-C ) :   1.0995
B(  3-C ,  5-O ) :   1.0059 B(  3-C ,  8-H ) :   0.9313 B(  4-C ,  5-O ) :   0.9951
B(  4-C ,  9-H ) :   0.9311 B(  4-C , 10-H ) :   0.9349

FINAL SINGLE POINT ENERGY      -284.788453596576

DIPOLE MOMENT
-------------
                                X             Y             Z
Electronic contribution:      1.45949       2.67539      -2.91737
Nuclear contribution   :     -2.12591      -3.53969       4.37772
                        -----------------------------------------
Total Dipole Moment    :     -0.66643      -0.86431       1.46035
                        -----------------------------------------
Magnitude (a.u.)       :      1.82313
Magnitude (Debye)      :      4.63402

                             ****ORCA TERMINATED NORMALLY****
TOTAL RUN TIME: 0 days 0 hours 0 minutes 5 seconds 130 msec
