                         Program Version 3.0.3 - RELEASE   -
|  1> ! RI PBE def2-SVP def2-SVP/J NBO PAL2
|  2> % maxcore 2000
|  3> % output
|  4>     # printlevel mini
|  5>     print[ P_Basis ] 0
|  6>     print[ P_SCFInfo ] 1
|  7>     print[ P_SCFIterInfo ] 1
|  8>     print[ P_OrbEn ] 0
|  9>     print[ P_Cartesian ] 0
| 10> end
| 11> *xyz 0 1
| 12>  N        1.6106680000     0.6446070000     0.9283580000
| 13>  C        2.6711150000     0.1550900000     0.0580350000
| 14>  C        3.1091900000    -1.2034370000     0.4935340000
| 15>  C        4.3604610000    -1.5429170000     0.7824220000
| 16>  C        4.7839700000    -2.9106300000     1.2013990000
| 17>  O        5.7405290000    -3.4704390000     0.3183730000
| 18>  H        1.2453370000     1.5252540000     0.5892080000
| 19>  H        1.9690790000     0.8046520000     1.8618360000
| 20>  H        3.5494060000     0.8149310000    -0.0072570000
| 21>  H        2.2533620000     0.0830720000    -0.9534610000
| 22>  H        2.3137570000    -1.9411140000     0.5926700000
| 23>  H        5.1565130000    -0.8047140000     0.6923330000
| 24>  H        3.9039000000    -3.5601120000     1.3016720000
| 25>  H        5.2800830000    -2.8759760000     2.1757670000
| 26>  H        5.3665290000    -3.4462780000    -0.5666890000
| 27> *
| 28>
| 29>                          ****END OF INPUT****
 Total Charge           Charge          ....    0
 Multiplicity           Mult            ....    1
 Number of Electrons    NEL             ....   48
 Basis Dimension        Dim             ....  129

MULLIKEN ATOMIC CHARGES
-----------------------
   0 N :   -0.225983
   1 C :    0.140939
   2 C :   -0.087405
   3 C :   -0.133299
   4 C :    0.250294
   5 O :   -0.294287
   6 H :    0.089112
   7 H :    0.090333
   8 H :   -0.006154
   9 H :    0.016219
  10 H :    0.001018
  11 H :   -0.000229
  12 H :   -0.004523
  13 H :    0.014132
  14 H :    0.149835
Sum of atomic charges:   -0.0000000

LOEWDIN ATOMIC CHARGES
----------------------
   0 N :   -0.110587
   1 C :    0.004653
   2 C :   -0.040584
   3 C :   -0.071457
   4 C :    0.054916
   5 O :   -0.123998
   6 H :    0.052486
   7 H :    0.051808
   8 H :    0.003982
   9 H :    0.030887
  10 H :    0.024503
  11 H :    0.022651
  12 H :    0.007461
  13 H :    0.027279
  14 H :    0.065999

  Mayer bond orders larger than 0.1
B(  0-N ,  1-C ) :   1.0619 B(  0-N ,  6-H ) :   0.9647 B(  0-N ,  7-H ) :   0.9708
B(  1-C ,  2-C ) :   1.0627 B(  1-C ,  8-H ) :   0.9246 B(  1-C ,  9-H ) :   0.9118
B(  2-C ,  3-C ) :   1.8628 B(  2-C , 10-H ) :   0.9556 B(  3-C ,  4-C ) :   1.0640
B(  3-C , 11-H ) :   0.9541 B(  4-C ,  5-O ) :   1.0305 B(  4-C , 12-H ) :   0.9336
B(  4-C , 13-H ) :   0.9170 B(  5-O , 14-H ) :   0.9856

FINAL SINGLE POINT ENERGY      -287.199834694948

DIPOLE MOMENT
-------------
                                X             Y             Z
Electronic contribution:      2.05088      -2.31565      -0.26327
Nuclear contribution   :     -2.35603       2.99055       0.07095
                        -----------------------------------------
Total Dipole Moment    :     -0.30514       0.67490      -0.19232
                        -----------------------------------------
Magnitude (a.u.)       :      0.76524
Magnitude (Debye)      :      1.94508

                             ****ORCA TERMINATED NORMALLY****
TOTAL RUN TIME: 0 days 0 hours 0 minutes 5 seconds 992 msec
