                         Program Version 3.0.3 - RELEASE   -
|  1> ! RI PBE def2-SVP def2-SVP/J NBO PAL2
|  2> % maxcore 2000
|  3> % output
|  4>     # printlevel mini
|  5>     print[ P_Basis ] 0
|  6>     print[ P_SCFInfo ] 1
|  7>     print[ P_SCFIterInfo ] 1
|  8>     print[ P_OrbEn ] 0
|  9>     print[ P_Cartesian ] 0
| 10> end
| 11> *xyz 0 1
| 12>  N        2.8949420000     1.3351000000     0.1769080000
| 13>  C        2.2864380000     0.0166870000    -0.0011010000
| 14>  C        2.8375560000    -0.6771190000    -1.2128780000
| 15>  C        2.0553770000    -1.3453400000    -2.0524550000
| 16>  C        4.3294290000    -0.5633720000    -1.4194600000
| 17>  O        5.0566210000    -0.4808220000    -0.2195040000
| 18>  H        2.5888860000     1.7564340000     1.0444640000
| 19>  H        2.6227510000     1.9591400000    -0.5730470000
| 20>  H        1.1904420000     0.0331570000    -0.0560430000
| 21>  H        2.5556510000    -0.5781920000     0.8787050000
| 22>  H        0.9777550000    -1.3694700000    -1.9295970000
| 23>  H        2.4664340000    -1.8958960000    -2.8922690000
| 24>  H        4.5293140000     0.3148570000    -2.0527190000
| 25>  H        4.6944000000    -1.4360980000    -1.9653830000
| 26>  H        4.7474140000     0.3367540000     0.2000790000
| 27> *
| 28>
| 29>                          ****END OF INPUT****
 Total Charge           Charge          ....    0
 Multiplicity           Mult            ....    1
 Number of Electrons    NEL             ....   48
 Basis Dimension        Dim             ....  129

MULLIKEN ATOMIC CHARGES
-----------------------
   0 N :   -0.237481
   1 C :    0.127239
   2 C :   -0.219885
   3 C :   -0.048234
   4 C :    0.259888
   5 O :   -0.299148
   6 H :    0.101864
   7 H :    0.104010
   8 H :    0.003244
   9 H :    0.033850
  10 H :    0.010159
  11 H :    0.009056
  12 H :    0.004172
  13 H :    0.008214
  14 H :    0.143052
Sum of atomic charges:    0.0000000

LOEWDIN ATOMIC CHARGES
----------------------
   0 N :   -0.089488
   1 C :    0.009593
   2 C :   -0.054462
   3 C :   -0.077749
   4 C :    0.058729
   5 O :   -0.130734
   6 H :    0.058799
   7 H :    0.058581
   8 H :    0.012420
   9 H :    0.035489
  10 H :    0.019139
  11 H :    0.021361
  12 H :    0.012894
  13 H :    0.026232
  14 H :    0.039195

  Mayer bond orders larger than 0.1
B(  0-N ,  1-C ) :   1.0390 B(  0-N ,  6-H ) :   0.9622 B(  0-N ,  7-H ) :   0.9674
B(  0-N , 14-H ) :   0.1111 B(  1-C ,  2-C ) :   1.0595 B(  1-C ,  8-H ) :   0.9244
B(  1-C ,  9-H ) :   0.9096 B(  2-C ,  3-C ) :   1.9887 B(  2-C ,  4-C ) :   0.9893
B(  3-C , 10-H ) :   0.9320 B(  3-C , 11-H ) :   0.9343 B(  4-C ,  5-O ) :   1.0811
B(  4-C , 12-H ) :   0.9196 B(  4-C , 13-H ) :   0.9305 B(  5-O , 14-H ) :   0.9481

FINAL SINGLE POINT ENERGY      -287.205786428197

DIPOLE MOMENT
-------------
                                X             Y             Z
Electronic contribution:      2.05641      -0.41589       0.67598
Nuclear contribution   :     -2.97744       1.18981      -0.60633
                        -----------------------------------------
Total Dipole Moment    :     -0.92103       0.77392       0.06964
                        -----------------------------------------
Magnitude (a.u.)       :      1.20503
Magnitude (Debye)      :      3.06295

                             ****ORCA TERMINATED NORMALLY****
TOTAL RUN TIME: 0 days 0 hours 0 minutes 6 seconds 64 msec
