                         Program Version 3.0.3 - RELEASE   -
|  1> ! RI PBE def2-SVP def2-SVP/J NBO PAL2
|  2> % maxcore 2000
|  3> % output
|  4>     # printlevel mini
|  5>     print[ P_Basis ] 0
|  6>     print[ P_SCFInfo ] 1
|  7>     print[ P_SCFIterInfo ] 1
|  8>     print[ P_OrbEn ] 0
|  9>     print[ P_Cartesian ] 0
| 10> end
| 11> *xyz 0 1
| 12>  N        0.9795940000    -0.1525960000     0.1085970000
| 13>  C        2.4299670000    -0.0319520000     0.0251140000
| 14>  C        2.9447950000    -0.6155800000    -1.2045670000
| 15>  C        3.3584650000    -1.1268300000    -2.2119950000
| 16>  C        3.8915000000    -1.7381620000    -3.4223460000
| 17>  O        4.3983260000    -3.0427040000    -3.2265710000
| 18>  H        0.6567070000     0.1906630000     1.0048610000
| 19>  H        0.7093370000    -1.1259970000     0.0405710000
| 20>  H        2.9702340000    -0.4951190000     0.8664580000
| 21>  H        2.6871380000     1.0327440000     0.0437610000
| 22>  H        4.6578140000    -1.0758460000    -3.8489970000
| 23>  H        3.0979790000    -1.8300840000    -4.1683730000
| 24>  H        4.9922430000    -3.0176360000    -2.4716130000
| 25> *
| 26>
| 27>                          ****END OF INPUT****
 Total Charge           Charge          ....    0
 Multiplicity           Mult            ....    1
 Number of Electrons    NEL             ....   46
 Basis Dimension        Dim             ....  119

MULLIKEN ATOMIC CHARGES
-----------------------
   0 N :   -0.215109
   1 C :    0.174662
   2 C :   -0.169124
   3 C :   -0.201801
   4 C :    0.252802
   5 O :   -0.282295
   6 H :    0.089238
   7 H :    0.094996
   8 H :    0.014442
   9 H :    0.026355
  10 H :    0.025734
  11 H :    0.036130
  12 H :    0.153970
Sum of atomic charges:   -0.0000000

LOEWDIN ATOMIC CHARGES
----------------------
   0 N :   -0.106092
   1 C :    0.001375
   2 C :   -0.054155
   3 C :   -0.085771
   4 C :    0.048427
   5 O :   -0.116635
   6 H :    0.053370
   7 H :    0.054276
   8 H :    0.022561
   9 H :    0.043115
  10 H :    0.026504
  11 H :    0.044065
  12 H :    0.068962

  Mayer bond orders larger than 0.1
B(  0-N ,  1-C ) :   1.0827 B(  0-N ,  6-H ) :   0.9612 B(  0-N ,  7-H ) :   0.9683
B(  1-C ,  2-C ) :   1.0736 B(  1-C ,  8-H ) :   0.8966 B(  1-C ,  9-H ) :   0.8889
B(  2-C ,  3-C ) :   2.6866 B(  3-C ,  4-C ) :   1.0256 B(  4-C ,  5-O ) :   1.0664
B(  4-C , 10-H ) :   0.9197 B(  4-C , 11-H ) :   0.8978 B(  5-O , 12-H ) :   0.9850

FINAL SINGLE POINT ENERGY      -285.956284855922

DIPOLE MOMENT
-------------
                                X             Y             Z
Electronic contribution:      1.40827      -1.51093      -1.97673
Nuclear contribution   :     -1.16914       1.71596       2.82567
                        -----------------------------------------
Total Dipole Moment    :      0.23913       0.20503       0.84893
                        -----------------------------------------
Magnitude (a.u.)       :      0.90548
Magnitude (Debye)      :      2.30156

                             ****ORCA TERMINATED NORMALLY****
TOTAL RUN TIME: 0 days 0 hours 0 minutes 5 seconds 279 msec
