                         Program Version 3.0.3 - RELEASE   -
|  1> ! RI PBE def2-SVP def2-SVP/J NBO PAL2
|  2> % maxcore 2000
|  3> % output
|  4>     # printlevel mini
|  5>     print[ P_Basis ] 0
|  6>     print[ P_SCFInfo ] 1
|  7>     print[ P_SCFIterInfo ] 1
|  8>     print[ P_OrbEn ] 0
|  9>     print[ P_Cartesian ] 0
| 10> end
| 11> *xyz 0 1
| 12>  N        1.2938280000     0.0439840000     0.3996780000
| 13>  C        2.6290470000    -0.0740740000    -0.1718420000
| 14>  C        2.9390790000    -1.4650930000    -0.7111820000
| 15>  O        2.7332340000    -2.4615020000     0.2722260000
| 16>  C        2.8262580000     1.0290940000    -1.1658280000
| 17>  C        3.2405250000     0.9068930000    -2.4196320000
| 18>  H        1.1249410000    -0.7551330000     1.0012750000
| 19>  H        0.6041450000     0.0001130000    -0.3431960000
| 20>  H        3.3347170000     0.1138450000     0.6544910000
| 21>  H        3.9633600000    -1.5084100000    -1.1035610000
| 22>  H        2.2551440000    -1.7067600000    -1.5296990000
| 23>  H        3.4350250000    -2.3922780000     0.9246870000
| 24>  H        2.5721120000     2.0141620000    -0.7810210000
| 25>  H        3.4966350000    -0.0493250000    -2.8623700000
| 26>  H        3.3429380000     1.7764840000    -3.0584340000
| 27> *
| 28>
| 29>                          ****END OF INPUT****
 Total Charge           Charge          ....    0
 Multiplicity           Mult            ....    1
 Number of Electrons    NEL             ....   48
 Basis Dimension        Dim             ....  129

MULLIKEN ATOMIC CHARGES
-----------------------
   0 N :   -0.188174
   1 C :    0.008661
   2 C :    0.179939
   3 O :   -0.275694
   4 C :   -0.073406
   5 C :   -0.032006
   6 H :    0.080966
   7 H :    0.085239
   8 H :    0.002295
   9 H :    0.002824
  10 H :    0.007245
  11 H :    0.151495
  12 H :    0.005810
  13 H :    0.018207
  14 H :    0.026599
Sum of atomic charges:    0.0000000

LOEWDIN ATOMIC CHARGES
----------------------
   0 N :   -0.093445
   1 C :   -0.029402
   2 C :    0.040560
   3 O :   -0.117023
   4 C :   -0.025887
   5 C :   -0.066086
   6 H :    0.045025
   7 H :    0.051349
   8 H :    0.027924
   9 H :    0.005659
  10 H :    0.017016
  11 H :    0.068360
  12 H :    0.028402
  13 H :    0.020107
  14 H :    0.027441

  Mayer bond orders larger than 0.1
B(  0-N ,  1-C ) :   1.0715 B(  0-N ,  6-H ) :   0.9545 B(  0-N ,  7-H ) :   0.9709
B(  1-C ,  2-C ) :   1.0341 B(  1-C ,  4-C ) :   1.0053 B(  1-C ,  8-H ) :   0.8751
B(  2-C ,  3-O ) :   1.0536 B(  2-C ,  9-H ) :   0.9230 B(  2-C , 10-H ) :   0.9178
B(  3-O , 11-H ) :   0.9853 B(  4-C ,  5-C ) :   2.0029 B(  4-C , 12-H ) :   0.9553
B(  5-C , 13-H ) :   0.9308 B(  5-C , 14-H ) :   0.9402

FINAL SINGLE POINT ENERGY      -287.199439843101

DIPOLE MOMENT
-------------
                                X             Y             Z
Electronic contribution:     -0.33098      -1.27101       1.65839
Nuclear contribution   :      0.73668       1.16010      -1.71059
                        -----------------------------------------
Total Dipole Moment    :      0.40570      -0.11091      -0.05220
                        -----------------------------------------
Magnitude (a.u.)       :      0.42381
Magnitude (Debye)      :      1.07725

                             ****ORCA TERMINATED NORMALLY****
TOTAL RUN TIME: 0 days 0 hours 0 minutes 6 seconds 17 msec
