                         Program Version 3.0.3 - RELEASE   -
|  1> ! RI PBE def2-SVP def2-SVP/J NBO PAL2
|  2> % maxcore 2000
|  3> % output
|  4>     # printlevel mini
|  5>     print[ P_Basis ] 0
|  6>     print[ P_SCFInfo ] 1
|  7>     print[ P_SCFIterInfo ] 1
|  8>     print[ P_OrbEn ] 0
|  9>     print[ P_Cartesian ] 0
| 10> end
| 11> *xyz 0 1
| 12>  N        1.0266130000     0.1028000000    -0.0015290000
| 13>  C        2.4780990000     0.0295500000    -0.0385770000
| 14>  C        3.0261850000    -1.3235020000    -0.5219500000
| 15>  O        4.4259290000    -1.3907330000    -0.5046660000
| 16>  C        3.0242680000     1.0888820000    -0.8824640000
| 17>  C        3.5140550000     1.9015960000    -1.6188180000
| 18>  H        0.6562040000    -0.6423270000     0.5761770000
| 19>  H        0.6426950000    -0.0068330000    -0.9326530000
| 20>  H        2.8514730000     0.1914500000     0.9798460000
| 21>  H        2.6168740000    -1.5266690000    -1.5229880000
| 22>  H        2.6662980000    -2.1042580000     0.1537150000
| 23>  H        4.7587180000    -0.6750550000    -1.0575000000
| 24>  H        3.9300990000     2.6475870000    -2.2543920000
| 25> *
| 26>
| 27>                          ****END OF INPUT****
 Total Charge           Charge          ....    0
 Multiplicity           Mult            ....    1
 Number of Electrons    NEL             ....   46
 Basis Dimension        Dim             ....  119

MULLIKEN ATOMIC CHARGES
-----------------------
   0 N :   -0.166706
   1 C :    0.013469
   2 C :    0.187345
   3 O :   -0.273399
   4 C :    0.348111
   5 C :   -0.488263
   6 H :    0.093395
   7 H :    0.095664
   8 H :    0.031421
   9 H :   -0.010475
  10 H :    0.008500
  11 H :    0.156005
  12 H :    0.004932
Sum of atomic charges:    0.0000000

LOEWDIN ATOMIC CHARGES
----------------------
   0 N :   -0.077377
   1 C :   -0.031315
   2 C :    0.044413
   3 O :   -0.113033
   4 C :   -0.020484
   5 C :   -0.080598
   6 H :    0.055127
   7 H :    0.054170
   8 H :    0.045452
   9 H :    0.000336
  10 H :    0.018343
  11 H :    0.067493
  12 H :    0.037474

  Mayer bond orders larger than 0.1
B(  0-N ,  1-C ) :   1.0857 B(  0-N ,  6-H ) :   0.9658 B(  0-N ,  7-H ) :   0.9633
B(  1-C ,  2-C ) :   0.9966 B(  1-C ,  4-C ) :   0.9933 B(  1-C ,  8-H ) :   0.8590
B(  2-C ,  3-O ) :   1.0794 B(  2-C ,  9-H ) :   0.9193 B(  2-C , 10-H ) :   0.9337
B(  3-O , 11-H ) :   0.9762 B(  4-C ,  5-C ) :   2.3357 B(  4-C , 12-H ) :  -0.1130
B(  5-C , 12-H ) :   1.1035

FINAL SINGLE POINT ENERGY      -285.955217896746

DIPOLE MOMENT
-------------
                                X             Y             Z
Electronic contribution:      1.83439       1.71136      -0.32441
Nuclear contribution   :     -2.13091      -1.80663      -0.02461
                        -----------------------------------------
Total Dipole Moment    :     -0.29652      -0.09527      -0.34902
                        -----------------------------------------
Magnitude (a.u.)       :      0.46778
Magnitude (Debye)      :      1.18900

                             ****ORCA TERMINATED NORMALLY****
TOTAL RUN TIME: 0 days 0 hours 0 minutes 5 seconds 750 msec
