                         Program Version 3.0.3 - RELEASE   -
|  1> ! RI PBE def2-SVP def2-SVP/J NBO PAL2
|  2> % maxcore 2000
|  3> % output
|  4>     # printlevel mini
|  5>     print[ P_Basis ] 0
|  6>     print[ P_SCFInfo ] 1
|  7>     print[ P_SCFIterInfo ] 1
|  8>     print[ P_OrbEn ] 0
|  9>     print[ P_Cartesian ] 0
| 10> end
| 11> *xyz 0 1
| 12>  N        2.5462510000    -1.3005200000    -0.5287570000
| 13>  C        2.5025950000     0.0259890000     0.0738110000
| 14>  C        3.1373660000    -0.0304870000     1.4659460000
| 15>  O        2.5278500000    -1.0647150000     2.2055760000
| 16>  C        4.6250210000    -0.2177290000     1.4032770000
| 17>  C        5.5135350000     0.7035920000     1.7449680000
| 18>  H        3.4398300000    -1.4808480000    -0.9673190000
| 19>  H        1.8328620000    -1.4116530000    -1.2348460000
| 20>  H        1.4523670000     0.3004830000     0.2022240000
| 21>  H        2.9853480000     0.8082480000    -0.5253510000
| 22>  H        2.9245900000     0.9127480000     1.9801150000
| 23>  H        2.3579900000    -1.7616500000     1.5527610000
| 24>  H        4.9641190000    -1.1957620000     1.0649320000
| 25>  H        5.2034200000     1.6773260000     2.1131010000
| 26>  H        6.5801750000     0.5221800000     1.6791620000
| 27> *
| 28>
| 29>                          ****END OF INPUT****
 Total Charge           Charge          ....    0
 Multiplicity           Mult            ....    1
 Number of Electrons    NEL             ....   48
 Basis Dimension        Dim             ....  129

MULLIKEN ATOMIC CHARGES
-----------------------
   0 N :   -0.231176
   1 C :    0.065187
   2 C :    0.139713
   3 O :   -0.278887
   4 C :   -0.045293
   5 C :   -0.039458
   6 H :    0.098594
   7 H :    0.106472
   8 H :    0.016935
   9 H :    0.004874
  10 H :   -0.008756
  11 H :    0.138288
  12 H :   -0.007293
  13 H :    0.015878
  14 H :    0.024922
Sum of atomic charges:    0.0000000

LOEWDIN ATOMIC CHARGES
----------------------
   0 N :   -0.092422
   1 C :   -0.003342
   2 C :    0.032872
   3 O :   -0.113468
   4 C :   -0.041378
   5 C :   -0.064525
   6 H :    0.056423
   7 H :    0.060054
   8 H :    0.025013
   9 H :    0.008932
  10 H :    0.021775
  11 H :    0.043342
  12 H :    0.021289
  13 H :    0.021313
  14 H :    0.024121

  Mayer bond orders larger than 0.1
B(  0-N ,  1-C ) :   1.0857 B(  0-N ,  6-H ) :   0.9685 B(  0-N ,  7-H ) :   0.9678
B(  0-N , 11-H ) :   0.1098 B(  1-C ,  2-C ) :   1.0326 B(  1-C ,  8-H ) :   0.9302
B(  1-C ,  9-H ) :   0.9319 B(  2-C ,  3-O ) :   1.0394 B(  2-C ,  4-C ) :   1.0001
B(  2-C , 10-H ) :   0.9086 B(  3-O , 11-H ) :   0.9523 B(  4-C ,  5-C ) :   2.0051
B(  4-C , 12-H ) :   0.9448 B(  5-C , 13-H ) :   0.9433 B(  5-C , 14-H ) :   0.9423

FINAL SINGLE POINT ENERGY      -287.204650855981

DIPOLE MOMENT
-------------
                                X             Y             Z
Electronic contribution:     -0.91645      -1.37077       2.00571
Nuclear contribution   :      0.91618       1.47130      -3.22129
                        -----------------------------------------
Total Dipole Moment    :     -0.00027       0.10054      -1.21558
                        -----------------------------------------
Magnitude (a.u.)       :      1.21973
Magnitude (Debye)      :      3.10030

                             ****ORCA TERMINATED NORMALLY****
TOTAL RUN TIME: 0 days 0 hours 0 minutes 6 seconds 23 msec
