                         Program Version 3.0.3 - RELEASE   -
|  1> ! RI PBE def2-SVP def2-SVP/J NBO PAL2
|  2> % maxcore 2000
|  3> % output
|  4>     # printlevel mini
|  5>     print[ P_Basis ] 0
|  6>     print[ P_SCFInfo ] 1
|  7>     print[ P_SCFIterInfo ] 1
|  8>     print[ P_OrbEn ] 0
|  9>     print[ P_Cartesian ] 0
| 10> end
| 11> *xyz 0 1
| 12>  N        2.8442640000     0.4096640000    -1.2114350000
| 13>  C        2.4431140000    -0.1362280000     0.0680020000
| 14>  C        2.9819160000     0.7259350000     1.2101710000
| 15>  O        2.4799520000     0.2974160000     2.4596820000
| 16>  C        4.4445520000     0.7570700000     1.1944130000
| 17>  C        5.6453020000     0.7300550000     1.1768510000
| 18>  H        2.3857820000    -0.0747640000    -1.9711170000
| 19>  H        3.8436980000     0.3099970000    -1.3429880000
| 20>  H        2.7616430000    -1.1763320000     0.2473590000
| 21>  H        1.3534000000    -0.1102430000     0.1424790000
| 22>  H        2.6099370000     1.7446310000     1.0660320000
| 23>  H        2.9608930000    -0.4933950000     2.7205720000
| 24>  H        6.7099580000     0.7268250000     1.1732770000
| 25> *
| 26>
| 27>                          ****END OF INPUT****
 Total Charge           Charge          ....    0
 Multiplicity           Mult            ....    1
 Number of Electrons    NEL             ....   46
 Basis Dimension        Dim             ....  119

MULLIKEN ATOMIC CHARGES
-----------------------
   0 N :   -0.215712
   1 C :    0.077183
   2 C :    0.183498
   3 O :   -0.261903
   4 C :    0.321981
   5 C :   -0.487849
   6 H :    0.095329
   7 H :    0.095279
   8 H :   -0.017739
   9 H :    0.023335
  10 H :    0.025601
  11 H :    0.158230
  12 H :    0.002767
Sum of atomic charges:   -0.0000000

LOEWDIN ATOMIC CHARGES
----------------------
   0 N :   -0.106837
   1 C :   -0.000564
   2 C :    0.032124
   3 O :   -0.094037
   4 C :   -0.036482
   5 C :   -0.077177
   6 H :    0.056167
   7 H :    0.053034
   8 H :   -0.003979
   9 H :    0.026964
  10 H :    0.043937
  11 H :    0.070538
  12 H :    0.036312

  Mayer bond orders larger than 0.1
B(  0-N ,  1-C ) :   1.0839 B(  0-N ,  6-H ) :   0.9622 B(  0-N ,  7-H ) :   0.9645
B(  1-C ,  2-C ) :   1.0300 B(  1-C ,  8-H ) :   0.9094 B(  1-C ,  9-H ) :   0.9287
B(  2-C ,  3-O ) :   1.0455 B(  2-C ,  4-C ) :   0.9974 B(  2-C , 10-H ) :   0.8594
B(  3-O , 11-H ) :   0.9792 B(  4-C ,  5-C ) :   2.3496 B(  4-C , 12-H ) :  -0.1151
B(  5-C , 12-H ) :   1.1057

FINAL SINGLE POINT ENERGY      -285.954742980162

DIPOLE MOMENT
-------------
                                X             Y             Z
Electronic contribution:      1.46342       1.19587       2.93367
Nuclear contribution   :     -1.06544      -1.93952      -3.34482
                        -----------------------------------------
Total Dipole Moment    :      0.39797      -0.74365      -0.41116
                        -----------------------------------------
Magnitude (a.u.)       :      0.93833
Magnitude (Debye)      :      2.38503

                             ****ORCA TERMINATED NORMALLY****
TOTAL RUN TIME: 0 days 0 hours 0 minutes 5 seconds 686 msec
