                         Program Version 3.0.3 - RELEASE   -
|  1> ! RI PBE def2-SVP def2-SVP/J NBO PAL2
|  2> % maxcore 2000
|  3> % output
|  4>     # printlevel mini
|  5>     print[ P_Basis ] 0
|  6>     print[ P_SCFInfo ] 1
|  7>     print[ P_SCFIterInfo ] 1
|  8>     print[ P_OrbEn ] 0
|  9>     print[ P_Cartesian ] 0
| 10> end
| 11> *xyz 0 1
| 12>  N        0.5527170000    -0.4906710000     1.4900080000
| 13>  C        0.8292550000    -0.5808070000     0.0679010000
| 14>  C        2.3143730000    -0.5404140000    -0.1809910000
| 15>  O        2.7836880000     0.7401790000     0.2035760000
| 16>  C        4.1021910000     0.9704880000     0.0793130000
| 17>  C        5.0413860000     0.1443570000    -0.3720870000
| 18>  H       -0.4436280000    -0.5080830000     1.6641990000
| 19>  H        0.9045520000     0.3885040000     1.8490980000
| 20>  H        0.3558490000     0.2085270000    -0.5366930000
| 21>  H        0.4563410000    -1.5401810000    -0.3038290000
| 22>  H        2.5357140000    -0.7086920000    -1.2421420000
| 23>  H        2.8198070000    -1.3095220000     0.4149780000
| 24>  H        4.3395470000     1.9772940000     0.4071990000
| 25>  H        4.8413950000    -0.8646150000    -0.7049320000
| 26>  H        6.0638330000     0.4933440000    -0.4081990000
| 27> *
| 28>
| 29>                          ****END OF INPUT****
 Total Charge           Charge          ....    0
 Multiplicity           Mult            ....    1
 Number of Electrons    NEL             ....   48
 Basis Dimension        Dim             ....  129

MULLIKEN ATOMIC CHARGES
-----------------------
   0 N :   -0.225138
   1 C :    0.091424
   2 C :    0.120012
   3 O :   -0.273032
   4 C :    0.109586
   5 C :   -0.116099
   6 H :    0.089729
   7 H :    0.093231
   8 H :    0.003267
   9 H :    0.006189
  10 H :    0.017938
  11 H :    0.022588
  12 H :    0.008627
  13 H :    0.027696
  14 H :    0.023980
Sum of atomic charges:   -0.0000000

LOEWDIN ATOMIC CHARGES
----------------------
   0 N :   -0.111292
   1 C :   -0.001999
   2 C :    0.064238
   3 O :   -0.071213
   4 C :    0.031456
   5 C :   -0.156849
   6 H :    0.053006
   7 H :    0.050122
   8 H :    0.005671
   9 H :    0.026858
  10 H :    0.015878
  11 H :    0.017620
  12 H :    0.022333
  13 H :    0.022546
  14 H :    0.031626

  Mayer bond orders larger than 0.1
B(  0-N ,  1-C ) :   1.0902 B(  0-N ,  6-H ) :   0.9681 B(  0-N ,  7-H ) :   0.9646
B(  1-C ,  2-C ) :   1.0925 B(  1-C ,  8-H ) :   0.9200 B(  1-C ,  9-H ) :   0.9256
B(  2-C ,  3-O ) :   0.9647 B(  2-C , 10-H ) :   0.9320 B(  2-C , 11-H ) :   0.9226
B(  3-O ,  4-C ) :   1.1580 B(  3-O ,  5-C ) :   0.1032 B(  4-C ,  5-C ) :   1.8668
B(  4-C , 12-H ) :   0.9636 B(  5-C , 13-H ) :   0.9502 B(  5-C , 14-H ) :   0.9369

FINAL SINGLE POINT ENERGY      -287.201614731484

DIPOLE MOMENT
-------------
                                X             Y             Z
Electronic contribution:      0.55394       2.11257       0.70350
Nuclear contribution   :     -0.99300      -2.03282      -0.90157
                        -----------------------------------------
Total Dipole Moment    :     -0.43906       0.07975      -0.19807
                        -----------------------------------------
Magnitude (a.u.)       :      0.48823
Magnitude (Debye)      :      1.24097

                             ****ORCA TERMINATED NORMALLY****
TOTAL RUN TIME: 0 days 0 hours 0 minutes 6 seconds 78 msec
