                         Program Version 3.0.3 - RELEASE   -
|  1> ! RI PBE def2-SVP def2-SVP/J NBO PAL2
|  2> % maxcore 2000
|  3> % output
|  4>     # printlevel mini
|  5>     print[ P_Basis ] 0
|  6>     print[ P_SCFInfo ] 1
|  7>     print[ P_SCFIterInfo ] 1
|  8>     print[ P_OrbEn ] 0
|  9>     print[ P_Cartesian ] 0
| 10> end
| 11> *xyz 0 1
| 12>  N        0.9920230000    -0.1193350000     0.0526460000
| 13>  C        2.3184210000     0.1504360000    -0.0774080000
| 14>  O        2.8497280000     1.0495410000     0.5419750000
| 15>  C        3.0996470000    -0.7105080000    -1.0106830000
| 16>  C        2.8064430000    -2.1782480000    -1.1774290000
| 17>  C        2.5123710000    -1.2385010000    -2.2931490000
| 18>  H        0.4540860000     0.4692040000     0.6634200000
| 19>  H        0.5228850000    -0.8346710000    -0.4695710000
| 20>  H        4.1387840000    -0.4105440000    -1.0329220000
| 21>  H        1.9809800000    -2.5944190000    -0.6127930000
| 22>  H        3.6563400000    -2.8418860000    -1.2716910000
| 23>  H        1.4801130000    -0.9954480000    -2.5143760000
| 24>  H        3.1585780000    -1.2495210000    -3.1614180000
| 25> *
| 26>
| 27>                          ****END OF INPUT****
 Total Charge           Charge          ....    0
 Multiplicity           Mult            ....    1
 Number of Electrons    NEL             ....   46
 Basis Dimension        Dim             ....  119

MULLIKEN ATOMIC CHARGES
-----------------------
   0 N :   -0.074455
   1 C :    0.063638
   2 O :   -0.194756
   3 C :   -0.146560
   4 C :   -0.029542
   5 C :   -0.039313
   6 H :    0.119040
   7 H :    0.101577
   8 H :    0.030345
   9 H :    0.036249
  10 H :    0.050448
  11 H :    0.034175
  12 H :    0.049155
Sum of atomic charges:    0.0000000

LOEWDIN ATOMIC CHARGES
----------------------
   0 N :    0.006216
   1 C :    0.029715
   2 O :   -0.192668
   3 C :   -0.063544
   4 C :   -0.036263
   5 C :   -0.035896
   6 H :    0.074167
   7 H :    0.064473
   8 H :    0.040067
   9 H :    0.022838
  10 H :    0.034580
  11 H :    0.021998
  12 H :    0.034317

  Mayer bond orders larger than 0.1
B(  0-N ,  1-C ) :   1.2429 B(  0-N ,  6-H ) :   0.9370 B(  0-N ,  7-H ) :   0.9403
B(  1-C ,  2-O ) :   2.1248 B(  1-C ,  3-C ) :   0.9862 B(  3-C ,  4-C ) :   0.9394
B(  3-C ,  5-C ) :   0.9419 B(  3-C ,  8-H ) :   0.9338 B(  4-C ,  5-C ) :   1.0476
B(  4-C ,  9-H ) :   0.9509 B(  4-C , 10-H ) :   0.9453 B(  5-C , 11-H ) :   0.9527
B(  5-C , 12-H ) :   0.9464

FINAL SINGLE POINT ENERGY      -286.043644661492

DIPOLE MOMENT
-------------
                                X             Y             Z
Electronic contribution:      0.42194       3.76581       3.07999
Nuclear contribution   :     -1.29977      -4.73281      -3.70649
                        -----------------------------------------
Total Dipole Moment    :     -0.87783      -0.96700      -0.62651
                        -----------------------------------------
Magnitude (a.u.)       :      1.44851
Magnitude (Debye)      :      3.68183

                             ****ORCA TERMINATED NORMALLY****
TOTAL RUN TIME: 0 days 0 hours 0 minutes 5 seconds 630 msec
