                         Program Version 3.0.3 - RELEASE   -
|  1> ! RI PBE def2-SVP def2-SVP/J NBO PAL2
|  2> % maxcore 2000
|  3> % output
|  4>     # printlevel mini
|  5>     print[ P_Basis ] 0
|  6>     print[ P_SCFInfo ] 1
|  7>     print[ P_SCFIterInfo ] 1
|  8>     print[ P_OrbEn ] 0
|  9>     print[ P_Cartesian ] 0
| 10> end
| 11> *xyz 0 1
| 12>  N        2.7095120000     1.6204770000    -0.1254140000
| 13>  C        2.3357460000     0.3355260000     0.0726370000
| 14>  O        1.3610960000     0.0224660000     0.7210170000
| 15>  C        3.2096630000    -0.7073640000    -0.6191320000
| 16>  C        4.6360780000    -0.3203570000    -0.8227730000
| 17>  C        5.1925400000    -0.0678620000    -2.0008830000
| 18>  H        2.1444760000     2.3526240000     0.2675410000
| 19>  H        3.5183960000     1.8474320000    -0.6760680000
| 20>  H        2.7333130000    -0.9240870000    -1.5810830000
| 21>  H        3.1265520000    -1.6103900000    -0.0105770000
| 22>  H        5.2427670000    -0.2339370000     0.0767270000
| 23>  H        4.6255390000    -0.1494010000    -2.9236130000
| 24>  H        6.2355210000     0.2141640000    -2.0876790000
| 25> *
| 26>
| 27>                          ****END OF INPUT****
 Total Charge           Charge          ....    0
 Multiplicity           Mult            ....    1
 Number of Electrons    NEL             ....   46
 Basis Dimension        Dim             ....  119

MULLIKEN ATOMIC CHARGES
-----------------------
   0 N :   -0.048889
   1 C :   -0.052955
   2 O :   -0.200846
   3 C :    0.102748
   4 C :   -0.147217
   5 C :   -0.033606
   6 H :    0.117572
   7 H :    0.111410
   8 H :    0.039478
   9 H :    0.035542
  10 H :    0.019399
  11 H :    0.024021
  12 H :    0.033343
Sum of atomic charges:    0.0000000

LOEWDIN ATOMIC CHARGES
----------------------
   0 N :    0.015831
   1 C :    0.023823
   2 O :   -0.191209
   3 C :   -0.066709
   4 C :   -0.039290
   5 C :   -0.064688
   6 H :    0.073906
   7 H :    0.067879
   8 H :    0.049444
   9 H :    0.050389
  10 H :    0.030165
  11 H :    0.023350
  12 H :    0.027110

  Mayer bond orders larger than 0.1
B(  0-N ,  1-C ) :   1.2642 B(  0-N ,  6-H ) :   0.9410 B(  0-N ,  7-H ) :   0.9262
B(  1-C ,  2-O ) :   2.1166 B(  1-C ,  3-C ) :   0.9406 B(  3-C ,  4-C ) :   1.0476
B(  3-C ,  8-H ) :   0.9105 B(  3-C ,  9-H ) :   0.9024 B(  4-C ,  5-C ) :   1.9606
B(  4-C , 10-H ) :   0.9655 B(  5-C , 11-H ) :   0.9512 B(  5-C , 12-H ) :   0.9464

FINAL SINGLE POINT ENERGY      -286.047927788668

DIPOLE MOMENT
-------------
                                X             Y             Z
Electronic contribution:     -3.92962       0.48012       2.93707
Nuclear contribution   :      4.88174       0.21828      -3.57868
                        -----------------------------------------
Total Dipole Moment    :      0.95212       0.69840      -0.64161
                        -----------------------------------------
Magnitude (a.u.)       :      1.34386
Magnitude (Debye)      :      3.41581

                             ****ORCA TERMINATED NORMALLY****
TOTAL RUN TIME: 0 days 0 hours 0 minutes 5 seconds 732 msec
