                         Program Version 3.0.3 - RELEASE   -
|  1> ! RI PBE def2-SVP def2-SVP/J NBO PAL2
|  2> % maxcore 2000
|  3> % output
|  4>     # printlevel mini
|  5>     print[ P_Basis ] 0
|  6>     print[ P_SCFInfo ] 1
|  7>     print[ P_SCFIterInfo ] 1
|  8>     print[ P_OrbEn ] 0
|  9>     print[ P_Cartesian ] 0
| 10> end
| 11> *xyz 0 1
| 12>  N        2.5743150000    -0.7596280000     1.1365540000
| 13>  C        2.0631670000     0.0663640000     0.2041870000
| 14>  O        0.9038820000     0.0620380000    -0.1447170000
| 15>  C        3.0466430000     1.0558700000    -0.4270980000
| 16>  C        4.4170720000     1.0023370000     0.0413830000
| 17>  C        5.5451730000     0.9358150000     0.4481740000
| 18>  H        1.9627700000    -1.4247600000     1.5761850000
| 19>  H        3.5455660000    -0.7158030000     1.3915300000
| 20>  H        2.6251260000     2.0517560000    -0.2632630000
| 21>  H        3.0043100000     0.8819650000    -1.5061170000
| 22>  H        6.5505860000     0.8925560000     0.7956710000
| 23> *
| 24>
| 25>                          ****END OF INPUT****
 Total Charge           Charge          ....    0
 Multiplicity           Mult            ....    1
 Number of Electrons    NEL             ....   44
 Basis Dimension        Dim             ....  109

MULLIKEN ATOMIC CHARGES
-----------------------
   0 N :   -0.035993
   1 C :   -0.049252
   2 O :   -0.204042
   3 C :    0.120641
   4 C :    0.266306
   5 C :   -0.486538
   6 H :    0.120004
   7 H :    0.122443
   8 H :    0.068310
   9 H :    0.072392
  10 H :    0.005727
Sum of atomic charges:   -0.0000000

LOEWDIN ATOMIC CHARGES
----------------------
   0 N :    0.024377
   1 C :    0.028236
   2 O :   -0.189377
   3 C :   -0.073349
   4 C :   -0.032957
   5 C :   -0.087633
   6 H :    0.077002
   7 H :    0.075286
   8 H :    0.070024
   9 H :    0.071073
  10 H :    0.037319

  Mayer bond orders larger than 0.1
B(  0-N ,  1-C ) :   1.3158 B(  0-N ,  2-O ) :   0.1046 B(  0-N ,  6-H ) :   0.9382
B(  0-N ,  7-H ) :   0.9179 B(  1-C ,  2-O ) :   2.0949 B(  1-C ,  3-C ) :   0.8901
B(  3-C ,  4-C ) :   1.0141 B(  3-C ,  8-H ) :   0.8873 B(  3-C ,  9-H ) :   0.8856
B(  4-C ,  5-C ) :   2.3486 B(  4-C , 10-H ) :  -0.1105 B(  5-C , 10-H ) :   1.1013

FINAL SINGLE POINT ENERGY      -284.805450535793

DIPOLE MOMENT
-------------
                                X             Y             Z
Electronic contribution:     -1.46491      -0.23215      -0.22340
Nuclear contribution   :      2.48258      -0.05528       0.80793
                        -----------------------------------------
Total Dipole Moment    :      1.01767      -0.28744       0.58453
                        -----------------------------------------
Magnitude (a.u.)       :      1.20828
Magnitude (Debye)      :      3.07120

                             ****ORCA TERMINATED NORMALLY****
TOTAL RUN TIME: 0 days 0 hours 0 minutes 5 seconds 149 msec
