                         Program Version 3.0.3 - RELEASE   -
|  1> ! RI PBE def2-SVP def2-SVP/J NBO PAL2
|  2> % maxcore 2000
|  3> % output
|  4>     # printlevel mini
|  5>     print[ P_Basis ] 0
|  6>     print[ P_SCFInfo ] 1
|  7>     print[ P_SCFIterInfo ] 1
|  8>     print[ P_OrbEn ] 0
|  9>     print[ P_Cartesian ] 0
| 10> end
| 11> *xyz 0 1
| 12>  O        1.0497570000     0.2253390000     0.0843460000
| 13>  C        2.4243310000     0.0624900000     0.1179210000
| 14>  C        3.1058040000    -0.7014540000    -0.9626450000
| 15>  C        3.1693690000     0.8137230000    -0.9456010000
| 16>  C        4.3976810000     1.4708960000    -0.6239000000
| 17>  N        5.3916670000     1.9873600000    -0.3589540000
| 18>  H        0.6383290000    -0.5903170000     0.3844030000
| 19>  H        2.8771370000     0.0508670000     1.1063070000
| 20>  H        2.4842480000    -1.1321510000    -1.7370240000
| 21>  H        4.0117140000    -1.2426620000    -0.7233060000
| 22>  H        2.5445630000     1.3283100000    -1.6658480000
| 23> *
| 24>
| 25>                          ****END OF INPUT****
 Total Charge           Charge          ....    0
 Multiplicity           Mult            ....    1
 Number of Electrons    NEL             ....   44
 Basis Dimension        Dim             ....  109

MULLIKEN ATOMIC CHARGES
-----------------------
   0 O :   -0.223225
   1 C :    0.061506
   2 C :    0.023092
   3 C :   -0.206170
   4 C :   -0.101374
   5 N :    0.059052
   6 H :    0.170198
   7 H :    0.038553
   8 H :    0.046113
   9 H :    0.054176
  10 H :    0.078079
Sum of atomic charges:   -0.0000000

LOEWDIN ATOMIC CHARGES
----------------------
   0 O :   -0.085303
   1 C :    0.056011
   2 C :   -0.032112
   3 C :   -0.071417
   4 C :   -0.040565
   5 N :   -0.068227
   6 H :    0.082298
   7 H :    0.021079
   8 H :    0.038504
   9 H :    0.040172
  10 H :    0.059562

  Mayer bond orders larger than 0.1
B(  0-O ,  1-C ) :   1.1595 B(  0-O ,  6-H ) :   0.9754 B(  1-C ,  2-C ) :   0.9809
B(  1-C ,  3-C ) :   0.9172 B(  1-C ,  7-H ) :   0.9454 B(  2-C ,  3-C ) :   0.9812
B(  2-C ,  8-H ) :   0.9304 B(  2-C ,  9-H ) :   0.9339 B(  3-C ,  4-C ) :   1.1389
B(  3-C , 10-H ) :   0.9092 B(  4-C ,  5-N ) :   3.0234

FINAL SINGLE POINT ENERGY      -284.796723384760

DIPOLE MOMENT
-------------
                                X             Y             Z
Electronic contribution:      1.83408       2.92970       0.41903
Nuclear contribution   :     -3.04641      -4.28647      -0.46994
                        -----------------------------------------
Total Dipole Moment    :     -1.21233      -1.35677      -0.05091
                        -----------------------------------------
Magnitude (a.u.)       :      1.82021
Magnitude (Debye)      :      4.62661

                             ****ORCA TERMINATED NORMALLY****
TOTAL RUN TIME: 0 days 0 hours 0 minutes 5 seconds 20 msec
