                         Program Version 3.0.3 - RELEASE   -
|  1> ! RI PBE def2-SVP def2-SVP/J NBO PAL2
|  2> % maxcore 2000
|  3> % output
|  4>     # printlevel mini
|  5>     print[ P_Basis ] 0
|  6>     print[ P_SCFInfo ] 1
|  7>     print[ P_SCFIterInfo ] 1
|  8>     print[ P_OrbEn ] 0
|  9>     print[ P_Cartesian ] 0
| 10> end
| 11> *xyz 0 1
| 12>  O        1.1363570000    -0.1085430000     0.4790400000
| 13>  C        2.2682080000    -0.0051560000     0.0668660000
| 14>  C        3.1014880000     1.2624180000    -0.0337630000
| 15>  C        4.2967340000     0.8644390000    -0.8934030000
| 16>  C        4.4132470000    -0.6503860000    -0.6832540000
| 17>  N        3.0522440000    -1.0239830000    -0.3805190000
| 18>  H        3.3948470000     1.5402940000     0.9836460000
| 19>  H        2.5040130000     2.0797700000    -0.4356110000
| 20>  H        5.2179300000     1.3864460000    -0.6346890000
| 21>  H        4.0815800000     1.0670300000    -1.9450090000
| 22>  H        5.0909670000    -0.8882990000     0.1471550000
| 23>  H        4.7812180000    -1.1655080000    -1.5735030000
| 24>  H        2.7480680000    -1.9765220000    -0.2691550000
| 25> *
| 26>
| 27>                          ****END OF INPUT****
 Total Charge           Charge          ....    0
 Multiplicity           Mult            ....    1
 Number of Electrons    NEL             ....   46
 Basis Dimension        Dim             ....  119

MULLIKEN ATOMIC CHARGES
-----------------------
   0 O :   -0.194049
   1 C :    0.028457
   2 C :   -0.029507
   3 C :   -0.045224
   4 C :    0.129799
   5 N :   -0.178857
   6 H :    0.042649
   7 H :    0.036778
   8 H :    0.019655
   9 H :    0.033098
  10 H :    0.024180
  11 H :    0.021065
  12 H :    0.111957
Sum of atomic charges:    0.0000000

LOEWDIN ATOMIC CHARGES
----------------------
   0 O :   -0.188551
   1 C :    0.019525
   2 C :   -0.066106
   3 C :   -0.040693
   4 C :    0.028492
   5 N :   -0.006162
   6 H :    0.043970
   7 H :    0.039957
   8 H :    0.028451
   9 H :    0.032087
  10 H :    0.015352
  11 H :    0.021934
  12 H :    0.071744

  Mayer bond orders larger than 0.1
B(  0-O ,  1-C ) :   2.1524 B(  1-C ,  2-C ) :   0.9508 B(  1-C ,  5-N ) :   1.1928
B(  2-C ,  3-C ) :   1.1072 B(  2-C ,  6-H ) :   0.9158 B(  2-C ,  7-H ) :   0.9308
B(  3-C ,  4-C ) :   1.0788 B(  3-C ,  8-H ) :   0.9364 B(  3-C ,  9-H ) :   0.9388
B(  4-C ,  5-N ) :   0.9998 B(  4-C , 10-H ) :   0.9380 B(  4-C , 11-H ) :   0.9432
B(  5-N , 12-H ) :   0.9280

FINAL SINGLE POINT ENERGY      -286.075373358857

DIPOLE MOMENT
-------------
                                X             Y             Z
Electronic contribution:     -4.78049      -1.83287       1.51127
Nuclear contribution   :      6.15558       1.62697      -1.94659
                        -----------------------------------------
Total Dipole Moment    :      1.37509      -0.20590      -0.43531
                        -----------------------------------------
Magnitude (a.u.)       :      1.45697
Magnitude (Debye)      :      3.70332

                             ****ORCA TERMINATED NORMALLY****
TOTAL RUN TIME: 0 days 0 hours 0 minutes 6 seconds 122 msec
