                         Program Version 3.0.3 - RELEASE   -
|  1> ! RI PBE def2-SVP def2-SVP/J NBO PAL2
|  2> % maxcore 2000
|  3> % output
|  4>     # printlevel mini
|  5>     print[ P_Basis ] 0
|  6>     print[ P_SCFInfo ] 1
|  7>     print[ P_SCFIterInfo ] 1
|  8>     print[ P_OrbEn ] 0
|  9>     print[ P_Cartesian ] 0
| 10> end
| 11> *xyz 0 1
| 12>  O        1.0445840000    -0.0645580000     0.0615400000
| 13>  C        2.2363930000    -0.0125340000     0.0576020000
| 14>  C        3.0967610000     1.2239450000     0.0567270000
| 15>  C        4.3536620000     0.7967390000     0.0513630000
| 16>  C        4.2816320000    -0.6969330000     0.0484420000
| 17>  N        3.0993310000    -1.1726440000     0.0516920000
| 18>  H        2.7026380000     2.2285610000     0.0601310000
| 19>  H        5.2671350000     1.3748300000     0.0492360000
| 20>  H        5.1548650000    -1.3439050000     0.0438660000
| 21> *
| 22>
| 23>                          ****END OF INPUT****
 Total Charge           Charge          ....    0
 Multiplicity           Mult            ....    1
 Number of Electrons    NEL             ....   42
 Basis Dimension        Dim             ....   99

MULLIKEN ATOMIC CHARGES
-----------------------
   0 O :   -0.067747
   1 C :    0.108860
   2 C :   -0.028791
   3 C :    0.007039
   4 C :    0.063409
   5 N :   -0.134771
   6 H :    0.013330
   7 H :    0.013952
   8 H :    0.024719
Sum of atomic charges:    0.0000000

LOEWDIN ATOMIC CHARGES
----------------------
   0 O :   -0.040040
   1 C :    0.056414
   2 C :   -0.037178
   3 C :   -0.025840
   4 C :    0.058574
   5 N :   -0.107644
   6 H :    0.038103
   7 H :    0.032981
   8 H :    0.024631

  Mayer bond orders larger than 0.1
B(  0-O ,  1-C ) :   2.2059 B(  1-C ,  2-C ) :   0.9053 B(  1-C ,  5-N ) :   1.0294
B(  2-C ,  3-C ) :   1.7228 B(  2-C ,  6-H ) :   1.0084 B(  3-C ,  4-C ) :   0.9622
B(  3-C ,  7-H ) :   0.9933 B(  4-C ,  5-N ) :   1.8715 B(  4-C ,  8-H ) :   0.9758

FINAL SINGLE POINT ENERGY      -283.614304897829

DIPOLE MOMENT
-------------
                                X             Y             Z
Electronic contribution:     -2.61091      -1.25995       0.00723
Nuclear contribution   :      3.91444       2.09251      -0.01012
                        -----------------------------------------
Total Dipole Moment    :      1.30353       0.83255      -0.00289
                        -----------------------------------------
Magnitude (a.u.)       :      1.54672
Magnitude (Debye)      :      3.93144

                             ****ORCA TERMINATED NORMALLY****
TOTAL RUN TIME: 0 days 0 hours 0 minutes 4 seconds 953 msec
