                         Program Version 3.0.3 - RELEASE   -
|  1> ! RI PBE def2-SVP def2-SVP/J NBO PAL2
|  2> % maxcore 2000
|  3> % output
|  4>     # printlevel mini
|  5>     print[ P_Basis ] 0
|  6>     print[ P_SCFInfo ] 1
|  7>     print[ P_SCFIterInfo ] 1
|  8>     print[ P_OrbEn ] 0
|  9>     print[ P_Cartesian ] 0
| 10> end
| 11> *xyz 0 1
| 12>  O        1.2852900000     0.1477610000     0.4432330000
| 13>  C        2.4324450000     0.0661130000     0.0798440000
| 14>  C        3.2777830000    -1.1852490000    -0.1364490000
| 15>  C        4.6021280000    -0.6505510000    -0.5833160000
| 16>  C        4.5258300000     0.6795770000    -0.6163720000
| 17>  N        3.2599620000     1.1193820000    -0.2304090000
| 18>  H        2.7869460000    -1.8271680000    -0.8743050000
| 19>  H        3.3216900000    -1.7547060000     0.7969430000
| 20>  H        5.4696020000    -1.2395340000    -0.8354170000
| 21>  H        5.2829010000     1.4004040000    -0.8897460000
| 22>  H        2.9598220000     2.0767620000    -0.1758070000
| 23> *
| 24>
| 25>                          ****END OF INPUT****
 Total Charge           Charge          ....    0
 Multiplicity           Mult            ....    1
 Number of Electrons    NEL             ....   44
 Basis Dimension        Dim             ....  109

MULLIKEN ATOMIC CHARGES
-----------------------
   0 O :   -0.176122
   1 C :    0.025530
   2 C :    0.039206
   3 C :   -0.131812
   4 C :    0.100176
   5 N :   -0.111043
   6 H :    0.065318
   7 H :    0.064646
   8 H :    0.001629
   9 H :    0.007488
  10 H :    0.114984
Sum of atomic charges:   -0.0000000

LOEWDIN ATOMIC CHARGES
----------------------
   0 O :   -0.171194
   1 C :    0.033899
   2 C :   -0.060942
   3 C :   -0.087090
   4 C :    0.010222
   5 N :    0.027970
   6 H :    0.058124
   7 H :    0.058240
   8 H :    0.026020
   9 H :    0.025856
  10 H :    0.078895

  Mayer bond orders larger than 0.1
B(  0-O ,  1-C ) :   2.1602 B(  1-C ,  2-C ) :   0.9617 B(  1-C ,  5-N ) :   1.1416
B(  2-C ,  3-C ) :   1.0565 B(  2-C ,  6-H ) :   0.9026 B(  2-C ,  7-H ) :   0.9013
B(  3-C ,  4-C ) :   1.7483 B(  3-C ,  8-H ) :   0.9934 B(  4-C ,  5-N ) :   1.0789
B(  4-C ,  9-H ) :   0.9840 B(  5-N , 10-H ) :   0.9296

FINAL SINGLE POINT ENERGY      -284.860170728669

DIPOLE MOMENT
-------------
                                X             Y             Z
Electronic contribution:     -2.55196       1.76997       0.73709
Nuclear contribution   :      3.63961      -1.45662      -1.10119
                        -----------------------------------------
Total Dipole Moment    :      1.08765       0.31335      -0.36410
                        -----------------------------------------
Magnitude (a.u.)       :      1.18901
Magnitude (Debye)      :      3.02221

                             ****ORCA TERMINATED NORMALLY****
TOTAL RUN TIME: 0 days 0 hours 0 minutes 4 seconds 801 msec
