                         Program Version 3.0.3 - RELEASE   -
|  1> ! RI PBE def2-SVP def2-SVP/J NBO PAL2
|  2> % maxcore 2000
|  3> % output
|  4>     # printlevel mini
|  5>     print[ P_Basis ] 0
|  6>     print[ P_SCFInfo ] 1
|  7>     print[ P_SCFIterInfo ] 1
|  8>     print[ P_OrbEn ] 0
|  9>     print[ P_Cartesian ] 0
| 10> end
| 11> *xyz 0 1
| 12>  O        1.0264070000    -0.0629730000     0.0669260000
| 13>  C        2.3682600000     0.0991320000     0.0731290000
| 14>  C        3.1834490000     1.2005330000     0.0771370000
| 15>  C        4.5193850000     0.7058890000     0.0831290000
| 16>  C        4.4636580000    -0.6579590000     0.0825350000
| 17>  N        3.1350140000    -1.0171090000     0.0763600000
| 18>  H        0.6153760000     0.8046190000     0.0655010000
| 19>  H        2.8651330000     2.2314320000     0.0759240000
| 20>  H        5.4205570000     1.2986150000     0.0874020000
| 21>  H        5.2418630000    -1.4024780000     0.0859090000
| 22>  H        2.7685080000    -1.9514920000     0.0744490000
| 23> *
| 24>
| 25>                          ****END OF INPUT****
 Total Charge           Charge          ....    0
 Multiplicity           Mult            ....    1
 Number of Electrons    NEL             ....   44
 Basis Dimension        Dim             ....  109

MULLIKEN ATOMIC CHARGES
-----------------------
   0 O :   -0.164235
   1 C :    0.124926
   2 C :   -0.127439
   3 C :   -0.018991
   4 C :    0.034328
   5 N :   -0.068233
   6 H :    0.180929
   7 H :   -0.039240
   8 H :   -0.021894
   9 H :   -0.013509
  10 H :    0.113359
Sum of atomic charges:   -0.0000000

LOEWDIN ATOMIC CHARGES
----------------------
   0 O :   -0.040795
   1 C :    0.013950
   2 C :   -0.155969
   3 C :   -0.080347
   4 C :   -0.054467
   5 N :    0.082151
   6 H :    0.096324
   7 H :    0.018276
   8 H :    0.022288
   9 H :    0.015739
  10 H :    0.082849

  Mayer bond orders larger than 0.1
B(  0-O ,  1-C ) :   1.2177 B(  0-O ,  6-H ) :   0.9669 B(  1-C ,  2-C ) :   1.4139
B(  1-C ,  5-N ) :   1.2286 B(  2-C ,  3-C ) :   1.2549 B(  2-C ,  7-H ) :   1.0158
B(  3-C ,  4-C ) :   1.5208 B(  3-C ,  8-H ) :   1.0027 B(  4-C ,  5-N ) :   1.1628
B(  4-C ,  9-H ) :   0.9913 B(  5-N , 10-H ) :   0.9353

FINAL SINGLE POINT ENERGY      -284.846330331900

DIPOLE MOMENT
-------------
                                X             Y             Z
Electronic contribution:     -2.08247      -1.01597      -0.00974
Nuclear contribution   :      1.61245       0.80465       0.00778
                        -----------------------------------------
Total Dipole Moment    :     -0.47001      -0.21132      -0.00196
                        -----------------------------------------
Magnitude (a.u.)       :      0.51534
Magnitude (Debye)      :      1.30988

                             ****ORCA TERMINATED NORMALLY****
TOTAL RUN TIME: 0 days 0 hours 0 minutes 5 seconds 71 msec
