                         Program Version 3.0.3 - RELEASE   -
|  1> ! RI PBE def2-SVP def2-SVP/J NBO PAL2
|  2> % maxcore 2000
|  3> % output
|  4>     # printlevel mini
|  5>     print[ P_Basis ] 0
|  6>     print[ P_SCFInfo ] 1
|  7>     print[ P_SCFIterInfo ] 1
|  8>     print[ P_OrbEn ] 0
|  9>     print[ P_Cartesian ] 0
| 10> end
| 11> *xyz 0 1
| 12>  O        1.2325470000    -0.1189370000     0.9324400000
| 13>  C        2.3240880000    -0.1070710000     0.0246050000
| 14>  C        3.2512840000     1.0767070000     0.2747850000
| 15>  C        4.0115050000     0.6319220000     1.5134380000
| 16>  N        4.2588400000    -0.7839400000     1.2539220000
| 17>  C        3.2135540000    -1.2960800000     0.3605420000
| 18>  H        0.7289860000     0.6901620000     0.8093690000
| 19>  H        1.9585440000    -0.1479940000    -1.0086160000
| 20>  H        2.7130890000     2.0184260000     0.4067730000
| 21>  H        3.9356550000     1.1902680000    -0.5714430000
| 22>  H        3.3916830000     0.8022800000     2.4046240000
| 23>  H        4.9510210000     1.1760730000     1.6450680000
| 24>  H        4.3169580000    -1.3175800000     2.1075210000
| 25>  H        2.6083650000    -2.0835390000     0.8182740000
| 26>  H        3.6591910000    -1.7052870000    -0.5533030000
| 27> *
| 28>
| 29>                          ****END OF INPUT****
 Total Charge           Charge          ....    0
 Multiplicity           Mult            ....    1
 Number of Electrons    NEL             ....   48
 Basis Dimension        Dim             ....  129

MULLIKEN ATOMIC CHARGES
-----------------------
   0 O :   -0.265175
   1 C :   -0.046877
   2 C :   -0.019238
   3 C :    0.152552
   4 N :   -0.298844
   5 C :    0.204167
   6 H :    0.150851
   7 H :   -0.005809
   8 H :    0.005728
   9 H :    0.020335
  10 H :   -0.008854
  11 H :    0.005443
  12 H :    0.098428
  13 H :    0.006186
  14 H :    0.001105
Sum of atomic charges:   -0.0000000

LOEWDIN ATOMIC CHARGES
----------------------
   0 O :   -0.118812
   1 C :    0.039050
   2 C :   -0.060083
   3 C :    0.015915
   4 N :   -0.115141
   5 C :    0.013234
   6 H :    0.066157
   7 H :    0.003840
   8 H :    0.021094
   9 H :    0.030770
  10 H :    0.001129
  11 H :    0.014619
  12 H :    0.055026
  13 H :    0.019345
  14 H :    0.013857

  Mayer bond orders larger than 0.1
B(  0-O ,  1-C ) :   1.0445 B(  0-O ,  6-H ) :   0.9805 B(  1-C ,  2-C ) :   1.0850
B(  1-C ,  5-C ) :   1.0442 B(  1-C ,  7-H ) :   0.9273 B(  2-C ,  3-C ) :   1.0552
B(  2-C ,  8-H ) :   0.9347 B(  2-C ,  9-H ) :   0.9202 B(  3-C ,  4-N ) :   1.0515
B(  3-C , 10-H ) :   0.9276 B(  3-C , 11-H ) :   0.9383 B(  4-N ,  5-C ) :   1.0618
B(  4-N , 12-H ) :   0.9461 B(  5-C , 13-H ) :   0.9217 B(  5-C , 14-H ) :   0.9273

FINAL SINGLE POINT ENERGY      -287.223533849006

DIPOLE MOMENT
-------------
                                X             Y             Z
Electronic contribution:     -1.41877      -0.97234       0.50337
Nuclear contribution   :      1.14260       1.41242      -0.58048
                        -----------------------------------------
Total Dipole Moment    :     -0.27618       0.44008      -0.07711
                        -----------------------------------------
Magnitude (a.u.)       :      0.52525
Magnitude (Debye)      :      1.33508

                             ****ORCA TERMINATED NORMALLY****
TOTAL RUN TIME: 0 days 0 hours 0 minutes 6 seconds 429 msec
