                         Program Version 3.0.3 - RELEASE   -
|  1> ! RI PBE def2-SVP def2-SVP/J NBO PAL2
|  2> % maxcore 2000
|  3> % output
|  4>     # printlevel mini
|  5>     print[ P_Basis ] 0
|  6>     print[ P_SCFInfo ] 1
|  7>     print[ P_SCFIterInfo ] 1
|  8>     print[ P_OrbEn ] 0
|  9>     print[ P_Cartesian ] 0
| 10> end
| 11> *xyz 0 1
| 12>  O        1.2181940000    -0.1417040000     0.7108440000
| 13>  C        2.3381790000    -0.0783590000     0.2850790000
| 14>  C        3.1642410000     1.1788210000     0.0707740000
| 15>  C        4.3458800000     0.6791630000    -0.7581850000
| 16>  N        4.5385220000    -0.7290290000    -0.3976460000
| 17>  C        3.2041220000    -1.2539810000    -0.1561060000
| 18>  H        3.4905810000     1.5337410000     1.0551070000
| 19>  H        2.5610570000     1.9677340000    -0.3802440000
| 20>  H        5.2663020000     1.2407010000    -0.5979100000
| 21>  H        4.1098000000     0.7366570000    -1.8261990000
| 22>  H        5.0780720000    -0.7812970000     0.4575620000
| 23>  H        3.1883210000    -2.0587700000     0.5800080000
| 24>  H        2.7722400000    -1.6552780000    -1.0828840000
| 25> *
| 26>
| 27>                          ****END OF INPUT****
 Total Charge           Charge          ....    0
 Multiplicity           Mult            ....    1
 Number of Electrons    NEL             ....   46
 Basis Dimension        Dim             ....  119

MULLIKEN ATOMIC CHARGES
-----------------------
   0 O :   -0.145966
   1 C :   -0.115429
   2 C :    0.016686
   3 C :    0.055808
   4 N :   -0.256536
   5 C :    0.131384
   6 H :    0.043525
   7 H :    0.038574
   8 H :    0.020246
   9 H :    0.028243
  10 H :    0.101815
  11 H :    0.042493
  12 H :    0.039155
Sum of atomic charges:   -0.0000000

LOEWDIN ATOMIC CHARGES
----------------------
   0 O :   -0.113757
   1 C :    0.043213
   2 C :   -0.088045
   3 C :    0.011159
   4 N :   -0.099972
   5 C :   -0.023440
   6 H :    0.047763
   7 H :    0.041840
   8 H :    0.024316
   9 H :    0.022512
  10 H :    0.054606
  11 H :    0.039101
  12 H :    0.040705

  Mayer bond orders larger than 0.1
B(  0-O ,  1-C ) :   2.2137 B(  1-C ,  2-C ) :   0.9877 B(  1-C ,  5-C ) :   0.9383
B(  2-C ,  3-C ) :   1.0589 B(  2-C ,  6-H ) :   0.9022 B(  2-C ,  7-H ) :   0.9169
B(  3-C ,  4-N ) :   1.0718 B(  3-C ,  8-H ) :   0.9436 B(  3-C ,  9-H ) :   0.9360
B(  4-N ,  5-C ) :   1.0644 B(  4-N , 10-H ) :   0.9510 B(  5-C , 11-H ) :   0.9337
B(  5-C , 12-H ) :   0.8970

FINAL SINGLE POINT ENERGY      -286.035888144948

DIPOLE MOMENT
-------------
                                X             Y             Z
Electronic contribution:     -3.43182      -1.04162       1.51212
Nuclear contribution   :      4.24411       1.31704      -1.46527
                        -----------------------------------------
Total Dipole Moment    :      0.81229       0.27543       0.04685
                        -----------------------------------------
Magnitude (a.u.)       :      0.85899
Magnitude (Debye)      :      2.18339

                             ****ORCA TERMINATED NORMALLY****
TOTAL RUN TIME: 0 days 0 hours 0 minutes 5 seconds 756 msec
