                         Program Version 3.0.3 - RELEASE   -
|  1> ! RI PBE def2-SVP def2-SVP/J NBO PAL2
|  2> % maxcore 2000
|  3> % output
|  4>     # printlevel mini
|  5>     print[ P_Basis ] 0
|  6>     print[ P_SCFInfo ] 1
|  7>     print[ P_SCFIterInfo ] 1
|  8>     print[ P_OrbEn ] 0
|  9>     print[ P_Cartesian ] 0
| 10> end
| 11> *xyz 0 1
| 12>  O        0.9394050000     0.0376850000    -0.0450580000
| 13>  C        2.1372110000     0.1021700000    -0.0486520000
| 14>  C        3.0367420000     1.2808200000    -0.0520920000
| 15>  C        4.2714230000     0.7826720000    -0.0554350000
| 16>  N        4.3222390000    -0.6694630000    -0.0546500000
| 17>  C        3.1196040000    -1.0698860000    -0.0508260000
| 18>  H        2.7174930000     2.3105940000    -0.0518110000
| 19>  H        5.2141850000     1.3119390000    -0.0585750000
| 20>  H        2.8318870000    -2.1160220000    -0.0493010000
| 21> *
| 22>
| 23>                          ****END OF INPUT****
 Total Charge           Charge          ....    0
 Multiplicity           Mult            ....    1
 Number of Electrons    NEL             ....   42
 Basis Dimension        Dim             ....   99

MULLIKEN ATOMIC CHARGES
-----------------------
   0 O :   -0.091479
   1 C :    0.066934
   2 C :   -0.025783
   3 C :    0.078508
   4 N :   -0.115017
   5 C :    0.030930
   6 H :    0.011036
   7 H :    0.023828
   8 H :    0.021043
Sum of atomic charges:   -0.0000000

LOEWDIN ATOMIC CHARGES
----------------------
   0 O :   -0.052982
   1 C :    0.037276
   2 C :   -0.086521
   3 C :    0.058006
   4 N :   -0.057860
   5 C :    0.008697
   6 H :    0.038819
   7 H :    0.027477
   8 H :    0.027088

  Mayer bond orders larger than 0.1
B(  0-O ,  1-C ) :   2.1594 B(  1-C ,  2-C ) :   0.9735 B(  1-C ,  5-C ) :   0.8777
B(  2-C ,  3-C ) :   1.6812 B(  2-C ,  6-H ) :   1.0113 B(  3-C ,  4-N ) :   1.0762
B(  3-C ,  7-H ) :   0.9911 B(  4-N ,  5-C ) :   1.9324 B(  5-C ,  8-H ) :   0.9734

FINAL SINGLE POINT ENERGY      -283.600940862965

DIPOLE MOMENT
-------------
                                X             Y             Z
Electronic contribution:     -1.51472      -0.82341       0.00500
Nuclear contribution   :      1.83705       1.20375      -0.00624
                        -----------------------------------------
Total Dipole Moment    :      0.32233       0.38033      -0.00125
                        -----------------------------------------
Magnitude (a.u.)       :      0.49855
Magnitude (Debye)      :      1.26721

                             ****ORCA TERMINATED NORMALLY****
TOTAL RUN TIME: 0 days 0 hours 0 minutes 4 seconds 974 msec
