                         Program Version 3.0.3 - RELEASE   -
|  1> ! RI PBE def2-SVP def2-SVP/J NBO PAL2
|  2> % maxcore 2000
|  3> % output
|  4>     # printlevel mini
|  5>     print[ P_Basis ] 0
|  6>     print[ P_SCFInfo ] 1
|  7>     print[ P_SCFIterInfo ] 1
|  8>     print[ P_OrbEn ] 0
|  9>     print[ P_Cartesian ] 0
| 10> end
| 11> *xyz 0 1
| 12>  O        0.9962810000     0.0238960000    -0.0665460000
| 13>  C        2.3545290000     0.0592840000    -0.0603510000
| 14>  C        3.1860230000     1.1536390000    -0.0558540000
| 15>  N        4.4728770000     0.6748140000    -0.0503300000
| 16>  C        4.4640870000    -0.6815990000    -0.0512620000
| 17>  C        3.1572350000    -1.1035400000    -0.0574780000
| 18>  H        0.6585570000     0.9224820000    -0.0674240000
| 19>  H        2.9707140000     2.2099980000    -0.0561370000
| 20>  H        5.2954590000     1.2473310000    -0.0462130000
| 21>  H        5.3804950000    -1.2491620000    -0.0474730000
| 22>  H        2.8071640000    -2.1231430000    -0.0597430000
| 23> *
| 24>
| 25>                          ****END OF INPUT****
 Total Charge           Charge          ....    0
 Multiplicity           Mult            ....    1
 Number of Electrons    NEL             ....   44
 Basis Dimension        Dim             ....  109

MULLIKEN ATOMIC CHARGES
-----------------------
   0 O :   -0.177189
   1 C :    0.114788
   2 C :   -0.069109
   3 N :   -0.056398
   4 C :    0.045536
   5 C :   -0.072494
   6 H :    0.163824
   7 H :   -0.023845
   8 H :    0.113926
   9 H :   -0.009694
  10 H :   -0.029346
Sum of atomic charges:    0.0000000

LOEWDIN ATOMIC CHARGES
----------------------
   0 O :   -0.044680
   1 C :   -0.015140
   2 C :   -0.113517
   3 N :    0.097297
   4 C :   -0.035512
   5 C :   -0.110052
   6 H :    0.084727
   7 H :    0.012316
   8 H :    0.081433
   9 H :    0.017119
  10 H :    0.026009

  Mayer bond orders larger than 0.1
B(  0-O ,  1-C ) :   1.1917 B(  0-O ,  6-H ) :   0.9733 B(  1-C ,  2-C ) :   1.4016
B(  1-C ,  5-C ) :   1.3224 B(  2-C ,  3-N ) :   1.1673 B(  2-C ,  4-C ) :   0.1091
B(  2-C ,  7-H ) :   0.9941 B(  3-N ,  4-C ) :   1.2558 B(  3-N ,  8-H ) :   0.9437
B(  4-C ,  5-C ) :   1.4319 B(  4-C ,  9-H ) :   0.9833 B(  5-C , 10-H ) :   1.0168

FINAL SINGLE POINT ENERGY      -284.841971031997

DIPOLE MOMENT
-------------
                                X             Y             Z
Electronic contribution:     -1.09222       0.19584      -0.00474
Nuclear contribution   :      1.69618       0.72379       0.00823
                        -----------------------------------------
Total Dipole Moment    :      0.60396       0.91962       0.00350
                        -----------------------------------------
Magnitude (a.u.)       :      1.10022
Magnitude (Debye)      :      2.79654

                             ****ORCA TERMINATED NORMALLY****
TOTAL RUN TIME: 0 days 0 hours 0 minutes 4 seconds 929 msec
