                         Program Version 3.0.3 - RELEASE   -
|  1> ! RI PBE def2-SVP def2-SVP/J NBO PAL2
|  2> % maxcore 2000
|  3> % output
|  4>     # printlevel mini
|  5>     print[ P_Basis ] 0
|  6>     print[ P_SCFInfo ] 1
|  7>     print[ P_SCFIterInfo ] 1
|  8>     print[ P_OrbEn ] 0
|  9>     print[ P_Cartesian ] 0
| 10> end
| 11> *xyz 0 1
| 12>  O        1.2053640000    -0.0766680000    -0.5187510000
| 13>  C        2.3666800000    -0.0005880000    -0.1872380000
| 14>  N        3.2059170000    -1.0480690000     0.0868930000
| 15>  C        4.5281590000    -0.6353960000     0.4541610000
| 16>  C        4.4264200000     0.8546430000     0.3782220000
| 17>  C        3.1997640000     1.2152440000     0.0142350000
| 18>  H        2.8981680000    -2.0018030000     0.0282970000
| 19>  H        5.2935970000    -1.0174150000    -0.2342500000
| 20>  H        4.8051160000    -0.9641840000     1.4645760000
| 21>  H        5.2635080000     1.5035180000     0.5985880000
| 22>  H        2.8104260000     2.2123080000    -0.1289330000
| 23> *
| 24>
| 25>                          ****END OF INPUT****
 Total Charge           Charge          ....    0
 Multiplicity           Mult            ....    1
 Number of Electrons    NEL             ....   44
 Basis Dimension        Dim             ....  109

MULLIKEN ATOMIC CHARGES
-----------------------
   0 O :   -0.191223
   1 C :    0.110628
   2 N :   -0.201492
   3 C :    0.210549
   4 C :   -0.092439
   5 C :   -0.045650
   6 H :    0.113315
   7 H :    0.043723
   8 H :    0.040108
   9 H :    0.013839
  10 H :   -0.001357
Sum of atomic charges:   -0.0000000

LOEWDIN ATOMIC CHARGES
----------------------
   0 O :   -0.186908
   1 C :    0.014062
   2 N :   -0.008182
   3 C :    0.033063
   4 C :   -0.014486
   5 C :   -0.049107
   6 H :    0.072966
   7 H :    0.037709
   8 H :    0.036968
   9 H :    0.029347
  10 H :    0.034568

  Mayer bond orders larger than 0.1
B(  0-O ,  1-C ) :   2.1264 B(  1-C ,  2-N ) :   1.1444 B(  1-C ,  5-C ) :   0.9498
B(  2-N ,  3-C ) :   1.0337 B(  2-N ,  6-H ) :   0.9297 B(  3-C ,  4-C ) :   1.0225
B(  3-C ,  7-H ) :   0.9107 B(  3-C ,  8-H ) :   0.9101 B(  4-C ,  5-C ) :   1.7821
B(  4-C ,  9-H ) :   0.9837 B(  5-C , 10-H ) :   1.0135

FINAL SINGLE POINT ENERGY      -284.858749885713

DIPOLE MOMENT
-------------
                                X             Y             Z
Electronic contribution:     -3.52675      -0.01726      -1.01300
Nuclear contribution   :      5.07070      -0.31725       1.46798
                        -----------------------------------------
Total Dipole Moment    :      1.54395      -0.33451       0.45498
                        -----------------------------------------
Magnitude (a.u.)       :      1.64398
Magnitude (Debye)      :      4.17866

                             ****ORCA TERMINATED NORMALLY****
TOTAL RUN TIME: 0 days 0 hours 0 minutes 5 seconds 120 msec
