                         Program Version 3.0.3 - RELEASE   -
|  1> ! RI PBE def2-SVP def2-SVP/J NBO PAL2
|  2> % maxcore 2000
|  3> % output
|  4>     # printlevel mini
|  5>     print[ P_Basis ] 0
|  6>     print[ P_SCFInfo ] 1
|  7>     print[ P_SCFIterInfo ] 1
|  8>     print[ P_OrbEn ] 0
|  9>     print[ P_Cartesian ] 0
| 10> end
| 11> *xyz 0 1
| 12>  O        3.1208400000    -1.1219670000    -0.1436200000
| 13>  C        2.4834970000     0.1263290000     0.0433100000
| 14>  C        2.6674210000     0.9354720000    -1.2181500000
| 15>  C        2.3451530000     2.4283440000    -1.0254140000
| 16>  C        3.8666050000     2.6364110000    -0.9268020000
| 17>  N        4.0582540000     1.3047060000    -1.5204180000
| 18>  H        3.0590230000    -1.6272060000     0.6695370000
| 19>  H        2.9208290000     0.6665890000     0.8965080000
| 20>  H        1.4079960000     0.0014640000     0.2377590000
| 21>  H        2.1662460000     0.4211650000    -2.0451870000
| 22>  H        1.7449360000     2.6941680000    -0.1542250000
| 23>  H        1.9110930000     2.8835700000    -1.9147410000
| 24>  H        4.2095620000     2.7323350000     0.1112210000
| 25>  H        4.2970350000     3.4557320000    -1.5087270000
| 26>  H        4.7587110000     0.7072870000    -1.0986390000
| 27> *
| 28>
| 29>                          ****END OF INPUT****
 Total Charge           Charge          ....    0
 Multiplicity           Mult            ....    1
 Number of Electrons    NEL             ....   48
 Basis Dimension        Dim             ....  129

MULLIKEN ATOMIC CHARGES
-----------------------
   0 O :   -0.277317
   1 C :    0.223230
   2 C :   -0.073312
   3 C :   -0.026615
   4 C :    0.120825
   5 N :   -0.233041
   6 H :    0.156395
   7 H :   -0.028738
   8 H :   -0.005753
   9 H :    0.008631
  10 H :    0.015328
  11 H :    0.022733
  12 H :   -0.000390
  13 H :    0.007417
  14 H :    0.090606
Sum of atomic charges:    0.0000000

LOEWDIN ATOMIC CHARGES
----------------------
   0 O :   -0.127352
   1 C :    0.042633
   2 C :    0.004177
   3 C :   -0.036282
   4 C :    0.027331
   5 N :   -0.101547
   6 H :    0.071544
   7 H :   -0.000117
   8 H :    0.005233
   9 H :    0.012907
  10 H :    0.018446
  11 H :    0.029775
  12 H :    0.001190
  13 H :    0.009912
  14 H :    0.042148

  Mayer bond orders larger than 0.1
B(  0-O ,  1-C ) :   1.0895 B(  0-O ,  6-H ) :   0.9787 B(  1-C ,  2-C ) :   1.0357
B(  1-C ,  7-H ) :   0.9089 B(  1-C ,  8-H ) :   0.9177 B(  2-C ,  3-C ) :   1.0669
B(  2-C ,  5-N ) :   1.0835 B(  2-C ,  9-H ) :   0.9136 B(  3-C ,  4-C ) :   1.1020
B(  3-C , 10-H ) :   0.9448 B(  3-C , 11-H ) :   0.9159 B(  4-C ,  5-N ) :   1.0571
B(  4-C , 12-H ) :   0.9304 B(  4-C , 13-H ) :   0.9368 B(  5-N , 14-H ) :   0.9434

FINAL SINGLE POINT ENERGY      -287.193456197208

DIPOLE MOMENT
-------------
                                X             Y             Z
Electronic contribution:      1.04569      -2.82570      -0.95299
Nuclear contribution   :     -1.31735       2.83864       1.89188
                        -----------------------------------------
Total Dipole Moment    :     -0.27166       0.01295       0.93889
                        -----------------------------------------
Magnitude (a.u.)       :      0.97749
Magnitude (Debye)      :      2.48458

                             ****ORCA TERMINATED NORMALLY****
TOTAL RUN TIME: 0 days 0 hours 0 minutes 6 seconds 297 msec
