                         Program Version 3.0.3 - RELEASE   -
|  1> ! RI PBE def2-SVP def2-SVP/J NBO PAL2
|  2> % maxcore 2000
|  3> % output
|  4>     # printlevel mini
|  5>     print[ P_Basis ] 0
|  6>     print[ P_SCFInfo ] 1
|  7>     print[ P_SCFIterInfo ] 1
|  8>     print[ P_OrbEn ] 0
|  9>     print[ P_Cartesian ] 0
| 10> end
| 11> *xyz 0 1
| 12>  O        2.9290990000     0.4807630000     0.9277420000
| 13>  C        2.3887010000    -0.2084790000     0.1080500000
| 14>  C        2.9196040000    -0.5224590000    -1.2661720000
| 15>  C        4.4280960000    -0.3092520000    -1.4279730000
| 16>  C        4.5625240000    -1.8236100000    -1.1952970000
| 17>  N        3.1164230000    -1.9747590000    -1.4586190000
| 18>  H        1.4217760000    -0.7133510000     0.3416910000
| 19>  H        2.2511560000    -0.0651470000    -2.0079410000
| 20>  H        4.8864100000     0.3520370000    -0.6951970000
| 21>  H        4.7048350000    -0.0052180000    -2.4361590000
| 22>  H        4.8630180000    -2.0639100000    -0.1693930000
| 23>  H        5.1942840000    -2.3805670000    -1.8904200000
| 24>  H        2.6044710000    -2.5783380000    -0.8237230000
| 25> *
| 26>
| 27>                          ****END OF INPUT****
 Total Charge           Charge          ....    0
 Multiplicity           Mult            ....    1
 Number of Electrons    NEL             ....   46
 Basis Dimension        Dim             ....  119

MULLIKEN ATOMIC CHARGES
-----------------------
   0 O :   -0.152816
   1 C :    0.103030
   2 C :   -0.021621
   3 C :    0.000770
   4 C :    0.108765
   5 N :   -0.250322
   6 H :   -0.006661
   7 H :    0.032497
   8 H :    0.035709
   9 H :    0.019804
  10 H :    0.013570
  11 H :    0.022889
  12 H :    0.094385
Sum of atomic charges:    0.0000000

LOEWDIN ATOMIC CHARGES
----------------------
   0 O :   -0.099899
   1 C :    0.073348
   2 C :   -0.022403
   3 C :   -0.031474
   4 C :    0.031858
   5 N :   -0.091937
   6 H :   -0.012453
   7 H :    0.026877
   8 H :    0.026081
   9 H :    0.030606
  10 H :    0.009873
  11 H :    0.015876
  12 H :    0.043647

  Mayer bond orders larger than 0.1
B(  0-O ,  1-C ) :   2.1864 B(  1-C ,  2-C ) :   0.9020 B(  1-C ,  6-H ) :   0.9166
B(  2-C ,  3-C ) :   1.0959 B(  2-C ,  5-N ) :   1.0555 B(  2-C ,  7-H ) :   0.8840
B(  3-C ,  4-C ) :   1.1124 B(  3-C ,  8-H ) :   0.9303 B(  3-C ,  9-H ) :   0.9161
B(  4-C ,  5-N ) :   1.0413 B(  4-C , 10-H ) :   0.9346 B(  4-C , 11-H ) :   0.9412
B(  5-N , 12-H ) :   0.9438

FINAL SINGLE POINT ENERGY      -285.996223664323

DIPOLE MOMENT
-------------
                                X             Y             Z
Electronic contribution:     -2.14781       1.79613       2.34839
Nuclear contribution   :      2.06094      -2.20765      -2.65319
                        -----------------------------------------
Total Dipole Moment    :     -0.08687      -0.41151      -0.30480
                        -----------------------------------------
Magnitude (a.u.)       :      0.51942
Magnitude (Debye)      :      1.32025

                             ****ORCA TERMINATED NORMALLY****
TOTAL RUN TIME: 0 days 0 hours 0 minutes 5 seconds 496 msec
