                         Program Version 3.0.3 - RELEASE   -
|  1> ! RI PBE def2-SVP def2-SVP/J NBO PAL2
|  2> % maxcore 2000
|  3> % output
|  4>     # printlevel mini
|  5>     print[ P_Basis ] 0
|  6>     print[ P_SCFInfo ] 1
|  7>     print[ P_SCFIterInfo ] 1
|  8>     print[ P_OrbEn ] 0
|  9>     print[ P_Cartesian ] 0
| 10> end
| 11> *xyz 0 1
| 12>  O        2.3808500000    -1.1387780000     0.6712660000
| 13>  C        2.3642900000     0.0834720000    -0.0396070000
| 14>  C        2.8711230000     1.1644570000     0.8698020000
| 15>  C        2.8045470000     2.6191210000     0.3749690000
| 16>  N        2.3760110000     3.0251240000     1.7219480000
| 17>  C        1.9818410000     1.6401870000     2.0310390000
| 18>  H        2.0365970000    -1.8308430000     0.1027200000
| 19>  H        1.3450010000     0.3312830000    -0.3716940000
| 20>  H        3.0008340000     0.0275670000    -0.9355410000
| 21>  H        3.8728390000     0.9096590000     1.2224010000
| 22>  H        2.0346270000     2.7444340000    -0.4008620000
| 23>  H        3.7311810000     3.0839250000     0.0277690000
| 24>  H        1.6357020000     3.7133930000     1.7590210000
| 25>  H        0.9233010000     1.4160590000     1.8375470000
| 26>  H        2.2349570000     1.3051300000     3.0392200000
| 27> *
| 28>
| 29>                          ****END OF INPUT****
 Total Charge           Charge          ....    0
 Multiplicity           Mult            ....    1
 Number of Electrons    NEL             ....   48
 Basis Dimension        Dim             ....  129

MULLIKEN ATOMIC CHARGES
-----------------------
   0 O :   -0.278689
   1 C :    0.226910
   2 C :   -0.266321
   3 C :    0.169015
   4 N :   -0.282680
   5 C :    0.184351
   6 H :    0.154240
   7 H :   -0.022580
   8 H :   -0.002891
   9 H :    0.023049
  10 H :   -0.009150
  11 H :    0.009442
  12 H :    0.092896
  13 H :   -0.009814
  14 H :    0.012220
Sum of atomic charges:   -0.0000000

LOEWDIN ATOMIC CHARGES
----------------------
   0 O :   -0.129051
   1 C :    0.055862
   2 C :   -0.052422
   3 C :    0.031555
   4 N :   -0.115810
   5 C :    0.033903
   6 H :    0.070507
   7 H :   -0.002190
   8 H :    0.004811
   9 H :    0.031580
  10 H :    0.001788
  11 H :    0.009609
  12 H :    0.044616
  13 H :    0.003274
  14 H :    0.011968

  Mayer bond orders larger than 0.1
B(  0-O ,  1-C ) :   1.1057 B(  0-O ,  6-H ) :   0.9800 B(  1-C ,  2-C ) :   1.0591
B(  1-C ,  7-H ) :   0.9117 B(  1-C ,  8-H ) :   0.9278 B(  2-C ,  3-C ) :   1.0503
B(  2-C ,  5-C ) :   1.0625 B(  2-C ,  9-H ) :   0.8971 B(  3-C ,  4-N ) :   1.0530
B(  3-C , 10-H ) :   0.9227 B(  3-C , 11-H ) :   0.9344 B(  4-N ,  5-C ) :   1.0513
B(  4-N , 12-H ) :   0.9433 B(  5-C , 13-H ) :   0.9230 B(  5-C , 14-H ) :   0.9368

FINAL SINGLE POINT ENERGY      -287.190572546934

DIPOLE MOMENT
-------------
                                X             Y             Z
Electronic contribution:      0.56166      -1.23065       1.12017
Nuclear contribution   :     -1.08976       1.05852      -1.86609
                        -----------------------------------------
Total Dipole Moment    :     -0.52809      -0.17213      -0.74592
                        -----------------------------------------
Magnitude (a.u.)       :      0.93001
Magnitude (Debye)      :      2.36389

                             ****ORCA TERMINATED NORMALLY****
TOTAL RUN TIME: 0 days 0 hours 0 minutes 6 seconds 150 msec
