                         Program Version 3.0.3 - RELEASE   -
|  1> ! RI PBE def2-SVP def2-SVP/J NBO PAL2
|  2> % maxcore 2000
|  3> % output
|  4>     # printlevel mini
|  5>     print[ P_Basis ] 0
|  6>     print[ P_SCFInfo ] 1
|  7>     print[ P_SCFIterInfo ] 1
|  8>     print[ P_OrbEn ] 0
|  9>     print[ P_Cartesian ] 0
| 10> end
| 11> *xyz 0 1
| 12>  O        1.6460470000    -0.8165760000    -0.6490480000
| 13>  C        2.1633760000     0.0571000000    -0.0093800000
| 14>  C        2.9902190000     1.1613780000    -0.5737150000
| 15>  C        2.6448530000     2.5968090000    -0.1165510000
| 16>  N        4.0768830000     2.8664780000     0.0594810000
| 17>  C        4.3561200000     1.4259960000     0.0993760000
| 18>  H        2.0464460000     0.0905020000     1.0993590000
| 19>  H        3.0594240000     1.0630050000    -1.6561560000
| 20>  H        2.0643310000     2.5932720000     0.8169420000
| 21>  H        2.1383200000     3.2329640000    -0.8455930000
| 22>  H        4.3306450000     3.3899390000     0.8869350000
| 23>  H        4.3958170000     0.9981120000     1.1111760000
| 24>  H        5.2428200000     1.1090300000    -0.4538260000
| 25> *
| 26>
| 27>                          ****END OF INPUT****
 Total Charge           Charge          ....    0
 Multiplicity           Mult            ....    1
 Number of Electrons    NEL             ....   46
 Basis Dimension        Dim             ....  119

MULLIKEN ATOMIC CHARGES
-----------------------
   0 O :   -0.147310
   1 C :    0.152813
   2 C :   -0.253716
   3 C :    0.171569
   4 N :   -0.276564
   5 C :    0.185131
   6 H :   -0.025271
   7 H :    0.035375
   8 H :    0.003024
   9 H :    0.031428
  10 H :    0.097388
  11 H :   -0.000037
  12 H :    0.026171
Sum of atomic charges:   -0.0000000

LOEWDIN ATOMIC CHARGES
----------------------
   0 O :   -0.099410
   1 C :    0.083207
   2 C :   -0.078257
   3 C :    0.042987
   4 N :   -0.111003
   5 C :    0.045763
   6 H :   -0.017485
   7 H :    0.038590
   8 H :    0.006230
   9 H :    0.018340
  10 H :    0.048003
  11 H :    0.005518
  12 H :    0.017516

  Mayer bond orders larger than 0.1
B(  0-O ,  1-C ) :   2.1880 B(  1-C ,  2-C ) :   0.9620 B(  1-C ,  6-H ) :   0.9112
B(  2-C ,  3-C ) :   1.0247 B(  2-C ,  5-C ) :   1.0277 B(  2-C ,  7-H ) :   0.9007
B(  3-C ,  4-N ) :   1.0499 B(  3-C ,  8-H ) :   0.9266 B(  3-C ,  9-H ) :   0.9349
B(  4-N ,  5-C ) :   1.0496 B(  4-N , 10-H ) :   0.9421 B(  5-C , 11-H ) :   0.9271
B(  5-C , 12-H ) :   0.9345

FINAL SINGLE POINT ENERGY      -285.995327813258

DIPOLE MOMENT
-------------
                                X             Y             Z
Electronic contribution:     -1.94547      -3.10971      -1.42423
Nuclear contribution   :      2.31063       3.76629       2.11283
                        -----------------------------------------
Total Dipole Moment    :      0.36515       0.65658       0.68860
                        -----------------------------------------
Magnitude (a.u.)       :      1.01912
Magnitude (Debye)      :      2.59040

                             ****ORCA TERMINATED NORMALLY****
TOTAL RUN TIME: 0 days 0 hours 0 minutes 5 seconds 464 msec
