                         Program Version 3.0.3 - RELEASE   -
|  1> ! RI PBE def2-SVP def2-SVP/J NBO PAL2
|  2> % maxcore 2000
|  3> % output
|  4>     # printlevel mini
|  5>     print[ P_Basis ] 0
|  6>     print[ P_SCFInfo ] 1
|  7>     print[ P_SCFIterInfo ] 1
|  8>     print[ P_OrbEn ] 0
|  9>     print[ P_Cartesian ] 0
| 10> end
| 11> *xyz 0 1
| 12>  O        2.7048240000     1.3475090000     0.2294620000
| 13>  C        2.2471040000     0.1247410000    -0.3130290000
| 14>  C        3.0357670000    -0.9984210000     0.3273200000
| 15>  C        4.4949870000    -0.9726690000    -0.0272230000
| 16>  C        5.2764520000    -2.2205640000    -0.0559850000
| 17>  N        4.9497730000    -1.5258670000    -1.3017860000
| 18>  H        2.3031480000     2.0713620000    -0.2551740000
| 19>  H        2.3876820000     0.1023320000    -1.4029500000
| 20>  H        1.1764060000    -0.0157530000    -0.1098470000
| 21>  H        2.6011690000    -1.9569410000     0.0189820000
| 22>  H        2.9168070000    -0.9271570000     1.4140820000
| 23>  H        5.0078360000    -0.0551630000     0.2444910000
| 24>  H        4.7534300000    -3.1445270000     0.1743620000
| 25>  H        6.3277580000    -2.2160540000     0.2103410000
| 26>  H        4.1808470000    -2.0001200000    -1.7660460000
| 27> *
| 28>
| 29>                          ****END OF INPUT****
 Total Charge           Charge          ....    0
 Multiplicity           Mult            ....    1
 Number of Electrons    NEL             ....   48
 Basis Dimension        Dim             ....  129

MULLIKEN ATOMIC CHARGES
-----------------------
   0 O :   -0.280923
   1 C :    0.142151
   2 C :    0.055937
   3 C :   -0.114625
   4 C :    0.043617
   5 N :   -0.201169
   6 H :    0.156761
   7 H :    0.002162
   8 H :    0.003539
   9 H :   -0.018772
  10 H :    0.029027
  11 H :    0.030876
  12 H :    0.020630
  13 H :    0.032819
  14 H :    0.097970
Sum of atomic charges:   -0.0000000

LOEWDIN ATOMIC CHARGES
----------------------
   0 O :   -0.127588
   1 C :    0.056047
   2 C :   -0.058077
   3 C :   -0.005658
   4 C :   -0.000299
   5 N :   -0.109527
   6 H :    0.072438
   7 H :    0.005259
   8 H :    0.004360
   9 H :    0.024973
  10 H :    0.036340
  11 H :    0.023830
  12 H :    0.011953
  13 H :    0.020310
  14 H :    0.045639

  Mayer bond orders larger than 0.1
B(  0-O ,  1-C ) :   1.0869 B(  0-O ,  6-H ) :   0.9800 B(  1-C ,  2-C ) :   1.0858
B(  1-C ,  7-H ) :   0.9309 B(  1-C ,  8-H ) :   0.9328 B(  2-C ,  3-C ) :   1.0736
B(  2-C ,  9-H ) :   0.9027 B(  2-C , 10-H ) :   0.9150 B(  3-C ,  4-C ) :   1.0529
B(  3-C ,  5-N ) :   0.9779 B(  3-C , 11-H ) :   0.9338 B(  4-C ,  5-N ) :   1.0131
B(  4-C , 12-H ) :   0.9399 B(  4-C , 13-H ) :   0.9402 B(  5-N , 14-H ) :   0.9467

FINAL SINGLE POINT ENERGY      -287.189586107469

DIPOLE MOMENT
-------------
                                X             Y             Z
Electronic contribution:      0.98029       1.97735      -0.31083
Nuclear contribution   :     -1.84058      -2.10233       0.25479
                        -----------------------------------------
Total Dipole Moment    :     -0.86029      -0.12497      -0.05605
                        -----------------------------------------
Magnitude (a.u.)       :      0.87113
Magnitude (Debye)      :      2.21423

                             ****ORCA TERMINATED NORMALLY****
TOTAL RUN TIME: 0 days 0 hours 0 minutes 6 seconds 178 msec
