                         Program Version 3.0.3 - RELEASE   -
|  1> ! RI PBE def2-SVP def2-SVP/J NBO PAL2
|  2> % maxcore 2000
|  3> % output
|  4>     # printlevel mini
|  5>     print[ P_Basis ] 0
|  6>     print[ P_SCFInfo ] 1
|  7>     print[ P_SCFIterInfo ] 1
|  8>     print[ P_OrbEn ] 0
|  9>     print[ P_Cartesian ] 0
| 10> end
| 11> *xyz 0 1
| 12>  O        2.4646930000    -2.0446320000    -3.0314350000
| 13>  C        2.4858610000    -0.8855630000    -2.7248670000
| 14>  C        3.4333970000    -0.2757570000    -1.7308960000
| 15>  C        4.4226070000    -1.2349930000    -1.1429660000
| 16>  C        5.7701730000    -1.3633480000    -1.7225600000
| 17>  N        5.5829610000    -0.7293760000    -0.4182550000
| 18>  H        1.7646510000    -0.1680150000    -3.1752090000
| 19>  H        2.8136120000     0.1877390000    -0.9490960000
| 20>  H        3.9386670000     0.5629500000    -2.2297730000
| 21>  H        3.9804980000    -2.1184270000    -0.6934450000
| 22>  H        6.0115700000    -0.7369990000    -2.5764970000
| 23>  H        6.2805730000    -2.3193070000    -1.7014010000
| 24>  H        5.6432490000     0.2799290000    -0.5075110000
| 25> *
| 26>
| 27>                          ****END OF INPUT****
 Total Charge           Charge          ....    0
 Multiplicity           Mult            ....    1
 Number of Electrons    NEL             ....   46
 Basis Dimension        Dim             ....  119

MULLIKEN ATOMIC CHARGES
-----------------------
   0 O :   -0.149454
   1 C :    0.080913
   2 C :    0.071137
   3 C :   -0.119302
   4 C :    0.041460
   5 N :   -0.184737
   6 H :   -0.006089
   7 H :    0.047239
   8 H :    0.014618
   9 H :    0.034598
  10 H :    0.024851
  11 H :    0.042428
  12 H :    0.102337
Sum of atomic charges:    0.0000000

LOEWDIN ATOMIC CHARGES
----------------------
   0 O :   -0.101360
   1 C :    0.092794
   2 C :   -0.090551
   3 C :   -0.004443
   4 C :    0.006332
   5 N :   -0.100267
   6 H :   -0.011431
   7 H :    0.051146
   8 H :    0.043113
   9 H :    0.026988
  10 H :    0.013042
  11 H :    0.024754
  12 H :    0.049881

  Mayer bond orders larger than 0.1
B(  0-O ,  1-C ) :   2.2057 B(  1-C ,  2-C ) :   0.9514 B(  1-C ,  6-H ) :   0.9255
B(  2-C ,  3-C ) :   1.0452 B(  2-C ,  7-H ) :   0.8962 B(  2-C ,  8-H ) :   0.8911
B(  3-C ,  4-C ) :   1.0535 B(  3-C ,  5-N ) :   0.9937 B(  3-C ,  9-H ) :   0.9344
B(  4-C ,  5-N ) :   1.0130 B(  4-C , 10-H ) :   0.9426 B(  4-C , 11-H ) :   0.9434
B(  5-N , 12-H ) :   0.9498

FINAL SINGLE POINT ENERGY      -285.993976045257

DIPOLE MOMENT
-------------
                                X             Y             Z
Electronic contribution:     -2.21335      -1.99594      -0.94929
Nuclear contribution   :      2.15951       3.07482       0.78886
                        -----------------------------------------
Total Dipole Moment    :     -0.05384       1.07888      -0.16042
                        -----------------------------------------
Magnitude (a.u.)       :      1.09207
Magnitude (Debye)      :      2.77583

                             ****ORCA TERMINATED NORMALLY****
TOTAL RUN TIME: 0 days 0 hours 0 minutes 5 seconds 196 msec
