                         Program Version 3.0.3 - RELEASE   -
|  1> ! RI PBE def2-SVP def2-SVP/J NBO PAL2
|  2> % maxcore 2000
|  3> % output
|  4>     # printlevel mini
|  5>     print[ P_Basis ] 0
|  6>     print[ P_SCFInfo ] 1
|  7>     print[ P_SCFIterInfo ] 1
|  8>     print[ P_OrbEn ] 0
|  9>     print[ P_Cartesian ] 0
| 10> end
| 11> *xyz 0 1
| 12>  O        0.8640040000     0.0578370000     0.0327450000
| 13>  C        2.0645920000     0.0199350000     0.0744930000
| 14>  C        2.8270060000    -0.7998870000     0.9757010000
| 15>  C        3.4797370000    -1.4780770000     1.7212200000
| 16>  C        2.8799020000     0.8424040000    -0.8297040000
| 17>  N        3.5112440000     1.4891450000    -1.5407070000
| 18>  H        4.0495150000    -2.0845680000     2.3879620000
| 19> *
| 20>
| 21>                          ****END OF INPUT****
 Total Charge           Charge          ....    0
 Multiplicity           Mult            ....    1
 Number of Electrons    NEL             ....   40
 Basis Dimension        Dim             ....   89

MULLIKEN ATOMIC CHARGES
-----------------------
   0 O :   -0.084266
   1 C :    0.040013
   2 C :    0.411320
   3 C :   -0.355094
   4 C :   -0.121078
   5 N :    0.069234
   6 H :    0.039871
Sum of atomic charges:   -0.0000000

LOEWDIN ATOMIC CHARGES
----------------------
   0 O :   -0.040032
   1 C :    0.017496
   2 C :   -0.030981
   3 C :    0.043057
   4 C :   -0.045492
   5 N :    0.003326
   6 H :    0.052627

  Mayer bond orders larger than 0.1
B(  0-O ,  1-C ) :   2.1886 B(  0-O ,  3-C ) :   0.1135 B(  0-O ,  5-N ) :   0.1013
B(  1-C ,  2-C ) :   0.9247 B(  1-C ,  4-C ) :   0.9386 B(  2-C ,  3-C ) :   2.3053
B(  3-C ,  6-H ) :   1.0831 B(  4-C ,  5-N ) :   3.0220

FINAL SINGLE POINT ENERGY      -282.344031209198

DIPOLE MOMENT
-------------
                                X             Y             Z
Electronic contribution:     -0.89081       1.08426      -1.19135
Nuclear contribution   :      1.37956      -1.97912       2.17569
                        -----------------------------------------
Total Dipole Moment    :      0.48874      -0.89486       0.98434
                        -----------------------------------------
Magnitude (a.u.)       :      1.41724
Magnitude (Debye)      :      3.60233

                             ****ORCA TERMINATED NORMALLY****
TOTAL RUN TIME: 0 days 0 hours 0 minutes 3 seconds 831 msec
