                         Program Version 3.0.3 - RELEASE   -
|  1> ! RI PBE def2-SVP def2-SVP/J NBO PAL2
|  2> % maxcore 2000
|  3> % output
|  4>     # printlevel mini
|  5>     print[ P_Basis ] 0
|  6>     print[ P_SCFInfo ] 1
|  7>     print[ P_SCFIterInfo ] 1
|  8>     print[ P_OrbEn ] 0
|  9>     print[ P_Cartesian ] 0
| 10> end
| 11> *xyz 0 1
| 12>  O        0.9777680000     0.1207920000     0.0752250000
| 13>  C        2.1727410000    -0.0036400000     0.0456250000
| 14>  C        2.8626900000    -1.2790650000     0.2886040000
| 15>  C        4.1964440000    -1.3365310000     0.2380010000
| 16>  C        4.9379670000    -2.5254080000     0.4599850000
| 17>  N        5.5590810000    -3.4793520000     0.6368530000
| 18>  H        2.8415340000     0.8565040000    -0.1719340000
| 19>  H        2.2517110000    -2.1485180000     0.5053780000
| 20>  H        4.7773640000    -0.4440820000     0.0177630000
| 21> *
| 22>
| 23>                          ****END OF INPUT****
 Total Charge           Charge          ....    0
 Multiplicity           Mult            ....    1
 Number of Electrons    NEL             ....   42
 Basis Dimension        Dim             ....   99

MULLIKEN ATOMIC CHARGES
-----------------------
   0 O :   -0.137149
   1 C :    0.129380
   2 C :    0.008744
   3 C :   -0.091058
   4 C :   -0.080793
   5 N :    0.071296
   6 H :   -0.006476
   7 H :    0.043474
   8 H :    0.062582
Sum of atomic charges:   -0.0000000

LOEWDIN ATOMIC CHARGES
----------------------
   0 O :   -0.084109
   1 C :    0.075417
   2 C :   -0.010976
   3 C :   -0.022588
   4 C :   -0.036366
   5 N :   -0.022642
   6 H :   -0.005163
   7 H :    0.049796
   8 H :    0.056631

  Mayer bond orders larger than 0.1
B(  0-O ,  1-C ) :   2.1239 B(  1-C ,  2-C ) :   1.0154 B(  1-C ,  6-H ) :   0.9311
B(  2-C ,  3-C ) :   1.7199 B(  2-C ,  5-N ) :   0.1031 B(  2-C ,  7-H ) :   0.9651
B(  3-C ,  4-C ) :   1.1205 B(  3-C ,  8-H ) :   0.9398 B(  4-C ,  5-N ) :   2.9537

FINAL SINGLE POINT ENERGY      -283.606677794926

DIPOLE MOMENT
-------------
                                X             Y             Z
Electronic contribution:      0.44076      -1.49227       0.29967
Nuclear contribution   :     -0.26307       2.21218      -0.46576
                        -----------------------------------------
Total Dipole Moment    :      0.17768       0.71990      -0.16609
                        -----------------------------------------
Magnitude (a.u.)       :      0.75988
Magnitude (Debye)      :      1.93146

                             ****ORCA TERMINATED NORMALLY****
TOTAL RUN TIME: 0 days 0 hours 0 minutes 4 seconds 268 msec
