                         Program Version 3.0.3 - RELEASE   -
|  1> ! RI PBE def2-SVP def2-SVP/J NBO PAL2
|  2> % maxcore 2000
|  3> % output
|  4>     # printlevel mini
|  5>     print[ P_Basis ] 0
|  6>     print[ P_SCFInfo ] 1
|  7>     print[ P_SCFIterInfo ] 1
|  8>     print[ P_OrbEn ] 0
|  9>     print[ P_Cartesian ] 0
| 10> end
| 11> *xyz 0 1
| 12>  O        0.9077260000     0.0509740000     0.0757180000
| 13>  C        2.1061840000    -0.0170550000     0.0775030000
| 14>  C        2.8257490000    -1.2727360000     0.1074810000
| 15>  C        3.4627150000    -2.2974380000     0.1319550000
| 16>  C        4.1724790000    -3.4647000000     0.1598300000
| 17>  N        4.7755840000    -4.4491420000     0.1833410000
| 18>  H        2.7519630000     0.8792860000     0.0559620000
| 19> *
| 20>
| 21>                          ****END OF INPUT****
 Total Charge           Charge          ....    0
 Multiplicity           Mult            ....    1
 Number of Electrons    NEL             ....   40
 Basis Dimension        Dim             ....   89

MULLIKEN ATOMIC CHARGES
-----------------------
   0 O :   -0.122655
   1 C :    0.096950
   2 C :   -0.071352
   3 C :    0.054493
   4 C :   -0.115386
   5 N :    0.117300
   6 H :    0.040650
Sum of atomic charges:   -0.0000000

LOEWDIN ATOMIC CHARGES
----------------------
   0 O :   -0.057995
   1 C :    0.078892
   2 C :    0.009986
   3 C :   -0.020558
   4 C :   -0.038111
   5 N :    0.011894
   6 H :    0.015893

  Mayer bond orders larger than 0.1
B(  0-O ,  1-C ) :   2.1456 B(  0-O ,  3-C ) :   0.1142 B(  1-C ,  2-C ) :   0.8783
B(  1-C ,  6-H ) :   0.9432 B(  2-C ,  3-C ) :   2.4460 B(  2-C ,  4-C ) :  -0.1094
B(  2-C ,  5-N ) :   0.1908 B(  3-C ,  4-C ) :   1.0178 B(  4-C ,  5-N ) :   2.8552

FINAL SINGLE POINT ENERGY      -282.357073566920

DIPOLE MOMENT
-------------
                                X             Y             Z
Electronic contribution:      0.44002      -1.70034       0.04053
Nuclear contribution   :     -0.22911       2.56297      -0.06130
                        -----------------------------------------
Total Dipole Moment    :      0.21090       0.86263      -0.02077
                        -----------------------------------------
Magnitude (a.u.)       :      0.88828
Magnitude (Debye)      :      2.25782

                             ****ORCA TERMINATED NORMALLY****
TOTAL RUN TIME: 0 days 0 hours 0 minutes 3 seconds 900 msec
