                         Program Version 3.0.3 - RELEASE   -
|  1> ! RI PBE def2-SVP def2-SVP/J NBO PAL2
|  2> % maxcore 2000
|  3> % output
|  4>     # printlevel mini
|  5>     print[ P_Basis ] 0
|  6>     print[ P_SCFInfo ] 1
|  7>     print[ P_SCFIterInfo ] 1
|  8>     print[ P_OrbEn ] 0
|  9>     print[ P_Cartesian ] 0
| 10> end
| 11> *xyz 0 1
| 12>  O        2.4198440000     0.8767600000    -0.8872290000
| 13>  C        2.0753620000     0.1126550000    -0.0290200000
| 14>  C        3.0207090000    -0.6324010000     0.8659100000
| 15>  C        4.4791460000    -0.3133750000     0.5656450000
| 16>  C        5.3850320000    -1.0400890000     1.4386900000
| 17>  N        6.0855950000    -1.6237840000     2.1386330000
| 18>  H        0.9995640000    -0.0908850000     0.1549990000
| 19>  H        2.8145680000    -1.7038170000     0.7590810000
| 20>  H        2.7636140000    -0.3924190000     1.9042740000
| 21>  H        4.6619770000     0.7584270000     0.6751870000
| 22>  H        4.7133790000    -0.5574810000    -0.4734620000
| 23> *
| 24>
| 25>                          ****END OF INPUT****
 Total Charge           Charge          ....    0
 Multiplicity           Mult            ....    1
 Number of Electrons    NEL             ....   44
 Basis Dimension        Dim             ....  109

MULLIKEN ATOMIC CHARGES
-----------------------
   0 O :   -0.155184
   1 C :    0.100389
   2 C :   -0.063276
   3 C :    0.070326
   4 C :   -0.283316
   5 N :    0.062297
   6 H :    0.007563
   7 H :    0.066465
   8 H :    0.063082
   9 H :    0.067280
  10 H :    0.064375
Sum of atomic charges:   -0.0000000

LOEWDIN ATOMIC CHARGES
----------------------
   0 O :   -0.100098
   1 C :    0.097017
   2 C :   -0.071453
   3 C :   -0.053564
   4 C :   -0.046836
   5 N :   -0.064817
   6 H :   -0.003192
   7 H :    0.057125
   8 H :    0.056694
   9 H :    0.064730
  10 H :    0.064393

  Mayer bond orders larger than 0.1
B(  0-O ,  1-C ) :   2.1777 B(  1-C ,  2-C ) :   0.9675 B(  1-C ,  6-H ) :   0.9379
B(  2-C ,  3-C ) :   1.0844 B(  2-C ,  7-H ) :   0.9101 B(  2-C ,  8-H ) :   0.9093
B(  3-C ,  4-C ) :   1.1247 B(  3-C ,  9-H ) :   0.8921 B(  3-C , 10-H ) :   0.8903
B(  4-C ,  5-N ) :   3.0568

FINAL SINGLE POINT ENERGY      -284.824962662450

DIPOLE MOMENT
-------------
                                X             Y             Z
Electronic contribution:      2.01236       0.09282      -0.01557
Nuclear contribution   :     -3.09215       0.02411      -0.16916
                        -----------------------------------------
Total Dipole Moment    :     -1.07979       0.11693      -0.18474
                        -----------------------------------------
Magnitude (a.u.)       :      1.10170
Magnitude (Debye)      :      2.80031

                             ****ORCA TERMINATED NORMALLY****
TOTAL RUN TIME: 0 days 0 hours 0 minutes 5 seconds 278 msec
