                         Program Version 3.0.3 - RELEASE   -
|  1> ! RI PBE def2-SVP def2-SVP/J NBO PAL2
|  2> % maxcore 2000
|  3> % output
|  4>     # printlevel mini
|  5>     print[ P_Basis ] 0
|  6>     print[ P_SCFInfo ] 1
|  7>     print[ P_SCFIterInfo ] 1
|  8>     print[ P_OrbEn ] 0
|  9>     print[ P_Cartesian ] 0
| 10> end
| 11> *xyz 0 1
| 12>  O        1.0269600000     0.0191160000     0.4715410000
| 13>  C        2.3744810000    -0.0717720000     0.0672370000
| 14>  C        2.5622480000    -1.0757500000    -1.0353850000
| 15>  C        3.0958100000    -0.8309740000    -2.2217390000
| 16>  C        2.9158630000     1.2502610000    -0.2881560000
| 17>  N        3.3179620000     2.2868220000    -0.5787150000
| 18>  H        0.4978240000     0.2479290000    -0.3000230000
| 19>  H        2.9150200000    -0.4101050000     0.9582540000
| 20>  H        2.1888820000    -2.0637710000    -0.7809230000
| 21>  H        3.4729100000     0.1514520000    -2.4872460000
| 22>  H        3.1797400000    -1.6136090000    -2.9661440000
| 23> *
| 24>
| 25>                          ****END OF INPUT****
 Total Charge           Charge          ....    0
 Multiplicity           Mult            ....    1
 Number of Electrons    NEL             ....   44
 Basis Dimension        Dim             ....  109

MULLIKEN ATOMIC CHARGES
-----------------------
   0 O :   -0.257768
   1 C :    0.303982
   2 C :   -0.141503
   3 C :    0.013268
   4 C :   -0.278170
   5 N :    0.041457
   6 H :    0.165059
   7 H :    0.046351
   8 H :    0.024558
   9 H :    0.042300
  10 H :    0.040465
Sum of atomic charges:   -0.0000000

LOEWDIN ATOMIC CHARGES
----------------------
   0 O :   -0.080036
   1 C :    0.025244
   2 C :   -0.048342
   3 C :   -0.032162
   4 C :   -0.055616
   5 N :   -0.050771
   6 H :    0.078332
   7 H :    0.058861
   8 H :    0.035105
   9 H :    0.034672
  10 H :    0.034713

  Mayer bond orders larger than 0.1
B(  0-O ,  1-C ) :   1.0530 B(  0-O ,  6-H ) :   0.9772 B(  1-C ,  2-C ) :   1.0189
B(  1-C ,  4-C ) :   0.9821 B(  1-C ,  7-H ) :   0.8441 B(  2-C ,  3-C ) :   2.0026
B(  2-C ,  8-H ) :   0.9599 B(  3-C ,  9-H ) :   0.9151 B(  3-C , 10-H ) :   0.9435
B(  4-C ,  5-N ) :   3.0396

FINAL SINGLE POINT ENERGY      -284.792196648907

DIPOLE MOMENT
-------------
                                X             Y             Z
Electronic contribution:     -0.14940       3.43754       2.17451
Nuclear contribution   :     -0.19293      -4.57400      -2.50839
                        -----------------------------------------
Total Dipole Moment    :     -0.34233      -1.13646      -0.33389
                        -----------------------------------------
Magnitude (a.u.)       :      1.23297
Magnitude (Debye)      :      3.13396

                             ****ORCA TERMINATED NORMALLY****
TOTAL RUN TIME: 0 days 0 hours 0 minutes 4 seconds 829 msec
