                         Program Version 3.0.3 - RELEASE   -
|  1> ! RI PBE def2-SVP def2-SVP/J NBO PAL2
|  2> % maxcore 2000
|  3> % output
|  4>     # printlevel mini
|  5>     print[ P_Basis ] 0
|  6>     print[ P_SCFInfo ] 1
|  7>     print[ P_SCFIterInfo ] 1
|  8>     print[ P_OrbEn ] 0
|  9>     print[ P_Cartesian ] 0
| 10> end
| 11> *xyz 0 1
| 12>  O        1.0373520000    -0.0753330000     0.0056810000
| 13>  C        2.4425550000    -0.0699510000    -0.0872700000
| 14>  C        2.9472070000    -0.8648430000    -1.2065250000
| 15>  C        3.3333920000    -1.5606740000    -2.1023060000
| 16>  C        2.8836320000     1.3279620000    -0.2028980000
| 17>  N        3.2583340000     2.4109800000    -0.2650530000
| 18>  H        0.7368520000    -0.9720310000    -0.1723110000
| 19>  H        2.8958330000    -0.4598340000     0.8376610000
| 20>  H        3.6809440000    -2.1662760000    -2.9067780000
| 21> *
| 22>
| 23>                          ****END OF INPUT****
 Total Charge           Charge          ....    0
 Multiplicity           Mult            ....    1
 Number of Electrons    NEL             ....   42
 Basis Dimension        Dim             ....   99

MULLIKEN ATOMIC CHARGES
-----------------------
   0 O :   -0.222658
   1 C :    0.243462
   2 C :    0.311948
   3 C :   -0.446381
   4 C :   -0.192307
   5 N :    0.049419
   6 H :    0.170747
   7 H :    0.065257
   8 H :    0.020512
Sum of atomic charges:   -0.0000000

LOEWDIN ATOMIC CHARGES
----------------------
   0 O :   -0.081146
   1 C :    0.029768
   2 C :   -0.040768
   3 C :   -0.028094
   4 C :   -0.030141
   5 N :   -0.033253
   6 H :    0.082031
   7 H :    0.056803
   8 H :    0.044801

  Mayer bond orders larger than 0.1
B(  0-O ,  1-C ) :   1.2183 B(  0-O ,  6-H ) :   0.9692 B(  1-C ,  2-C ) :   0.9759
B(  1-C ,  4-C ) :   0.9802 B(  1-C ,  7-H ) :   0.8955 B(  2-C ,  3-C ) :   2.3951
B(  2-C ,  8-H ) :  -0.1076 B(  3-C ,  8-H ) :   1.0973 B(  4-C ,  5-N ) :   3.0846

FINAL SINGLE POINT ENERGY      -283.536761533633

DIPOLE MOMENT
-------------
                                X             Y             Z
Electronic contribution:      0.28269       2.11911       0.29591
Nuclear contribution   :     -0.41372      -3.88506      -0.38710
                        -----------------------------------------
Total Dipole Moment    :     -0.13103      -1.76595      -0.09119
                        -----------------------------------------
Magnitude (a.u.)       :      1.77315
Magnitude (Debye)      :      4.50699

                             ****ORCA TERMINATED NORMALLY****
TOTAL RUN TIME: 0 days 0 hours 0 minutes 4 seconds 259 msec
