                         Program Version 3.0.3 - RELEASE   -
|  1> ! RI PBE def2-SVP def2-SVP/J NBO PAL2
|  2> % maxcore 2000
|  3> % output
|  4>     # printlevel mini
|  5>     print[ P_Basis ] 0
|  6>     print[ P_SCFInfo ] 1
|  7>     print[ P_SCFIterInfo ] 1
|  8>     print[ P_OrbEn ] 0
|  9>     print[ P_Cartesian ] 0
| 10> end
| 11> *xyz 0 1
| 12>  O        1.6578160000    -1.4133170000     0.0450220000
| 13>  C        2.3843590000    -0.2108450000    -0.0793660000
| 14>  C        2.9051360000     0.1603160000     1.2625350000
| 15>  C        4.1598960000     0.5462070000     1.4863760000
| 16>  C        4.6237060000     0.9519360000     2.7673580000
| 17>  N        5.0229590000     1.2862410000     3.7952340000
| 18>  H        1.1607560000    -1.5584140000    -0.7632640000
| 19>  H        1.7341030000     0.6055400000    -0.4301950000
| 20>  H        3.2129930000    -0.3049220000    -0.7938950000
| 21>  H        2.1911700000     0.1209330000     2.0800240000
| 22>  H        4.8918060000     0.5712150000     0.6844700000
| 23> *
| 24>
| 25>                          ****END OF INPUT****
 Total Charge           Charge          ....    0
 Multiplicity           Mult            ....    1
 Number of Electrons    NEL             ....   44
 Basis Dimension        Dim             ....  109

MULLIKEN ATOMIC CHARGES
-----------------------
   0 O :   -0.274997
   1 C :    0.194314
   2 C :   -0.038908
   3 C :   -0.102869
   4 C :   -0.105187
   5 N :    0.040941
   6 H :    0.161789
   7 H :    0.030335
   8 H :    0.010359
   9 H :    0.037377
  10 H :    0.046847
Sum of atomic charges:   -0.0000000

LOEWDIN ATOMIC CHARGES
----------------------
   0 O :   -0.120354
   1 C :    0.056576
   2 C :    0.021705
   3 C :   -0.071000
   4 C :   -0.041874
   5 N :   -0.052897
   6 H :    0.075502
   7 H :    0.025362
   8 H :    0.013713
   9 H :    0.043162
  10 H :    0.050106

  Mayer bond orders larger than 0.1
B(  0-O ,  1-C ) :   1.0840 B(  0-O ,  6-H ) :   0.9757 B(  1-C ,  2-C ) :   1.0505
B(  1-C ,  7-H ) :   0.9090 B(  1-C ,  8-H ) :   0.9274 B(  2-C ,  3-C ) :   1.8381
B(  2-C ,  5-N ) :   0.1088 B(  2-C ,  9-H ) :   0.9587 B(  3-C ,  4-C ) :   1.1223
B(  3-C , 10-H ) :   0.9377 B(  4-C ,  5-N ) :   2.9663

FINAL SINGLE POINT ENERGY      -284.798215581839

DIPOLE MOMENT
-------------
                                X             Y             Z
Electronic contribution:      2.56171       1.03141       4.18449
Nuclear contribution   :     -3.40353      -1.23747      -6.05139
                        -----------------------------------------
Total Dipole Moment    :     -0.84182      -0.20606      -1.86690
                        -----------------------------------------
Magnitude (a.u.)       :      2.05826
Magnitude (Debye)      :      5.23168

                             ****ORCA TERMINATED NORMALLY****
TOTAL RUN TIME: 0 days 0 hours 0 minutes 4 seconds 866 msec
