                         Program Version 3.0.3 - RELEASE   -
|  1> ! RI PBE def2-SVP def2-SVP/J NBO PAL2
|  2> % maxcore 2000
|  3> % output
|  4>     # printlevel mini
|  5>     print[ P_Basis ] 0
|  6>     print[ P_SCFInfo ] 1
|  7>     print[ P_SCFIterInfo ] 1
|  8>     print[ P_OrbEn ] 0
|  9>     print[ P_Cartesian ] 0
| 10> end
| 11> *xyz 0 1
| 12>  O        1.4158810000     0.6713490000    -0.4503540000
| 13>  C        2.6569470000     0.0826330000    -0.1726430000
| 14>  C        2.9273120000    -1.0021530000    -1.1750960000
| 15>  C        2.0993810000    -1.3313900000    -2.1630510000
| 16>  C        4.1701650000    -1.6851140000    -1.0002960000
| 17>  N        5.1801230000    -2.2113470000    -0.8263150000
| 18>  H        1.2533450000     1.3624510000     0.1948900000
| 19>  H        2.6832160000    -0.3610840000     0.8332100000
| 20>  H        3.4770040000     0.8135390000    -0.2237950000
| 21>  H        1.1624470000    -0.8033610000    -2.2802030000
| 22>  H        2.3459590000    -2.1233320000    -2.8579550000
| 23> *
| 24>
| 25>                          ****END OF INPUT****
 Total Charge           Charge          ....    0
 Multiplicity           Mult            ....    1
 Number of Electrons    NEL             ....   44
 Basis Dimension        Dim             ....  109

MULLIKEN ATOMIC CHARGES
-----------------------
   0 O :   -0.257967
   1 C :    0.240249
   2 C :   -0.261202
   3 C :    0.054565
   4 C :   -0.137895
   5 N :    0.054397
   6 H :    0.164926
   7 H :    0.028272
   8 H :    0.031413
   9 H :    0.044124
  10 H :    0.039119
Sum of atomic charges:   -0.0000000

LOEWDIN ATOMIC CHARGES
----------------------
   0 O :   -0.107959
   1 C :    0.072531
   2 C :   -0.086355
   3 C :    0.005014
   4 C :   -0.035756
   5 N :   -0.053572
   6 H :    0.081240
   7 H :    0.025211
   8 H :    0.025919
   9 H :    0.035810
  10 H :    0.037918

  Mayer bond orders larger than 0.1
B(  0-O ,  1-C ) :   1.1195 B(  0-O ,  6-H ) :   0.9713 B(  1-C ,  2-C ) :   0.9872
B(  1-C ,  7-H ) :   0.9188 B(  1-C ,  8-H ) :   0.9186 B(  2-C ,  3-C ) :   1.9505
B(  2-C ,  4-C ) :   1.1002 B(  3-C ,  5-N ) :   0.1082 B(  3-C ,  9-H ) :   0.9185
B(  3-C , 10-H ) :   0.9327 B(  4-C ,  5-N ) :   2.9890

FINAL SINGLE POINT ENERGY      -284.799178426804

DIPOLE MOMENT
-------------
                                X             Y             Z
Electronic contribution:      2.75136      -1.84791       0.01456
Nuclear contribution   :     -3.79912       2.84598       0.30749
                        -----------------------------------------
Total Dipole Moment    :     -1.04776       0.99807       0.32205
                        -----------------------------------------
Magnitude (a.u.)       :      1.48246
Magnitude (Debye)      :      3.76810

                             ****ORCA TERMINATED NORMALLY****
TOTAL RUN TIME: 0 days 0 hours 0 minutes 5 seconds 266 msec
