                         Program Version 3.0.3 - RELEASE   -
|  1> ! RI PBE def2-SVP def2-SVP/J NBO PAL2
|  2> % maxcore 2000
|  3> % output
|  4>     # printlevel mini
|  5>     print[ P_Basis ] 0
|  6>     print[ P_SCFInfo ] 1
|  7>     print[ P_SCFIterInfo ] 1
|  8>     print[ P_OrbEn ] 0
|  9>     print[ P_Cartesian ] 0
| 10> end
| 11> *xyz 0 1
| 12>  O        1.0328760000    -0.0668990000    -0.0735030000
| 13>  C        2.4405320000    -0.0814450000    -0.0718650000
| 14>  C        2.9122240000    -1.4449080000     0.0828320000
| 15>  C        3.3328620000    -2.5661320000     0.2100420000
| 16>  C        3.8098710000    -3.8392710000     0.3544690000
| 17>  N        4.2168130000    -4.9134900000     0.4763050000
| 18>  H        0.7452220000     0.8440660000    -0.1768210000
| 19>  H        2.8566580000     0.5160860000     0.7521330000
| 20>  H        2.8566420000     0.3162920000    -1.0087930000
| 21> *
| 22>
| 23>                          ****END OF INPUT****
 Total Charge           Charge          ....    0
 Multiplicity           Mult            ....    1
 Number of Electrons    NEL             ....   42
 Basis Dimension        Dim             ....   99

MULLIKEN ATOMIC CHARGES
-----------------------
   0 O :   -0.254231
   1 C :    0.196570
   2 C :   -0.161567
   3 C :    0.019822
   4 C :   -0.150106
   5 N :    0.097590
   6 H :    0.164668
   7 H :    0.045284
   8 H :    0.041970
Sum of atomic charges:    0.0000000

LOEWDIN ATOMIC CHARGES
----------------------
   0 O :   -0.108792
   1 C :    0.051457
   2 C :    0.037865
   3 C :   -0.069380
   4 C :   -0.045477
   5 N :   -0.021472
   6 H :    0.078427
   7 H :    0.039039
   8 H :    0.038333

  Mayer bond orders larger than 0.1
B(  0-O ,  1-C ) :   1.1563 B(  0-O ,  6-H ) :   0.9739 B(  1-C ,  2-C ) :   1.0285
B(  1-C ,  7-H ) :   0.9061 B(  1-C ,  8-H ) :   0.9056 B(  2-C ,  3-C ) :   2.4347
B(  2-C ,  5-N ) :   0.1922 B(  3-C ,  4-C ) :   1.0131 B(  3-C ,  5-N ) :   0.1045
B(  4-C ,  5-N ) :   2.8717

FINAL SINGLE POINT ENERGY      -283.556503579871

DIPOLE MOMENT
-------------
                                X             Y             Z
Electronic contribution:      1.68500      -5.07315       0.57523
Nuclear contribution   :     -2.02077       7.26070      -0.82371
                        -----------------------------------------
Total Dipole Moment    :     -0.33577       2.18755      -0.24848
                        -----------------------------------------
Magnitude (a.u.)       :      2.22708
Magnitude (Debye)      :      5.66078

                             ****ORCA TERMINATED NORMALLY****
TOTAL RUN TIME: 0 days 0 hours 0 minutes 3 seconds 884 msec
