                         Program Version 3.0.3 - RELEASE   -
|  1> ! RI PBE def2-SVP def2-SVP/J NBO PAL2
|  2> % maxcore 2000
|  3> % output
|  4>     # printlevel mini
|  5>     print[ P_Basis ] 0
|  6>     print[ P_SCFInfo ] 1
|  7>     print[ P_SCFIterInfo ] 1
|  8>     print[ P_OrbEn ] 0
|  9>     print[ P_Cartesian ] 0
| 10> end
| 11> *xyz 0 1
| 12>  O        2.7655300000     1.1313010000    -0.7326200000
| 13>  C        2.3541740000    -0.0084790000    -0.0029530000
| 14>  C        2.9053830000    -1.2304910000    -0.7006780000
| 15>  C        4.4345210000    -1.2456880000    -0.7525800000
| 16>  C        5.0343820000    -1.3297910000     0.5701710000
| 17>  N        5.4834420000    -1.3962270000     1.6267780000
| 18>  H        2.5553670000     1.9182920000    -0.2258640000
| 19>  H        1.2591490000    -0.0771170000     0.0351510000
| 20>  H        2.7261290000     0.0286610000     1.0296240000
| 21>  H        2.5307230000    -1.2536080000    -1.7275730000
| 22>  H        2.5387620000    -2.1276210000    -0.1954040000
| 23>  H        4.7939260000    -0.3328960000    -1.2342950000
| 24>  H        4.7910010000    -2.0932470000    -1.3436570000
| 25> *
| 26>
| 27>                          ****END OF INPUT****
 Total Charge           Charge          ....    0
 Multiplicity           Mult            ....    1
 Number of Electrons    NEL             ....   46
 Basis Dimension        Dim             ....  119

MULLIKEN ATOMIC CHARGES
-----------------------
   0 O :   -0.284424
   1 C :    0.128464
   2 C :   -0.036802
   3 C :    0.064655
   4 C :   -0.288871
   5 N :    0.038079
   6 H :    0.161444
   7 H :    0.015162
   8 H :    0.022897
   9 H :    0.029831
  10 H :    0.031479
  11 H :    0.063099
  12 H :    0.054986
Sum of atomic charges:    0.0000000

LOEWDIN ATOMIC CHARGES
----------------------
   0 O :   -0.128537
   1 C :    0.056728
   2 C :   -0.038601
   3 C :   -0.057696
   4 C :   -0.044645
   5 N :   -0.074954
   6 H :    0.075538
   7 H :    0.010654
   8 H :    0.012551
   9 H :    0.035057
  10 H :    0.036553
  11 H :    0.059191
  12 H :    0.058163

  Mayer bond orders larger than 0.1
B(  0-O ,  1-C ) :   1.0796 B(  0-O ,  6-H ) :   0.9777 B(  1-C ,  2-C ) :   1.0956
B(  1-C ,  7-H ) :   0.9337 B(  1-C ,  8-H ) :   0.9310 B(  2-C ,  3-C ) :   1.0880
B(  2-C ,  9-H ) :   0.9250 B(  2-C , 10-H ) :   0.9328 B(  3-C ,  4-C ) :   1.1086
B(  3-C , 11-H ) :   0.8897 B(  3-C , 12-H ) :   0.8975 B(  4-C ,  5-N ) :   3.0437

FINAL SINGLE POINT ENERGY      -286.021485290117

DIPOLE MOMENT
-------------
                                X             Y             Z
Electronic contribution:      3.79462      -0.00762       2.39556
Nuclear contribution   :     -4.76083       0.28124      -3.18451
                        -----------------------------------------
Total Dipole Moment    :     -0.96620       0.27362      -0.78895
                        -----------------------------------------
Magnitude (a.u.)       :      1.27705
Magnitude (Debye)      :      3.24600

                             ****ORCA TERMINATED NORMALLY****
TOTAL RUN TIME: 0 days 0 hours 0 minutes 5 seconds 380 msec
