                         Program Version 3.0.3 - RELEASE   -
|  1> ! RI PBE def2-SVP def2-SVP/J NBO PAL2
|  2> % maxcore 2000
|  3> % output
|  4>     # printlevel mini
|  5>     print[ P_Basis ] 0
|  6>     print[ P_SCFInfo ] 1
|  7>     print[ P_SCFIterInfo ] 1
|  8>     print[ P_OrbEn ] 0
|  9>     print[ P_Cartesian ] 0
| 10> end
| 11> *xyz 0 1
| 12>  O        0.9454360000    -0.1424470000     0.4324060000
| 13>  C        2.3501720000    -0.2258460000     0.5594380000
| 14>  C        2.9441650000     0.9718490000    -0.1466090000
| 15>  N        4.3873950000     0.9464990000    -0.0487480000
| 16>  C        5.0553180000     2.2102490000    -0.2662880000
| 17>  C        4.9564440000     1.6349160000     1.0927480000
| 18>  H        0.5543470000    -0.9170170000     0.8409590000
| 19>  H        2.7452870000    -1.1424990000     0.1038320000
| 20>  H        2.6557140000    -0.2175830000     1.6152830000
| 21>  H        2.5101640000     1.8920170000     0.2797710000
| 22>  H        2.6640230000     0.9371450000    -1.2035150000
| 23>  H        4.4354430000     3.0775980000    -0.4815500000
| 24>  H        5.9893100000     2.1646590000    -0.8157280000
| 25>  H        4.2690800000     2.1176070000     1.7842450000
| 26>  H        5.8170010000     1.1625410000     1.5535560000
| 27> *
| 28>
| 29>                          ****END OF INPUT****
 Total Charge           Charge          ....    0
 Multiplicity           Mult            ....    1
 Number of Electrons    NEL             ....   48
 Basis Dimension        Dim             ....  129

MULLIKEN ATOMIC CHARGES
-----------------------
   0 O :   -0.280759
   1 C :    0.160773
   2 C :    0.083900
   3 N :   -0.301186
   4 C :    0.032146
   5 C :    0.025915
   6 H :    0.156690
   7 H :    0.001596
   8 H :   -0.009237
   9 H :   -0.012694
  10 H :    0.018356
  11 H :    0.024192
  12 H :    0.037159
  13 H :    0.027536
  14 H :    0.035613
Sum of atomic charges:    0.0000000

LOEWDIN ATOMIC CHARGES
----------------------
   0 O :   -0.128889
   1 C :    0.052997
   2 C :    0.005308
   3 N :   -0.109160
   4 C :    0.005486
   5 C :    0.000125
   6 H :    0.071670
   7 H :    0.006297
   8 H :    0.001516
   9 H :    0.001994
  10 H :    0.024850
  11 H :    0.013630
  12 H :    0.020864
  13 H :    0.012848
  14 H :    0.020464

  Mayer bond orders larger than 0.1
B(  0-O ,  1-C ) :   1.1035 B(  0-O ,  6-H ) :   0.9796 B(  1-C ,  2-C ) :   1.0836
B(  1-C ,  7-H ) :   0.9278 B(  1-C ,  8-H ) :   0.9339 B(  2-C ,  3-N ) :   0.9998
B(  2-C ,  9-H ) :   0.9078 B(  2-C , 10-H ) :   0.9324 B(  3-N ,  4-C ) :   0.9729
B(  3-N ,  5-C ) :   0.9612 B(  4-C ,  5-C ) :   1.0939 B(  4-C , 11-H ) :   0.9329
B(  4-C , 12-H ) :   0.9506 B(  5-C , 13-H ) :   0.9300 B(  5-C , 14-H ) :   0.9496

FINAL SINGLE POINT ENERGY      -287.181427205828

DIPOLE MOMENT
-------------
                                X             Y             Z
Electronic contribution:     -1.29713      -1.30023      -0.64147
Nuclear contribution   :      1.32402       1.20407       1.04376
                        -----------------------------------------
Total Dipole Moment    :      0.02689      -0.09615       0.40229
                        -----------------------------------------
Magnitude (a.u.)       :      0.41449
Magnitude (Debye)      :      1.05356

                             ****ORCA TERMINATED NORMALLY****
TOTAL RUN TIME: 0 days 0 hours 0 minutes 6 seconds 166 msec
