                         Program Version 3.0.3 - RELEASE   -
|  1> ! RI PBE def2-SVP def2-SVP/J NBO PAL2
|  2> % maxcore 2000
|  3> % output
|  4>     # printlevel mini
|  5>     print[ P_Basis ] 0
|  6>     print[ P_SCFInfo ] 1
|  7>     print[ P_SCFIterInfo ] 1
|  8>     print[ P_OrbEn ] 0
|  9>     print[ P_Cartesian ] 0
| 10> end
| 11> *xyz 0 1
| 12>  O        1.9186250000     0.2949530000     2.7187250000
| 13>  C        2.8280540000    -0.3436960000     2.2683330000
| 14>  C        3.1447600000    -0.4309250000     0.7962030000
| 15>  N        4.5205360000    -0.8103120000     0.5857670000
| 16>  C        5.0591140000    -0.5466020000    -0.7309090000
| 17>  C        5.4638190000     0.2809490000     0.4263590000
| 18>  H        3.5003840000    -0.9425030000     2.9189520000
| 19>  H        2.8552680000     0.5165760000     0.3153530000
| 20>  H        2.4963110000    -1.2150610000     0.3829230000
| 21>  H        4.4016730000    -0.0860180000    -1.4640580000
| 22>  H        5.7301680000    -1.3015420000    -1.1254060000
| 23>  H        5.0747370000     1.2952970000     0.4715700000
| 24>  H        6.4332430000     0.1377750000     0.8898990000
| 25> *
| 26>
| 27>                          ****END OF INPUT****
 Total Charge           Charge          ....    0
 Multiplicity           Mult            ....    1
 Number of Electrons    NEL             ....   46
 Basis Dimension        Dim             ....  119

MULLIKEN ATOMIC CHARGES
-----------------------
   0 O :   -0.159247
   1 C :    0.081582
   2 C :    0.109293
   3 N :   -0.305442
   4 C :    0.034213
   5 C :    0.023257
   6 H :    0.001349
   7 H :    0.010454
   8 H :    0.052635
   9 H :    0.027273
  10 H :    0.044448
  11 H :    0.034970
  12 H :    0.045215
Sum of atomic charges:    0.0000000

LOEWDIN ATOMIC CHARGES
----------------------
   0 O :   -0.102618
   1 C :    0.089354
   2 C :   -0.028567
   3 N :   -0.111165
   4 C :    0.008858
   5 C :    0.005847
   6 H :   -0.008723
   7 H :    0.017479
   8 H :    0.049324
   9 H :    0.015400
  10 H :    0.024085
  11 H :    0.016207
  12 H :    0.024520

  Mayer bond orders larger than 0.1
B(  0-O ,  1-C ) :   2.1862 B(  1-C ,  2-C ) :   0.9468 B(  1-C ,  6-H ) :   0.9267
B(  2-C ,  3-N ) :   1.0018 B(  2-C ,  7-H ) :   0.8978 B(  2-C ,  8-H ) :   0.9096
B(  3-N ,  4-C ) :   0.9675 B(  3-N ,  5-C ) :   0.9573 B(  4-C ,  5-C ) :   1.0919
B(  4-C ,  9-H ) :   0.9344 B(  4-C , 10-H ) :   0.9506 B(  5-C , 11-H ) :   0.9365
B(  5-C , 12-H ) :   0.9507

FINAL SINGLE POINT ENERGY      -285.984585564434

DIPOLE MOMENT
-------------
                                X             Y             Z
Electronic contribution:     -3.08953      -0.16936       3.66988
Nuclear contribution   :      3.66768       0.10796      -4.46932
                        -----------------------------------------
Total Dipole Moment    :      0.57815      -0.06140      -0.79944
                        -----------------------------------------
Magnitude (a.u.)       :      0.98850
Magnitude (Debye)      :      2.51257

                             ****ORCA TERMINATED NORMALLY****
TOTAL RUN TIME: 0 days 0 hours 0 minutes 5 seconds 747 msec
