                         Program Version 3.0.3 - RELEASE   -
|  1> ! RI PBE def2-SVP def2-SVP/J NBO PAL2
|  2> % maxcore 2000
|  3> % output
|  4>     # printlevel mini
|  5>     print[ P_Basis ] 0
|  6>     print[ P_SCFInfo ] 1
|  7>     print[ P_SCFIterInfo ] 1
|  8>     print[ P_OrbEn ] 0
|  9>     print[ P_Cartesian ] 0
| 10> end
| 11> *xyz 0 1
| 12>  O        2.7514750000    -1.0817540000     0.3216190000
| 13>  C        2.6663820000     0.1093860000     0.1127670000
| 14>  N        2.9962040000     0.7056610000    -1.0404960000
| 15>  C        2.9763540000     2.0858810000    -1.5039590000
| 16>  C        3.5246950000     1.5830380000    -2.8596070000
| 17>  C        3.5109610000     0.1499570000    -2.2806140000
| 18>  H        2.3008950000     0.8320970000     0.8697540000
| 19>  H        3.6433670000     2.7526710000    -0.9502600000
| 20>  H        1.9777570000     2.5302790000    -1.5413930000
| 21>  H        4.5132060000     1.9603830000    -3.1141640000
| 22>  H        2.8543170000     1.7383850000    -3.7027010000
| 23>  H        4.4862680000    -0.3306910000    -2.1709870000
| 24>  H        2.8257300000    -0.5530930000    -2.7606480000
| 25> *
| 26>
| 27>                          ****END OF INPUT****
 Total Charge           Charge          ....    0
 Multiplicity           Mult            ....    1
 Number of Electrons    NEL             ....   46
 Basis Dimension        Dim             ....  119

MULLIKEN ATOMIC CHARGES
-----------------------
   0 O :   -0.238034
   1 C :    0.139994
   2 N :   -0.288317
   3 C :    0.162017
   4 C :   -0.107957
   5 C :    0.164126
   6 H :   -0.034387
   7 H :    0.032322
   8 H :    0.031512
   9 H :    0.031468
  10 H :    0.033931
  11 H :    0.035023
  12 H :    0.038302
Sum of atomic charges:   -0.0000000

LOEWDIN ATOMIC CHARGES
----------------------
   0 O :   -0.190602
   1 C :    0.037256
   2 N :   -0.042477
   3 C :    0.048036
   4 C :   -0.034569
   5 C :    0.050891
   6 H :   -0.020174
   7 H :    0.021257
   8 H :    0.021149
   9 H :    0.029693
  10 H :    0.029984
  11 H :    0.024610
  12 H :    0.024946

  Mayer bond orders larger than 0.1
B(  0-O ,  1-C ) :   2.0313 B(  1-C ,  2-N ) :   1.1914 B(  1-C ,  6-H ) :   0.9210
B(  2-N ,  3-C ) :   0.9901 B(  2-N ,  5-C ) :   0.9879 B(  3-C ,  4-C ) :   1.1212
B(  3-C ,  7-H ) :   0.9380 B(  3-C ,  8-H ) :   0.9375 B(  4-C ,  5-C ) :   1.1114
B(  4-C ,  9-H ) :   0.9316 B(  4-C , 10-H ) :   0.9306 B(  5-C , 11-H ) :   0.9400
B(  5-C , 12-H ) :   0.9403

FINAL SINGLE POINT ENERGY      -286.029739584288

DIPOLE MOMENT
-------------
                                X             Y             Z
Electronic contribution:     -0.89027      -3.28511       3.74519
Nuclear contribution   :      1.05506       4.59154      -4.69952
                        -----------------------------------------
Total Dipole Moment    :      0.16479       1.30643      -0.95433
                        -----------------------------------------
Magnitude (a.u.)       :      1.62624
Magnitude (Debye)      :      4.13358

                             ****ORCA TERMINATED NORMALLY****
TOTAL RUN TIME: 0 days 0 hours 0 minutes 5 seconds 479 msec
