                         Program Version 3.0.3 - RELEASE   -
|  1> ! RI PBE def2-SVP def2-SVP/J NBO PAL2
|  2> % maxcore 2000
|  3> % output
|  4>     # printlevel mini
|  5>     print[ P_Basis ] 0
|  6>     print[ P_SCFInfo ] 1
|  7>     print[ P_SCFIterInfo ] 1
|  8>     print[ P_OrbEn ] 0
|  9>     print[ P_Cartesian ] 0
| 10> end
| 11> *xyz 0 1
| 12>  O        1.0259290000    -0.9372530000     0.5779520000
| 13>  C        2.2320290000    -0.9786490000     0.5260480000
| 14>  N        2.9704550000    -0.6396210000    -0.5586180000
| 15>  C        4.3766390000    -0.8343810000    -0.6632100000
| 16>  C        5.2251770000     0.3184220000    -1.1014270000
| 17>  C        5.2780210000    -0.1489900000     0.3180270000
| 18>  H        2.8617830000    -1.2889060000     1.3807520000
| 19>  H        2.4465710000    -0.4103500000    -1.3905710000
| 20>  H        4.6911550000    -1.8183460000    -1.0020270000
| 21>  H        4.7163310000     1.2538620000    -1.2973090000
| 22>  H        6.0643570000     0.1075070000    -1.7513100000
| 23>  H        4.8098500000     0.4777210000     1.0659880000
| 24>  H        6.1532140000    -0.6875260000     0.6573060000
| 25> *
| 26>
| 27>                          ****END OF INPUT****
 Total Charge           Charge          ....    0
 Multiplicity           Mult            ....    1
 Number of Electrons    NEL             ....   46
 Basis Dimension        Dim             ....  119

MULLIKEN ATOMIC CHARGES
-----------------------
   0 O :   -0.223524
   1 C :    0.117207
   2 N :   -0.091046
   3 C :   -0.052948
   4 C :   -0.028378
   5 C :   -0.036667
   6 H :   -0.020730
   7 H :    0.116522
   8 H :    0.036074
   9 H :    0.041869
  10 H :    0.044232
  11 H :    0.051495
  12 H :    0.045894
Sum of atomic charges:    0.0000000

LOEWDIN ATOMIC CHARGES
----------------------
   0 O :   -0.181439
   1 C :    0.049315
   2 N :    0.005538
   3 C :    0.001111
   4 C :   -0.044056
   5 C :   -0.039603
   6 H :   -0.015737
   7 H :    0.074733
   8 H :    0.020589
   9 H :    0.031559
  10 H :    0.031930
  11 H :    0.033624
  12 H :    0.032436

  Mayer bond orders larger than 0.1
B(  0-O ,  1-C ) :   2.0659 B(  1-C ,  2-N ) :   1.1929 B(  1-C ,  6-H ) :   0.9191
B(  2-N ,  3-C ) :   1.0299 B(  2-N ,  7-H ) :   0.9219 B(  3-C ,  4-C ) :   0.9938
B(  3-C ,  5-C ) :   0.9967 B(  3-C ,  8-H ) :   0.9398 B(  4-C ,  5-C ) :   1.0386
B(  4-C ,  9-H ) :   0.9503 B(  4-C , 10-H ) :   0.9462 B(  5-C , 11-H ) :   0.9494
B(  5-C , 12-H ) :   0.9502

FINAL SINGLE POINT ENERGY      -286.030800136879

DIPOLE MOMENT
-------------
                                X             Y             Z
Electronic contribution:     -5.55418      -1.21381       0.67611
Nuclear contribution   :      6.93570       1.32966      -1.25909
                        -----------------------------------------
Total Dipole Moment    :      1.38152       0.11585      -0.58298
                        -----------------------------------------
Magnitude (a.u.)       :      1.50395
Magnitude (Debye)      :      3.82274

                             ****ORCA TERMINATED NORMALLY****
TOTAL RUN TIME: 0 days 0 hours 0 minutes 5 seconds 209 msec
