                         Program Version 3.0.3 - RELEASE   -
|  1> ! RI PBE def2-SVP def2-SVP/J NBO PAL2
|  2> % maxcore 2000
|  3> % output
|  4>     # printlevel mini
|  5>     print[ P_Basis ] 0
|  6>     print[ P_SCFInfo ] 1
|  7>     print[ P_SCFIterInfo ] 1
|  8>     print[ P_OrbEn ] 0
|  9>     print[ P_Cartesian ] 0
| 10> end
| 11> *xyz 0 1
| 12>  O        2.6681830000    -0.5197960000    -0.9154750000
| 13>  C        2.1386630000    -0.0707590000     0.0749740000
| 14>  N        2.8075360000     0.4801510000     1.1075730000
| 15>  C        4.2540200000     0.5693470000     1.0913650000
| 16>  C        4.7525730000     1.1692240000     2.3156820000
| 17>  C        5.1566060000     1.6660350000     3.3296520000
| 18>  H        1.0437120000    -0.0709170000     0.2287560000
| 19>  H        2.3064350000     0.8347700000     1.9033830000
| 20>  H        4.5792860000     1.1570930000     0.2260550000
| 21>  H        4.6823680000    -0.4301670000     0.9605880000
| 22>  H        5.5246980000     2.1047180000     4.2271560000
| 23> *
| 24>
| 25>                          ****END OF INPUT****
 Total Charge           Charge          ....    0
 Multiplicity           Mult            ....    1
 Number of Electrons    NEL             ....   44
 Basis Dimension        Dim             ....  109

MULLIKEN ATOMIC CHARGES
-----------------------
   0 O :   -0.236183
   1 C :    0.129523
   2 N :   -0.165779
   3 C :    0.251677
   4 C :    0.235575
   5 C :   -0.448357
   6 H :   -0.012923
   7 H :    0.128078
   8 H :    0.054259
   9 H :    0.054535
  10 H :    0.009595
Sum of atomic charges:   -0.0000000

LOEWDIN ATOMIC CHARGES
----------------------
   0 O :   -0.184733
   1 C :    0.048431
   2 N :   -0.000010
   3 C :    0.028674
   4 C :   -0.038035
   5 C :   -0.064837
   6 H :   -0.012414
   7 H :    0.079212
   8 H :    0.052046
   9 H :    0.052504
  10 H :    0.039164

  Mayer bond orders larger than 0.1
B(  0-O ,  1-C ) :   2.0121 B(  1-C ,  2-N ) :   1.2251 B(  1-C ,  6-H ) :   0.9302
B(  2-N ,  3-C ) :   0.9626 B(  2-N ,  7-H ) :   0.9307 B(  3-C ,  4-C ) :   1.0392
B(  3-C ,  8-H ) :   0.9047 B(  3-C ,  9-H ) :   0.9034 B(  4-C ,  5-C ) :   2.3919
B(  4-C , 10-H ) :  -0.1019 B(  5-C , 10-H ) :   1.0932

FINAL SINGLE POINT ENERGY      -284.787266171044

DIPOLE MOMENT
-------------
                                X             Y             Z
Electronic contribution:     -0.39203      -0.42466      -0.79484
Nuclear contribution   :      0.28156       0.98245       1.95266
                        -----------------------------------------
Total Dipole Moment    :     -0.11047       0.55779       1.15781
                        -----------------------------------------
Magnitude (a.u.)       :      1.28991
Magnitude (Debye)      :      3.27869

                             ****ORCA TERMINATED NORMALLY****
TOTAL RUN TIME: 0 days 0 hours 0 minutes 5 seconds 65 msec
