                         Program Version 3.0.3 - RELEASE   -
|  1> ! RI PBE def2-SVP def2-SVP/J NBO PAL2
|  2> % maxcore 2000
|  3> % output
|  4>     # printlevel mini
|  5>     print[ P_Basis ] 0
|  6>     print[ P_SCFInfo ] 1
|  7>     print[ P_SCFIterInfo ] 1
|  8>     print[ P_OrbEn ] 0
|  9>     print[ P_Cartesian ] 0
| 10> end
| 11> *xyz 0 1
| 12>  O        0.9085920000     0.1927870000    -0.3521710000
| 13>  N        2.2606450000     0.1091380000    -0.1745650000
| 14>  C        3.0982340000     1.1792880000    -0.1741410000
| 15>  C        4.3710540000     0.6813850000    -0.0325980000
| 16>  C        4.2738200000    -0.7280830000     0.0436920000
| 17>  C        2.9438060000    -1.0593210000    -0.0530400000
| 18>  H        0.5324220000     0.2668510000     0.5341680000
| 19>  H        2.7152980000     2.1802710000    -0.2830890000
| 20>  H        5.2736710000     1.2705880000     0.0052340000
| 21>  H        5.0875190000    -1.4278160000     0.1512830000
| 22>  H        2.4266200000    -2.0042980000    -0.0566750000
| 23> *
| 24>
| 25>                          ****END OF INPUT****
 Total Charge           Charge          ....    0
 Multiplicity           Mult            ....    1
 Number of Electrons    NEL             ....   44
 Basis Dimension        Dim             ....  109

MULLIKEN ATOMIC CHARGES
-----------------------
   0 O :   -0.174713
   1 N :   -0.042332
   2 C :    0.066951
   3 C :   -0.029842
   4 C :   -0.031767
   5 C :    0.070317
   6 H :    0.190544
   7 H :   -0.006268
   8 H :   -0.018252
   9 H :   -0.016960
  10 H :   -0.007679
Sum of atomic charges:   -0.0000000

LOEWDIN ATOMIC CHARGES
----------------------
   0 O :   -0.043099
   1 N :    0.137349
   2 C :   -0.050054
   3 C :   -0.085435
   4 C :   -0.085892
   5 C :   -0.049319
   6 H :    0.086114
   7 H :    0.020827
   8 H :    0.024354
   9 H :    0.024613
  10 H :    0.020542

  Mayer bond orders larger than 0.1
B(  0-O ,  1-N ) :   0.9375 B(  0-O ,  6-H ) :   0.9693 B(  1-N ,  2-C ) :   1.2030
B(  1-N ,  5-C ) :   1.2042 B(  2-C ,  3-C ) :   1.4394 B(  2-C ,  7-H ) :   0.9880
B(  3-C ,  4-C ) :   1.3273 B(  3-C ,  8-H ) :   1.0010 B(  4-C ,  5-C ) :   1.4383
B(  4-C ,  9-H ) :   1.0001 B(  5-C , 10-H ) :   0.9879

FINAL SINGLE POINT ENERGY      -284.786974575983

DIPOLE MOMENT
-------------
                                X             Y             Z
Electronic contribution:     -2.07643       0.12388      -0.37034
Nuclear contribution   :      1.53187      -0.05639       0.90827
                        -----------------------------------------
Total Dipole Moment    :     -0.54457       0.06749       0.53793
                        -----------------------------------------
Magnitude (a.u.)       :      0.76842
Magnitude (Debye)      :      1.95318

                             ****ORCA TERMINATED NORMALLY****
TOTAL RUN TIME: 0 days 0 hours 0 minutes 4 seconds 927 msec
