                         Program Version 3.0.3 - RELEASE   -
|  1> ! RI PBE def2-SVP def2-SVP/J NBO PAL2
|  2> % maxcore 2000
|  3> % output
|  4>     # printlevel mini
|  5>     print[ P_Basis ] 0
|  6>     print[ P_SCFInfo ] 1
|  7>     print[ P_SCFIterInfo ] 1
|  8>     print[ P_OrbEn ] 0
|  9>     print[ P_Cartesian ] 0
| 10> end
| 11> *xyz 0 1
| 12>  O        0.9090290000    -0.6699820000     1.2234280000
| 13>  N        2.2306460000    -1.0402040000     1.4135480000
| 14>  C        2.9739730000    -0.6186780000     0.4787920000
| 15>  C        4.4082710000    -0.9426090000     0.4354480000
| 16>  C        5.0332740000    -1.8215920000     1.4719070000
| 17>  C        4.8374210000    -2.3516420000     0.0909940000
| 18>  H        0.4710680000    -1.0256350000     2.0012000000
| 19>  H        2.5469990000    -0.0229660000    -0.3311680000
| 20>  H        5.0249500000    -0.1535940000     0.0189430000
| 21>  H        4.3808050000    -2.1898620000     2.2521580000
| 22>  H        6.0392740000    -1.5772820000     1.7885640000
| 23>  H        4.0455770000    -3.0741280000    -0.0623420000
| 24>  H        5.7020240000    -2.4728360000    -0.5497690000
| 25> *
| 26>
| 27>                          ****END OF INPUT****
 Total Charge           Charge          ....    0
 Multiplicity           Mult            ....    1
 Number of Electrons    NEL             ....   46
 Basis Dimension        Dim             ....  119

MULLIKEN ATOMIC CHARGES
-----------------------
   0 O :   -0.177772
   1 N :   -0.048743
   2 C :    0.009806
   3 C :   -0.096893
   4 C :   -0.001681
   5 C :   -0.042724
   6 H :    0.170001
   7 H :   -0.002883
   8 H :    0.029765
   9 H :    0.046809
  10 H :    0.031065
  11 H :    0.043722
  12 H :    0.039527
Sum of atomic charges:    0.0000000

LOEWDIN ATOMIC CHARGES
----------------------
   0 O :   -0.056657
   1 N :   -0.021375
   2 C :   -0.032278
   3 C :   -0.056703
   4 C :   -0.032520
   5 C :   -0.029534
   6 H :    0.072545
   7 H :    0.007611
   8 H :    0.034012
   9 H :    0.029946
  10 H :    0.028438
  11 H :    0.029207
  12 H :    0.027308

  Mayer bond orders larger than 0.1
B(  0-O ,  1-N ) :   0.9846 B(  0-O ,  2-C ) :   0.1114 B(  0-O ,  6-H ) :   0.9764
B(  1-N ,  2-C ) :   1.9054 B(  2-C ,  3-C ) :   1.0595 B(  2-C ,  7-H ) :   0.9440
B(  3-C ,  4-C ) :   0.9971 B(  3-C ,  5-C ) :   0.9632 B(  3-C ,  8-H ) :   0.9333
B(  4-C ,  5-C ) :   1.0538 B(  4-C ,  9-H ) :   0.9348 B(  4-C , 10-H ) :   0.9434
B(  5-C , 11-H ) :   0.9497 B(  5-C , 12-H ) :   0.9482

FINAL SINGLE POINT ENERGY      -285.961168712141

DIPOLE MOMENT
-------------
                                X             Y             Z
Electronic contribution:     -4.58662       1.72025       0.91946
Nuclear contribution   :      4.70706      -1.77242      -0.92284
                        -----------------------------------------
Total Dipole Moment    :      0.12044      -0.05217      -0.00338
                        -----------------------------------------
Magnitude (a.u.)       :      0.13130
Magnitude (Debye)      :      0.33373

                             ****ORCA TERMINATED NORMALLY****
TOTAL RUN TIME: 0 days 0 hours 0 minutes 4 seconds 970 msec
