                         Program Version 3.0.3 - RELEASE   -
|  1> ! RI PBE def2-SVP def2-SVP/J NBO PAL2
|  2> % maxcore 2000
|  3> % output
|  4>     # printlevel mini
|  5>     print[ P_Basis ] 0
|  6>     print[ P_SCFInfo ] 1
|  7>     print[ P_SCFIterInfo ] 1
|  8>     print[ P_OrbEn ] 0
|  9>     print[ P_Cartesian ] 0
| 10> end
| 11> *xyz 0 1
| 12>  O        0.7959790000    -0.7916640000     0.9942090000
| 13>  N        2.1583640000    -0.6314070000     1.1755170000
| 14>  C        2.8243270000    -1.1443380000     0.2297460000
| 15>  C        4.3160920000    -1.0820360000     0.2497340000
| 16>  C        4.9299140000    -2.4479350000     0.3115860000
| 17>  C        5.7189540000    -2.9654640000    -0.6186010000
| 18>  H        0.4225270000    -0.3601630000     1.7675370000
| 19>  H        2.3204660000    -1.6482620000    -0.5977550000
| 20>  H        4.6164820000    -0.4889920000     1.1186960000
| 21>  H        4.6700490000    -0.5657530000    -0.6492540000
| 22>  H        4.6838420000    -3.0357850000     1.1933900000
| 23>  H        5.9826250000    -2.4087270000    -1.5128700000
| 24>  H        6.1349680000    -3.9611840000    -0.5187260000
| 25> *
| 26>
| 27>                          ****END OF INPUT****
 Total Charge           Charge          ....    0
 Multiplicity           Mult            ....    1
 Number of Electrons    NEL             ....   46
 Basis Dimension        Dim             ....  119

MULLIKEN ATOMIC CHARGES
-----------------------
   0 O :   -0.177928
   1 N :   -0.044329
   2 C :   -0.060804
   3 C :    0.125514
   4 C :   -0.098643
   5 C :   -0.029963
   6 H :    0.171375
   7 H :    0.005388
   8 H :    0.027582
   9 H :    0.020823
  10 H :    0.013499
  11 H :    0.019158
  12 H :    0.028329
Sum of atomic charges:   -0.0000000

LOEWDIN ATOMIC CHARGES
----------------------
   0 O :   -0.055265
   1 N :   -0.017169
   2 C :   -0.030766
   3 C :   -0.046120
   4 C :   -0.027491
   5 C :   -0.061646
   6 H :    0.073321
   7 H :    0.006168
   8 H :    0.042944
   9 H :    0.038980
  10 H :    0.028322
  11 H :    0.022102
  12 H :    0.026619

  Mayer bond orders larger than 0.1
B(  0-O ,  1-N ) :   0.9904 B(  0-O ,  2-C ) :   0.1147 B(  0-O ,  6-H ) :   0.9758
B(  1-N ,  2-C ) :   1.9053 B(  2-C ,  3-C ) :   1.0257 B(  2-C ,  7-H ) :   0.9412
B(  3-C ,  4-C ) :   1.0412 B(  3-C ,  8-H ) :   0.9037 B(  3-C ,  9-H ) :   0.9145
B(  4-C ,  5-C ) :   2.0121 B(  4-C , 10-H ) :   0.9547 B(  5-C , 11-H ) :   0.9478
B(  5-C , 12-H ) :   0.9441

FINAL SINGLE POINT ENERGY      -285.962206047670

DIPOLE MOMENT
-------------
                                X             Y             Z
Electronic contribution:     -4.96093       2.02137       1.99968
Nuclear contribution   :      4.95823      -1.97269      -1.95587
                        -----------------------------------------
Total Dipole Moment    :     -0.00269       0.04868       0.04381
                        -----------------------------------------
Magnitude (a.u.)       :      0.06555
Magnitude (Debye)      :      0.16661

                             ****ORCA TERMINATED NORMALLY****
TOTAL RUN TIME: 0 days 0 hours 0 minutes 5 seconds 268 msec
