                         Program Version 3.0.3 - RELEASE   -
|  1> ! RI PBE def2-SVP def2-SVP/J NBO PAL2
|  2> % maxcore 2000
|  3> % output
|  4>     # printlevel mini
|  5>     print[ P_Basis ] 0
|  6>     print[ P_SCFInfo ] 1
|  7>     print[ P_SCFIterInfo ] 1
|  8>     print[ P_OrbEn ] 0
|  9>     print[ P_Cartesian ] 0
| 10> end
| 11> *xyz 0 1
| 12>  O        0.7604850000     0.3129410000    -1.1400410000
| 13>  N        2.1169930000     0.0706320000    -1.2260360000
| 14>  C        2.7981390000     1.0123690000    -0.7299700000
| 15>  C        4.2909760000     0.9027380000    -0.7227440000
| 16>  C        4.9319180000     2.0515160000    -1.3457900000
| 17>  C        5.4447670000     3.0079110000    -1.8571740000
| 18>  H        0.3739280000    -0.4610030000    -1.5591240000
| 19>  H        2.3229360000     1.8990740000    -0.3086570000
| 20>  H        4.5769770000    -0.0196520000    -1.2347370000
| 21>  H        4.6427560000     0.8202900000     0.3132870000
| 22>  H        5.9040240000     3.8520960000    -2.3145230000
| 23> *
| 24>
| 25>                          ****END OF INPUT****
 Total Charge           Charge          ....    0
 Multiplicity           Mult            ....    1
 Number of Electrons    NEL             ....   44
 Basis Dimension        Dim             ....  109

MULLIKEN ATOMIC CHARGES
-----------------------
   0 O :   -0.174700
   1 N :   -0.041124
   2 C :   -0.052606
   3 C :    0.156923
   4 C :    0.285374
   5 C :   -0.461214
   6 H :    0.173897
   7 H :    0.015516
   8 H :    0.041523
   9 H :    0.055455
  10 H :    0.000955
Sum of atomic charges:   -0.0000000

LOEWDIN ATOMIC CHARGES
----------------------
   0 O :   -0.050758
   1 N :   -0.012754
   2 C :   -0.022906
   3 C :   -0.048548
   4 C :   -0.023998
   5 C :   -0.079659
   6 H :    0.075374
   7 H :    0.010743
   8 H :    0.056608
   9 H :    0.060182
  10 H :    0.035716

  Mayer bond orders larger than 0.1
B(  0-O ,  1-N ) :   0.9974 B(  0-O ,  2-C ) :   0.1168 B(  0-O ,  6-H ) :   0.9750
B(  1-N ,  2-C ) :   1.9179 B(  2-C ,  3-C ) :   1.0216 B(  2-C ,  7-H ) :   0.9433
B(  3-C ,  4-C ) :   1.0374 B(  3-C ,  8-H ) :   0.8875 B(  3-C ,  9-H ) :   0.8913
B(  4-C ,  5-C ) :   2.3961 B(  4-C , 10-H ) :  -0.1069 B(  5-C , 10-H ) :   1.0982

FINAL SINGLE POINT ENERGY      -284.717098122175

DIPOLE MOMENT
-------------
                                X             Y             Z
Electronic contribution:     -1.56330      -0.46475      -0.56783
Nuclear contribution   :      1.45756       0.28138       0.65836
                        -----------------------------------------
Total Dipole Moment    :     -0.10574      -0.18337       0.09053
                        -----------------------------------------
Magnitude (a.u.)       :      0.23022
Magnitude (Debye)      :      0.58518

                             ****ORCA TERMINATED NORMALLY****
TOTAL RUN TIME: 0 days 0 hours 0 minutes 4 seconds 814 msec
