                         Program Version 3.0.3 - RELEASE   -
|  1> ! RI PBE def2-SVP def2-SVP/J NBO PAL2
|  2> % maxcore 2000
|  3> % output
|  4>     # printlevel mini
|  5>     print[ P_Basis ] 0
|  6>     print[ P_SCFInfo ] 1
|  7>     print[ P_SCFIterInfo ] 1
|  8>     print[ P_OrbEn ] 0
|  9>     print[ P_Cartesian ] 0
| 10> end
| 11> *xyz 0 1
| 12>  C        0.8762400000    -0.0264930000     0.0262150000
| 13>  C        2.3649500000    -0.0830390000     0.0312910000
| 14>  C        3.2512600000     0.9553090000     0.0331040000
| 15>  C        4.6074920000     0.5405440000     0.0381310000
| 16>  C        4.7366410000    -0.8142840000     0.0400810000
| 17>  S        3.2093090000    -1.5796130000     0.0358210000
| 18>  H        0.5476220000     1.0138980000     0.0239970000
| 19>  H        0.4472450000    -0.5118550000     0.9068570000
| 20>  H        0.4531860000    -0.5137380000    -0.8562590000
| 21>  H        2.9356010000     1.9913830000     0.0308790000
| 22>  H        5.4497300000     1.2199600000     0.0402010000
| 23>  H        5.6416140000    -1.4022830000     0.0437810000
| 24> *
| 25>
| 26>                          ****END OF INPUT****
 Total Charge           Charge          ....    0
 Multiplicity           Mult            ....    1
 Number of Electrons    NEL             ....   52
 Basis Dimension        Dim             ....  118

MULLIKEN ATOMIC CHARGES
-----------------------
   0 C :    0.089734
   1 C :   -0.252314
   2 C :    0.032120
   3 C :    0.028225
   4 C :   -0.091540
   5 S :    0.092673
   6 H :    0.023843
   7 H :    0.040274
   8 H :    0.040199
   9 H :   -0.021791
  10 H :   -0.009262
  11 H :    0.027840
Sum of atomic charges:   -0.0000000

LOEWDIN ATOMIC CHARGES
----------------------
   0 C :   -0.067755
   1 C :   -0.196918
   2 C :   -0.082628
   3 C :   -0.073601
   4 C :   -0.207539
   5 S :    0.429252
   6 H :    0.040182
   7 H :    0.038900
   8 H :    0.038887
   9 H :    0.026995
  10 H :    0.030023
  11 H :    0.024202

  Mayer bond orders larger than 0.1
B(  0-C ,  1-C ) :   1.0893 B(  0-C ,  6-H ) :   0.9511 B(  0-C ,  7-H ) :   0.9465
B(  0-C ,  8-H ) :   0.9465 B(  1-C ,  2-C ) :   1.5537 B(  1-C ,  5-S ) :   1.1665
B(  2-C ,  3-C ) :   1.2606 B(  2-C ,  9-H ) :   0.9912 B(  3-C ,  4-C ) :   1.5459
B(  3-C , 10-H ) :   0.9881 B(  4-C ,  5-S ) :   1.1650 B(  4-C , 11-H ) :   0.9692

FINAL SINGLE POINT ENERGY      -591.631962038127

DIPOLE MOMENT
-------------
                                X             Y             Z
Electronic contribution:      3.01196      -3.96729       0.01466
Nuclear contribution   :     -3.18582       4.12575      -0.01538
                        -----------------------------------------
Total Dipole Moment    :     -0.17386       0.15846      -0.00072
                        -----------------------------------------
Magnitude (a.u.)       :      0.23523
Magnitude (Debye)      :      0.59792

                             ****ORCA TERMINATED NORMALLY****
TOTAL RUN TIME: 0 days 0 hours 0 minutes 5 seconds 508 msec
