                         Program Version 3.0.3 - RELEASE   -
|  1> ! RI PBE def2-SVP def2-SVP/J NBO PAL2
|  2> % maxcore 2000
|  3> % output
|  4>     # printlevel mini
|  5>     print[ P_Basis ] 0
|  6>     print[ P_SCFInfo ] 1
|  7>     print[ P_SCFIterInfo ] 1
|  8>     print[ P_OrbEn ] 0
|  9>     print[ P_Cartesian ] 0
| 10> end
| 11> *xyz 0 1
| 12>  C        0.8492940000     0.0877090000    -0.0557470000
| 13>  C        2.3383320000     0.0702310000    -0.0513640000
| 14>  C        3.2074080000     1.1284730000    -0.0495720000
| 15>  C        4.5475210000     0.6817960000    -0.0453200000
| 16>  N        4.7353290000    -0.6165160000    -0.0438350000
| 17>  S        3.2727790000    -1.3574000000    -0.0475990000
| 18>  H        0.4855160000     1.1158230000    -0.0575300000
| 19>  H        0.4402950000    -0.4141370000     0.8244830000
| 20>  H        0.4454700000    -0.4153620000    -0.9376660000
| 21>  H        2.9012280000     2.1662200000    -0.0512140000
| 22>  H        5.4169290000     1.3307630000    -0.0432340000
| 23> *
| 24>
| 25>                          ****END OF INPUT****
 Total Charge           Charge          ....    0
 Multiplicity           Mult            ....    1
 Number of Electrons    NEL             ....   52
 Basis Dimension        Dim             ....  113

MULLIKEN ATOMIC CHARGES
-----------------------
   0 C :    0.087820
   1 C :   -0.246010
   2 C :   -0.029622
   3 C :    0.083521
   4 N :   -0.288957
   5 S :    0.264178
   6 H :    0.029349
   7 H :    0.048283
   8 H :    0.048236
   9 H :   -0.010825
  10 H :    0.014027
Sum of atomic charges:   -0.0000000

LOEWDIN ATOMIC CHARGES
----------------------
   0 C :   -0.066755
   1 C :   -0.196182
   2 C :   -0.105959
   3 C :   -0.038206
   4 N :   -0.272147
   5 S :    0.492542
   6 H :    0.042019
   7 H :    0.044109
   8 H :    0.044101
   9 H :    0.031494
  10 H :    0.024984

  Mayer bond orders larger than 0.1
B(  0-C ,  1-C ) :   1.0787 B(  0-C ,  6-H ) :   0.9493 B(  0-C ,  7-H ) :   0.9464
B(  0-C ,  8-H ) :   0.9464 B(  1-C ,  2-C ) :   1.5344 B(  1-C ,  4-N ) :   0.1504
B(  1-C ,  5-S ) :   1.1768 B(  2-C ,  3-C ) :   1.2402 B(  2-C ,  9-H ) :   0.9899
B(  3-C ,  4-N ) :   1.6040 B(  3-C , 10-H ) :   0.9721 B(  4-N ,  5-S ) :   1.1963

FINAL SINGLE POINT ENERGY      -607.651191575213

DIPOLE MOMENT
-------------
                                X             Y             Z
Electronic contribution:      4.71118      -4.21537       0.01684
Nuclear contribution   :     -5.68660       4.74804      -0.02010
                        -----------------------------------------
Total Dipole Moment    :     -0.97542       0.53268      -0.00325
                        -----------------------------------------
Magnitude (a.u.)       :      1.11140
Magnitude (Debye)      :      2.82495

                             ****ORCA TERMINATED NORMALLY****
TOTAL RUN TIME: 0 days 0 hours 0 minutes 5 seconds 403 msec
