                         Program Version 3.0.3 - RELEASE   -
|  1> ! RI PBE def2-SVP def2-SVP/J NBO PAL2
|  2> % maxcore 2000
|  3> % output
|  4>     # printlevel mini
|  5>     print[ P_Basis ] 0
|  6>     print[ P_SCFInfo ] 1
|  7>     print[ P_SCFIterInfo ] 1
|  8>     print[ P_OrbEn ] 0
|  9>     print[ P_Cartesian ] 0
| 10> end
| 11> *xyz 0 1
| 12>  C        1.0320130000     0.0289370000     0.0601820000
| 13>  C        2.5256230000     0.0607460000     0.0643160000
| 14>  C        3.2806290000     1.1989910000     0.0655700000
| 15>  S        4.9545500000     0.8655980000     0.0704770000
| 16>  C        4.6787960000    -0.8168210000     0.0709590000
| 17>  C        3.3471680000    -1.1015200000     0.0674620000
| 18>  H        0.6139530000     1.0363440000     0.0583140000
| 19>  H        0.6454810000    -0.4935790000     0.9397110000
| 20>  H        0.6503810000    -0.4948080000    -0.8207560000
| 21>  H        2.9306160000     2.2207650000     0.0638380000
| 22>  H        5.5088080000    -1.5068110000     0.0737830000
| 23>  H        2.9559810000    -2.1115400000     0.0671230000
| 24> *
| 25>
| 26>                          ****END OF INPUT****
 Total Charge           Charge          ....    0
 Multiplicity           Mult            ....    1
 Number of Electrons    NEL             ....   52
 Basis Dimension        Dim             ....  118

MULLIKEN ATOMIC CHARGES
-----------------------
   0 C :    0.078567
   1 C :   -0.075930
   2 C :   -0.126964
   3 S :    0.088584
   4 C :   -0.100445
   5 C :    0.027179
   6 H :    0.012816
   7 H :    0.033562
   8 H :    0.033530
   9 H :    0.016347
  10 H :    0.031313
  11 H :   -0.018561
Sum of atomic charges:    0.0000000

LOEWDIN ATOMIC CHARGES
----------------------
   0 C :   -0.053309
   1 C :   -0.074999
   2 C :   -0.215599
   3 S :    0.439098
   4 C :   -0.205383
   5 C :   -0.074029
   6 H :    0.032734
   7 H :    0.037921
   8 H :    0.037917
   9 H :    0.022231
  10 H :    0.025343
  11 H :    0.028075

  Mayer bond orders larger than 0.1
B(  0-C ,  1-C ) :   1.0961 B(  0-C ,  6-H ) :   0.9526 B(  0-C ,  7-H ) :   0.9472
B(  0-C ,  8-H ) :   0.9472 B(  1-C ,  2-C ) :   1.5455 B(  1-C ,  5-C ) :   1.2835
B(  2-C ,  3-S ) :   1.1624 B(  2-C ,  9-H ) :   0.9640 B(  3-S ,  4-C ) :   1.1911
B(  4-C ,  5-C ) :   1.5302 B(  4-C , 10-H ) :   0.9647 B(  5-C , 11-H ) :   0.9977

FINAL SINGLE POINT ENERGY      -591.631391123022

DIPOLE MOMENT
-------------
                                X             Y             Z
Electronic contribution:      7.39042       2.24329       0.01890
Nuclear contribution   :     -7.67297      -2.36535      -0.01960
                        -----------------------------------------
Total Dipole Moment    :     -0.28255      -0.12206      -0.00070
                        -----------------------------------------
Magnitude (a.u.)       :      0.30779
Magnitude (Debye)      :      0.78233

                             ****ORCA TERMINATED NORMALLY****
TOTAL RUN TIME: 0 days 0 hours 0 minutes 5 seconds 152 msec
