                         Program Version 3.0.3 - RELEASE   -
|  1> ! RI PBE def2-SVP def2-SVP/J NBO PAL2
|  2> % maxcore 2000
|  3> % output
|  4>     # printlevel mini
|  5>     print[ P_Basis ] 0
|  6>     print[ P_SCFInfo ] 1
|  7>     print[ P_SCFIterInfo ] 1
|  8>     print[ P_OrbEn ] 0
|  9>     print[ P_Cartesian ] 0
| 10> end
| 11> *xyz 0 1
| 12>  C        1.0095960000     0.0694160000     0.0597030000
| 13>  C        2.5012980000     0.0934400000     0.0602010000
| 14>  N        3.1383280000     1.2448380000     0.0603080000
| 15>  S        4.7551300000     0.9866710000     0.0608800000
| 16>  C        4.6491540000    -0.7039050000     0.0609970000
| 17>  C        3.3324500000    -1.0591540000     0.0605820000
| 18>  H        0.6208710000     1.0865460000     0.0594390000
| 19>  H        0.6274330000    -0.4530490000     0.9406200000
| 20>  H        0.6280230000    -0.4532840000    -0.8213300000
| 21>  H        5.5181530000    -1.3456910000     0.0613490000
| 22>  H        2.9697550000    -2.0782490000     0.0605510000
| 23> *
| 24>
| 25>                          ****END OF INPUT****
 Total Charge           Charge          ....    0
 Multiplicity           Mult            ....    1
 Number of Electrons    NEL             ....   52
 Basis Dimension        Dim             ....  113

MULLIKEN ATOMIC CHARGES
-----------------------
   0 C :    0.086527
   1 C :   -0.095482
   2 N :   -0.292889
   3 S :    0.262941
   4 C :   -0.084848
   5 C :   -0.006956
   6 H :    0.032469
   7 H :    0.036168
   8 H :    0.036163
   9 H :    0.035625
  10 H :   -0.009718
Sum of atomic charges:   -0.0000000

LOEWDIN ATOMIC CHARGES
----------------------
   0 C :   -0.060746
   1 C :   -0.050048
   2 N :   -0.279856
   3 S :    0.500948
   4 C :   -0.199814
   5 C :   -0.094563
   6 H :    0.040946
   7 H :    0.040761
   8 H :    0.040760
   9 H :    0.029298
  10 H :    0.032315

  Mayer bond orders larger than 0.1
B(  0-C ,  1-C ) :   1.0872 B(  0-C ,  6-H ) :   0.9454 B(  0-C ,  7-H ) :   0.9476
B(  0-C ,  8-H ) :   0.9476 B(  1-C ,  2-N ) :   1.6114 B(  1-C ,  5-C ) :   1.2322
B(  2-N ,  3-S ) :   1.1913 B(  2-N ,  4-C ) :   0.1320 B(  3-S ,  4-C ) :   1.1995
B(  4-C ,  5-C ) :   1.5313 B(  4-C ,  9-H ) :   0.9561 B(  5-C , 10-H ) :   0.9936

FINAL SINGLE POINT ENERGY      -607.652954844670

DIPOLE MOMENT
-------------
                                X             Y             Z
Electronic contribution:      6.67645       3.47617       0.00193
Nuclear contribution   :     -6.63234      -4.31610      -0.00183
                        -----------------------------------------
Total Dipole Moment    :      0.04411      -0.83992       0.00010
                        -----------------------------------------
Magnitude (a.u.)       :      0.84108
Magnitude (Debye)      :      2.13786

                             ****ORCA TERMINATED NORMALLY****
TOTAL RUN TIME: 0 days 0 hours 0 minutes 5 seconds 62 msec
