                         Program Version 3.0.3 - RELEASE   -
|  1> ! RI PBE def2-SVP def2-SVP/J NBO PAL2
|  2> % maxcore 2000
|  3> % output
|  4>     # printlevel mini
|  5>     print[ P_Basis ] 0
|  6>     print[ P_SCFInfo ] 1
|  7>     print[ P_SCFIterInfo ] 1
|  8>     print[ P_OrbEn ] 0
|  9>     print[ P_Cartesian ] 0
| 10> end
| 11> *xyz 0 1
| 12>  C        0.9073070000    -0.0251750000    -0.0360340000
| 13>  C        2.3926460000    -0.1077140000    -0.0318570000
| 14>  C        3.3011270000     0.9085320000    -0.0312640000
| 15>  N        4.6188500000     0.5561050000    -0.0270490000
| 16>  C        4.7388080000    -0.7320260000    -0.0243770000
| 17>  S        3.2528850000    -1.5948620000    -0.0267970000
| 18>  H        0.5993550000     1.0216230000    -0.0386890000
| 19>  H        0.4710300000    -0.5016370000     0.8454900000
| 20>  H        0.4758230000    -0.5046990000    -0.9182570000
| 21>  H        3.0323640000     1.9578230000    -0.0339090000
| 22>  H        5.6861970000    -1.2549690000    -0.0208560000
| 23> *
| 24>
| 25>                          ****END OF INPUT****
 Total Charge           Charge          ....    0
 Multiplicity           Mult            ....    1
 Number of Electrons    NEL             ....   52
 Basis Dimension        Dim             ....  113

MULLIKEN ATOMIC CHARGES
-----------------------
   0 C :    0.084629
   1 C :   -0.254473
   2 C :    0.055866
   3 N :   -0.106439
   4 C :   -0.022789
   5 S :    0.085708
   6 H :    0.030090
   7 H :    0.045178
   8 H :    0.045126
   9 H :   -0.007661
  10 H :    0.044766
Sum of atomic charges:   -0.0000000

LOEWDIN ATOMIC CHARGES
----------------------
   0 C :   -0.064587
   1 C :   -0.209231
   2 C :   -0.056562
   3 N :   -0.090564
   4 C :   -0.160259
   5 S :    0.413096
   6 H :    0.042823
   7 H :    0.041489
   8 H :    0.041480
   9 H :    0.023351
  10 H :    0.018965

  Mayer bond orders larger than 0.1
B(  0-C ,  1-C ) :   1.0906 B(  0-C ,  6-H ) :   0.9510 B(  0-C ,  7-H ) :   0.9463
B(  0-C ,  8-H ) :   0.9463 B(  1-C ,  2-C ) :   1.5521 B(  1-C ,  5-S ) :   1.1647
B(  2-C ,  3-N ) :   1.3629 B(  2-C ,  9-H ) :   0.9880 B(  3-N ,  4-C ) :   1.6852
B(  3-N ,  5-S ) :   0.1296 B(  4-C ,  5-S ) :   1.1451 B(  4-C , 10-H ) :   0.9589

FINAL SINGLE POINT ENERGY      -607.658945183547

DIPOLE MOMENT
-------------
                                X             Y             Z
Electronic contribution:      4.56928      -3.02636       0.01792
Nuclear contribution   :     -5.29203       2.70452      -0.01931
                        -----------------------------------------
Total Dipole Moment    :     -0.72276      -0.32184      -0.00138
                        -----------------------------------------
Magnitude (a.u.)       :      0.79118
Magnitude (Debye)      :      2.01101

                             ****ORCA TERMINATED NORMALLY****
TOTAL RUN TIME: 0 days 0 hours 0 minutes 5 seconds 203 msec
