                         Program Version 3.0.3 - RELEASE   -
|  1> ! RI PBE def2-SVP def2-SVP/J NBO PAL2
|  2> % maxcore 2000
|  3> % output
|  4>     # printlevel mini
|  5>     print[ P_Basis ] 0
|  6>     print[ P_SCFInfo ] 1
|  7>     print[ P_SCFIterInfo ] 1
|  8>     print[ P_OrbEn ] 0
|  9>     print[ P_Cartesian ] 0
| 10> end
| 11> *xyz 0 1
| 12>  C        0.9213700000    -0.0469210000    -0.0765710000
| 13>  C        2.4140320000    -0.0095440000    -0.0738240000
| 14>  C        3.1982130000     1.1126380000    -0.0724480000
| 15>  S        4.8319380000     0.6635940000    -0.0694150000
| 16>  N        4.5508010000    -0.9482710000    -0.0698290000
| 17>  C        3.2553050000    -1.1528950000    -0.0722070000
| 18>  H        0.5003170000     0.9588250000    -0.0774020000
| 19>  H        0.5372080000    -0.5701760000     0.8030750000
| 20>  H        0.5404500000    -0.5702730000    -0.9575690000
| 21>  H        2.8786260000     2.1450940000    -0.0731000000
| 22>  H        2.8941500000    -2.1769710000    -0.0728090000
| 23> *
| 24>
| 25>                          ****END OF INPUT****
 Total Charge           Charge          ....    0
 Multiplicity           Mult            ....    1
 Number of Electrons    NEL             ....   52
 Basis Dimension        Dim             ....  113

MULLIKEN ATOMIC CHARGES
-----------------------
   0 C :    0.080241
   1 C :   -0.136424
   2 C :   -0.116561
   3 S :    0.258883
   4 N :   -0.287648
   5 C :    0.074365
   6 H :    0.018263
   7 H :    0.040146
   8 H :    0.040115
   9 H :    0.024385
  10 H :    0.004233
Sum of atomic charges:    0.0000000

LOEWDIN ATOMIC CHARGES
----------------------
   0 C :   -0.052340
   1 C :   -0.099157
   2 C :   -0.211765
   3 S :    0.503172
   4 N :   -0.266523
   5 C :   -0.041354
   6 H :    0.035138
   7 H :    0.041370
   8 H :    0.041366
   9 H :    0.026609
  10 H :    0.023485

  Mayer bond orders larger than 0.1
B(  0-C ,  1-C ) :   1.0909 B(  0-C ,  6-H ) :   0.9528 B(  0-C ,  7-H ) :   0.9479
B(  0-C ,  8-H ) :   0.9478 B(  1-C ,  2-C ) :   1.5406 B(  1-C ,  3-S ) :   0.1024
B(  1-C ,  5-C ) :   1.2493 B(  2-C ,  3-S ) :   1.1773 B(  2-C ,  4-N ) :   0.1367
B(  2-C ,  9-H ) :   0.9592 B(  3-S ,  4-N ) :   1.2118 B(  4-N ,  5-C ) :   1.5988
B(  5-C , 10-H ) :   0.9838

FINAL SINGLE POINT ENERGY      -607.649831099766

DIPOLE MOMENT
-------------
                                X             Y             Z
Electronic contribution:      8.48595       1.01682       0.01555
Nuclear contribution   :     -9.39501      -0.53615      -0.01727
                        -----------------------------------------
Total Dipole Moment    :     -0.90907       0.48067      -0.00172
                        -----------------------------------------
Magnitude (a.u.)       :      1.02833
Magnitude (Debye)      :      2.61380

                             ****ORCA TERMINATED NORMALLY****
TOTAL RUN TIME: 0 days 0 hours 0 minutes 5 seconds 56 msec
