                         Program Version 3.0.3 - RELEASE   -
|  1> ! RI PBE def2-SVP def2-SVP/J NBO PAL2
|  2> % maxcore 2000
|  3> % output
|  4>     # printlevel mini
|  5>     print[ P_Basis ] 0
|  6>     print[ P_SCFInfo ] 1
|  7>     print[ P_SCFIterInfo ] 1
|  8>     print[ P_OrbEn ] 0
|  9>     print[ P_Cartesian ] 0
| 10> end
| 11> *xyz 0 1
| 12>  C        0.9669880000     0.0469040000     0.0719310000
| 13>  C        2.4534250000     0.1320520000     0.0756420000
| 14>  C        3.1925250000     1.2788920000     0.0744360000
| 15>  S        4.8579630000     0.9075280000     0.0798540000
| 16>  C        4.4611590000    -0.7591770000     0.0834150000
| 17>  N        3.1930690000    -1.0204890000     0.0807840000
| 18>  H        0.5128610000     1.0378460000     0.0681110000
| 19>  H        0.6135570000    -0.4960110000     0.9518380000
| 20>  H        0.6182090000    -0.5006510000    -0.8069570000
| 21>  H        2.8428140000     2.2995470000     0.0706970000
| 22>  H        5.2339290000    -1.5168510000     0.0875480000
| 23> *
| 24>
| 25>                          ****END OF INPUT****
 Total Charge           Charge          ....    0
 Multiplicity           Mult            ....    1
 Number of Electrons    NEL             ....   52
 Basis Dimension        Dim             ....  113

MULLIKEN ATOMIC CHARGES
-----------------------
   0 C :    0.112369
   1 C :   -0.110294
   2 C :   -0.103496
   3 S :    0.082509
   4 C :   -0.023348
   5 N :   -0.111011
   6 H :    0.006626
   7 H :    0.040067
   8 H :    0.040086
   9 H :    0.020047
  10 H :    0.046445
Sum of atomic charges:   -0.0000000

LOEWDIN ATOMIC CHARGES
----------------------
   0 C :   -0.056789
   1 C :   -0.051951
   2 C :   -0.225974
   3 S :    0.425505
   4 C :   -0.159485
   5 N :   -0.097651
   6 H :    0.032347
   7 H :    0.043401
   8 H :    0.043405
   9 H :    0.027030
  10 H :    0.020162

  Mayer bond orders larger than 0.1
B(  0-C ,  1-C ) :   1.1055 B(  0-C ,  6-H ) :   0.9452 B(  0-C ,  7-H ) :   0.9405
B(  0-C ,  8-H ) :   0.9405 B(  1-C ,  2-C ) :   1.5517 B(  1-C ,  5-N ) :   1.3413
B(  2-C ,  3-S ) :   1.1602 B(  2-C ,  9-H ) :   0.9603 B(  3-S ,  4-C ) :   1.1711
B(  3-S ,  5-N ) :   0.1313 B(  4-C ,  5-N ) :   1.6670 B(  4-C , 10-H ) :   0.9576

FINAL SINGLE POINT ENERGY      -607.660533328883

DIPOLE MOMENT
-------------
                                X             Y             Z
Electronic contribution:      7.06670       0.86575       0.01625
Nuclear contribution   :     -7.07328      -0.38983      -0.01767
                        -----------------------------------------
Total Dipole Moment    :     -0.00658       0.47592      -0.00141
                        -----------------------------------------
Magnitude (a.u.)       :      0.47596
Magnitude (Debye)      :      1.20981

                             ****ORCA TERMINATED NORMALLY****
TOTAL RUN TIME: 0 days 0 hours 0 minutes 5 seconds 376 msec
