                         Program Version 3.0.3 - RELEASE   -
|  1> ! RI PBE def2-SVP def2-SVP/J NBO PAL2
|  2> % maxcore 2000
|  3> % output
|  4>     # printlevel mini
|  5>     print[ P_Basis ] 0
|  6>     print[ P_SCFInfo ] 1
|  7>     print[ P_SCFIterInfo ] 1
|  8>     print[ P_OrbEn ] 0
|  9>     print[ P_Cartesian ] 0
| 10> end
| 11> *xyz 0 1
| 12>  C        0.9750980000     0.0247710000     0.0576210000
| 13>  C        2.4596120000    -0.0744130000     0.0536360000
| 14>  N        3.2592130000     0.9478680000     0.0496440000
| 15>  C        4.5660190000     0.5556930000     0.0466230000
| 16>  C        4.7827390000    -0.7850140000     0.0482690000
| 17>  S        3.2805110000    -1.5977740000     0.0539550000
| 18>  H        0.7000050000     1.0787880000     0.0569600000
| 19>  H        0.5443980000    -0.4511770000     0.9417720000
| 20>  H        0.5395200000    -0.4535370000    -0.8228610000
| 21>  H        5.3448460000     1.3069310000     0.0431470000
| 22>  H        5.7197480000    -1.3193460000     0.0465260000
| 23> *
| 24>
| 25>                          ****END OF INPUT****
 Total Charge           Charge          ....    0
 Multiplicity           Mult            ....    1
 Number of Electrons    NEL             ....   52
 Basis Dimension        Dim             ....  113

MULLIKEN ATOMIC CHARGES
-----------------------
   0 C :    0.101796
   1 C :   -0.232067
   2 N :   -0.089535
   3 C :    0.062888
   4 C :   -0.096022
   5 S :    0.088434
   6 H :    0.041016
   7 H :    0.042437
   8 H :    0.042554
   9 H :    0.005739
  10 H :    0.032760
Sum of atomic charges:   -0.0000000

LOEWDIN ATOMIC CHARGES
----------------------
   0 C :   -0.073946
   1 C :   -0.160751
   2 N :   -0.101193
   3 C :   -0.044754
   4 C :   -0.218402
   5 S :    0.412020
   6 H :    0.047363
   7 H :    0.042397
   8 H :    0.042424
   9 H :    0.025941
  10 H :    0.028900

  Mayer bond orders larger than 0.1
B(  0-C ,  1-C ) :   1.0717 B(  0-C ,  6-H ) :   0.9443 B(  0-C ,  7-H ) :   0.9446
B(  0-C ,  8-H ) :   0.9447 B(  1-C ,  2-N ) :   1.7133 B(  1-C ,  5-S ) :   1.1341
B(  2-N ,  3-C ) :   1.3401 B(  2-N ,  5-S ) :   0.1187 B(  3-C ,  4-C ) :   1.5554
B(  3-C ,  9-H ) :   0.9854 B(  4-C ,  5-S ) :   1.1676 B(  4-C , 10-H ) :   0.9641

FINAL SINGLE POINT ENERGY      -607.661807549446

DIPOLE MOMENT
-------------
                                X             Y             Z
Electronic contribution:      2.91586      -2.60292      -0.00371
Nuclear contribution   :     -2.96031       2.13955       0.00452
                        -----------------------------------------
Total Dipole Moment    :     -0.04445      -0.46336       0.00081
                        -----------------------------------------
Magnitude (a.u.)       :      0.46549
Magnitude (Debye)      :      1.18318

                             ****ORCA TERMINATED NORMALLY****
TOTAL RUN TIME: 0 days 0 hours 0 minutes 5 seconds 21 msec
