                         Program Version 3.0.3 - RELEASE   -
|  1> ! RI PBE def2-SVP def2-SVP/J NBO PAL2
|  2> % maxcore 2000
|  3> % output
|  4>     # printlevel mini
|  5>     print[ P_Basis ] 0
|  6>     print[ P_SCFInfo ] 1
|  7>     print[ P_SCFIterInfo ] 1
|  8>     print[ P_OrbEn ] 0
|  9>     print[ P_Cartesian ] 0
| 10> end
| 11> *xyz 0 1
| 12>  C        1.0616010000    -0.0285890000     0.0713580000
| 13>  C        2.5786630000    -0.0545180000     0.0733050000
| 14>  S        3.1682170000    -1.2981100000    -1.0624590000
| 15>  C        4.9314380000    -1.1874910000    -0.9296560000
| 16>  O        2.7678230000    -2.5868310000    -0.5639970000
| 17>  O        2.7998380000    -0.8996280000    -2.3947870000
| 18>  H        0.7059510000     0.7332230000     0.7669430000
| 19>  H        0.6575280000    -0.9935510000     0.3792720000
| 20>  H        0.6796710000     0.2058250000    -0.9228470000
| 21>  H        2.9815100000    -0.3105890000     1.0559240000
| 22>  H        3.0038200000     0.8967750000    -0.2547960000
| 23>  H        5.2383120000    -1.4181130000     0.0896190000
| 24>  H        5.2613960000    -0.1954520000    -1.2350840000
| 25>  H        5.3229300000    -1.9387620000    -1.6162970000
| 26> *
| 27>
| 28>                          ****END OF INPUT****
 Total Charge           Charge          ....    0
 Multiplicity           Mult            ....    1
 Number of Electrons    NEL             ....   58
 Basis Dimension        Dim             ....  128

MULLIKEN ATOMIC CHARGES
-----------------------
   0 C :   -0.013512
   1 C :   -0.095693
   2 S :    0.546178
   3 C :   -0.031779
   4 O :   -0.423741
   5 O :   -0.423783
   6 H :    0.043051
   7 H :    0.049934
   8 H :    0.049658
   9 H :    0.049208
  10 H :    0.048001
  11 H :    0.059188
  12 H :    0.059288
  13 H :    0.083999
Sum of atomic charges:   -0.0000000

LOEWDIN ATOMIC CHARGES
----------------------
   0 C :   -0.072201
   1 C :   -0.166159
   2 S :    1.095384
   3 C :   -0.183268
   4 O :   -0.483712
   5 O :   -0.483670
   6 H :    0.037618
   7 H :    0.036316
   8 H :    0.036278
   9 H :    0.030948
  10 H :    0.030781
  11 H :    0.036534
  12 H :    0.036552
  13 H :    0.048598

  Mayer bond orders larger than 0.1
B(  0-C ,  1-C ) :   1.0898 B(  0-C ,  6-H ) :   0.9640 B(  0-C ,  7-H ) :   0.9619
B(  0-C ,  8-H ) :   0.9617 B(  1-C ,  2-S ) :   0.8411 B(  1-C ,  9-H ) :   0.9227
B(  1-C , 10-H ) :   0.9224 B(  2-S ,  3-C ) :   0.8734 B(  2-S ,  4-O ) :   1.7114
B(  2-S ,  5-O ) :   1.7114 B(  3-C , 11-H ) :   0.9469 B(  3-C , 12-H ) :   0.9467
B(  3-C , 13-H ) :   0.9475

FINAL SINGLE POINT ENERGY      -666.890791924608

DIPOLE MOMENT
-------------
                                X             Y             Z
Electronic contribution:      0.45022      -4.17334      -3.83850
Nuclear contribution   :      0.32226       5.18201       4.78224
                        -----------------------------------------
Total Dipole Moment    :      0.77248       1.00868       0.94374
                        -----------------------------------------
Magnitude (a.u.)       :      1.58266
Magnitude (Debye)      :      4.02279

                             ****ORCA TERMINATED NORMALLY****
TOTAL RUN TIME: 0 days 0 hours 0 minutes 6 seconds 68 msec
