                         Program Version 3.0.3 - RELEASE   -
|  1> ! RI PBE def2-SVP def2-SVP/J NBO PAL2
|  2> % maxcore 2000
|  3> % output
|  4>     # printlevel mini
|  5>     print[ P_Basis ] 0
|  6>     print[ P_SCFInfo ] 1
|  7>     print[ P_SCFIterInfo ] 1
|  8>     print[ P_OrbEn ] 0
|  9>     print[ P_Cartesian ] 0
| 10> end
| 11> *xyz 0 1
| 12>  C        1.0691700000    -0.3094180000     0.0812110000
| 13>  S        2.7861970000     0.0759480000    -0.1132700000
| 14>  O        3.5362130000    -1.1207670000     0.1522120000
| 15>  O        2.9444530000     0.7761670000    -1.3580550000
| 16>  C        3.1070150000     1.1999300000     1.2068050000
| 17>  C        3.4308730000     2.4552710000     0.9515510000
| 18>  H        0.8405260000    -1.0427600000    -0.6935650000
| 19>  H        0.4770380000     0.5931340000    -0.0614290000
| 20>  H        0.9040680000    -0.7451380000     1.0660040000
| 21>  H        3.0816370000     0.7603180000     2.1979280000
| 22>  H        3.4591440000     2.8162920000    -0.0707290000
| 23>  H        3.6882760000     3.1425230000     1.7495340000
| 24> *
| 25>
| 26>                          ****END OF INPUT****
 Total Charge           Charge          ....    0
 Multiplicity           Mult            ....    1
 Number of Electrons    NEL             ....   56
 Basis Dimension        Dim             ....  118

MULLIKEN ATOMIC CHARGES
-----------------------
   0 C :   -0.056302
   1 S :    0.600878
   2 O :   -0.417401
   3 O :   -0.412878
   4 C :   -0.124624
   5 C :    0.027644
   6 H :    0.085951
   7 H :    0.067549
   8 H :    0.060324
   9 H :    0.047041
  10 H :    0.066537
  11 H :    0.055282
Sum of atomic charges:   -0.0000000

LOEWDIN ATOMIC CHARGES
----------------------
   0 C :   -0.184006
   1 S :    1.094917
   2 O :   -0.472050
   3 O :   -0.473035
   4 C :   -0.192030
   5 C :   -0.008948
   6 H :    0.048252
   7 H :    0.039493
   8 H :    0.037608
   9 H :    0.032268
  10 H :    0.038168
  11 H :    0.039364

  Mayer bond orders larger than 0.1
B(  0-C ,  1-S ) :   0.8751 B(  0-C ,  6-H ) :   0.9446 B(  0-C ,  7-H ) :   0.9467
B(  0-C ,  8-H ) :   0.9473 B(  1-S ,  2-O ) :   1.7072 B(  1-S ,  3-O ) :   1.7328
B(  1-S ,  4-C ) :   0.8485 B(  4-C ,  5-C ) :   1.9671 B(  4-C ,  9-H ) :   0.9374
B(  5-C , 10-H ) :   0.9346 B(  5-C , 11-H ) :   0.9431

FINAL SINGLE POINT ENERGY      -665.659558930656

DIPOLE MOMENT
-------------
                                X             Y             Z
Electronic contribution:      3.06229      -2.21415      -2.45651
Nuclear contribution   :     -4.05316       2.91195       3.47951
                        -----------------------------------------
Total Dipole Moment    :     -0.99087       0.69780       1.02300
                        -----------------------------------------
Magnitude (a.u.)       :      1.58597
Magnitude (Debye)      :      4.03121

                             ****ORCA TERMINATED NORMALLY****
TOTAL RUN TIME: 0 days 0 hours 0 minutes 5 seconds 783 msec
