                         Program Version 3.0.3 - RELEASE   -
|  1> ! RI PBE def2-SVP def2-SVP/J NBO PAL2
|  2> % maxcore 2000
|  3> % output
|  4>     # printlevel mini
|  5>     print[ P_Basis ] 0
|  6>     print[ P_SCFInfo ] 1
|  7>     print[ P_SCFIterInfo ] 1
|  8>     print[ P_OrbEn ] 0
|  9>     print[ P_Cartesian ] 0
| 10> end
| 11> *xyz 0 1
| 12>  C        0.9990380000    -0.0255750000     0.0502240000
| 13>  S        2.7557960000    -0.1436610000    -0.0419550000
| 14>  O        3.1695370000    -1.3630950000     0.5797110000
| 15>  O        3.1705480000     0.1768420000    -1.3723290000
| 16>  C        3.2471510000     1.1521650000     0.9806230000
| 17>  C        3.6145300000     2.0491420000     1.6885580000
| 18>  H        0.6189870000    -0.8279480000    -0.5846860000
| 19>  H        0.6852910000     0.9443220000    -0.3323360000
| 20>  H        0.6844620000    -0.1742420000     1.0819200000
| 21>  H        3.9487700000     2.8438600000     2.3156700000
| 22> *
| 23>
| 24>                          ****END OF INPUT****
 Total Charge           Charge          ....    0
 Multiplicity           Mult            ....    1
 Number of Electrons    NEL             ....   54
 Basis Dimension        Dim             ....  108

MULLIKEN ATOMIC CHARGES
-----------------------
   0 C :   -0.039275
   1 S :    0.599579
   2 O :   -0.383370
   3 O :   -0.382932
   4 C :    0.411194
   5 C :   -0.467382
   6 H :    0.087468
   7 H :    0.074066
   8 H :    0.073779
   9 H :    0.026872
Sum of atomic charges:   -0.0000000

LOEWDIN ATOMIC CHARGES
----------------------
   0 C :   -0.171168
   1 S :    1.085592
   2 O :   -0.440472
   3 O :   -0.440255
   4 C :   -0.211151
   5 C :   -0.007924
   6 H :    0.050509
   7 H :    0.043941
   8 H :    0.043835
   9 H :    0.047092

  Mayer bond orders larger than 0.1
B(  0-C ,  1-S ) :   0.9143 B(  0-C ,  6-H ) :   0.9413 B(  0-C ,  7-H ) :   0.9445
B(  0-C ,  8-H ) :   0.9449 B(  1-S ,  2-O ) :   1.7620 B(  1-S ,  3-O ) :   1.7622
B(  1-S ,  4-C ) :   0.7960 B(  4-C ,  5-C ) :   2.4180 B(  4-C ,  9-H ) :  -0.1131
B(  5-C ,  9-H ) :   1.1031

FINAL SINGLE POINT ENERGY      -664.399672828858

DIPOLE MOMENT
-------------
                                X             Y             Z
Electronic contribution:      3.85815      -1.03394      -0.81486
Nuclear contribution   :     -4.87595       1.97432       1.55477
                        -----------------------------------------
Total Dipole Moment    :     -1.01780       0.94039       0.73991
                        -----------------------------------------
Magnitude (a.u.)       :      1.57089
Magnitude (Debye)      :      3.99289

                             ****ORCA TERMINATED NORMALLY****
TOTAL RUN TIME: 0 days 0 hours 0 minutes 5 seconds 296 msec
