                         Program Version 3.0.3 - RELEASE   -
|  1> ! RI PBE def2-SVP def2-SVP/J NBO PAL2
|  2> % maxcore 2000
|  3> % output
|  4>     # printlevel mini
|  5>     print[ P_Basis ] 0
|  6>     print[ P_SCFInfo ] 1
|  7>     print[ P_SCFIterInfo ] 1
|  8>     print[ P_OrbEn ] 0
|  9>     print[ P_Cartesian ] 0
| 10> end
| 11> *xyz 0 1
| 12>  N        0.8464600000     0.1646270000     0.0049500000
| 13>  C        2.2118540000     0.1153550000     0.0105410000
| 14>  C        3.1038540000     1.1548980000     0.0129120000
| 15>  C        4.4523990000     0.7124110000     0.0187360000
| 16>  C        4.5815600000    -0.6385590000     0.0207590000
| 17>  S        3.0375840000    -1.4005480000     0.0155110000
| 18>  H        0.3780030000     1.0490060000     0.0031790000
| 19>  H        0.2915930000    -0.6672100000     0.0046920000
| 20>  H        2.8027820000     2.1944580000     0.0105390000
| 21>  H        5.3002690000     1.3853990000     0.0213280000
| 22>  H        5.4771530000    -1.2386270000     0.0249510000
| 23> *
| 24>
| 25>                          ****END OF INPUT****
 Total Charge           Charge          ....    0
 Multiplicity           Mult            ....    1
 Number of Electrons    NEL             ....   52
 Basis Dimension        Dim             ....  113

MULLIKEN ATOMIC CHARGES
-----------------------
   0 N :   -0.056555
   1 C :   -0.120261
   2 C :    0.005225
   3 C :    0.034007
   4 C :   -0.102183
   5 S :    0.048558
   6 H :    0.113509
   7 H :    0.113946
   8 H :   -0.038915
   9 H :   -0.015242
  10 H :    0.017911
Sum of atomic charges:   -0.0000000

LOEWDIN ATOMIC CHARGES
----------------------
   0 N :   -0.014143
   1 C :   -0.143531
   2 C :   -0.144842
   3 C :   -0.066274
   4 C :   -0.232691
   5 S :    0.383868
   6 H :    0.076276
   7 H :    0.070395
   8 H :    0.021394
   9 H :    0.028632
  10 H :    0.020915

  Mayer bond orders larger than 0.1
B(  0-N ,  1-C ) :   1.2389 B(  0-N ,  6-H ) :   0.9524 B(  0-N ,  7-H ) :   0.9482
B(  1-C ,  2-C ) :   1.4492 B(  1-C ,  5-S ) :   1.1394 B(  2-C ,  3-C ) :   1.2523
B(  2-C ,  8-H ) :   0.9962 B(  3-C ,  4-C ) :   1.5677 B(  3-C ,  9-H ) :   0.9848
B(  4-C ,  5-S ) :   1.0973 B(  4-C , 10-H ) :   0.9720

FINAL SINGLE POINT ENERGY      -607.648532768354

DIPOLE MOMENT
-------------
                                X             Y             Z
Electronic contribution:     -0.20593      -3.52725       0.00271
Nuclear contribution   :     -0.64644       3.71210      -0.00507
                        -----------------------------------------
Total Dipole Moment    :     -0.85236       0.18486      -0.00235
                        -----------------------------------------
Magnitude (a.u.)       :      0.87218
Magnitude (Debye)      :      2.21691

                             ****ORCA TERMINATED NORMALLY****
TOTAL RUN TIME: 0 days 0 hours 0 minutes 5 seconds 573 msec
