                         Program Version 3.0.3 - RELEASE   -
|  1> ! RI PBE def2-SVP def2-SVP/J NBO PAL2
|  2> % maxcore 2000
|  3> % output
|  4>     # printlevel mini
|  5>     print[ P_Basis ] 0
|  6>     print[ P_SCFInfo ] 1
|  7>     print[ P_SCFIterInfo ] 1
|  8>     print[ P_OrbEn ] 0
|  9>     print[ P_Cartesian ] 0
| 10> end
| 11> *xyz 0 1
| 12>  N        1.0258540000    -0.0661880000     0.0435130000
| 13>  C        2.3963790000    -0.0137360000     0.0483160000
| 14>  C        3.1561160000     1.1288520000     0.0501160000
| 15>  S        4.8307440000     0.7759130000     0.0561200000
| 16>  C        4.5425180000    -0.8991580000     0.0563630000
| 17>  C        3.2113010000    -1.1840870000     0.0519700000
| 18>  H        0.4763950000     0.7691500000     0.0418160000
| 19>  H        0.5497530000    -0.9451310000     0.0433970000
| 20>  H        2.8134550000     2.1521230000     0.0481800000
| 21>  H        5.3658530000    -1.5968050000     0.0597080000
| 22>  H        2.8139320000    -2.1916320000     0.0513120000
| 23> *
| 24>
| 25>                          ****END OF INPUT****
 Total Charge           Charge          ....    0
 Multiplicity           Mult            ....    1
 Number of Electrons    NEL             ....   52
 Basis Dimension        Dim             ....  113

MULLIKEN ATOMIC CHARGES
-----------------------
   0 N :   -0.063956
   1 C :    0.046298
   2 C :   -0.173932
   3 S :    0.078922
   4 C :   -0.100191
   5 C :    0.017591
   6 H :    0.103551
   7 H :    0.102165
   8 H :   -0.005426
   9 H :    0.026235
  10 H :   -0.031258
Sum of atomic charges:   -0.0000000

LOEWDIN ATOMIC CHARGES
----------------------
   0 N :   -0.014265
   1 C :   -0.029445
   2 C :   -0.280111
   3 S :    0.429593
   4 C :   -0.206724
   5 C :   -0.100013
   6 H :    0.068771
   7 H :    0.068101
   8 H :    0.015748
   9 H :    0.024464
  10 H :    0.023882

  Mayer bond orders larger than 0.1
B(  0-N ,  1-C ) :   1.2432 B(  0-N ,  6-H ) :   0.9550 B(  0-N ,  7-H ) :   0.9513
B(  1-C ,  2-C ) :   1.4631 B(  1-C ,  5-C ) :   1.2424 B(  2-C ,  3-S ) :   1.1102
B(  2-C ,  8-H ) :   0.9745 B(  3-S ,  4-C ) :   1.2136 B(  4-C ,  5-C ) :   1.5178
B(  4-C ,  9-H ) :   0.9608 B(  5-C , 10-H ) :   0.9922

FINAL SINGLE POINT ENERGY      -607.649780732287

DIPOLE MOMENT
-------------
                                X             Y             Z
Electronic contribution:      4.05214       1.99980       0.01207
Nuclear contribution   :     -4.91864      -2.21706      -0.01397
                        -----------------------------------------
Total Dipole Moment    :     -0.86650      -0.21726      -0.00190
                        -----------------------------------------
Magnitude (a.u.)       :      0.89332
Magnitude (Debye)      :      2.27064

                             ****ORCA TERMINATED NORMALLY****
TOTAL RUN TIME: 0 days 0 hours 0 minutes 5 seconds 64 msec
