                         Program Version 3.0.3 - RELEASE   -
|  1> ! RI PBE def2-SVP def2-SVP/J NBO PAL2
|  2> % maxcore 2000
|  3> % output
|  4>     # printlevel mini
|  5>     print[ P_Basis ] 0
|  6>     print[ P_SCFInfo ] 1
|  7>     print[ P_SCFIterInfo ] 1
|  8>     print[ P_OrbEn ] 0
|  9>     print[ P_Cartesian ] 0
| 10> end
| 11> *xyz 0 1
| 12>  O        0.8511160000    -0.0209180000    -0.0421100000
| 13>  C        2.1995860000    -0.0337710000    -0.0362410000
| 14>  C        3.0885830000     0.9996730000    -0.0331940000
| 15>  C        4.4325790000     0.5384890000    -0.0269980000
| 16>  C        4.5329760000    -0.8158500000    -0.0255000000
| 17>  S        2.9862290000    -1.5620100000    -0.0316280000
| 18>  H        0.5510090000     0.8928700000    -0.0439890000
| 19>  H        2.7967210000     2.0424970000    -0.0352850000
| 20>  H        5.2911870000     1.1969960000    -0.0237900000
| 21>  H        5.4226140000    -1.4255760000    -0.0211660000
| 22> *
| 23>
| 24>                          ****END OF INPUT****
 Total Charge           Charge          ....    0
 Multiplicity           Mult            ....    1
 Number of Electrons    NEL             ....   52
 Basis Dimension        Dim             ....  108

MULLIKEN ATOMIC CHARGES
-----------------------
   0 O :   -0.149016
   1 C :   -0.020259
   2 C :   -0.015295
   3 C :    0.033021
   4 C :   -0.104875
   5 S :    0.081442
   6 H :    0.178708
   7 H :   -0.023841
   8 H :   -0.006861
   9 H :    0.026975
Sum of atomic charges:    0.0000000

LOEWDIN ATOMIC CHARGES
----------------------
   0 O :   -0.032239
   1 C :   -0.132252
   2 C :   -0.145852
   3 C :   -0.065850
   4 C :   -0.219043
   5 S :    0.418459
   6 H :    0.097103
   7 H :    0.025336
   8 H :    0.030456
   9 H :    0.023883

  Mayer bond orders larger than 0.1
B(  0-O ,  1-C ) :   1.2090 B(  0-O ,  6-H ) :   0.9619 B(  1-C ,  2-C ) :   1.4534
B(  1-C ,  5-S ) :   1.1569 B(  2-C ,  3-C ) :   1.2453 B(  2-C ,  7-H ) :   0.9914
B(  3-C ,  4-C ) :   1.5716 B(  3-C ,  8-H ) :   0.9878 B(  4-C ,  5-S ) :   1.1284
B(  4-C ,  9-H ) :   0.9721

FINAL SINGLE POINT ENERGY      -627.486311237169

DIPOLE MOMENT
-------------
                                X             Y             Z
Electronic contribution:     -2.23893      -3.39012      -0.00700
Nuclear contribution   :      2.11454       4.05588       0.00611
                        -----------------------------------------
Total Dipole Moment    :     -0.12439       0.66576      -0.00090
                        -----------------------------------------
Magnitude (a.u.)       :      0.67729
Magnitude (Debye)      :      1.72153

                             ****ORCA TERMINATED NORMALLY****
TOTAL RUN TIME: 0 days 0 hours 0 minutes 5 seconds 543 msec
