                         Program Version 3.0.3 - RELEASE   -
|  1> ! RI PBE def2-SVP def2-SVP/J NBO PAL2
|  2> % maxcore 2000
|  3> % output
|  4>     # printlevel mini
|  5>     print[ P_Basis ] 0
|  6>     print[ P_SCFInfo ] 1
|  7>     print[ P_SCFIterInfo ] 1
|  8>     print[ P_OrbEn ] 0
|  9>     print[ P_Cartesian ] 0
| 10> end
| 11> *xyz 0 1
| 12>  O        0.9755080000     0.0335800000    -0.0445560000
| 13>  C        2.3263890000     0.1394210000    -0.0389440000
| 14>  C        3.0630440000     1.2907360000    -0.0361000000
| 15>  S        4.7376700000     0.9441660000    -0.0290600000
| 16>  C        4.4570790000    -0.7359050000    -0.0298920000
| 17>  C        3.1284340000    -1.0306500000    -0.0353770000
| 18>  H        0.5860520000     0.9117240000    -0.0463040000
| 19>  H        2.7094470000     2.3108270000    -0.0377750000
| 20>  H        5.2876630000    -1.4248560000    -0.0262920000
| 21>  H        2.7182040000    -2.0311330000    -0.0368910000
| 22> *
| 23>
| 24>                          ****END OF INPUT****
 Total Charge           Charge          ....    0
 Multiplicity           Mult            ....    1
 Number of Electrons    NEL             ....   52
 Basis Dimension        Dim             ....  108

MULLIKEN ATOMIC CHARGES
-----------------------
   0 O :   -0.161242
   1 C :    0.128711
   2 C :   -0.187557
   3 S :    0.090826
   4 C :   -0.097573
   5 C :    0.021385
   6 H :    0.169926
   7 H :    0.010093
   8 H :    0.035263
   9 H :   -0.009831
Sum of atomic charges:   -0.0000000

LOEWDIN ATOMIC CHARGES
----------------------
   0 O :   -0.031766
   1 C :   -0.010899
   2 C :   -0.281539
   3 S :    0.439704
   4 C :   -0.198827
   5 C :   -0.087358
   6 H :    0.089402
   7 H :    0.020228
   8 H :    0.026849
   9 H :    0.034205

  Mayer bond orders larger than 0.1
B(  0-O ,  1-C ) :   1.2199 B(  0-O ,  6-H ) :   0.9684 B(  1-C ,  2-C ) :   1.4621
B(  1-C ,  5-C ) :   1.2683 B(  2-C ,  3-S ) :   1.1228 B(  2-C ,  7-H ) :   0.9724
B(  3-S ,  4-C ) :   1.2051 B(  4-C ,  5-C ) :   1.5188 B(  4-C ,  8-H ) :   0.9638
B(  5-C ,  9-H ) :   0.9975

FINAL SINGLE POINT ENERGY      -627.489606913259

DIPOLE MOMENT
-------------
                                X             Y             Z
Electronic contribution:      1.78030       1.59247       0.00707
Nuclear contribution   :     -2.01724      -1.23639      -0.00811
                        -----------------------------------------
Total Dipole Moment    :     -0.23694       0.35608      -0.00104
                        -----------------------------------------
Magnitude (a.u.)       :      0.42771
Magnitude (Debye)      :      1.08715

                             ****ORCA TERMINATED NORMALLY****
TOTAL RUN TIME: 0 days 0 hours 0 minutes 5 seconds 487 msec
