                         Program Version 3.0.3 - RELEASE   -
|  1> ! RI PBE def2-SVP def2-SVP/J NBO PAL2
|  2> % maxcore 2000
|  3> % output
|  4>     # printlevel mini
|  5>     print[ P_Basis ] 0
|  6>     print[ P_SCFInfo ] 1
|  7>     print[ P_SCFIterInfo ] 1
|  8>     print[ P_OrbEn ] 0
|  9>     print[ P_Cartesian ] 0
| 10> end
| 11> *xyz 0 1
| 12>  O        0.9611420000    -0.0806880000     0.1400500000
| 13>  S        2.3733140000    -0.0631150000    -0.1048740000
| 14>  O        2.8762780000    -0.0408430000    -1.4501480000
| 15>  C        3.2903160000     1.0951860000     0.9246470000
| 16>  C        4.2149880000    -0.0635190000     1.3566660000
| 17>  C        3.3135140000    -1.2289040000     0.8946330000
| 18>  H        2.6470030000     1.4659090000     1.7224120000
| 19>  H        3.7393290000     1.9172540000     0.3712750000
| 20>  H        4.4341060000    -0.0750530000     2.4230340000
| 21>  H        5.1521330000    -0.0470410000     0.8025830000
| 22>  H        2.6778470000    -1.6327820000     1.6823850000
| 23>  H        3.7788410000    -2.0274930000     0.3207460000
| 24> *
| 25>
| 26>                          ****END OF INPUT****
 Total Charge           Charge          ....    0
 Multiplicity           Mult            ....    1
 Number of Electrons    NEL             ....   56
 Basis Dimension        Dim             ....  118

MULLIKEN ATOMIC CHARGES
-----------------------
   0 O :   -0.395851
   1 S :    0.519272
   2 O :   -0.407633
   3 C :    0.022777
   4 C :   -0.114319
   5 C :    0.022753
   6 H :    0.055857
   7 H :    0.068614
   8 H :    0.049680
   9 H :    0.054377
  10 H :    0.055803
  11 H :    0.068671
Sum of atomic charges:   -0.0000000

LOEWDIN ATOMIC CHARGES
----------------------
   0 O :   -0.460293
   1 S :    1.077877
   2 O :   -0.470950
   3 C :   -0.154788
   4 C :   -0.054944
   5 C :   -0.154803
   6 H :    0.035674
   7 H :    0.035478
   8 H :    0.036572
   9 H :    0.039048
  10 H :    0.035643
  11 H :    0.035487

  Mayer bond orders larger than 0.1
B(  0-O ,  1-S ) :   1.7532 B(  1-S ,  2-O ) :   1.7145 B(  1-S ,  3-C ) :   0.8167
B(  1-S ,  5-C ) :   0.8171 B(  3-C ,  4-C ) :   1.0999 B(  3-C ,  6-H ) :   0.9174
B(  3-C ,  7-H ) :   0.9335 B(  4-C ,  5-C ) :   1.0996 B(  4-C ,  8-H ) :   0.9356
B(  4-C ,  9-H ) :   0.9307 B(  5-C , 10-H ) :   0.9174 B(  5-C , 11-H ) :   0.9335

FINAL SINGLE POINT ENERGY      -665.673327307575

DIPOLE MOMENT
-------------
                                X             Y             Z
Electronic contribution:     -4.53816       0.01190      -4.44400
Nuclear contribution   :      5.64689      -0.01704       5.72868
                        -----------------------------------------
Total Dipole Moment    :      1.10873      -0.00514       1.28468
                        -----------------------------------------
Magnitude (a.u.)       :      1.69697
Magnitude (Debye)      :      4.31336

                             ****ORCA TERMINATED NORMALLY****
TOTAL RUN TIME: 0 days 0 hours 0 minutes 5 seconds 964 msec
