                         Program Version 3.0.3 - RELEASE   -
|  1> ! RI PBE def2-SVP def2-SVP/J NBO PAL2
|  2> % maxcore 2000
|  3> % output
|  4>     # printlevel mini
|  5>     print[ P_Basis ] 0
|  6>     print[ P_SCFInfo ] 1
|  7>     print[ P_SCFIterInfo ] 1
|  8>     print[ P_OrbEn ] 0
|  9>     print[ P_Cartesian ] 0
| 10> end
| 11> *xyz 0 1
| 12>  C        1.7518700000    -0.0001800000    -0.5249100000
| 13>  C        0.8163160000     0.7546560000     0.3702490000
| 14>  C        0.8161780000    -0.7548810000     0.3702180000
| 15>  C       -0.6271260000    -1.0188640000    -0.0686970000
| 16>  C       -0.8762310000     0.0000750000    -1.1964320000
| 17>  C       -0.6269380000     1.0189230000    -0.0686560000
| 18>  C       -1.3798830000     0.0000800000     0.8372320000
| 19>  H        2.7906830000    -0.0002820000    -0.2136190000
| 20>  H        1.6284530000    -0.0001470000    -1.6000910000
| 21>  H        1.2169200000     1.3243290000     1.2000260000
| 22>  H        1.2166760000    -1.3246610000     1.1999720000
| 23>  H       -0.9416800000    -2.0583960000    -0.1588770000
| 24>  H       -1.9234170000     0.0001770000    -1.5006650000
| 25>  H       -0.2423850000     0.0000350000    -2.0826560000
| 26>  H       -0.9413020000     2.0585160000    -0.1587930000
| 27>  H       -2.4616640000     0.0001830000     0.6832400000
| 28>  H       -1.1384810000     0.0000360000     1.9030390000
| 29> *
| 30>
| 31>                          ****END OF INPUT****
 Total Charge           Charge          ....    0
 Multiplicity           Mult            ....    1
 Number of Electrons    NEL             ....   52
 Basis Dimension        Dim             ....  148

MULLIKEN ATOMIC CHARGES
-----------------------
   0 C :    0.090531
   1 C :   -0.070787
   2 C :   -0.070792
   3 C :   -0.080158
   4 C :    0.053170
   5 C :   -0.080164
   6 C :    0.070911
   7 H :    0.018010
   8 H :    0.020201
   9 H :    0.009288
  10 H :    0.009288
  11 H :   -0.011763
  12 H :    0.014900
  13 H :    0.012374
  14 H :   -0.011761
  15 H :    0.014829
  16 H :    0.011924
Sum of atomic charges:    0.0000000

LOEWDIN ATOMIC CHARGES
----------------------
   0 C :   -0.039719
   1 C :   -0.039004
   2 C :   -0.039004
   3 C :   -0.014183
   4 C :   -0.022262
   5 C :   -0.014184
   6 C :   -0.017132
   7 H :    0.032464
   8 H :    0.023307
   9 H :    0.020632
  10 H :    0.020632
  11 H :    0.010462
  12 H :    0.025986
  13 H :    0.011319
  14 H :    0.010463
  15 H :    0.017185
  16 H :    0.013037

  Mayer bond orders larger than 0.1
B(  0-C ,  1-C ) :   1.0156 B(  0-C ,  2-C ) :   1.0156 B(  0-C ,  7-H ) :   0.9308
B(  0-C ,  8-H ) :   0.8977 B(  1-C ,  2-C ) :   0.9373 B(  1-C ,  5-C ) :   0.9973
B(  1-C ,  9-H ) :   0.9503 B(  2-C ,  3-C ) :   0.9973 B(  2-C , 10-H ) :   0.9503
B(  3-C ,  4-C ) :   1.0086 B(  3-C ,  6-C ) :   0.9850 B(  3-C , 11-H ) :   0.9681
B(  4-C ,  5-C ) :   1.0086 B(  4-C , 12-H ) :   0.9308 B(  4-C , 13-H ) :   0.9188
B(  5-C ,  6-C ) :   0.9850 B(  5-C , 14-H ) :   0.9681 B(  6-C , 15-H ) :   0.9409
B(  6-C , 16-H ) :   0.9340

FINAL SINGLE POINT ENERGY      -272.114902213116

DIPOLE MOMENT
-------------
                                X             Y             Z
Electronic contribution:      0.48304      -0.00005       0.32631
Nuclear contribution   :     -0.51644       0.00005      -0.27394
                        -----------------------------------------
Total Dipole Moment    :     -0.03339       0.00000       0.05237
                        -----------------------------------------
Magnitude (a.u.)       :      0.06211
Magnitude (Debye)      :      0.15788

                             ****ORCA TERMINATED NORMALLY****
TOTAL RUN TIME: 0 days 0 hours 0 minutes 7 seconds 840 msec
