                         Program Version 3.0.3 - RELEASE   -
|  1> ! RI PBE def2-SVP def2-SVP/J NBO PAL2
|  2> % maxcore 2000
|  3> % output
|  4>     # printlevel mini
|  5>     print[ P_Basis ] 0
|  6>     print[ P_SCFInfo ] 1
|  7>     print[ P_SCFIterInfo ] 1
|  8>     print[ P_OrbEn ] 0
|  9>     print[ P_Cartesian ] 0
| 10> end
| 11> *xyz 0 1
| 12>  C       -1.4731080000     0.4535930000     0.9660050000
| 13>  C       -1.2870030000    -0.1110580000    -0.4152900000
| 14>  C       -0.2821420000    -1.2762960000    -0.6260160000
| 15>  C        0.8307440000    -0.7971130000     0.2898020000
| 16>  C        2.1298280000    -0.0383560000     0.4327020000
| 17>  C        0.9097430000     0.6553040000    -0.1110170000
| 18>  C       -0.5044950000     1.1386630000     0.0575800000
| 19>  H       -1.1462000000    -0.0885570000     1.8445590000
| 20>  H       -2.4005430000     0.9913610000     1.1251050000
| 21>  H       -2.1212630000    -0.0203150000    -1.1027880000
| 22>  H       -0.7026330000    -2.2456840000    -0.3430400000
| 23>  H        0.0094350000    -1.3221190000    -1.6788710000
| 24>  H        0.4552650000    -0.8673330000     1.3073520000
| 25>  H        2.9430250000    -0.0968930000    -0.2841550000
| 26>  H        2.4598730000     0.0365270000     1.4642130000
| 27>  H        1.0855540000     0.6921050000    -1.1898560000
| 28>  H       -0.7770590000     2.1175700000    -0.3213850000
| 29> *
| 30>
| 31>                          ****END OF INPUT****
 Total Charge           Charge          ....    0
 Multiplicity           Mult            ....    1
 Number of Electrons    NEL             ....   52
 Basis Dimension        Dim             ....  148

MULLIKEN ATOMIC CHARGES
-----------------------
   0 C :    0.077175
   1 C :   -0.214777
   2 C :    0.231302
   3 C :   -0.237971
   4 C :    0.073781
   5 C :    0.008811
   6 C :   -0.099172
   7 H :    0.018002
   8 H :    0.016397
   9 H :    0.012483
  10 H :    0.004054
  11 H :    0.009777
  12 H :    0.032012
  13 H :    0.021065
  14 H :    0.019833
  15 H :    0.017909
  16 H :    0.009321
Sum of atomic charges:    0.0000000

LOEWDIN ATOMIC CHARGES
----------------------
   0 C :   -0.039291
   1 C :   -0.043362
   2 C :   -0.014218
   3 C :   -0.077237
   4 C :    0.001251
   5 C :   -0.057401
   6 C :   -0.032735
   7 H :    0.021171
   8 H :    0.032400
   9 H :    0.018864
  10 H :    0.024737
  11 H :    0.028511
  12 H :    0.025624
  13 H :    0.030146
  14 H :    0.030317
  15 H :    0.029655
  16 H :    0.021570

  Mayer bond orders larger than 0.1
B(  0-C ,  1-C ) :   0.9969 B(  0-C ,  6-C ) :   1.0014 B(  0-C ,  7-H ) :   0.9276
B(  0-C ,  8-H ) :   0.9256 B(  1-C ,  2-C ) :   1.0383 B(  1-C ,  6-C ) :   0.9202
B(  1-C ,  9-H ) :   0.9237 B(  2-C ,  3-C ) :   1.0574 B(  2-C , 10-H ) :   0.9119
B(  2-C , 11-H ) :   0.9244 B(  3-C ,  4-C ) :   1.0411 B(  3-C ,  5-C ) :   0.8828
B(  3-C , 12-H ) :   0.9327 B(  4-C ,  5-C ) :   1.0526 B(  4-C , 13-H ) :   0.9149
B(  4-C , 14-H ) :   0.9152 B(  5-C ,  6-C ) :   1.0541 B(  5-C , 15-H ) :   0.9204
B(  6-C , 16-H ) :   0.9366

FINAL SINGLE POINT ENERGY      -272.053281153956

DIPOLE MOMENT
-------------
                                X             Y             Z
Electronic contribution:      0.44502       0.70777      -0.03390
Nuclear contribution   :     -0.55021      -0.70259      -0.02271
                        -----------------------------------------
Total Dipole Moment    :     -0.10520       0.00517      -0.05661
                        -----------------------------------------
Magnitude (a.u.)       :      0.11957
Magnitude (Debye)      :      0.30393

                             ****ORCA TERMINATED NORMALLY****
TOTAL RUN TIME: 0 days 0 hours 0 minutes 7 seconds 634 msec
