                         Program Version 3.0.3 - RELEASE   -
|  1> ! RI PBE def2-SVP def2-SVP/J NBO PAL2
|  2> % maxcore 2000
|  3> % output
|  4>     # printlevel mini
|  5>     print[ P_Basis ] 0
|  6>     print[ P_SCFInfo ] 1
|  7>     print[ P_SCFIterInfo ] 1
|  8>     print[ P_OrbEn ] 0
|  9>     print[ P_Cartesian ] 0
| 10> end
| 11> *xyz 0 1
| 12>  C        0.5626390000     1.2295230000     0.6259910000
| 13>  C       -0.8651700000     0.7747690000     0.4054590000
| 14>  C       -0.8695560000    -0.0438020000    -0.8609270000
| 15>  C        0.5559640000    -0.0639160000    -1.3726710000
| 16>  C        1.2477380000     0.0086310000    -0.0038700000
| 17>  C        0.5730480000    -1.1485610000     0.7463330000
| 18>  C       -0.8586900000    -0.7309310000     0.4812330000
| 19>  H        0.8132170000     1.3502140000     1.6839670000
| 20>  H        0.7996060000     2.1596380000     0.1014700000
| 21>  H       -1.7244430000     1.3561090000     0.7104550000
| 22>  H       -1.7322190000    -0.0802780000    -1.5119630000
| 23>  H        0.7927690000     0.7947170000    -2.0075970000
| 24>  H        0.8006260000    -0.9804110000    -1.9173910000
| 25>  H        2.3366550000     0.0131810000    -0.0103940000
| 26>  H        0.8239920000    -1.1596620000     1.8110090000
| 27>  H        0.8186730000    -2.1247720000     0.3182790000
| 28>  H       -1.7130500000    -1.2863380000     0.8431370000
| 29> *
| 30>
| 31>                          ****END OF INPUT****
 Total Charge           Charge          ....    0
 Multiplicity           Mult            ....    1
 Number of Electrons    NEL             ....   52
 Basis Dimension        Dim             ....  148

MULLIKEN ATOMIC CHARGES
-----------------------
   0 C :    0.209105
   1 C :   -0.109069
   2 C :   -0.121111
   3 C :    0.207296
   4 C :   -0.318699
   5 C :    0.212040
   6 C :   -0.111979
   7 H :    0.006172
   8 H :    0.007390
   9 H :   -0.004190
  10 H :   -0.001443
  11 H :    0.008207
  12 H :    0.008409
  13 H :    0.000210
  14 H :    0.005334
  15 H :    0.006749
  16 H :   -0.004422
Sum of atomic charges:   -0.0000000

LOEWDIN ATOMIC CHARGES
----------------------
   0 C :   -0.020556
   1 C :   -0.037796
   2 C :   -0.039606
   3 C :   -0.020899
   4 C :   -0.036155
   5 C :   -0.020105
   6 C :   -0.038253
   7 H :    0.022287
   8 H :    0.022322
   9 H :    0.020147
  10 H :    0.020510
  11 H :    0.022504
  12 H :    0.022468
  13 H :    0.018790
  14 H :    0.022073
  15 H :    0.022197
  16 H :    0.020071

  Mayer bond orders larger than 0.1
B(  0-C ,  1-C ) :   1.0488 B(  0-C ,  4-C ) :   0.9995 B(  0-C ,  7-H ) :   0.9237
B(  0-C ,  8-H ) :   0.9253 B(  1-C ,  2-C ) :   0.9179 B(  1-C ,  6-C ) :   0.9217
B(  1-C ,  9-H ) :   0.9652 B(  2-C ,  3-C ) :   1.0506 B(  2-C ,  6-C ) :   0.9162
B(  2-C , 10-H ) :   0.9669 B(  3-C ,  4-C ) :   0.9997 B(  3-C , 11-H ) :   0.9242
B(  3-C , 12-H ) :   0.9253 B(  4-C ,  5-C ) :   0.9982 B(  4-C , 13-H ) :   0.9357
B(  5-C ,  6-C ) :   1.0519 B(  5-C , 14-H ) :   0.9232 B(  5-C , 15-H ) :   0.9249
B(  6-C , 16-H ) :   0.9655

FINAL SINGLE POINT ENERGY      -272.170965977576

DIPOLE MOMENT
-------------
                                X             Y             Z
Electronic contribution:     -1.26760      -0.00298       0.01175
Nuclear contribution   :      1.27469       0.00475      -0.00822
                        -----------------------------------------
Total Dipole Moment    :      0.00709       0.00177       0.00353
                        -----------------------------------------
Magnitude (a.u.)       :      0.00811
Magnitude (Debye)      :      0.02061

                             ****ORCA TERMINATED NORMALLY****
TOTAL RUN TIME: 0 days 0 hours 0 minutes 8 seconds 58 msec
