                         Program Version 3.0.3 - RELEASE   -
|  1> ! RI PBE def2-SVP def2-SVP/J NBO PAL2
|  2> % maxcore 2000
|  3> % output
|  4>     # printlevel mini
|  5>     print[ P_Basis ] 0
|  6>     print[ P_SCFInfo ] 1
|  7>     print[ P_SCFIterInfo ] 1
|  8>     print[ P_OrbEn ] 0
|  9>     print[ P_Cartesian ] 0
| 10> end
| 11> *xyz 0 1
| 12>  C        1.2567320000     0.2857930000     0.2889030000
| 13>  C        0.5949380000     1.5540800000     0.7592520000
| 14>  C       -0.8945310000     1.6933090000     0.7094150000
| 15>  C       -0.1944720000     1.5785010000     2.0312860000
| 16>  C        2.6405690000     0.0860900000     0.8482770000
| 17>  C        2.8421050000    -0.6012030000     2.1631250000
| 18>  C        3.2499370000    -1.2804020000     0.8891440000
| 19>  H        1.3065610000     0.2888990000    -0.8072140000
| 20>  H        0.6295860000    -0.5715370000     0.5633440000
| 21>  H        1.1567560000     2.4581050000     0.5403930000
| 22>  H       -1.4667430000     0.8389140000     0.3658600000
| 23>  H       -1.3168610000     2.6516480000     0.4336410000
| 24>  H       -0.2976160000     0.6476930000     2.5764150000
| 25>  H       -0.1388670000     2.4581890000     2.6604160000
| 26>  H        3.3293470000     0.8991880000     0.6355320000
| 27>  H        1.9630190000    -0.9757740000     2.6741250000
| 28>  H        3.6204250000    -0.2404450000     2.8240470000
| 29>  H        2.6437290000    -2.1102030000     0.5436200000
| 30>  H        4.3070860000    -1.3833440000     0.6778200000
| 31> *
| 32>
| 33>                          ****END OF INPUT****
 Total Charge           Charge          ....    0
 Multiplicity           Mult            ....    1
 Number of Electrons    NEL             ....   54
 Basis Dimension        Dim             ....  158

MULLIKEN ATOMIC CHARGES
-----------------------
   0 C :    0.161138
   1 C :   -0.148407
   2 C :   -0.018501
   3 C :   -0.034258
   4 C :   -0.148733
   5 C :   -0.030834
   6 C :   -0.022387
   7 H :    0.016948
   8 H :   -0.027351
   9 H :    0.015182
  10 H :    0.025844
  11 H :    0.026975
  12 H :    0.026311
  13 H :    0.032093
  14 H :    0.014127
  15 H :    0.024631
  16 H :    0.033201
  17 H :    0.024597
  18 H :    0.029427
Sum of atomic charges:   -0.0000000

LOEWDIN ATOMIC CHARGES
----------------------
   0 C :   -0.027168
   1 C :   -0.042547
   2 C :   -0.047056
   3 C :   -0.047988
   4 C :   -0.042238
   5 C :   -0.047400
   6 C :   -0.047607
   7 H :    0.030274
   8 H :    0.023785
   9 H :    0.025133
  10 H :    0.024236
  11 H :    0.025256
  12 H :    0.023046
  13 H :    0.026394
  14 H :    0.024977
  15 H :    0.022825
  16 H :    0.026422
  17 H :    0.023924
  18 H :    0.025733

  Mayer bond orders larger than 0.1
B(  0-C ,  1-C ) :   1.0826 B(  0-C ,  4-C ) :   1.0841 B(  0-C ,  7-H ) :   0.9170
B(  0-C ,  8-H ) :   0.8992 B(  1-C ,  2-C ) :   0.9894 B(  1-C ,  3-C ) :   1.0035
B(  1-C ,  9-H ) :   0.9389 B(  2-C ,  3-C ) :   1.0517 B(  2-C , 10-H ) :   0.9456
B(  2-C , 11-H ) :   0.9446 B(  3-C , 12-H ) :   0.9456 B(  3-C , 13-H ) :   0.9469
B(  4-C ,  5-C ) :   1.0026 B(  4-C ,  6-C ) :   0.9907 B(  4-C , 14-H ) :   0.9390
B(  5-C ,  6-C ) :   1.0491 B(  5-C , 15-H ) :   0.9456 B(  5-C , 16-H ) :   0.9470
B(  6-C , 17-H ) :   0.9461 B(  6-C , 18-H ) :   0.9442

FINAL SINGLE POINT ENERGY      -273.327652418258

DIPOLE MOMENT
-------------
                                X             Y             Z
Electronic contribution:      0.48371       0.64390      -0.45589
Nuclear contribution   :     -0.44388      -0.59342       0.41515
                        -----------------------------------------
Total Dipole Moment    :      0.03983       0.05048      -0.04074
                        -----------------------------------------
Magnitude (a.u.)       :      0.07612
Magnitude (Debye)      :      0.19349

                             ****ORCA TERMINATED NORMALLY****
TOTAL RUN TIME: 0 days 0 hours 0 minutes 8 seconds 34 msec
