                         Program Version 3.0.3 - RELEASE   -
|  1> ! RI PBE def2-SVP def2-SVP/J NBO PAL2
|  2> % maxcore 2000
|  3> % output
|  4>     # printlevel mini
|  5>     print[ P_Basis ] 0
|  6>     print[ P_SCFInfo ] 1
|  7>     print[ P_SCFIterInfo ] 1
|  8>     print[ P_OrbEn ] 0
|  9>     print[ P_Cartesian ] 0
| 10> end
| 11> *xyz 0 1
| 12>  C        1.3293540000     1.3202580000    -1.3771160000
| 13>  C       -0.0774400000     1.2871910000    -2.0312100000
| 14>  C       -0.7564710000     0.0993140000    -1.3370210000
| 15>  C       -1.0565760000     0.4970740000     0.1140800000
| 16>  C        0.3501510000     0.5305550000     0.7682970000
| 17>  C        1.2817150000     0.1474660000    -0.3890560000
| 18>  C        0.4210230000    -0.8619980000    -1.1535580000
| 19>  H        1.5401440000     2.2672360000    -0.8744270000
| 20>  H        2.1132750000     1.1682240000    -2.1233660000
| 21>  H       -0.6340370000     2.2159980000    -1.8848350000
| 22>  H       -0.0059450000     1.1188870000    -3.1087430000
| 23>  H       -1.6206720000    -0.2925420000    -1.8757570000
| 24>  H       -1.6965960000    -0.2460760000     0.5964060000
| 25>  H       -1.5739970000     1.4575990000     0.1737760000
| 26>  H        0.4223900000    -0.1952810000     1.5822130000
| 27>  H        0.6000780000     1.5094940000     1.1843770000
| 28>  H        2.2648850000    -0.2007620000    -0.0685170000
| 29>  H        0.1673030000    -1.7468690000    -0.5631700000
| 30>  H        0.8683270000    -1.1813770000    -2.0989920000
| 31> *
| 32>
| 33>                          ****END OF INPUT****
 Total Charge           Charge          ....    0
 Multiplicity           Mult            ....    1
 Number of Electrons    NEL             ....   54
 Basis Dimension        Dim             ....  158

MULLIKEN ATOMIC CHARGES
-----------------------
   0 C :    0.092289
   1 C :    0.061412
   2 C :   -0.196132
   3 C :    0.074979
   4 C :    0.087465
   5 C :   -0.199307
   6 C :    0.074390
   7 H :   -0.004652
   8 H :    0.002959
   9 H :    0.000392
  10 H :    0.009672
  11 H :   -0.008660
  12 H :    0.004198
  13 H :   -0.001018
  14 H :    0.003469
  15 H :   -0.005512
  16 H :   -0.012227
  17 H :    0.009253
  18 H :    0.007030
Sum of atomic charges:   -0.0000000

LOEWDIN ATOMIC CHARGES
----------------------
   0 C :   -0.032539
   1 C :   -0.036055
   2 C :   -0.038160
   3 C :   -0.034627
   4 C :   -0.033152
   5 C :   -0.037701
   6 C :   -0.029577
   7 H :    0.019418
   8 H :    0.022265
   9 H :    0.020141
  10 H :    0.023439
  11 H :    0.016923
  12 H :    0.022423
  13 H :    0.020075
  14 H :    0.022421
  15 H :    0.019268
  16 H :    0.016283
  17 H :    0.019823
  18 H :    0.019332

  Mayer bond orders larger than 0.1
B(  0-C ,  1-C ) :   1.1082 B(  0-C ,  5-C ) :   1.0724 B(  0-C ,  7-H ) :   0.9176
B(  0-C ,  8-H ) :   0.9211 B(  1-C ,  2-C ) :   1.0746 B(  1-C ,  9-H ) :   0.9184
B(  1-C , 10-H ) :   0.9216 B(  2-C ,  3-C ) :   1.0723 B(  2-C ,  6-C ) :   1.0100
B(  2-C , 11-H ) :   0.9378 B(  3-C ,  4-C ) :   1.1102 B(  3-C , 12-H ) :   0.9206
B(  3-C , 13-H ) :   0.9178 B(  4-C ,  5-C ) :   1.0711 B(  4-C , 14-H ) :   0.9208
B(  4-C , 15-H ) :   0.9173 B(  5-C ,  6-C ) :   1.0088 B(  5-C , 16-H ) :   0.9378
B(  6-C , 17-H ) :   0.9398 B(  6-C , 18-H ) :   0.9390

FINAL SINGLE POINT ENERGY      -273.387623968289

DIPOLE MOMENT
-------------
                                X             Y             Z
Electronic contribution:      0.09719      -0.60132      -0.17776
Nuclear contribution   :     -0.09198       0.57218       0.16869
                        -----------------------------------------
Total Dipole Moment    :      0.00521      -0.02914      -0.00906
                        -----------------------------------------
Magnitude (a.u.)       :      0.03096
Magnitude (Debye)      :      0.07869

                             ****ORCA TERMINATED NORMALLY****
TOTAL RUN TIME: 0 days 0 hours 0 minutes 8 seconds 890 msec
