                         Program Version 3.0.3 - RELEASE   -
|  1> ! RI PBE def2-SVP def2-SVP/J NBO PAL2
|  2> % maxcore 2000
|  3> % output
|  4>     # printlevel mini
|  5>     print[ P_Basis ] 0
|  6>     print[ P_SCFInfo ] 1
|  7>     print[ P_SCFIterInfo ] 1
|  8>     print[ P_OrbEn ] 0
|  9>     print[ P_Cartesian ] 0
| 10> end
| 11> *xyz 0 1
| 12>  C       -0.4045120000    -1.3189290000    -0.8453740000
| 13>  C       -0.4859920000    -1.4987330000     0.6828380000
| 14>  C       -1.7042440000    -0.5470550000     0.6385060000
| 15>  C       -1.0520630000     0.0617920000    -0.6247270000
| 16>  C        0.0303750000     1.0704850000    -0.2470090000
| 17>  C        0.6809740000     0.6978090000     1.0915910000
| 18>  C        0.7149640000    -0.8167680000     1.3343230000
| 19>  H        0.5855250000    -1.3495020000    -1.3104680000
| 20>  H       -1.0751150000    -2.0025760000    -1.3709600000
| 21>  H       -0.6351230000    -2.5088470000     1.0703360000
| 22>  H       -1.9020250000     0.1001210000     1.4965080000
| 23>  H       -2.6165990000    -1.0904740000     0.3849330000
| 24>  H       -1.7079040000     0.4485590000    -1.4076770000
| 25>  H       -0.3913350000     2.0782860000    -0.1768400000
| 26>  H        0.7748460000     1.1016140000    -1.0504570000
| 27>  H        0.0968340000     1.1577000000     1.8933380000
| 28>  H        1.6824730000     1.1278510000     1.1712600000
| 29>  H        0.7292500000    -1.0109120000     2.4116020000
| 30>  H        1.6312620000    -1.2593220000     0.9277750000
| 31> *
| 32>
| 33>                          ****END OF INPUT****
 Total Charge           Charge          ....    0
 Multiplicity           Mult            ....    1
 Number of Electrons    NEL             ....   54
 Basis Dimension        Dim             ....  158

MULLIKEN ATOMIC CHARGES
-----------------------
   0 C :    0.103932
   1 C :   -0.203662
   2 C :    0.116809
   3 C :   -0.222771
   4 C :    0.103889
   5 C :   -0.036632
   6 C :    0.104427
   7 H :   -0.001424
   8 H :    0.006965
   9 H :   -0.008598
  10 H :    0.003264
  11 H :    0.006121
  12 H :   -0.005588
  13 H :    0.004663
  14 H :    0.007586
  15 H :    0.009054
  16 H :    0.004108
  17 H :    0.006717
  18 H :    0.001139
Sum of atomic charges:   -0.0000000

LOEWDIN ATOMIC CHARGES
----------------------
   0 C :   -0.026786
   1 C :   -0.029248
   2 C :   -0.026650
   3 C :   -0.031635
   4 C :   -0.035327
   5 C :   -0.041873
   6 C :   -0.035295
   7 H :    0.007833
   8 H :    0.023017
   9 H :    0.010804
  10 H :    0.010069
  11 H :    0.023688
  12 H :    0.011364
  13 H :    0.023400
  14 H :    0.022156
  15 H :    0.024843
  16 H :    0.024959
  17 H :    0.023833
  18 H :    0.020847

  Mayer bond orders larger than 0.1
B(  0-C ,  1-C ) :   1.0154 B(  0-C ,  3-C ) :   1.0139 B(  0-C ,  7-H ) :   0.9358
B(  0-C ,  8-H ) :   0.9273 B(  1-C ,  2-C ) :   1.0153 B(  1-C ,  6-C ) :   1.0506
B(  1-C ,  9-H ) :   0.9276 B(  2-C ,  3-C ) :   1.0169 B(  2-C , 10-H ) :   0.9368
B(  2-C , 11-H ) :   0.9295 B(  3-C ,  4-C ) :   1.0486 B(  3-C , 12-H ) :   0.9276
B(  4-C ,  5-C ) :   1.1145 B(  4-C , 13-H ) :   0.9278 B(  4-C , 14-H ) :   0.9268
B(  5-C ,  6-C ) :   1.1105 B(  5-C , 15-H ) :   0.9167 B(  5-C , 16-H ) :   0.9310
B(  6-C , 17-H ) :   0.9270 B(  6-C , 18-H ) :   0.9257

FINAL SINGLE POINT ENERGY      -273.362853390753

DIPOLE MOMENT
-------------
                                X             Y             Z
Electronic contribution:     -0.80022      -0.64696      -0.42754
Nuclear contribution   :      0.80267       0.67539       0.45856
                        -----------------------------------------
Total Dipole Moment    :      0.00246       0.02843       0.03102
                        -----------------------------------------
Magnitude (a.u.)       :      0.04215
Magnitude (Debye)      :      0.10713

                             ****ORCA TERMINATED NORMALLY****
TOTAL RUN TIME: 0 days 0 hours 0 minutes 8 seconds 857 msec
