                         Program Version 3.0.3 - RELEASE   -
|  1> ! RI PBE def2-SVP def2-SVP/J NBO PAL2
|  2> % maxcore 2000
|  3> % output
|  4>     # printlevel mini
|  5>     print[ P_Basis ] 0
|  6>     print[ P_SCFInfo ] 1
|  7>     print[ P_SCFIterInfo ] 1
|  8>     print[ P_OrbEn ] 0
|  9>     print[ P_Cartesian ] 0
| 10> end
| 11> *xyz 0 1
| 12>  C       -1.3687370000     0.2060560000     0.5628620000
| 13>  C       -1.2818300000    -1.0825990000    -0.2807650000
| 14>  C       -0.9860680000    -0.2460680000    -1.5460370000
| 15>  C        0.4469640000    -0.3117690000    -2.0630550000
| 16>  C        1.2507730000     0.5272250000    -1.0687260000
| 17>  C        0.3120230000     1.6919460000    -0.7511080000
| 18>  C       -1.0740250000     1.0589530000    -0.6916490000
| 19>  H       -0.6179880000     0.2937780000     1.3525470000
| 20>  H       -2.3479740000     0.3877600000     1.0086600000
| 21>  H       -0.4789160000    -1.7680570000     0.0027210000
| 22>  H       -2.2102660000    -1.6539390000    -0.3279850000
| 23>  H       -1.7240780000    -0.3603500000    -2.3415150000
| 24>  H        0.8136740000    -1.3378050000    -2.1577870000
| 25>  H        0.5022350000     0.1476080000    -3.0559800000
| 26>  H        2.2172080000     0.8498250000    -1.4620460000
| 27>  H        1.4524160000    -0.0530480000    -0.1617900000
| 28>  H        0.5741240000     2.2186540000     0.1708810000
| 29>  H        0.3490530000     2.4227180000    -1.5663310000
| 30>  H       -1.8669800000     1.7616120000    -0.9524180000
| 31> *
| 32>
| 33>                          ****END OF INPUT****
 Total Charge           Charge          ....    0
 Multiplicity           Mult            ....    1
 Number of Electrons    NEL             ....   54
 Basis Dimension        Dim             ....  158

MULLIKEN ATOMIC CHARGES
-----------------------
   0 C :    0.085014
   1 C :    0.091834
   2 C :   -0.174600
   3 C :    0.086613
   4 C :   -0.048516
   5 C :    0.082720
   6 C :   -0.160804
   7 H :   -0.003415
   8 H :    0.000309
   9 H :   -0.008483
  10 H :    0.003934
  11 H :   -0.003450
  12 H :    0.009273
  13 H :    0.004877
  14 H :    0.009435
  15 H :    0.015935
  16 H :    0.006272
  17 H :    0.008481
  18 H :   -0.005429
Sum of atomic charges:    0.0000000

LOEWDIN ATOMIC CHARGES
----------------------
   0 C :   -0.032830
   1 C :   -0.033078
   2 C :   -0.033453
   3 C :   -0.037176
   4 C :   -0.043233
   5 C :   -0.037676
   6 C :   -0.032534
   7 H :    0.018148
   8 H :    0.021476
   9 H :    0.017490
  10 H :    0.022038
  11 H :    0.017271
  12 H :    0.022409
  13 H :    0.024220
  14 H :    0.022755
  15 H :    0.020800
  16 H :    0.021904
  17 H :    0.024642
  18 H :    0.016829

  Mayer bond orders larger than 0.1
B(  0-C ,  1-C ) :   1.2105 B(  0-C ,  6-C ) :   1.1292 B(  0-C ,  7-H ) :   0.8982
B(  0-C ,  8-H ) :   0.9084 B(  1-C ,  2-C ) :   1.1319 B(  1-C ,  9-H ) :   0.8941
B(  1-C , 10-H ) :   0.9088 B(  2-C ,  3-C ) :   1.0630 B(  2-C ,  6-C ) :   1.0844
B(  2-C , 11-H ) :   0.9056 B(  3-C ,  4-C ) :   1.0798 B(  3-C , 12-H ) :   0.9284
B(  3-C , 13-H ) :   0.9216 B(  4-C ,  5-C ) :   1.0813 B(  4-C , 14-H ) :   0.9389
B(  4-C , 15-H ) :   0.9392 B(  5-C ,  6-C ) :   1.0609 B(  5-C , 16-H ) :   0.9287
B(  5-C , 17-H ) :   0.9236 B(  6-C , 18-H ) :   0.9070

FINAL SINGLE POINT ENERGY      -273.367412467296

DIPOLE MOMENT
-------------
                                X             Y             Z
Electronic contribution:     -1.06233       0.23387      -0.47054
Nuclear contribution   :      1.06018      -0.20664       0.42467
                        -----------------------------------------
Total Dipole Moment    :     -0.00215       0.02723      -0.04587
                        -----------------------------------------
Magnitude (a.u.)       :      0.05339
Magnitude (Debye)      :      0.13570

                             ****ORCA TERMINATED NORMALLY****
TOTAL RUN TIME: 0 days 0 hours 0 minutes 8 seconds 844 msec
