                         Program Version 3.0.3 - RELEASE   -
|  1> ! RI PBE def2-SVP def2-SVP/J NBO PAL2
|  2> % maxcore 2000
|  3> % output
|  4>     # printlevel mini
|  5>     print[ P_Basis ] 0
|  6>     print[ P_SCFInfo ] 1
|  7>     print[ P_SCFIterInfo ] 1
|  8>     print[ P_OrbEn ] 0
|  9>     print[ P_Cartesian ] 0
| 10> end
| 11> *xyz 0 1
| 12>  C       -1.3963410000    -0.3989290000     0.8463000000
| 13>  C       -0.8386730000    -1.7606300000     1.1360500000
| 14>  C       -0.7451990000    -0.6774850000     2.1661430000
| 15>  C        0.5620290000    -0.0396920000     2.5352000000
| 16>  C        1.6631070000     0.2032840000     1.4806600000
| 17>  C        2.7081360000    -0.1235280000     2.5645660000
| 18>  C        1.5985610000    -0.8386400000     3.3555610000
| 19>  H       -2.4716820000    -0.2760000000     0.8099030000
| 20>  H       -0.8513590000     0.2209410000     0.1436460000
| 21>  H        0.0629300000    -2.0561430000     0.6125670000
| 22>  H       -1.5334730000    -2.5723280000     1.3124920000
| 23>  H       -1.4268470000    -0.7862970000     3.0056820000
| 24>  H        0.3585490000     0.9081770000     3.0468910000
| 25>  H        1.7040200000     1.1831070000     1.0018770000
| 26>  H        1.6549590000    -0.5644650000     0.7028220000
| 27>  H        3.0470990000     0.7796310000     3.0768250000
| 28>  H        3.5830060000    -0.7044910000     2.2692980000
| 29>  H        1.5862750000    -0.7351900000     4.4421530000
| 30>  H        1.5500030000    -1.9009320000     3.1015730000
| 31> *
| 32>
| 33>                          ****END OF INPUT****
 Total Charge           Charge          ....    0
 Multiplicity           Mult            ....    1
 Number of Electrons    NEL             ....   54
 Basis Dimension        Dim             ....  158

MULLIKEN ATOMIC CHARGES
-----------------------
   0 C :   -0.040433
   1 C :   -0.054367
   2 C :   -0.073929
   3 C :   -0.087305
   4 C :    0.008208
   5 C :   -0.005608
   6 C :    0.021621
   7 H :    0.034382
   8 H :    0.032508
   9 H :    0.033838
  10 H :    0.031498
  11 H :    0.019985
  12 H :    0.003234
  13 H :    0.011829
  14 H :    0.013891
  15 H :    0.013151
  16 H :    0.007724
  17 H :    0.018867
  18 H :    0.010907
Sum of atomic charges:   -0.0000000

LOEWDIN ATOMIC CHARGES
----------------------
   0 C :   -0.046377
   1 C :   -0.051317
   2 C :   -0.045658
   3 C :   -0.028337
   4 C :   -0.035010
   5 C :   -0.032807
   6 C :   -0.034201
   7 H :    0.026001
   8 H :    0.025577
   9 H :    0.021411
  10 H :    0.026891
  11 H :    0.027966
  12 H :    0.027734
  13 H :    0.015731
  14 H :    0.022748
  15 H :    0.023839
  16 H :    0.015729
  17 H :    0.016006
  18 H :    0.024075

  Mayer bond orders larger than 0.1
B(  0-C ,  1-C ) :   1.0408 B(  0-C ,  2-C ) :   0.9989 B(  0-C ,  7-H ) :   0.9470
B(  0-C ,  8-H ) :   0.9448 B(  1-C ,  2-C ) :   0.9974 B(  1-C ,  9-H ) :   0.9453
B(  1-C , 10-H ) :   0.9433 B(  2-C ,  3-C ) :   1.0568 B(  2-C , 11-H ) :   0.9392
B(  3-C ,  4-C ) :   1.0923 B(  3-C ,  6-C ) :   1.0798 B(  3-C , 12-H ) :   0.9009
B(  4-C ,  5-C ) :   1.1194 B(  4-C , 13-H ) :   0.9296 B(  4-C , 14-H ) :   0.9143
B(  5-C ,  6-C ) :   1.1219 B(  5-C , 15-H ) :   0.9307 B(  5-C , 16-H ) :   0.9329
B(  6-C , 17-H ) :   0.9365 B(  6-C , 18-H ) :   0.9200

FINAL SINGLE POINT ENERGY      -273.330887621263

DIPOLE MOMENT
-------------
                                X             Y             Z
Electronic contribution:     -0.98374       0.25115       0.55077
Nuclear contribution   :      0.96370      -0.22268      -0.50777
                        -----------------------------------------
Total Dipole Moment    :     -0.02004       0.02848       0.04300
                        -----------------------------------------
Magnitude (a.u.)       :      0.05534
Magnitude (Debye)      :      0.14065

                             ****ORCA TERMINATED NORMALLY****
TOTAL RUN TIME: 0 days 0 hours 0 minutes 8 seconds 522 msec
