                         Program Version 3.0.3 - RELEASE   -
|  1> ! RI PBE def2-SVP def2-SVP/J NBO PAL2
|  2> % maxcore 2000
|  3> % output
|  4>     # printlevel mini
|  5>     print[ P_Basis ] 0
|  6>     print[ P_SCFInfo ] 1
|  7>     print[ P_SCFIterInfo ] 1
|  8>     print[ P_OrbEn ] 0
|  9>     print[ P_Cartesian ] 0
| 10> end
| 11> *xyz 0 1
| 12>  C        1.7906940000     0.6604100000    -1.2446750000
| 13>  C        0.5035170000     1.4262650000    -1.1582710000
| 14>  C        0.7565270000     0.2775240000    -0.2320630000
| 15>  C        1.0162160000     0.5011780000     1.2566960000
| 16>  C        0.0817410000    -0.4825710000     1.9599400000
| 17>  C        0.0490540000    -1.6727640000     1.0064270000
| 18>  C       -0.0478100000    -1.0140470000    -0.3691670000
| 19>  H        2.6935720000     1.1444190000    -0.8885750000
| 20>  H        1.9382720000     0.0080850000    -2.0980470000
| 21>  H       -0.2234550000     1.2872110000    -1.9510100000
| 22>  H        0.5352780000     2.4301720000    -0.7499650000
| 23>  H        2.0563410000     0.2536690000     1.4958520000
| 24>  H        0.8522170000     1.5378110000     1.5607670000
| 25>  H        0.4129180000    -0.7413090000     2.9680300000
| 26>  H       -0.9222820000    -0.0527350000     2.0441420000
| 27>  H       -0.7688500000    -2.3684240000     1.2063280000
| 28>  H        0.9858030000    -2.2345170000     1.0891710000
| 29>  H       -1.0949770000    -0.7803290000    -0.5908270000
| 30>  H        0.3186430000    -1.6536580000    -1.1757470000
| 31> *
| 32>
| 33>                          ****END OF INPUT****
 Total Charge           Charge          ....    0
 Multiplicity           Mult            ....    1
 Number of Electrons    NEL             ....   54
 Basis Dimension        Dim             ....  158

MULLIKEN ATOMIC CHARGES
-----------------------
   0 C :    0.003303
   1 C :   -0.001783
   2 C :   -0.358516
   3 C :    0.140695
   4 C :   -0.016346
   5 C :   -0.027662
   6 C :    0.134677
   7 H :    0.020164
   8 H :    0.023021
   9 H :    0.025030
  10 H :    0.024303
  11 H :    0.002038
  12 H :   -0.005179
  13 H :    0.004466
  14 H :    0.008674
  15 H :    0.010343
  16 H :    0.013006
  17 H :    0.002808
  18 H :   -0.003042
Sum of atomic charges:   -0.0000000

LOEWDIN ATOMIC CHARGES
----------------------
   0 C :   -0.039221
   1 C :   -0.041122
   2 C :   -0.063897
   3 C :   -0.025792
   4 C :   -0.039015
   5 C :   -0.040752
   6 C :   -0.027453
   7 H :    0.022719
   8 H :    0.022857
   9 H :    0.023585
  10 H :    0.023026
  11 H :    0.024081
  12 H :    0.022832
  13 H :    0.021592
  14 H :    0.022776
  15 H :    0.022395
  16 H :    0.023611
  17 H :    0.024351
  18 H :    0.023426

  Mayer bond orders larger than 0.1
B(  0-C ,  1-C ) :   1.0619 B(  0-C ,  2-C ) :   0.9818 B(  0-C ,  7-H ) :   0.9406
B(  0-C ,  8-H ) :   0.9398 B(  1-C ,  2-C ) :   0.9749 B(  1-C ,  9-H ) :   0.9411
B(  1-C , 10-H ) :   0.9397 B(  2-C ,  3-C ) :   1.0589 B(  2-C ,  6-C ) :   1.0605
B(  3-C ,  4-C ) :   1.1105 B(  3-C , 11-H ) :   0.9157 B(  3-C , 12-H ) :   0.9223
B(  4-C ,  5-C ) :   1.0984 B(  4-C , 13-H ) :   0.9337 B(  4-C , 14-H ) :   0.9321
B(  5-C ,  6-C ) :   1.1088 B(  5-C , 15-H ) :   0.9353 B(  5-C , 16-H ) :   0.9328
B(  6-C , 17-H ) :   0.9142 B(  6-C , 18-H ) :   0.9206

FINAL SINGLE POINT ENERGY      -273.360765810245

DIPOLE MOMENT
-------------
                                X             Y             Z
Electronic contribution:      0.24873       0.48053      -0.60773
Nuclear contribution   :     -0.27123      -0.53185       0.67304
                        -----------------------------------------
Total Dipole Moment    :     -0.02251      -0.05132       0.06531
                        -----------------------------------------
Magnitude (a.u.)       :      0.08605
Magnitude (Debye)      :      0.21873

                             ****ORCA TERMINATED NORMALLY****
TOTAL RUN TIME: 0 days 0 hours 0 minutes 8 seconds 315 msec
