                         Program Version 3.0.3 - RELEASE   -
|  1> ! RI PBE def2-SVP def2-SVP/J NBO PAL2
|  2> % maxcore 2000
|  3> % output
|  4>     # printlevel mini
|  5>     print[ P_Basis ] 0
|  6>     print[ P_SCFInfo ] 1
|  7>     print[ P_SCFIterInfo ] 1
|  8>     print[ P_OrbEn ] 0
|  9>     print[ P_Cartesian ] 0
| 10> end
| 11> *xyz 0 1
| 12>  C       -1.3590630000     1.1613480000    -2.0196510000
| 13>  C       -0.3950500000     0.0210540000    -2.1123460000
| 14>  C       -0.5925410000    -1.2377560000    -1.3028860000
| 15>  C       -0.7992140000    -0.9722680000     0.1840240000
| 16>  C        0.2828520000    -0.0444110000     0.7141570000
| 17>  C        0.1935170000     1.3390310000     0.0789350000
| 18>  C        0.0150390000     1.3002490000    -1.4293140000
| 19>  H       -2.1861660000     1.0733620000    -1.3230050000
| 20>  H       -1.5951900000     1.7108520000    -2.9229690000
| 21>  H        0.0328390000    -0.1455400000    -3.0959730000
| 22>  H        0.3010150000    -1.8633080000    -1.4160160000
| 23>  H       -1.4290980000    -1.8165830000    -1.7094860000
| 24>  H       -0.7915880000    -1.9222830000     0.7257320000
| 25>  H       -1.7854720000    -0.5265900000     0.3615010000
| 26>  H        1.2622690000    -0.4868280000     0.4945050000
| 27>  H        0.2170910000     0.0449990000     1.8024880000
| 28>  H        1.0957160000     1.9080340000     0.3191790000
| 29>  H       -0.6389620000     1.8887410000     0.5330470000
| 30>  H        0.6964130000     1.9330070000    -1.9875220000
| 31> *
| 32>
| 33>                          ****END OF INPUT****
 Total Charge           Charge          ....    0
 Multiplicity           Mult            ....    1
 Number of Electrons    NEL             ....   54
 Basis Dimension        Dim             ....  158

MULLIKEN ATOMIC CHARGES
-----------------------
   0 C :    0.011667
   1 C :   -0.124945
   2 C :    0.094558
   3 C :   -0.029822
   4 C :   -0.007485
   5 C :    0.084482
   6 C :   -0.144322
   7 H :    0.025746
   8 H :    0.020613
   9 H :    0.009167
  10 H :    0.006573
  11 H :    0.010033
  12 H :    0.004461
  13 H :    0.003920
  14 H :    0.002551
  15 H :    0.010581
  16 H :    0.004356
  17 H :    0.004012
  18 H :    0.013854
Sum of atomic charges:    0.0000000

LOEWDIN ATOMIC CHARGES
----------------------
   0 C :   -0.047076
   1 C :   -0.039322
   2 C :   -0.035525
   3 C :   -0.044333
   4 C :   -0.040223
   5 C :   -0.036242
   6 C :   -0.044491
   7 H :    0.020171
   8 H :    0.024741
   9 H :    0.023551
  10 H :    0.025855
  11 H :    0.025912
  12 H :    0.026104
  13 H :    0.019003
  14 H :    0.020982
  15 H :    0.024746
  16 H :    0.028113
  17 H :    0.023893
  18 H :    0.024141

  Mayer bond orders larger than 0.1
B(  0-C ,  1-C ) :   0.9983 B(  0-C ,  6-C ) :   0.9812 B(  0-C ,  7-H ) :   0.9491
B(  0-C ,  8-H ) :   0.9368 B(  1-C ,  2-C ) :   1.0808 B(  1-C ,  6-C ) :   0.9765
B(  1-C ,  9-H ) :   0.9346 B(  2-C ,  3-C ) :   1.0953 B(  2-C , 10-H ) :   0.9238
B(  2-C , 11-H ) :   0.9252 B(  3-C ,  4-C ) :   1.0900 B(  3-C , 12-H ) :   0.9224
B(  3-C , 13-H ) :   0.9313 B(  4-C ,  5-C ) :   1.1073 B(  4-C , 14-H ) :   0.9350
B(  4-C , 15-H ) :   0.9281 B(  5-C ,  6-C ) :   1.0715 B(  5-C , 16-H ) :   0.9287
B(  5-C , 17-H ) :   0.9198 B(  6-C , 18-H ) :   0.9432

FINAL SINGLE POINT ENERGY      -273.366150956040

DIPOLE MOMENT
-------------
                                X             Y             Z
Electronic contribution:      0.27328       0.69194      -1.51076
Nuclear contribution   :     -0.22197      -0.72901       1.53670
                        -----------------------------------------
Total Dipole Moment    :      0.05131      -0.03708       0.02594
                        -----------------------------------------
Magnitude (a.u.)       :      0.06841
Magnitude (Debye)      :      0.17389

                             ****ORCA TERMINATED NORMALLY****
TOTAL RUN TIME: 0 days 0 hours 0 minutes 8 seconds 960 msec
