                         Program Version 3.0.3 - RELEASE   -
|  1> ! RI PBE def2-SVP def2-SVP/J NBO PAL2
|  2> % maxcore 2000
|  3> % output
|  4>     # printlevel mini
|  5>     print[ P_Basis ] 0
|  6>     print[ P_SCFInfo ] 1
|  7>     print[ P_SCFIterInfo ] 1
|  8>     print[ P_OrbEn ] 0
|  9>     print[ P_Cartesian ] 0
| 10> end
| 11> *xyz 0 1
| 12>  C       -1.5311890000     0.7527330000     0.1032480000
| 13>  C       -1.5312450000    -0.7555250000    -0.1081840000
| 14>  C       -0.3105050000    -1.5107480000     0.4104360000
| 15>  C        0.9595170000    -1.2408590000    -0.3943110000
| 16>  C        1.7625400000    -0.0028400000     0.0069790000
| 17>  C        0.9583160000     1.2358850000     0.4036540000
| 18>  C       -0.3068340000     1.5068840000    -0.4083620000
| 19>  H       -1.6330250000     0.9640390000     1.1756010000
| 20>  H       -2.4297910000     1.1638770000    -0.3697360000
| 21>  H       -1.6271160000    -0.9667440000    -1.1811040000
| 22>  H       -2.4329040000    -1.1658790000     0.3596390000
| 23>  H       -0.5335570000    -2.5814340000     0.3616200000
| 24>  H       -0.1468180000    -1.2874680000     1.4721180000
| 25>  H        0.6777610000    -1.1678390000    -1.4510830000
| 26>  H        1.6253700000    -2.1073380000    -0.3306930000
| 27>  H        2.4277260000     0.2520800000    -0.8252910000
| 28>  H        2.4227110000    -0.2583440000     0.8430540000
| 29>  H        1.6252820000     2.1017790000     0.3438530000
| 30>  H        0.6704400000     1.1631210000     1.4587930000
| 31>  H       -0.1372570000     1.2834570000    -1.4690890000
| 32>  H       -0.5292240000     2.5777650000    -0.3608240000
| 33> *
| 34>
| 35>                          ****END OF INPUT****
 Total Charge           Charge          ....    0
 Multiplicity           Mult            ....    1
 Number of Electrons    NEL             ....   56
 Basis Dimension        Dim             ....  168

MULLIKEN ATOMIC CHARGES
-----------------------
   0 C :    0.000010
   1 C :    0.000028
   2 C :   -0.008374
   3 C :   -0.009434
   4 C :   -0.005509
   5 C :   -0.009122
   6 C :   -0.008415
   7 H :    0.000798
   8 H :   -0.000693
   9 H :    0.000816
  10 H :   -0.000807
  11 H :    0.006583
  12 H :    0.000209
  13 H :   -0.003612
  14 H :    0.008517
  15 H :    0.008755
  16 H :    0.008724
  17 H :    0.008511
  18 H :   -0.003781
  19 H :    0.000176
  20 H :    0.006618
Sum of atomic charges:   -0.0000000

LOEWDIN ATOMIC CHARGES
----------------------
   0 C :   -0.043213
   1 C :   -0.043202
   2 C :   -0.047230
   3 C :   -0.049607
   4 C :   -0.046718
   5 C :   -0.049562
   6 C :   -0.047243
   7 H :    0.020577
   8 H :    0.023621
   9 H :    0.020568
  10 H :    0.023597
  11 H :    0.027022
  12 H :    0.021313
  13 H :    0.019360
  14 H :    0.027197
  15 H :    0.024332
  16 H :    0.024330
  17 H :    0.027198
  18 H :    0.019325
  19 H :    0.021302
  20 H :    0.027034

  Mayer bond orders larger than 0.1
B(  0-C ,  1-C ) :   1.1093 B(  0-C ,  6-C ) :   1.1079 B(  0-C ,  7-H ) :   0.9266
B(  0-C ,  8-H ) :   0.9232 B(  1-C ,  2-C ) :   1.1079 B(  1-C ,  9-H ) :   0.9266
B(  1-C , 10-H ) :   0.9232 B(  2-C ,  3-C ) :   1.1061 B(  2-C , 11-H ) :   0.9243
B(  2-C , 12-H ) :   0.9272 B(  3-C ,  4-C ) :   1.1028 B(  3-C , 13-H ) :   0.9217
B(  3-C , 14-H ) :   0.9300 B(  4-C ,  5-C ) :   1.1028 B(  4-C , 15-H ) :   0.9313
B(  4-C , 16-H ) :   0.9312 B(  5-C ,  6-C ) :   1.1060 B(  5-C , 17-H ) :   0.9300
B(  5-C , 18-H ) :   0.9217 B(  6-C , 19-H ) :   0.9273 B(  6-C , 20-H ) :   0.9243

FINAL SINGLE POINT ENERGY      -274.585651979945

DIPOLE MOMENT
-------------
                                X             Y             Z
Electronic contribution:      0.02464       0.00013       0.00006
Nuclear contribution   :     -0.01735       0.00001      -0.00005
                        -----------------------------------------
Total Dipole Moment    :      0.00729       0.00014       0.00001
                        -----------------------------------------
Magnitude (a.u.)       :      0.00729
Magnitude (Debye)      :      0.01852

                             ****ORCA TERMINATED NORMALLY****
TOTAL RUN TIME: 0 days 0 hours 0 minutes 9 seconds 227 msec
