                         Program Version 3.0.3 - RELEASE   -
|  1> ! RI PBE def2-SVP def2-SVP/J NBO PAL2
|  2> % maxcore 2000
|  3> % output
|  4>     # printlevel mini
|  5>     print[ P_Basis ] 0
|  6>     print[ P_SCFInfo ] 1
|  7>     print[ P_SCFIterInfo ] 1
|  8>     print[ P_OrbEn ] 0
|  9>     print[ P_Cartesian ] 0
| 10> end
| 11> *xyz 0 1
| 12>  C        1.4558740000    -0.3036140000    -0.3501610000
| 13>  C        2.8476950000     0.0159900000     0.1131970000
| 14>  C        3.6733440000    -1.0506010000     0.7665300000
| 15>  C        4.0748910000    -0.5215450000    -0.5795130000
| 16>  C        5.1377100000     0.5629730000    -0.6080650000
| 17>  C        4.3780280000     1.8625710000    -0.3066110000
| 18>  C        3.1669310000     1.4475330000     0.5386770000
| 19>  H        1.3894700000    -1.3314590000    -0.7158060000
| 20>  H        1.1457460000     0.3609220000    -1.1627620000
| 21>  H        0.7314180000    -0.1951710000     0.4631790000
| 22>  H        3.2552840000    -2.0504720000     0.8118700000
| 23>  H        4.2874060000    -0.7821780000     1.6209220000
| 24>  H        3.9722280000    -1.1821480000    -1.4334090000
| 25>  H        5.6437040000     0.6059720000    -1.5750510000
| 26>  H        5.9107150000     0.3734990000     0.1441720000
| 27>  H        4.0218690000     2.2905790000    -1.2488010000
| 28>  H        4.9989400000     2.6219080000     0.1755740000
| 29>  H        2.3116830000     2.1062570000     0.3678680000
| 30>  H        3.3940550000     1.4968940000     1.6086890000
| 31> *
| 32>
| 33>                          ****END OF INPUT****
 Total Charge           Charge          ....    0
 Multiplicity           Mult            ....    1
 Number of Electrons    NEL             ....   54
 Basis Dimension        Dim             ....  158

MULLIKEN ATOMIC CHARGES
-----------------------
   0 C :    0.112550
   1 C :   -0.328550
   2 C :    0.080494
   3 C :   -0.134808
   4 C :    0.078328
   5 C :   -0.001522
   6 C :    0.088367
   7 H :   -0.000174
   8 H :    0.013445
   9 H :    0.022181
  10 H :    0.012620
  11 H :    0.012913
  12 H :    0.006360
  13 H :    0.007283
  14 H :    0.007947
  15 H :    0.009796
  16 H :    0.005082
  17 H :    0.000733
  18 H :    0.006952
Sum of atomic charges:    0.0000000

LOEWDIN ATOMIC CHARGES
----------------------
   0 C :   -0.051059
   1 C :   -0.059793
   2 C :   -0.033879
   3 C :   -0.040035
   4 C :   -0.034454
   5 C :   -0.034600
   6 C :   -0.028056
   7 H :    0.026188
   8 H :    0.025555
   9 H :    0.028351
  10 H :    0.023536
  11 H :    0.018561
  12 H :    0.018958
  13 H :    0.026397
  14 H :    0.022565
  15 H :    0.024381
  16 H :    0.020052
  17 H :    0.024169
  18 H :    0.023166

  Mayer bond orders larger than 0.1
B(  0-C ,  1-C ) :   1.1121 B(  0-C ,  7-H ) :   0.9413 B(  0-C ,  8-H ) :   0.9499
B(  0-C ,  9-H ) :   0.9521 B(  1-C ,  2-C ) :   0.9743 B(  1-C ,  3-C ) :   0.9350
B(  1-C ,  6-C ) :   1.0550 B(  2-C ,  3-C ) :   0.9841 B(  2-C , 10-H ) :   0.9333
B(  2-C , 11-H ) :   0.9318 B(  3-C ,  4-C ) :   1.0706 B(  3-C , 12-H ) :   0.9491
B(  4-C ,  5-C ) :   1.1079 B(  4-C , 13-H ) :   0.9366 B(  4-C , 14-H ) :   0.9174
B(  5-C ,  6-C ) :   1.1015 B(  5-C , 15-H ) :   0.9333 B(  5-C , 16-H ) :   0.9344
B(  6-C , 17-H ) :   0.9372 B(  6-C , 18-H ) :   0.9162

FINAL SINGLE POINT ENERGY      -273.362782115548

DIPOLE MOMENT
-------------
                                X             Y             Z
Electronic contribution:      1.04574      -0.67133       0.11363
Nuclear contribution   :     -1.09858       0.70799      -0.17499
                        -----------------------------------------
Total Dipole Moment    :     -0.05283       0.03666      -0.06137
                        -----------------------------------------
Magnitude (a.u.)       :      0.08889
Magnitude (Debye)      :      0.22594

                             ****ORCA TERMINATED NORMALLY****
TOTAL RUN TIME: 0 days 0 hours 0 minutes 8 seconds 351 msec
