                         Program Version 3.0.3 - RELEASE   -
|  1> ! RI PBE def2-SVP def2-SVP/J NBO PAL2
|  2> % maxcore 2000
|  3> % output
|  4>     # printlevel mini
|  5>     print[ P_Basis ] 0
|  6>     print[ P_SCFInfo ] 1
|  7>     print[ P_SCFIterInfo ] 1
|  8>     print[ P_OrbEn ] 0
|  9>     print[ P_Cartesian ] 0
| 10> end
| 11> *xyz 0 1
| 12>  C        1.0201290000    -0.0702420000     0.0120710000
| 13>  C        2.5134780000     0.0697730000     0.0834950000
| 14>  C        3.4619120000    -0.5641210000    -0.9649150000
| 15>  C        4.5144490000    -0.3695630000     0.1450830000
| 16>  C        3.3722350000    -0.6783280000     1.1339190000
| 17>  C        4.6034650000     1.1547520000     0.2318290000
| 18>  C        3.0902780000     1.4877770000     0.1853000000
| 19>  H        0.7197580000    -1.1190090000    -0.0578340000
| 20>  H        0.6182360000     0.4523240000    -0.8614830000
| 21>  H        0.5429870000     0.3564830000     0.8997260000
| 22>  H        3.6063110000    -0.0395160000    -1.9141330000
| 23>  H        3.2301810000    -1.6163230000    -1.1431560000
| 24>  H        5.4495630000    -0.9288500000     0.1546040000
| 25>  H        3.4329550000    -0.2602930000     2.1431940000
| 26>  H        3.1310550000    -1.7425610000     1.1767900000
| 27>  H        5.1563660000     1.5853500000    -0.6064160000
| 28>  H        5.0810760000     1.4894610000     1.1557490000
| 29>  H        2.8161910000     2.0992510000    -0.6786280000
| 30>  H        2.7408860000     2.0033450000     1.0839170000
| 31> *
| 32>
| 33>                          ****END OF INPUT****
 Total Charge           Charge          ....    0
 Multiplicity           Mult            ....    1
 Number of Electrons    NEL             ....   54
 Basis Dimension        Dim             ....  158

MULLIKEN ATOMIC CHARGES
-----------------------
   0 C :    0.127170
   1 C :   -0.423956
   2 C :    0.111970
   3 C :   -0.175609
   4 C :    0.112029
   5 C :    0.114232
   6 C :    0.100941
   7 H :    0.004863
   8 H :    0.011981
   9 H :    0.012226
  10 H :    0.001316
  11 H :    0.006595
  12 H :   -0.019403
  13 H :    0.001379
  14 H :    0.007363
  15 H :    0.002285
  16 H :    0.001127
  17 H :    0.002107
  18 H :    0.001384
Sum of atomic charges:   -0.0000000

LOEWDIN ATOMIC CHARGES
----------------------
   0 C :   -0.059693
   1 C :   -0.051154
   2 C :   -0.018513
   3 C :   -0.023393
   4 C :   -0.018837
   5 C :   -0.029576
   6 C :   -0.025545
   7 H :    0.025615
   8 H :    0.028630
   9 H :    0.028598
  10 H :    0.009780
  11 H :    0.019549
  12 H :    0.008178
  13 H :    0.009899
  14 H :    0.019429
  15 H :    0.019979
  16 H :    0.019776
  17 H :    0.018702
  18 H :    0.018577

  Mayer bond orders larger than 0.1
B(  0-C ,  1-C ) :   1.1149 B(  0-C ,  7-H ) :   0.9442 B(  0-C ,  8-H ) :   0.9480
B(  0-C ,  9-H ) :   0.9480 B(  1-C ,  2-C ) :   0.9731 B(  1-C ,  4-C ) :   0.9726
B(  1-C ,  6-C ) :   1.0695 B(  2-C ,  3-C ) :   0.9904 B(  2-C , 10-H ) :   0.9332
B(  2-C , 11-H ) :   0.9329 B(  3-C ,  4-C ) :   0.9905 B(  3-C ,  5-C ) :   1.0644
B(  3-C , 12-H ) :   0.9623 B(  4-C , 13-H ) :   0.9325 B(  4-C , 14-H ) :   0.9337
B(  5-C ,  6-C ) :   1.1055 B(  5-C , 15-H ) :   0.9173 B(  5-C , 16-H ) :   0.9175
B(  6-C , 17-H ) :   0.9162 B(  6-C , 18-H ) :   0.9165

FINAL SINGLE POINT ENERGY      -273.359238420255

DIPOLE MOMENT
-------------
                                X             Y             Z
Electronic contribution:      1.72668      -0.43516       0.04708
Nuclear contribution   :     -1.78476       0.42146      -0.05332
                        -----------------------------------------
Total Dipole Moment    :     -0.05808      -0.01370      -0.00624
                        -----------------------------------------
Magnitude (a.u.)       :      0.06000
Magnitude (Debye)      :      0.15250

                             ****ORCA TERMINATED NORMALLY****
TOTAL RUN TIME: 0 days 0 hours 0 minutes 8 seconds 792 msec
