                         Program Version 3.0.3 - RELEASE   -
|  1> ! RI PBE def2-SVP def2-SVP/J NBO PAL2
|  2> % maxcore 2000
|  3> % output
|  4>     # printlevel mini
|  5>     print[ P_Basis ] 0
|  6>     print[ P_SCFInfo ] 1
|  7>     print[ P_SCFIterInfo ] 1
|  8>     print[ P_OrbEn ] 0
|  9>     print[ P_Cartesian ] 0
| 10> end
| 11> *xyz 0 1
| 12>  C        1.6922630000     0.0500260000     0.6084070000
| 13>  C        2.0744190000     0.3559410000    -0.8197790000
| 14>  C        3.3627120000     1.1433850000    -1.1756240000
| 15>  C        3.2405230000     0.4894500000    -2.5680270000
| 16>  C        2.7238430000    -0.7080300000    -1.7431450000
| 17>  C        3.9824520000    -1.1108820000    -0.9708550000
| 18>  C        4.4687340000     0.2983540000    -0.5388710000
| 19>  H        1.3958910000     0.9622710000     1.1339850000
| 20>  H        2.5078610000    -0.4048270000     1.1741140000
| 21>  H        0.8433980000    -0.6387980000     0.6432040000
| 22>  H        1.2259260000     0.8089290000    -1.3423870000
| 23>  H        3.4239820000     2.2250390000    -1.0499590000
| 24>  H        2.4612420000     0.9460780000    -3.1804280000
| 25>  H        4.1553050000     0.3524690000    -3.1509440000
| 26>  H        2.1357790000    -1.5081310000    -2.1943010000
| 27>  H        4.7023750000    -1.6265090000    -1.6102580000
| 28>  H        3.7667390000    -1.7644050000    -0.1227370000
| 29>  H        5.4521930000     0.5464370000    -0.9441610000
| 30>  H        4.5192610000     0.4164140000     0.5457660000
| 31> *
| 32>
| 33>                          ****END OF INPUT****
 Total Charge           Charge          ....    0
 Multiplicity           Mult            ....    1
 Number of Electrons    NEL             ....   54
 Basis Dimension        Dim             ....  158

MULLIKEN ATOMIC CHARGES
-----------------------
   0 C :    0.084463
   1 C :   -0.122453
   2 C :   -0.158173
   3 C :    0.115725
   4 C :   -0.155427
   5 C :    0.075181
   6 C :    0.088579
   7 H :    0.016708
   8 H :    0.011182
   9 H :    0.019694
  10 H :    0.007665
  11 H :   -0.012514
  12 H :    0.013245
  13 H :   -0.002392
  14 H :   -0.016007
  15 H :    0.008137
  16 H :    0.012081
  17 H :    0.003455
  18 H :    0.010848
Sum of atomic charges:   -0.0000000

LOEWDIN ATOMIC CHARGES
----------------------
   0 C :   -0.069475
   1 C :   -0.034249
   2 C :   -0.021418
   3 C :   -0.022467
   4 C :   -0.020443
   5 C :   -0.034876
   6 C :   -0.032965
   7 H :    0.030413
   8 H :    0.024342
   9 H :    0.030684
  10 H :    0.023037
  11 H :    0.008242
  12 H :    0.020907
  13 H :    0.010633
  14 H :    0.007583
  15 H :    0.021831
  16 H :    0.018616
  17 H :    0.021132
  18 H :    0.018475

  Mayer bond orders larger than 0.1
B(  0-C ,  1-C ) :   1.1103 B(  0-C ,  7-H ) :   0.9499 B(  0-C ,  8-H ) :   0.9349
B(  0-C ,  9-H ) :   0.9518 B(  1-C ,  2-C ) :   0.9470 B(  1-C ,  4-C ) :   0.9487
B(  1-C , 10-H ) :   0.9283 B(  2-C ,  3-C ) :   0.9924 B(  2-C ,  6-C ) :   1.0732
B(  2-C , 11-H ) :   0.9559 B(  3-C ,  4-C ) :   0.9902 B(  3-C , 12-H ) :   0.9378
B(  3-C , 13-H ) :   0.9324 B(  4-C ,  5-C ) :   1.0765 B(  4-C , 14-H ) :   0.9560
B(  5-C ,  6-C ) :   1.0943 B(  5-C , 15-H ) :   0.9200 B(  5-C , 16-H ) :   0.9199
B(  6-C , 17-H ) :   0.9186 B(  6-C , 18-H ) :   0.9210

FINAL SINGLE POINT ENERGY      -273.355522288040

DIPOLE MOMENT
-------------
                                X             Y             Z
Electronic contribution:      0.22430       0.47967      -1.81994
Nuclear contribution   :     -0.28234      -0.47033       1.85220
                        -----------------------------------------
Total Dipole Moment    :     -0.05804       0.00934       0.03226
                        -----------------------------------------
Magnitude (a.u.)       :      0.06706
Magnitude (Debye)      :      0.17044

                             ****ORCA TERMINATED NORMALLY****
TOTAL RUN TIME: 0 days 0 hours 0 minutes 8 seconds 529 msec
