                         Program Version 3.0.3 - RELEASE   -
|  1> ! RI PBE def2-SVP def2-SVP/J NBO PAL2
|  2> % maxcore 2000
|  3> % output
|  4>     # printlevel mini
|  5>     print[ P_Basis ] 0
|  6>     print[ P_SCFInfo ] 1
|  7>     print[ P_SCFIterInfo ] 1
|  8>     print[ P_OrbEn ] 0
|  9>     print[ P_Cartesian ] 0
| 10> end
| 11> *xyz 0 1
| 12>  C        0.7871890000     0.1101210000    -0.2003270000
| 13>  C        2.2741610000     0.1587870000     0.0184040000
| 14>  C        3.2718910000    -0.8119340000    -0.5485390000
| 15>  C        2.9000050000    -1.6714560000    -1.7367840000
| 16>  C        2.4363890000    -0.7118010000    -2.8492070000
| 17>  C        2.9279270000     0.6935100000    -2.4531810000
| 18>  C        3.2889210000     0.6299680000    -0.9852970000
| 19>  H        0.3197910000    -0.5969010000     0.4910820000
| 20>  H        0.5112890000    -0.1907830000    -1.2101660000
| 21>  H        0.3394650000     1.0911670000    -0.0173830000
| 22>  H        2.5279650000     0.4625100000     1.0311030000
| 23>  H        4.0309740000    -1.1941290000     0.1249050000
| 24>  H        2.1349290000    -2.4177160000    -1.5008570000
| 25>  H        3.7878270000    -2.2258710000    -2.0548280000
| 26>  H        1.3495820000    -0.7279400000    -2.9447250000
| 27>  H        2.8273490000    -1.0116980000    -3.8239890000
| 28>  H        3.8254610000     0.9589060000    -3.0195320000
| 29>  H        2.1807630000     1.4616250000    -2.6760080000
| 30>  H        4.0605110000     1.3050550000    -0.6321520000
| 31> *
| 32>
| 33>                          ****END OF INPUT****
 Total Charge           Charge          ....    0
 Multiplicity           Mult            ....    1
 Number of Electrons    NEL             ....   54
 Basis Dimension        Dim             ....  158

MULLIKEN ATOMIC CHARGES
-----------------------
   0 C :    0.108266
   1 C :   -0.103899
   2 C :   -0.142734
   3 C :    0.130903
   4 C :   -0.091237
   5 C :    0.127176
   6 C :   -0.146912
   7 H :    0.020748
   8 H :   -0.013084
   9 H :    0.017923
  10 H :    0.003983
  11 H :    0.010985
  12 H :    0.011529
  13 H :    0.006877
  14 H :    0.025635
  15 H :    0.003502
  16 H :    0.008673
  17 H :    0.011493
  18 H :    0.010173
Sum of atomic charges:   -0.0000000

LOEWDIN ATOMIC CHARGES
----------------------
   0 C :   -0.059740
   1 C :   -0.044773
   2 C :   -0.043778
   3 C :   -0.033602
   4 C :   -0.044383
   5 C :   -0.033756
   6 C :   -0.044420
   7 H :    0.030565
   8 H :    0.025655
   9 H :    0.029865
  10 H :    0.029041
  11 H :    0.020202
  12 H :    0.024093
  13 H :    0.027746
  14 H :    0.019759
  15 H :    0.025371
  16 H :    0.028098
  17 H :    0.023940
  18 H :    0.020116

  Mayer bond orders larger than 0.1
B(  0-C ,  1-C ) :   1.1153 B(  0-C ,  7-H ) :   0.9527 B(  0-C ,  8-H ) :   0.9361
B(  0-C ,  9-H ) :   0.9532 B(  1-C ,  2-C ) :   0.9567 B(  1-C ,  6-C ) :   0.9543
B(  1-C , 10-H ) :   0.9197 B(  2-C ,  3-C ) :   1.0855 B(  2-C ,  6-C ) :   0.9561
B(  2-C , 11-H ) :   0.9425 B(  3-C ,  4-C ) :   1.0911 B(  3-C , 12-H ) :   0.9305
B(  3-C , 13-H ) :   0.9248 B(  4-C ,  5-C ) :   1.0949 B(  4-C , 14-H ) :   0.9317
B(  4-C , 15-H ) :   0.9274 B(  5-C ,  6-C ) :   1.0834 B(  5-C , 16-H ) :   0.9245
B(  5-C , 17-H ) :   0.9311 B(  6-C , 18-H ) :   0.9429

FINAL SINGLE POINT ENERGY      -273.361594054150

DIPOLE MOMENT
-------------
                                X             Y             Z
Electronic contribution:      2.27876       0.26520       0.97227
Nuclear contribution   :     -2.26914      -0.27731      -1.00398
                        -----------------------------------------
Total Dipole Moment    :      0.00963      -0.01212      -0.03171
                        -----------------------------------------
Magnitude (a.u.)       :      0.03528
Magnitude (Debye)      :      0.08968

                             ****ORCA TERMINATED NORMALLY****
TOTAL RUN TIME: 0 days 0 hours 0 minutes 8 seconds 409 msec
