                         Program Version 3.0.3 - RELEASE   -
|  1> ! RI PBE def2-SVP def2-SVP/J NBO PAL2
|  2> % maxcore 2000
|  3> % output
|  4>     # printlevel mini
|  5>     print[ P_Basis ] 0
|  6>     print[ P_SCFInfo ] 1
|  7>     print[ P_SCFIterInfo ] 1
|  8>     print[ P_OrbEn ] 0
|  9>     print[ P_Cartesian ] 0
| 10> end
| 11> *xyz 0 1
| 12>  C        0.9837370000     0.3859790000    -1.2650730000
| 13>  C        2.3052600000     0.5074640000    -0.5601430000
| 14>  C        3.0221470000    -0.7199810000    -0.0837370000
| 15>  C        3.5630230000     0.0671340000    -1.2438240000
| 16>  C        4.8557250000     0.8030960000    -1.1403730000
| 17>  C        4.9772870000     2.2228070000    -1.6071930000
| 18>  C        5.0861370000     1.9000150000    -0.1473960000
| 19>  H        0.1575300000     0.3149490000    -0.5519770000
| 20>  H        0.9589550000    -0.5108770000    -1.8897940000
| 21>  H        0.7942290000     1.2467360000    -1.9126890000
| 22>  H        2.3907090000     1.3738300000     0.0887460000
| 23>  H        3.5659720000    -0.6588130000     0.8516720000
| 24>  H        2.5656210000    -1.6834260000    -0.2805160000
| 25>  H        3.4031730000    -0.3853070000    -2.2199340000
| 26>  H        5.7235730000     0.1781190000    -1.3332590000
| 27>  H        4.0687650000     2.7102820000    -1.9407310000
| 28>  H        5.8717230000     2.5226190000    -2.1391890000
| 29>  H        4.2691160000     2.2001200000     0.4972580000
| 30>  H        6.0613090000     1.9609530000     0.3195640000
| 31> *
| 32>
| 33>                          ****END OF INPUT****
 Total Charge           Charge          ....    0
 Multiplicity           Mult            ....    1
 Number of Electrons    NEL             ....   54
 Basis Dimension        Dim             ....  158

MULLIKEN ATOMIC CHARGES
-----------------------
   0 C :    0.077092
   1 C :   -0.205213
   2 C :    0.035520
   3 C :   -0.025324
   4 C :   -0.064271
   5 C :   -0.028267
   6 C :   -0.048978
   7 H :    0.022022
   8 H :    0.005092
   9 H :    0.021077
  10 H :    0.020659
  11 H :    0.021440
  12 H :    0.016420
  13 H :    0.009412
  14 H :    0.019510
  15 H :    0.031116
  16 H :    0.029604
  17 H :    0.034528
  18 H :    0.028560
Sum of atomic charges:   -0.0000000

LOEWDIN ATOMIC CHARGES
----------------------
   0 C :   -0.055307
   1 C :   -0.047626
   2 C :   -0.039600
   3 C :   -0.035299
   4 C :   -0.037729
   5 C :   -0.044236
   6 C :   -0.047661
   7 H :    0.028602
   8 H :    0.025861
   9 H :    0.027780
  10 H :    0.022978
  11 H :    0.025354
  12 H :    0.022561
  13 H :    0.025786
  14 H :    0.028512
  15 H :    0.025707
  16 H :    0.024776
  17 H :    0.022878
  18 H :    0.026663

  Mayer bond orders larger than 0.1
B(  0-C ,  1-C ) :   1.0936 B(  0-C ,  7-H ) :   0.9563 B(  0-C ,  8-H ) :   0.9489
B(  0-C ,  9-H ) :   0.9612 B(  1-C ,  2-C ) :   1.0073 B(  1-C ,  3-C ) :   0.9432
B(  1-C , 10-H ) :   0.9366 B(  2-C ,  3-C ) :   0.9862 B(  2-C , 11-H ) :   0.9400
B(  2-C , 12-H ) :   0.9383 B(  3-C ,  4-C ) :   1.0773 B(  3-C , 13-H ) :   0.9386
B(  4-C ,  5-C ) :   0.9846 B(  4-C ,  6-C ) :   1.0060 B(  4-C , 14-H ) :   0.9381
B(  5-C ,  6-C ) :   1.0446 B(  5-C , 15-H ) :   0.9502 B(  5-C , 16-H ) :   0.9467
B(  6-C , 17-H ) :   0.9409 B(  6-C , 18-H ) :   0.9417

FINAL SINGLE POINT ENERGY      -273.330821766615

DIPOLE MOMENT
-------------
                                X             Y             Z
Electronic contribution:      2.17435      -0.34138       0.09316
Nuclear contribution   :     -2.19164       0.33816      -0.11753
                        -----------------------------------------
Total Dipole Moment    :     -0.01729      -0.00322      -0.02437
                        -----------------------------------------
Magnitude (a.u.)       :      0.03006
Magnitude (Debye)      :      0.07640

                             ****ORCA TERMINATED NORMALLY****
TOTAL RUN TIME: 0 days 0 hours 0 minutes 8 seconds 125 msec
