                         Program Version 3.0.3 - RELEASE   -
|  1> ! RI PBE def2-SVP def2-SVP/J NBO PAL2
|  2> % maxcore 2000
|  3> % output
|  4>     # printlevel mini
|  5>     print[ P_Basis ] 0
|  6>     print[ P_SCFInfo ] 1
|  7>     print[ P_SCFIterInfo ] 1
|  8>     print[ P_OrbEn ] 0
|  9>     print[ P_Cartesian ] 0
| 10> end
| 11> *xyz 0 1
| 12>  C        1.0139920000     0.3618940000    -0.1491830000
| 13>  C        2.5023610000     0.1313900000    -0.0742080000
| 14>  C        3.0422590000    -1.0861580000    -0.7618640000
| 15>  C        3.2920000000     0.2757270000    -1.3422680000
| 16>  C        3.1131670000     0.6090010000     1.2062630000
| 17>  C        4.4035690000     0.0862580000     1.7522540000
| 18>  C        3.1113780000    -0.2528390000     2.4333270000
| 19>  H        0.6084320000     0.0205010000    -1.1045950000
| 20>  H        0.7774230000     1.4254510000    -0.0461160000
| 21>  H        0.4952630000    -0.1745590000     0.6505700000
| 22>  H        2.3277600000    -1.7290160000    -1.2625200000
| 23>  H        3.8828730000    -1.6143190000    -0.3294410000
| 24>  H        2.7642960000     0.5535090000    -2.2472870000
| 25>  H        4.2969110000     0.6732220000    -1.2638780000
| 26>  H        2.9386210000     1.6672090000     1.3864340000
| 27>  H        5.0685400000     0.7911600000     2.2357590000
| 28>  H        4.9140240000    -0.7063200000     1.2191920000
| 29>  H        2.8955040000     0.2014000000     3.3924140000
| 30>  H        2.7458280000    -1.2670090000     2.3214450000
| 31> *
| 32>
| 33>                          ****END OF INPUT****
 Total Charge           Charge          ....    0
 Multiplicity           Mult            ....    1
 Number of Electrons    NEL             ....   54
 Basis Dimension        Dim             ....  158

MULLIKEN ATOMIC CHARGES
-----------------------
   0 C :    0.123708
   1 C :   -0.234467
   2 C :   -0.030665
   3 C :    0.015713
   4 C :   -0.066202
   5 C :   -0.043835
   6 C :   -0.010438
   7 H :   -0.001522
   8 H :    0.011208
   9 H :    0.015225
  10 H :    0.022816
  11 H :    0.024168
  12 H :    0.020687
  13 H :    0.024807
  14 H :    0.015813
  15 H :    0.030259
  16 H :    0.028060
  17 H :    0.026063
  18 H :    0.028604
Sum of atomic charges:   -0.0000000

LOEWDIN ATOMIC CHARGES
----------------------
   0 C :   -0.041805
   1 C :   -0.057232
   2 C :   -0.043065
   3 C :   -0.036553
   4 C :   -0.031678
   5 C :   -0.047295
   6 C :   -0.041734
   7 H :    0.024090
   8 H :    0.025943
   9 H :    0.027372
  10 H :    0.024569
  11 H :    0.021423
  12 H :    0.022386
  13 H :    0.025359
  14 H :    0.027672
  15 H :    0.027314
  16 H :    0.023111
  17 H :    0.024185
  18 H :    0.025937

  Mayer bond orders larger than 0.1
B(  0-C ,  1-C ) :   1.0777 B(  0-C ,  7-H ) :   0.9404 B(  0-C ,  8-H ) :   0.9554
B(  0-C ,  9-H ) :   0.9565 B(  1-C ,  2-C ) :   0.9848 B(  1-C ,  3-C ) :   0.9683
B(  1-C ,  4-C ) :   1.0598 B(  2-C ,  3-C ) :   1.0343 B(  2-C , 10-H ) :   0.9387
B(  2-C , 11-H ) :   0.9347 B(  3-C , 12-H ) :   0.9432 B(  3-C , 13-H ) :   0.9427
B(  4-C ,  5-C ) :   1.0001 B(  4-C ,  6-C ) :   0.9875 B(  4-C , 14-H ) :   0.9381
B(  5-C ,  6-C ) :   1.0543 B(  5-C , 15-H ) :   0.9397 B(  5-C , 16-H ) :   0.9367
B(  6-C , 17-H ) :   0.9462 B(  6-C , 18-H ) :   0.9435

FINAL SINGLE POINT ENERGY      -273.330576428611

DIPOLE MOMENT
-------------
                                X             Y             Z
Electronic contribution:      1.09995       0.35041       0.27043
Nuclear contribution   :     -1.14080      -0.30636      -0.24699
                        -----------------------------------------
Total Dipole Moment    :     -0.04084       0.04405       0.02344
                        -----------------------------------------
Magnitude (a.u.)       :      0.06448
Magnitude (Debye)      :      0.16391

                             ****ORCA TERMINATED NORMALLY****
TOTAL RUN TIME: 0 days 0 hours 0 minutes 8 seconds 258 msec
