                         Program Version 3.0.3 - RELEASE   -
|  1> ! RI PBE def2-SVP def2-SVP/J NBO PAL2
|  2> % maxcore 2000
|  3> % output
|  4>     # printlevel mini
|  5>     print[ P_Basis ] 0
|  6>     print[ P_SCFInfo ] 1
|  7>     print[ P_SCFIterInfo ] 1
|  8>     print[ P_OrbEn ] 0
|  9>     print[ P_Cartesian ] 0
| 10> end
| 11> *xyz 0 1
| 12>  C        0.9642350000     0.0577550000    -0.1369970000
| 13>  C        2.4673370000     0.0341290000     0.0612250000
| 14>  C        2.9839480000    -1.0557450000     1.0448300000
| 15>  C        3.7628710000    -0.1713890000     2.0203980000
| 16>  C        4.4950040000     0.7943010000     1.0623930000
| 17>  C        3.0570030000     1.2675170000     0.7617550000
| 18>  C        2.7729860000     0.9887880000     2.2545150000
| 19>  H        0.6124680000    -0.8795880000    -0.5767960000
| 20>  H        0.6651830000     0.8699920000    -0.8056050000
| 21>  H        0.4341850000     0.1931980000     0.8097020000
| 22>  H        2.9446000000    -0.0842020000    -0.9175750000
| 23>  H        3.6178230000    -1.8000780000     0.5569320000
| 24>  H        2.1618400000    -1.5838990000     1.5361670000
| 25>  H        4.2766180000    -0.6649700000     2.8455540000
| 26>  H        5.0759060000     0.3650210000     0.2410000000
| 27>  H        5.0827990000     1.5447530000     1.5937800000
| 28>  H        2.8520630000     2.2374480000     0.3067250000
| 29>  H        1.7531360000     0.7457500000     2.5623620000
| 30>  H        3.1856060000     1.7638270000     2.9025240000
| 31> *
| 32>
| 33>                          ****END OF INPUT****
 Total Charge           Charge          ....    0
 Multiplicity           Mult            ....    1
 Number of Electrons    NEL             ....   54
 Basis Dimension        Dim             ....  158

MULLIKEN ATOMIC CHARGES
-----------------------
   0 C :    0.062854
   1 C :   -0.121447
   2 C :    0.178512
   3 C :   -0.197932
   4 C :    0.094043
   5 C :   -0.136879
   6 C :    0.072569
   7 H :    0.018405
   8 H :    0.015233
   9 H :    0.007216
  10 H :    0.001913
  11 H :    0.001341
  12 H :   -0.004547
  13 H :   -0.013778
  14 H :    0.003121
  15 H :    0.013071
  16 H :   -0.018324
  17 H :    0.006288
  18 H :    0.018342
Sum of atomic charges:    0.0000000

LOEWDIN ATOMIC CHARGES
----------------------
   0 C :   -0.062204
   1 C :   -0.037071
   2 C :   -0.024669
   3 C :   -0.020884
   4 C :   -0.022414
   5 C :   -0.019777
   6 C :   -0.024052
   7 H :    0.027164
   8 H :    0.025674
   9 H :    0.021627
  10 H :    0.020900
  11 H :    0.019840
  12 H :    0.018706
  13 H :    0.007690
  14 H :    0.010374
  15 H :    0.021007
  16 H :    0.007340
  17 H :    0.008195
  18 H :    0.022554

  Mayer bond orders larger than 0.1
B(  0-C ,  1-C ) :   1.0906 B(  0-C ,  7-H ) :   0.9561 B(  0-C ,  8-H ) :   0.9568
B(  0-C ,  9-H ) :   0.9524 B(  1-C ,  2-C ) :   1.0356 B(  1-C ,  5-C ) :   1.0371
B(  1-C , 10-H ) :   0.9006 B(  2-C ,  3-C ) :   1.0723 B(  2-C , 11-H ) :   0.9128
B(  2-C , 12-H ) :   0.9152 B(  3-C ,  4-C ) :   0.9868 B(  3-C ,  6-C ) :   0.9819
B(  3-C , 13-H ) :   0.9611 B(  4-C ,  5-C ) :   0.9832 B(  4-C , 14-H ) :   0.9337
B(  4-C , 15-H ) :   0.9405 B(  5-C ,  6-C ) :   0.9835 B(  5-C , 16-H ) :   0.9674
B(  6-C , 17-H ) :   0.9351 B(  6-C , 18-H ) :   0.9411

FINAL SINGLE POINT ENERGY      -273.354583803162

DIPOLE MOMENT
-------------
                                X             Y             Z
Electronic contribution:      2.04432       0.48502       0.85496
Nuclear contribution   :     -2.03932      -0.47260      -0.87103
                        -----------------------------------------
Total Dipole Moment    :      0.00500       0.01242      -0.01607
                        -----------------------------------------
Magnitude (a.u.)       :      0.02091
Magnitude (Debye)      :      0.05316

                             ****ORCA TERMINATED NORMALLY****
TOTAL RUN TIME: 0 days 0 hours 0 minutes 8 seconds 913 msec
