                         Program Version 3.0.3 - RELEASE   -
|  1> ! RI PBE def2-SVP def2-SVP/J NBO PAL2
|  2> % maxcore 2000
|  3> % output
|  4>     # printlevel mini
|  5>     print[ P_Basis ] 0
|  6>     print[ P_SCFInfo ] 1
|  7>     print[ P_SCFIterInfo ] 1
|  8>     print[ P_OrbEn ] 0
|  9>     print[ P_Cartesian ] 0
| 10> end
| 11> *xyz 0 1
| 12>  C        0.5301600000    -0.2041400000    -0.2011350000
| 13>  C        2.0199560000     0.0781020000    -0.2050800000
| 14>  C        2.9286560000    -1.1844360000    -0.1555690000
| 15>  C        3.7799390000    -0.9359680000    -1.4022130000
| 16>  C        2.7125320000    -0.5205990000    -2.4360450000
| 17>  C        2.5674640000     0.6990910000    -1.4990290000
| 18>  C        4.0903620000     0.5725490000    -1.2823810000
| 19>  H        0.2293200000    -0.7070420000     0.7220970000
| 20>  H        0.2393190000    -0.8498770000    -1.0341850000
| 21>  H       -0.0487930000     0.7205530000    -0.2782970000
| 22>  H        2.2496670000     0.7415240000     0.6357140000
| 23>  H        2.3477030000    -2.1079060000    -0.2324980000
| 24>  H        3.5278740000    -1.2391930000     0.7564690000
| 25>  H        4.5538200000    -1.6672970000    -1.6361080000
| 26>  H        1.8524950000    -1.1777920000    -2.5855920000
| 27>  H        3.1487620000    -0.2490160000    -3.3987500000
| 28>  H        2.1074190000     1.6305830000    -1.8314410000
| 29>  H        4.5067030000     0.9408020000    -0.3403270000
| 30>  H        4.6686620000     0.9489330000    -2.1279310000
| 31> *
| 32>
| 33>                          ****END OF INPUT****
 Total Charge           Charge          ....    0
 Multiplicity           Mult            ....    1
 Number of Electrons    NEL             ....   54
 Basis Dimension        Dim             ....  158

MULLIKEN ATOMIC CHARGES
-----------------------
   0 C :    0.072400
   1 C :   -0.127008
   2 C :    0.172511
   3 C :   -0.199325
   4 C :    0.070213
   5 C :   -0.132999
   6 C :    0.098808
   7 H :    0.016110
   8 H :    0.006766
   9 H :    0.013594
  10 H :    0.001358
  11 H :   -0.001078
  12 H :    0.001949
  13 H :   -0.012310
  14 H :    0.010648
  15 H :    0.013908
  16 H :   -0.019024
  17 H :    0.002031
  18 H :    0.011449
Sum of atomic charges:    0.0000000

LOEWDIN ATOMIC CHARGES
----------------------
   0 C :   -0.061442
   1 C :   -0.037701
   2 C :   -0.025119
   3 C :   -0.022096
   4 C :   -0.024001
   5 C :   -0.020052
   6 C :   -0.021009
   7 H :    0.026752
   8 H :    0.021508
   9 H :    0.025654
  10 H :    0.020655
  11 H :    0.019422
  12 H :    0.020008
  13 H :    0.008028
  14 H :    0.008952
  15 H :    0.021866
  16 H :    0.007414
  17 H :    0.010302
  18 H :    0.020861

  Mayer bond orders larger than 0.1
B(  0-C ,  1-C ) :   1.0919 B(  0-C ,  7-H ) :   0.9557 B(  0-C ,  8-H ) :   0.9524
B(  0-C ,  9-H ) :   0.9547 B(  1-C ,  2-C ) :   1.0401 B(  1-C ,  5-C ) :   1.0343
B(  1-C , 10-H ) :   0.9017 B(  2-C ,  3-C ) :   1.0684 B(  2-C , 11-H ) :   0.9160
B(  2-C , 12-H ) :   0.9127 B(  3-C ,  4-C ) :   0.9842 B(  3-C ,  6-C ) :   0.9918
B(  3-C , 13-H ) :   0.9610 B(  4-C ,  5-C ) :   0.9869 B(  4-C , 14-H ) :   0.9363
B(  4-C , 15-H ) :   0.9402 B(  5-C ,  6-C ) :   0.9821 B(  5-C , 16-H ) :   0.9652
B(  6-C , 17-H ) :   0.9336 B(  6-C , 18-H ) :   0.9397

FINAL SINGLE POINT ENERGY      -273.354586531315

DIPOLE MOMENT
-------------
                                X             Y             Z
Electronic contribution:      2.09615       0.39151      -0.78352
Nuclear contribution   :     -2.09359      -0.37087       0.78755
                        -----------------------------------------
Total Dipole Moment    :      0.00256       0.02064       0.00402
                        -----------------------------------------
Magnitude (a.u.)       :      0.02119
Magnitude (Debye)      :      0.05385

                             ****ORCA TERMINATED NORMALLY****
TOTAL RUN TIME: 0 days 0 hours 0 minutes 8 seconds 784 msec
