                         Program Version 3.0.3 - RELEASE   -
|  1> ! RI PBE def2-SVP def2-SVP/J NBO PAL2
|  2> % maxcore 2000
|  3> % output
|  4>     # printlevel mini
|  5>     print[ P_Basis ] 0
|  6>     print[ P_SCFInfo ] 1
|  7>     print[ P_SCFIterInfo ] 1
|  8>     print[ P_OrbEn ] 0
|  9>     print[ P_Cartesian ] 0
| 10> end
| 11> *xyz 0 1
| 12>  C        0.8563440000     0.1168370000    -0.2573450000
| 13>  C        2.3534510000     0.0423780000    -0.0772730000
| 14>  C        2.7344540000    -0.0520020000     1.3805400000
| 15>  C        3.1579350000    -0.7405020000    -1.0804340000
| 16>  C        3.2677000000     0.7603190000    -1.0516420000
| 17>  C        2.6767840000     1.5456460000    -2.1975930000
| 18>  C        4.5549270000     1.3768700000    -0.5596630000
| 19>  H        0.3775370000    -0.7326280000     0.2396600000
| 20>  H        0.5518090000     0.0942370000    -1.3033210000
| 21>  H        0.4498970000     1.0295610000     0.1907150000
| 22>  H        2.2207350000    -0.8984300000     1.8469270000
| 23>  H        2.4383760000     0.8507060000     1.9250350000
| 24>  H        3.8035400000    -0.1978990000     1.5324770000
| 25>  H        2.6297000000    -1.1956270000    -1.9116760000
| 26>  H        4.0005710000    -1.3187880000    -0.7161770000
| 27>  H        1.7968270000     1.0702540000    -2.6299900000
| 28>  H        3.4157690000     1.6523780000    -2.9978940000
| 29>  H        2.3912290000     2.5536540000    -1.8793620000
| 30>  H        5.0482030000     0.7780270000     0.2054230000
| 31>  H        4.3808640000     2.3748180000    -0.1440950000
| 32>  H        5.2583180000     1.4868890000    -1.3909920000
| 33> *
| 34>
| 35>                          ****END OF INPUT****
 Total Charge           Charge          ....    0
 Multiplicity           Mult            ....    1
 Number of Electrons    NEL             ....   56
 Basis Dimension        Dim             ....  168

MULLIKEN ATOMIC CHARGES
-----------------------
   0 C :    0.104013
   1 C :   -0.290803
   2 C :    0.099468
   3 C :    0.055388
   4 C :   -0.296988
   5 C :    0.104302
   6 C :    0.096330
   7 H :    0.012681
   8 H :   -0.001965
   9 H :    0.012426
  10 H :    0.011376
  11 H :    0.015792
  12 H :   -0.000357
  13 H :    0.013337
  14 H :    0.012490
  15 H :   -0.003972
  16 H :    0.015433
  17 H :    0.012106
  18 H :    0.000614
  19 H :    0.013574
  20 H :    0.014756
Sum of atomic charges:   -0.0000000

LOEWDIN ATOMIC CHARGES
----------------------
   0 C :   -0.046364
   1 C :   -0.058621
   2 C :   -0.047638
   3 C :   -0.039534
   4 C :   -0.058291
   5 C :   -0.047615
   6 C :   -0.049129
   7 H :    0.027158
   8 H :    0.021996
   9 H :    0.026123
  10 H :    0.026947
  11 H :    0.026635
  12 H :    0.022630
  13 H :    0.021532
  14 H :    0.021206
  15 H :    0.022030
  16 H :    0.027509
  17 H :    0.026440
  18 H :    0.022706
  19 H :    0.026832
  20 H :    0.027447

  Mayer bond orders larger than 0.1
B(  0-C ,  1-C ) :   1.1055 B(  0-C ,  7-H ) :   0.9497 B(  0-C ,  8-H ) :   0.9420
B(  0-C ,  9-H ) :   0.9554 B(  1-C ,  2-C ) :   1.1073 B(  1-C ,  3-C ) :   0.9600
B(  1-C ,  4-C ) :   0.8801 B(  2-C , 10-H ) :   0.9487 B(  2-C , 11-H ) :   0.9558
B(  2-C , 12-H ) :   0.9401 B(  3-C ,  4-C ) :   0.9612 B(  3-C , 13-H ) :   0.9356
B(  3-C , 14-H ) :   0.9361 B(  4-C ,  5-C ) :   1.1120 B(  4-C ,  6-C ) :   1.1152
B(  5-C , 15-H ) :   0.9381 B(  5-C , 16-H ) :   0.9499 B(  5-C , 17-H ) :   0.9526
B(  6-C , 18-H ) :   0.9384 B(  6-C , 19-H ) :   0.9516 B(  6-C , 20-H ) :   0.9486

FINAL SINGLE POINT ENERGY      -274.559011133250

DIPOLE MOMENT
-------------
                                X             Y             Z
Electronic contribution:      0.33625      -1.12119      -0.50596
Nuclear contribution   :     -0.35332       1.16328       0.52502
                        -----------------------------------------
Total Dipole Moment    :     -0.01707       0.04209       0.01906
                        -----------------------------------------
Magnitude (a.u.)       :      0.04926
Magnitude (Debye)      :      0.12521

                             ****ORCA TERMINATED NORMALLY****
TOTAL RUN TIME: 0 days 0 hours 0 minutes 9 seconds 182 msec
