                         Program Version 3.0.3 - RELEASE   -
|  1> ! RI PBE def2-SVP def2-SVP/J NBO PAL2
|  2> % maxcore 2000
|  3> % output
|  4>     # printlevel mini
|  5>     print[ P_Basis ] 0
|  6>     print[ P_SCFInfo ] 1
|  7>     print[ P_SCFIterInfo ] 1
|  8>     print[ P_OrbEn ] 0
|  9>     print[ P_Cartesian ] 0
| 10> end
| 11> *xyz 0 1
| 12>  C        0.8277480000     0.2802990000    -0.2199770000
| 13>  C        2.3209340000     0.1376770000    -0.1179230000
| 14>  C        3.1242320000    -0.7529130000    -1.0348290000
| 15>  C        2.5002670000    -1.5739850000    -2.1288150000
| 16>  C        3.2860380000     0.7455790000    -1.1056690000
| 17>  C        2.7741950000     1.5120210000    -2.2981550000
| 18>  C        4.5625780000     1.3185930000    -0.5439450000
| 19>  H        0.3232400000    -0.5144300000     0.3370930000
| 20>  H        0.4657750000     0.2344390000    -1.2473920000
| 21>  H        0.4976460000     1.2352590000     0.1988010000
| 22>  H        2.6756100000     0.1570260000     0.9098450000
| 23>  H        3.9544640000    -1.2607730000    -0.5497700000
| 24>  H        2.1409560000    -2.5307380000    -1.7389760000
| 25>  H        3.2279050000    -1.7925080000    -2.9156290000
| 26>  H        1.6516120000    -1.0782700000    -2.6007910000
| 27>  H        1.8513900000     1.1049640000    -2.7105540000
| 28>  H        3.5188390000     1.5145600000    -3.1005140000
| 29>  H        2.5808180000     2.5552990000    -2.0289540000
| 30>  H        4.9090640000     0.7433870000     0.3181290000
| 31>  H        4.4209170000     2.3548100000    -0.2193680000
| 32>  H        5.3613430000     1.3122240000    -1.2930080000
| 33> *
| 34>
| 35>                          ****END OF INPUT****
 Total Charge           Charge          ....    0
 Multiplicity           Mult            ....    1
 Number of Electrons    NEL             ....   56
 Basis Dimension        Dim             ....  168

MULLIKEN ATOMIC CHARGES
-----------------------
   0 C :    0.091374
   1 C :   -0.115874
   2 C :   -0.113675
   3 C :    0.094486
   4 C :   -0.276476
   5 C :    0.104766
   6 C :    0.083917
   7 H :    0.020947
   8 H :   -0.003013
   9 H :    0.017727
  10 H :    0.004003
  11 H :    0.002560
  12 H :    0.017808
  13 H :    0.020848
  14 H :   -0.005707
  15 H :   -0.007418
  16 H :    0.018599
  17 H :    0.014908
  18 H :    0.004604
  19 H :    0.010882
  20 H :    0.014734
Sum of atomic charges:   -0.0000000

LOEWDIN ATOMIC CHARGES
----------------------
   0 C :   -0.057343
   1 C :   -0.043744
   2 C :   -0.042609
   3 C :   -0.057631
   4 C :   -0.062288
   5 C :   -0.049482
   6 C :   -0.047686
   7 H :    0.030343
   8 H :    0.021917
   9 H :    0.029613
  10 H :    0.022156
  11 H :    0.022050
  12 H :    0.029787
  13 H :    0.030053
  14 H :    0.021969
  15 H :    0.021364
  16 H :    0.028878
  17 H :    0.028585
  18 H :    0.024060
  19 H :    0.024806
  20 H :    0.025202

  Mayer bond orders larger than 0.1
B(  0-C ,  1-C ) :   1.1233 B(  0-C ,  7-H ) :   0.9530 B(  0-C ,  8-H ) :   0.9424
B(  0-C ,  9-H ) :   0.9552 B(  1-C ,  2-C ) :   0.9490 B(  1-C ,  4-C ) :   0.9213
B(  1-C , 10-H ) :   0.9285 B(  2-C ,  3-C ) :   1.1299 B(  2-C ,  4-C ) :   0.9229
B(  2-C , 11-H ) :   0.9276 B(  3-C , 12-H ) :   0.9514 B(  3-C , 13-H ) :   0.9549
B(  3-C , 14-H ) :   0.9387 B(  4-C ,  5-C ) :   1.1194 B(  4-C ,  6-C ) :   1.0965
B(  5-C , 15-H ) :   0.9350 B(  5-C , 16-H ) :   0.9517 B(  5-C , 17-H ) :   0.9495
B(  6-C , 18-H ) :   0.9409 B(  6-C , 19-H ) :   0.9532 B(  6-C , 20-H ) :   0.9559

FINAL SINGLE POINT ENERGY      -274.559475679744

DIPOLE MOMENT
-------------
                                X             Y             Z
Electronic contribution:      0.93903      -0.56575       1.37512
Nuclear contribution   :     -0.97397       0.56291      -1.39979
                        -----------------------------------------
Total Dipole Moment    :     -0.03494      -0.00285      -0.02467
                        -----------------------------------------
Magnitude (a.u.)       :      0.04287
Magnitude (Debye)      :      0.10897

                             ****ORCA TERMINATED NORMALLY****
TOTAL RUN TIME: 0 days 0 hours 0 minutes 9 seconds 140 msec
