                         Program Version 3.0.3 - RELEASE   -
|  1> ! RI PBE def2-SVP def2-SVP/J NBO PAL2
|  2> % maxcore 2000
|  3> % output
|  4>     # printlevel mini
|  5>     print[ P_Basis ] 0
|  6>     print[ P_SCFInfo ] 1
|  7>     print[ P_SCFIterInfo ] 1
|  8>     print[ P_OrbEn ] 0
|  9>     print[ P_Cartesian ] 0
| 10> end
| 11> *xyz 0 1
| 12>  C        0.8537230000     0.1484570000     0.5182430000
| 13>  C        2.2417590000    -0.2153160000     0.0338210000
| 14>  C        3.3139020000     0.8336600000     0.4047130000
| 15>  C        3.7715580000    -0.0752490000     1.5589090000
| 16>  C        3.0271380000    -1.2597710000     0.8948150000
| 17>  C        2.2426490000    -2.1720490000     1.8144440000
| 18>  C        3.9619140000    -2.0768650000     0.0169840000
| 19>  H        0.4530250000     0.9789900000    -0.0696680000
| 20>  H        0.8598580000     0.4644790000     1.5654550000
| 21>  H        0.1577940000    -0.6897820000     0.4275080000
| 22>  H        2.1967560000    -0.4760170000    -1.0285890000
| 23>  H        2.9441380000     1.8259370000     0.6719480000
| 24>  H        4.0773910000     0.9499250000    -0.3663070000
| 25>  H        3.3131210000     0.2086780000     2.5092440000
| 26>  H        4.8460600000    -0.1948000000     1.7168020000
| 27>  H        1.5592270000    -1.6162340000     2.4598610000
| 28>  H        2.9239680000    -2.7340170000     2.4609450000
| 29>  H        1.6535670000    -2.8995910000     1.2471220000
| 30>  H        4.5498220000    -1.4388010000    -0.6484040000
| 31>  H        3.3963510000    -2.7764310000    -0.6061970000
| 32>  H        4.6609490000    -2.6584150000     0.6257520000
| 33> *
| 34>
| 35>                          ****END OF INPUT****
 Total Charge           Charge          ....    0
 Multiplicity           Mult            ....    1
 Number of Electrons    NEL             ....   56
 Basis Dimension        Dim             ....  168

MULLIKEN ATOMIC CHARGES
-----------------------
   0 C :    0.056372
   1 C :   -0.106517
   2 C :    0.040825
   3 C :    0.114223
   4 C :   -0.391428
   5 C :    0.100851
   6 C :    0.084814
   7 H :    0.020576
   8 H :    0.005813
   9 H :    0.022696
  10 H :   -0.007177
  11 H :   -0.004491
  12 H :    0.016943
  13 H :   -0.008949
  14 H :   -0.001044
  15 H :    0.004965
  16 H :    0.012559
  17 H :    0.009847
  18 H :    0.003533
  19 H :    0.012286
  20 H :    0.013302
Sum of atomic charges:    0.0000000

LOEWDIN ATOMIC CHARGES
----------------------
   0 C :   -0.062111
   1 C :   -0.029100
   2 C :   -0.031173
   3 C :   -0.023510
   4 C :   -0.057196
   5 C :   -0.057387
   6 C :   -0.048916
   7 H :    0.028732
   8 H :    0.022523
   9 H :    0.026499
  10 H :    0.014042
  11 H :    0.015973
  12 H :    0.022405
  13 H :    0.019531
  14 H :    0.015037
  15 H :    0.021963
  16 H :    0.027119
  17 H :    0.024894
  18 H :    0.023248
  19 H :    0.023612
  20 H :    0.023815

  Mayer bond orders larger than 0.1
B(  0-C ,  1-C ) :   1.0992 B(  0-C ,  7-H ) :   0.9506 B(  0-C ,  8-H ) :   0.9473
B(  0-C ,  9-H ) :   0.9490 B(  1-C ,  2-C ) :   1.0941 B(  1-C ,  4-C ) :   0.9888
B(  1-C , 10-H ) :   0.9122 B(  2-C ,  3-C ) :   1.1391 B(  2-C , 11-H ) :   0.9178
B(  2-C , 12-H ) :   0.9228 B(  3-C ,  4-C ) :   1.0550 B(  3-C , 13-H ) :   0.9099
B(  3-C , 14-H ) :   0.9213 B(  4-C ,  5-C ) :   1.0949 B(  4-C ,  6-C ) :   1.0368
B(  5-C , 15-H ) :   0.9373 B(  5-C , 16-H ) :   0.9526 B(  5-C , 17-H ) :   0.9536
B(  6-C , 18-H ) :   0.9529 B(  6-C , 19-H ) :   0.9565 B(  6-C , 20-H ) :   0.9550

FINAL SINGLE POINT ENERGY      -274.561026475168

DIPOLE MOMENT
-------------
                                X             Y             Z
Electronic contribution:      0.95952       1.12493      -0.40004
Nuclear contribution   :     -0.99073      -1.14220       0.38690
                        -----------------------------------------
Total Dipole Moment    :     -0.03121      -0.01727      -0.01314
                        -----------------------------------------
Magnitude (a.u.)       :      0.03801
Magnitude (Debye)      :      0.09661

                             ****ORCA TERMINATED NORMALLY****
TOTAL RUN TIME: 0 days 0 hours 0 minutes 9 seconds 223 msec
