                         Program Version 3.0.3 - RELEASE   -
|  1> ! RI PBE def2-SVP def2-SVP/J NBO PAL2
|  2> % maxcore 2000
|  3> % output
|  4>     # printlevel mini
|  5>     print[ P_Basis ] 0
|  6>     print[ P_SCFInfo ] 1
|  7>     print[ P_SCFIterInfo ] 1
|  8>     print[ P_OrbEn ] 0
|  9>     print[ P_Cartesian ] 0
| 10> end
| 11> *xyz 0 1
| 12>  C        1.3133380000     0.3678230000     0.6840080000
| 13>  C        2.5182030000    -0.1670920000    -0.0693040000
| 14>  C        2.3560690000    -1.6172590000    -0.5492350000
| 15>  C        3.3090110000    -1.7660380000    -1.7398910000
| 16>  C        3.3652750000    -0.3854170000    -2.3565840000
| 17>  C        2.0619830000     0.3264650000    -2.5613850000
| 18>  C        2.8756350000     0.5959980000    -1.3300570000
| 19>  H        1.0934870000    -0.2416270000     1.5649440000
| 20>  H        0.4257770000     0.3659070000     0.0446320000
| 21>  H        1.4772130000     1.3941400000     1.0225580000
| 22>  H        3.3931890000    -0.1190710000     0.5923340000
| 23>  H        1.3222670000    -1.7825540000    -0.8673790000
| 24>  H        2.5559540000    -2.3404330000     0.2442020000
| 25>  H        2.9837950000    -2.5407270000    -2.4406910000
| 26>  H        4.3102520000    -2.0436540000    -1.3940120000
| 27>  H        4.1904770000    -0.1400850000    -3.0148080000
| 28>  H        1.1365500000    -0.2324310000    -2.4772580000
| 29>  H        2.0379910000     1.1046020000    -3.3143180000
| 30>  H        3.3351230000     1.5728630000    -1.2281660000
| 31> *
| 32>
| 33>                          ****END OF INPUT****
 Total Charge           Charge          ....    0
 Multiplicity           Mult            ....    1
 Number of Electrons    NEL             ....   54
 Basis Dimension        Dim             ....  158

MULLIKEN ATOMIC CHARGES
-----------------------
   0 C :    0.073289
   1 C :   -0.065999
   2 C :   -0.055795
   3 C :    0.153399
   4 C :   -0.167387
   5 C :    0.022124
   6 C :   -0.090590
   7 H :    0.012741
   8 H :    0.007562
   9 H :    0.010025
  10 H :    0.007521
  11 H :    0.009293
  12 H :    0.010547
  13 H :    0.010020
  14 H :    0.003543
  15 H :    0.009260
  16 H :    0.022430
  17 H :    0.024829
  18 H :    0.003187
Sum of atomic charges:   -0.0000000

LOEWDIN ATOMIC CHARGES
----------------------
   0 C :   -0.056969
   1 C :   -0.037949
   2 C :   -0.036656
   3 C :   -0.029246
   4 C :   -0.042446
   5 C :   -0.046910
   6 C :   -0.035205
   7 H :    0.024424
   8 H :    0.023225
   9 H :    0.025128
  10 H :    0.026767
  11 H :    0.020919
  12 H :    0.025769
  13 H :    0.023812
  14 H :    0.025322
  15 H :    0.020453
  16 H :    0.020137
  17 H :    0.029314
  18 H :    0.020112

  Mayer bond orders larger than 0.1
B(  0-C ,  1-C ) :   1.1021 B(  0-C ,  7-H ) :   0.9567 B(  0-C ,  8-H ) :   0.9548
B(  0-C ,  9-H ) :   0.9559 B(  1-C ,  2-C ) :   1.0503 B(  1-C ,  6-C ) :   1.0464
B(  1-C , 10-H ) :   0.9052 B(  2-C ,  3-C ) :   1.0879 B(  2-C , 11-H ) :   0.9273
B(  2-C , 12-H ) :   0.9285 B(  3-C ,  4-C ) :   1.0648 B(  3-C , 13-H ) :   0.9302
B(  3-C , 14-H ) :   0.9229 B(  4-C ,  5-C ) :   0.9884 B(  4-C ,  6-C ) :   0.9487
B(  4-C , 15-H ) :   0.9469 B(  5-C ,  6-C ) :   0.9909 B(  5-C , 16-H ) :   0.9379
B(  5-C , 17-H ) :   0.9378 B(  6-C , 18-H ) :   0.9485

FINAL SINGLE POINT ENERGY      -273.365859556767

DIPOLE MOMENT
-------------
                                X             Y             Z
Electronic contribution:      1.91520       0.38004      -1.84122
Nuclear contribution   :     -1.84653      -0.38376       1.89738
                        -----------------------------------------
Total Dipole Moment    :      0.06867      -0.00371       0.05616
                        -----------------------------------------
Magnitude (a.u.)       :      0.08879
Magnitude (Debye)      :      0.22568

                             ****ORCA TERMINATED NORMALLY****
TOTAL RUN TIME: 0 days 0 hours 0 minutes 8 seconds 383 msec
