                         Program Version 3.0.3 - RELEASE   -
|  1> ! RI PBE def2-SVP def2-SVP/J NBO PAL2
|  2> % maxcore 2000
|  3> % output
|  4>     # printlevel mini
|  5>     print[ P_Basis ] 0
|  6>     print[ P_SCFInfo ] 1
|  7>     print[ P_SCFIterInfo ] 1
|  8>     print[ P_OrbEn ] 0
|  9>     print[ P_Cartesian ] 0
| 10> end
| 11> *xyz 0 1
| 12>  C        1.1778220000     0.0013070000    -0.1896720000
| 13>  C        2.6701770000     0.0345230000     0.0730040000
| 14>  C        3.1127050000     1.1604880000     1.0076880000
| 15>  C        4.4879200000     0.7324650000     1.5530220000
| 16>  C        4.6346270000    -0.7555920000     1.1842580000
| 17>  C        3.2415250000    -1.2135200000     0.7519120000
| 18>  C        3.2406420000    -2.4688340000    -0.0974400000
| 19>  H        0.8330320000     0.9354500000    -0.6411130000
| 20>  H        0.6250510000    -0.1384520000     0.7450350000
| 21>  H        0.9015660000    -0.8111050000    -0.8666300000
| 22>  H        3.1957550000     0.1506930000    -0.8865840000
| 23>  H        2.3888660000     1.2431060000     1.8260760000
| 24>  H        3.1352320000     2.1328800000     0.5099530000
| 25>  H        4.5446080000     0.8850710000     2.6329270000
| 26>  H        5.2943910000     1.3246550000     1.1152800000
| 27>  H        5.0388690000    -1.3592480000     2.0003350000
| 28>  H        5.3211260000    -0.8710300000     0.3381430000
| 29>  H        2.6386840000    -1.3963350000     1.6539630000
| 30>  H        3.8131630000    -2.3120270000    -1.0174390000
| 31>  H        2.2282530000    -2.7684270000    -0.3801420000
| 32>  H        3.6942640000    -3.3090700000     0.4350370000
| 33> *
| 34>
| 35>                          ****END OF INPUT****
 Total Charge           Charge          ....    0
 Multiplicity           Mult            ....    1
 Number of Electrons    NEL             ....   56
 Basis Dimension        Dim             ....  168

MULLIKEN ATOMIC CHARGES
-----------------------
   0 C :    0.056053
   1 C :   -0.145674
   2 C :    0.053513
   3 C :    0.011446
   4 C :    0.050711
   5 C :   -0.160518
   6 C :    0.070441
   7 H :    0.015846
   8 H :    0.007830
   9 H :    0.015501
  10 H :   -0.004656
  11 H :   -0.004439
  12 H :    0.001459
  13 H :    0.003576
  14 H :    0.001551
  15 H :    0.003968
  16 H :   -0.005168
  17 H :   -0.000647
  18 H :    0.006684
  19 H :    0.008617
  20 H :    0.013904
Sum of atomic charges:   -0.0000000

LOEWDIN ATOMIC CHARGES
----------------------
   0 C :   -0.059826
   1 C :   -0.043177
   2 C :   -0.036561
   3 C :   -0.043294
   4 C :   -0.037575
   5 C :   -0.044045
   6 C :   -0.058225
   7 H :    0.026836
   8 H :    0.023558
   9 H :    0.024244
  10 H :    0.020273
  11 H :    0.021264
  12 H :    0.021579
  13 H :    0.023860
  14 H :    0.023859
  15 H :    0.022304
  16 H :    0.020847
  17 H :    0.020840
  18 H :    0.023482
  19 H :    0.023224
  20 H :    0.026535

  Mayer bond orders larger than 0.1
B(  0-C ,  1-C ) :   1.0986 B(  0-C ,  7-H ) :   0.9583 B(  0-C ,  8-H ) :   0.9510
B(  0-C ,  9-H ) :   0.9547 B(  1-C ,  2-C ) :   1.0814 B(  1-C ,  5-C ) :   1.0167
B(  1-C , 10-H ) :   0.9026 B(  2-C ,  3-C ) :   1.1301 B(  2-C , 11-H ) :   0.9156
B(  2-C , 12-H ) :   0.9303 B(  3-C ,  4-C ) :   1.1291 B(  3-C , 13-H ) :   0.9258
B(  3-C , 14-H ) :   0.9239 B(  4-C ,  5-C ) :   1.0796 B(  4-C , 15-H ) :   0.9287
B(  4-C , 16-H ) :   0.9169 B(  5-C ,  6-C ) :   1.1033 B(  5-C , 17-H ) :   0.9048
B(  6-C , 18-H ) :   0.9497 B(  6-C , 19-H ) :   0.9522 B(  6-C , 20-H ) :   0.9574

FINAL SINGLE POINT ENERGY      -274.588843158520

DIPOLE MOMENT
-------------
                                X             Y             Z
Electronic contribution:      1.17596       1.01799       0.87733
Nuclear contribution   :     -1.18732      -1.02467      -0.88424
                        -----------------------------------------
Total Dipole Moment    :     -0.01135      -0.00668      -0.00691
                        -----------------------------------------
Magnitude (a.u.)       :      0.01487
Magnitude (Debye)      :      0.03780

                             ****ORCA TERMINATED NORMALLY****
TOTAL RUN TIME: 0 days 0 hours 0 minutes 9 seconds 467 msec
