                         Program Version 3.0.3 - RELEASE   -
|  1> ! RI PBE def2-SVP def2-SVP/J NBO PAL2
|  2> % maxcore 2000
|  3> % output
|  4>     # printlevel mini
|  5>     print[ P_Basis ] 0
|  6>     print[ P_SCFInfo ] 1
|  7>     print[ P_SCFIterInfo ] 1
|  8>     print[ P_OrbEn ] 0
|  9>     print[ P_Cartesian ] 0
| 10> end
| 11> *xyz 0 1
| 12>  C        0.9153400000    -0.1993610000     0.0142960000
| 13>  C        2.4218680000    -0.1129000000     0.0714010000
| 14>  C        3.0831050000     1.0084040000     0.8964690000
| 15>  C        4.1723150000     0.0071760000     1.3407120000
| 16>  C        5.4517770000     0.1078560000     0.5342380000
| 17>  C        3.2035100000    -1.1343650000     0.9256310000
| 18>  C        3.7228960000    -2.4006220000     0.2861980000
| 19>  H        0.4867850000     0.6477170000    -0.5293270000
| 20>  H        0.4870590000    -0.1986670000     1.0214220000
| 21>  H        0.5851350000    -1.1135220000    -0.4879600000
| 22>  H        2.8292740000    -0.1099100000    -0.9460520000
| 23>  H        2.4448640000     1.3139880000     1.7302610000
| 24>  H        3.4153670000     1.9040780000     0.3656920000
| 25>  H        4.4170660000     0.0280210000     2.4063720000
| 26>  H        5.9861650000     1.0289100000     0.7828430000
| 27>  H        6.1244370000    -0.7302780000     0.7359350000
| 28>  H        5.2559590000     0.1245410000    -0.5417770000
| 29>  H        2.5884010000    -1.3917350000     1.7963050000
| 30>  H        4.3492900000    -2.1845500000    -0.5831670000
| 31>  H        2.8961030000    -3.0321980000    -0.0518830000
| 32>  H        4.3192730000    -2.9910840000     0.9879800000
| 33> *
| 34>
| 35>                          ****END OF INPUT****
 Total Charge           Charge          ....    0
 Multiplicity           Mult            ....    1
 Number of Electrons    NEL             ....   56
 Basis Dimension        Dim             ....  168

MULLIKEN ATOMIC CHARGES
-----------------------
   0 C :    0.070966
   1 C :   -0.175102
   2 C :    0.134018
   3 C :   -0.163322
   4 C :    0.043313
   5 C :   -0.077515
   6 C :    0.064613
   7 H :    0.019085
   8 H :    0.002734
   9 H :    0.015361
  10 H :   -0.004603
  11 H :   -0.007612
  12 H :   -0.004432
  13 H :   -0.004082
  14 H :    0.020047
  15 H :    0.021353
  16 H :    0.012835
  17 H :   -0.012488
  18 H :    0.006736
  19 H :    0.017532
  20 H :    0.020568
Sum of atomic charges:   -0.0000000

LOEWDIN ATOMIC CHARGES
----------------------
   0 C :   -0.064447
   1 C :   -0.034543
   2 C :   -0.024953
   3 C :   -0.034161
   4 C :   -0.062758
   5 C :   -0.033145
   6 C :   -0.068904
   7 H :    0.027454
   8 H :    0.021189
   9 H :    0.026279
  10 H :    0.019951
  11 H :    0.021082
  12 H :    0.013417
  13 H :    0.014601
  14 H :    0.028331
  15 H :    0.026362
  16 H :    0.022382
  17 H :    0.021865
  18 H :    0.022933
  19 H :    0.028801
  20 H :    0.028264

  Mayer bond orders larger than 0.1
B(  0-C ,  1-C ) :   1.1039 B(  0-C ,  7-H ) :   0.9574 B(  0-C ,  8-H ) :   0.9480
B(  0-C ,  9-H ) :   0.9570 B(  1-C ,  2-C ) :   1.0859 B(  1-C ,  5-C ) :   1.0437
B(  1-C , 10-H ) :   0.8988 B(  2-C ,  3-C ) :   1.0961 B(  2-C , 11-H ) :   0.9046
B(  2-C , 12-H ) :   0.9221 B(  3-C ,  4-C ) :   1.0876 B(  3-C ,  5-C ) :   1.0452
B(  3-C , 13-H ) :   0.9087 B(  4-C , 14-H ) :   0.9536 B(  4-C , 15-H ) :   0.9494
B(  4-C , 16-H ) :   0.9557 B(  5-C ,  6-C ) :   1.1264 B(  5-C , 17-H ) :   0.8860
B(  6-C , 18-H ) :   0.9390 B(  6-C , 19-H ) :   0.9511 B(  6-C , 20-H ) :   0.9538

FINAL SINGLE POINT ENERGY      -274.563361951394

DIPOLE MOMENT
-------------
                                X             Y             Z
Electronic contribution:     -0.20553       0.96698       1.15733
Nuclear contribution   :      0.19566      -1.00985      -1.16584
                        -----------------------------------------
Total Dipole Moment    :     -0.00987      -0.04287      -0.00851
                        -----------------------------------------
Magnitude (a.u.)       :      0.04481
Magnitude (Debye)      :      0.11390

                             ****ORCA TERMINATED NORMALLY****
TOTAL RUN TIME: 0 days 0 hours 0 minutes 9 seconds 145 msec
