                         Program Version 3.0.3 - RELEASE   -
|  1> ! RI PBE def2-SVP def2-SVP/J NBO PAL2
|  2> % maxcore 2000
|  3> % output
|  4>     # printlevel mini
|  5>     print[ P_Basis ] 0
|  6>     print[ P_SCFInfo ] 1
|  7>     print[ P_SCFIterInfo ] 1
|  8>     print[ P_OrbEn ] 0
|  9>     print[ P_Cartesian ] 0
| 10> end
| 11> *xyz 0 1
| 12>  C        1.0380290000     0.0606590000     0.0998160000
| 13>  C        2.5535580000     0.0173010000    -0.0602320000
| 14>  C        3.0568270000    -1.3763600000    -0.4472930000
| 15>  C        2.7210640000    -1.7493830000    -1.8863890000
| 16>  C        3.2407460000    -0.7027210000    -2.8640590000
| 17>  C        2.7247900000     0.6867380000    -2.5110710000
| 18>  C        3.0605410000     1.0512860000    -1.0698030000
| 19>  H        0.7054930000    -0.6569700000     0.8548220000
| 20>  H        0.5148710000    -0.1767720000    -0.8292250000
| 21>  H        0.7081080000     1.0540030000     0.4160840000
| 22>  H        2.9869720000     0.2668780000     0.9156460000
| 23>  H        2.6505130000    -2.1232120000     0.2430310000
| 24>  H        4.1468090000    -1.4017480000    -0.3252050000
| 25>  H        1.6356800000    -1.8486100000    -2.0036630000
| 26>  H        3.1428810000    -2.7312360000    -2.1221530000
| 27>  H        2.9623280000    -0.9651920000    -3.8892940000
| 28>  H        4.3380810000    -0.6959290000    -2.8310280000
| 29>  H        1.6396090000     0.7204040000    -2.6624220000
| 30>  H        3.1492500000     1.4327700000    -3.1899090000
| 31>  H        2.6568800000     2.0393330000    -0.8243500000
| 32>  H        4.1506800000     1.1291620000    -0.9741930000
| 33> *
| 34>
| 35>                          ****END OF INPUT****
 Total Charge           Charge          ....    0
 Multiplicity           Mult            ....    1
 Number of Electrons    NEL             ....   56
 Basis Dimension        Dim             ....  168

MULLIKEN ATOMIC CHARGES
-----------------------
   0 C :    0.026229
   1 C :   -0.130942
   2 C :    0.020524
   3 C :    0.006616
   4 C :   -0.005712
   5 C :   -0.010149
   6 C :    0.036530
   7 H :    0.011968
   8 H :    0.018363
   9 H :    0.010282
  10 H :   -0.006967
  11 H :    0.002528
  12 H :    0.000122
  13 H :    0.004172
  14 H :    0.001082
  15 H :    0.001657
  16 H :    0.003741
  17 H :    0.005142
  18 H :    0.007248
  19 H :   -0.002885
  20 H :    0.000451
Sum of atomic charges:   -0.0000000

LOEWDIN ATOMIC CHARGES
----------------------
   0 C :   -0.060216
   1 C :   -0.045724
   2 C :   -0.039053
   3 C :   -0.043478
   4 C :   -0.042708
   5 C :   -0.045442
   6 C :   -0.037307
   7 H :    0.024821
   8 H :    0.019807
   9 H :    0.024821
  10 H :    0.023537
  11 H :    0.022052
  12 H :    0.021685
  13 H :    0.020970
  14 H :    0.023625
  15 H :    0.022438
  16 H :    0.021409
  17 H :    0.020841
  18 H :    0.024987
  19 H :    0.020890
  20 H :    0.022048

  Mayer bond orders larger than 0.1
B(  0-C ,  1-C ) :   1.0761 B(  0-C ,  7-H ) :   0.9587 B(  0-C ,  8-H ) :   0.9596
B(  0-C ,  9-H ) :   0.9577 B(  1-C ,  2-C ) :   1.0731 B(  1-C ,  6-C ) :   1.0700
B(  1-C , 10-H ) :   0.9017 B(  2-C ,  3-C ) :   1.0979 B(  2-C , 11-H ) :   0.9258
B(  2-C , 12-H ) :   0.9242 B(  3-C ,  4-C ) :   1.1001 B(  3-C , 13-H ) :   0.9282
B(  3-C , 14-H ) :   0.9245 B(  4-C ,  5-C ) :   1.1039 B(  4-C , 15-H ) :   0.9283
B(  4-C , 16-H ) :   0.9268 B(  5-C ,  6-C ) :   1.0987 B(  5-C , 17-H ) :   0.9292
B(  5-C , 18-H ) :   0.9241 B(  6-C , 19-H ) :   0.9261 B(  6-C , 20-H ) :   0.9234

FINAL SINGLE POINT ENERGY      -274.593909483812

DIPOLE MOMENT
-------------
                                X             Y             Z
Electronic contribution:      1.13208      -0.05037      -0.19828
Nuclear contribution   :     -1.12705       0.05450       0.20582
                        -----------------------------------------
Total Dipole Moment    :      0.00503       0.00412       0.00754
                        -----------------------------------------
Magnitude (a.u.)       :      0.00996
Magnitude (Debye)      :      0.02532

                             ****ORCA TERMINATED NORMALLY****
TOTAL RUN TIME: 0 days 0 hours 0 minutes 9 seconds 269 msec
