                         Program Version 3.0.3 - RELEASE   -
|  1> ! RI PBE def2-SVP def2-SVP/J NBO PAL2
|  2> % maxcore 2000
|  3> % output
|  4>     # printlevel mini
|  5>     print[ P_Basis ] 0
|  6>     print[ P_SCFInfo ] 1
|  7>     print[ P_SCFIterInfo ] 1
|  8>     print[ P_OrbEn ] 0
|  9>     print[ P_Cartesian ] 0
| 10> end
| 11> *xyz 0 1
| 12>  C        1.0464160000    -0.2315950000     0.3047080000
| 13>  C        2.5161610000    -0.0515930000    -0.0609540000
| 14>  C        2.6274830000     0.3304310000    -1.5333250000
| 15>  C        3.1774750000     1.0220730000     0.8450440000
| 16>  C        4.4917750000     0.4171670000     1.3292420000
| 17>  C        4.1429000000    -1.0572890000     1.4872170000
| 18>  C        3.3254200000    -1.3440270000     0.2313790000
| 19>  H        0.4999360000     0.7113420000     0.2068460000
| 20>  H        0.9362130000    -0.5734690000     1.3379940000
| 21>  H        0.5642480000    -0.9668680000    -0.3464010000
| 22>  H        2.0380680000     1.2250750000    -1.7552730000
| 23>  H        3.6659540000     0.5342580000    -1.8103350000
| 24>  H        2.2646970000    -0.4772750000    -2.1762470000
| 25>  H        2.5327990000     1.2204750000     1.7077000000
| 26>  H        3.3088140000     1.9729600000     0.3221940000
| 27>  H        4.8657480000     0.8812690000     2.2448540000
| 28>  H        5.2697670000     0.5311630000     0.5658120000
| 29>  H        3.5281960000    -1.1957200000     2.3839180000
| 30>  H        5.0151440000    -1.7072760000     1.5887240000
| 31>  H        2.6768560000    -2.2182580000     0.3308740000
| 32>  H        4.0055390000    -1.5464640000    -0.6026610000
| 33> *
| 34>
| 35>                          ****END OF INPUT****
 Total Charge           Charge          ....    0
 Multiplicity           Mult            ....    1
 Number of Electrons    NEL             ....   56
 Basis Dimension        Dim             ....  168

MULLIKEN ATOMIC CHARGES
-----------------------
   0 C :    0.071103
   1 C :   -0.415377
   2 C :    0.071947
   3 C :    0.107482
   4 C :   -0.021091
   5 C :   -0.004104
   6 C :    0.114275
   7 H :    0.014566
   8 H :    0.007969
   9 H :    0.011138
  10 H :    0.010688
  11 H :    0.008245
  12 H :    0.013275
  13 H :   -0.004007
  14 H :   -0.003382
  15 H :    0.006662
  16 H :    0.010439
  17 H :    0.003463
  18 H :    0.008023
  19 H :   -0.002785
  20 H :   -0.008528
Sum of atomic charges:   -0.0000000

LOEWDIN ATOMIC CHARGES
----------------------
   0 C :   -0.052202
   1 C :   -0.061918
   2 C :   -0.051835
   3 C :   -0.028954
   4 C :   -0.041934
   5 C :   -0.040119
   6 C :   -0.028660
   7 H :    0.023177
   8 H :    0.021058
   9 H :    0.022041
  10 H :    0.021971
  11 H :    0.021004
  12 H :    0.022936
  13 H :    0.022925
  14 H :    0.021212
  15 H :    0.021412
  16 H :    0.021920
  17 H :    0.020639
  18 H :    0.021843
  19 H :    0.021372
  20 H :    0.022111

  Mayer bond orders larger than 0.1
B(  0-C ,  1-C ) :   1.0575 B(  0-C ,  7-H ) :   0.9565 B(  0-C ,  8-H ) :   0.9522
B(  0-C ,  9-H ) :   0.9559 B(  1-C ,  2-C ) :   1.0553 B(  1-C ,  3-C ) :   1.0411
B(  1-C ,  6-C ) :   1.0398 B(  2-C , 10-H ) :   0.9572 B(  2-C , 11-H ) :   0.9526
B(  2-C , 12-H ) :   0.9558 B(  3-C ,  4-C ) :   1.1140 B(  3-C , 13-H ) :   0.9180
B(  3-C , 14-H ) :   0.9263 B(  4-C ,  5-C ) :   1.0886 B(  4-C , 15-H ) :   0.9353
B(  4-C , 16-H ) :   0.9293 B(  5-C ,  6-C ) :   1.1134 B(  5-C , 17-H ) :   0.9287
B(  5-C , 18-H ) :   0.9347 B(  6-C , 19-H ) :   0.9253 B(  6-C , 20-H ) :   0.9164

FINAL SINGLE POINT ENERGY      -274.585948378117

DIPOLE MOMENT
-------------
                                X             Y             Z
Electronic contribution:      1.21366      -0.17761       0.99171
Nuclear contribution   :     -1.19158       0.17744      -0.97093
                        -----------------------------------------
Total Dipole Moment    :      0.02208      -0.00017       0.02077
                        -----------------------------------------
Magnitude (a.u.)       :      0.03031
Magnitude (Debye)      :      0.07705

                             ****ORCA TERMINATED NORMALLY****
TOTAL RUN TIME: 0 days 0 hours 0 minutes 9 seconds 628 msec
