                         Program Version 3.0.3 - RELEASE   -
|  1> ! RI PBE def2-SVP def2-SVP/J NBO PAL2
|  2> % maxcore 2000
|  3> % output
|  4>     # printlevel mini
|  5>     print[ P_Basis ] 0
|  6>     print[ P_SCFInfo ] 1
|  7>     print[ P_SCFIterInfo ] 1
|  8>     print[ P_OrbEn ] 0
|  9>     print[ P_Cartesian ] 0
| 10> end
| 11> *xyz 0 1
| 12>  C        1.0656510000     0.0771310000     0.0189510000
| 13>  C        2.5756930000     0.0693340000     0.0244000000
| 14>  C        3.3203370000     1.1480790000     0.8359960000
| 15>  C        4.3363670000     0.0750060000     1.3039950000
| 16>  C        4.7055360000     0.0901090000     2.7723290000
| 17>  C        5.5831070000     0.0584410000     0.4350560000
| 18>  C        3.3091660000    -0.9979960000     0.8608800000
| 19>  H        0.6730770000     0.9563150000    -0.5004130000
| 20>  H        0.6726470000     0.0910190000     1.0401760000
| 21>  H        0.6638840000    -0.8097250000    -0.4799350000
| 22>  H        2.9454100000     0.0554700000    -1.0053310000
| 23>  H        2.7080550000     1.5066090000     1.6692310000
| 24>  H        3.7164070000     2.0128710000     0.2972650000
| 25>  H        5.3036150000     0.9732920000     3.0187650000
| 26>  H        3.8137640000     0.1020830000     3.4046410000
| 27>  H        5.2944180000    -0.7933000000     3.0392480000
| 28>  H        6.2005960000     0.9419620000     0.6237700000
| 29>  H        5.3338580000     0.0473970000    -0.6293350000
| 30>  H        6.1913890000    -0.8268470000     0.6442790000
| 31>  H        2.6932850000    -1.3307170000     1.7021300000
| 32>  H        3.6961480000    -1.8791230000     0.3423930000
| 33> *
| 34>
| 35>                          ****END OF INPUT****
 Total Charge           Charge          ....    0
 Multiplicity           Mult            ....    1
 Number of Electrons    NEL             ....   56
 Basis Dimension        Dim             ....  168

MULLIKEN ATOMIC CHARGES
-----------------------
   0 C :    0.067497
   1 C :   -0.252267
   2 C :    0.211137
   3 C :   -0.485721
   4 C :    0.094430
   5 C :    0.084468
   6 C :    0.212170
   7 H :    0.018118
   8 H :    0.003081
   9 H :    0.017998
  10 H :    0.007449
  11 H :   -0.023086
  12 H :   -0.000915
  13 H :    0.013005
  14 H :    0.005381
  15 H :    0.013140
  16 H :    0.014785
  17 H :    0.009324
  18 H :    0.014559
  19 H :   -0.023112
  20 H :   -0.001438
Sum of atomic charges:   -0.0000000

LOEWDIN ATOMIC CHARGES
----------------------
   0 C :   -0.064169
   1 C :   -0.037477
   2 C :   -0.019509
   3 C :   -0.058537
   4 C :   -0.057047
   5 C :   -0.050534
   6 C :   -0.019364
   7 H :    0.027124
   8 H :    0.020582
   9 H :    0.027109
  10 H :    0.021565
  11 H :    0.019321
  12 H :    0.013733
  13 H :    0.025472
  14 H :    0.020645
  15 H :    0.025488
  16 H :    0.024573
  17 H :    0.023541
  18 H :    0.024537
  19 H :    0.019296
  20 H :    0.013652

  Mayer bond orders larger than 0.1
B(  0-C ,  1-C ) :   1.0952 B(  0-C ,  7-H ) :   0.9575 B(  0-C ,  8-H ) :   0.9498
B(  0-C ,  9-H ) :   0.9575 B(  1-C ,  2-C ) :   1.0884 B(  1-C ,  6-C ) :   1.0877
B(  1-C , 10-H ) :   0.9061 B(  2-C ,  3-C ) :   1.0493 B(  2-C , 11-H ) :   0.8860
B(  2-C , 12-H ) :   0.9240 B(  3-C ,  4-C ) :   1.0697 B(  3-C ,  5-C ) :   1.0350
B(  3-C ,  6-C ) :   1.0498 B(  4-C , 13-H ) :   0.9550 B(  4-C , 14-H ) :   0.9449
B(  4-C , 15-H ) :   0.9552 B(  5-C , 16-H ) :   0.9538 B(  5-C , 17-H ) :   0.9552
B(  5-C , 18-H ) :   0.9535 B(  6-C , 19-H ) :   0.8861 B(  6-C , 20-H ) :   0.9239

FINAL SINGLE POINT ENERGY      -274.564116574087

DIPOLE MOMENT
-------------
                                X             Y             Z
Electronic contribution:     -0.09107      -0.00572      -0.56277
Nuclear contribution   :      0.09225       0.00570       0.53315
                        -----------------------------------------
Total Dipole Moment    :      0.00119      -0.00002      -0.02962
                        -----------------------------------------
Magnitude (a.u.)       :      0.02964
Magnitude (Debye)      :      0.07535

                             ****ORCA TERMINATED NORMALLY****
TOTAL RUN TIME: 0 days 0 hours 0 minutes 9 seconds 430 msec
