                         Program Version 3.0.3 - RELEASE   -
|  1> ! RI PBE def2-SVP def2-SVP/J NBO PAL2
|  2> % maxcore 2000
|  3> % output
|  4>     # printlevel mini
|  5>     print[ P_Basis ] 0
|  6>     print[ P_SCFInfo ] 1
|  7>     print[ P_SCFIterInfo ] 1
|  8>     print[ P_OrbEn ] 0
|  9>     print[ P_Cartesian ] 0
| 10> end
| 11> *xyz 0 1
| 12>  C        0.8562260000    -0.0173960000     0.1080540000
| 13>  C        2.3667200000     0.0201930000    -0.0264300000
| 14>  C        3.0343350000     1.2119100000     0.6645100000
| 15>  C        4.4750440000     0.7585950000     0.8389370000
| 16>  C        4.3382360000    -0.6935950000     1.3034380000
| 17>  C        5.5798110000    -1.5392950000     1.0927310000
| 18>  C        3.0859170000    -1.2120720000     0.5637940000
| 19>  H        0.3936280000     0.8789530000    -0.3144630000
| 20>  H        0.5643690000    -0.0789460000     1.1613120000
| 21>  H        0.4302710000    -0.8836960000    -0.4052730000
| 22>  H        2.6144290000     0.0817650000    -1.0931680000
| 23>  H        2.5741770000     1.3743230000     1.6473250000
| 24>  H        2.9286340000     2.1415210000     0.0993210000
| 25>  H        5.0504750000     1.3728170000     1.5363590000
| 26>  H        4.9941710000     0.7900160000    -0.1272740000
| 27>  H        4.1162230000    -0.6723320000     2.3773690000
| 28>  H        6.4407510000    -1.1277250000     1.6269100000
| 29>  H        5.8378920000    -1.5871150000     0.0299850000
| 30>  H        5.4303890000    -2.5637950000     1.4441440000
| 31>  H        2.4270190000    -1.7572250000     1.2463940000
| 32>  H        3.3641640000    -1.9170100000    -0.2254560000
| 33> *
| 34>
| 35>                          ****END OF INPUT****
 Total Charge           Charge          ....    0
 Multiplicity           Mult            ....    1
 Number of Electrons    NEL             ....   56
 Basis Dimension        Dim             ....  168

MULLIKEN ATOMIC CHARGES
-----------------------
   0 C :    0.048372
   1 C :   -0.205343
   2 C :    0.059195
   3 C :    0.054741
   4 C :   -0.216051
   5 C :    0.057505
   6 C :    0.125343
   7 H :    0.013118
   8 H :    0.010184
   9 H :    0.018876
  10 H :    0.003815
  11 H :   -0.005527
  12 H :    0.004415
  13 H :    0.007898
  14 H :   -0.006363
  15 H :    0.004394
  16 H :    0.012497
  17 H :    0.010288
  18 H :    0.016083
  19 H :   -0.006459
  20 H :   -0.006981
Sum of atomic charges:   -0.0000000

LOEWDIN ATOMIC CHARGES
----------------------
   0 C :   -0.059773
   1 C :   -0.045524
   2 C :   -0.037225
   3 C :   -0.037838
   4 C :   -0.046143
   5 C :   -0.059655
   6 C :   -0.032692
   7 H :    0.024721
   8 H :    0.021588
   9 H :    0.025448
  10 H :    0.023873
  11 H :    0.020182
  12 H :    0.021072
  13 H :    0.021590
  14 H :    0.020231
  15 H :    0.024166
  16 H :    0.024798
  17 H :    0.021758
  18 H :    0.025077
  19 H :    0.022103
  20 H :    0.022242

  Mayer bond orders larger than 0.1
B(  0-C ,  1-C ) :   1.0849 B(  0-C ,  7-H ) :   0.9565 B(  0-C ,  8-H ) :   0.9560
B(  0-C ,  9-H ) :   0.9612 B(  1-C ,  2-C ) :   1.0848 B(  1-C ,  6-C ) :   1.0814
B(  1-C , 10-H ) :   0.9048 B(  2-C ,  3-C ) :   1.0829 B(  2-C , 11-H ) :   0.9178
B(  2-C , 12-H ) :   0.9338 B(  3-C ,  4-C ) :   1.0856 B(  3-C , 13-H ) :   0.9344
B(  3-C , 14-H ) :   0.9165 B(  4-C ,  5-C ) :   1.0917 B(  4-C ,  6-C ) :   1.0815
B(  4-C , 15-H ) :   0.9038 B(  5-C , 16-H ) :   0.9547 B(  5-C , 17-H ) :   0.9533
B(  5-C , 18-H ) :   0.9590 B(  6-C , 19-H ) :   0.9192 B(  6-C , 20-H ) :   0.9171

FINAL SINGLE POINT ENERGY      -274.588076819839

DIPOLE MOMENT
-------------
                                X             Y             Z
Electronic contribution:      0.24749       0.81658       0.06874
Nuclear contribution   :     -0.24581      -0.80746      -0.06956
                        -----------------------------------------
Total Dipole Moment    :      0.00168       0.00912      -0.00082
                        -----------------------------------------
Magnitude (a.u.)       :      0.00931
Magnitude (Debye)      :      0.02367

                             ****ORCA TERMINATED NORMALLY****
TOTAL RUN TIME: 0 days 0 hours 0 minutes 9 seconds 405 msec
