                         Program Version 3.0.3 - RELEASE   -
|  1> ! RI PBE def2-SVP def2-SVP/J NBO PAL2
|  2> % maxcore 2000
|  3> % output
|  4>     # printlevel mini
|  5>     print[ P_Basis ] 0
|  6>     print[ P_SCFInfo ] 1
|  7>     print[ P_SCFIterInfo ] 1
|  8>     print[ P_OrbEn ] 0
|  9>     print[ P_Cartesian ] 0
| 10> end
| 11> *xyz 0 1
| 12>  C        0.9188300000     0.1931700000     0.2908130000
| 13>  C        2.2602410000     0.2169140000    -0.4254920000
| 14>  C        3.2004670000     1.2556730000     0.1226780000
| 15>  C        4.3141790000     1.7988570000    -0.7218450000
| 16>  C        3.1495690000     2.6730370000    -0.3638270000
| 17>  C        3.3203540000     3.8235320000     0.5905140000
| 18>  C        2.0211460000     4.2306950000     1.2681760000
| 19>  H        0.2553540000    -0.5683030000    -0.1260370000
| 20>  H        0.4143410000     1.1597180000     0.2109210000
| 21>  H        1.0463850000    -0.0248900000     1.3548420000
| 22>  H        2.1060770000     0.4079960000    -1.4937250000
| 23>  H        2.7304720000    -0.7712440000    -0.3597530000
| 24>  H        3.4308680000     1.1408200000     1.1800470000
| 25>  H        4.3939700000     1.4398440000    -1.7417540000
| 26>  H        5.2657990000     2.0082540000    -0.2464000000
| 27>  H        2.4404830000     2.8574880000    -1.1684850000
| 28>  H        3.7411230000     4.6822970000     0.0544390000
| 29>  H        4.0623060000     3.5470940000     1.3484740000
| 30>  H        1.2742270000     4.5386980000     0.5311440000
| 31>  H        2.1724980000     5.0665390000     1.9553980000
| 32>  H        1.5983110000     3.3988220000     1.8376630000
| 33> *
| 34>
| 35>                          ****END OF INPUT****
 Total Charge           Charge          ....    0
 Multiplicity           Mult            ....    1
 Number of Electrons    NEL             ....   56
 Basis Dimension        Dim             ....  168

MULLIKEN ATOMIC CHARGES
-----------------------
   0 C :   -0.019211
   1 C :    0.052037
   2 C :   -0.133246
   3 C :    0.030935
   4 C :   -0.140628
   5 C :    0.056226
   6 C :   -0.019333
   7 H :    0.020180
   8 H :    0.022745
   9 H :    0.016427
  10 H :   -0.005583
  11 H :    0.010091
  12 H :    0.007966
  13 H :    0.015475
  14 H :    0.016010
  15 H :    0.009536
  16 H :    0.010591
  17 H :   -0.007283
  18 H :    0.015533
  19 H :    0.021704
  20 H :    0.019829
Sum of atomic charges:    0.0000000

LOEWDIN ATOMIC CHARGES
----------------------
   0 C :   -0.068671
   1 C :   -0.037743
   2 C :   -0.042000
   3 C :   -0.043972
   4 C :   -0.042926
   5 C :   -0.037338
   6 C :   -0.068290
   7 H :    0.025945
   8 H :    0.024924
   9 H :    0.024731
  10 H :    0.023830
  11 H :    0.025425
  12 H :    0.022262
  13 H :    0.023735
  14 H :    0.023707
  15 H :    0.022389
  16 H :    0.025757
  17 H :    0.023347
  18 H :    0.024573
  19 H :    0.025996
  20 H :    0.024318

  Mayer bond orders larger than 0.1
B(  0-C ,  1-C ) :   1.1229 B(  0-C ,  7-H ) :   0.9587 B(  0-C ,  8-H ) :   0.9647
B(  0-C ,  9-H ) :   0.9616 B(  1-C ,  2-C ) :   1.0800 B(  1-C , 10-H ) :   0.9178
B(  1-C , 11-H ) :   0.9296 B(  2-C ,  3-C ) :   1.0022 B(  2-C ,  4-C ) :   0.9469
B(  2-C , 12-H ) :   0.9348 B(  3-C ,  4-C ) :   1.0021 B(  3-C , 13-H ) :   0.9317
B(  3-C , 14-H ) :   0.9340 B(  4-C ,  5-C ) :   1.0804 B(  4-C , 15-H ) :   0.9363
B(  5-C ,  6-C ) :   1.1202 B(  5-C , 16-H ) :   0.9287 B(  5-C , 17-H ) :   0.9186
B(  6-C , 18-H ) :   0.9619 B(  6-C , 19-H ) :   0.9593 B(  6-C , 20-H ) :   0.9650

FINAL SINGLE POINT ENERGY      -274.559086365691

DIPOLE MOMENT
-------------
                                X             Y             Z
Electronic contribution:      2.73967      -0.39929      -1.44847
Nuclear contribution   :     -2.76136       0.40117       1.45785
                        -----------------------------------------
Total Dipole Moment    :     -0.02170       0.00188       0.00938
                        -----------------------------------------
Magnitude (a.u.)       :      0.02371
Magnitude (Debye)      :      0.06027

                             ****ORCA TERMINATED NORMALLY****
TOTAL RUN TIME: 0 days 0 hours 0 minutes 8 seconds 862 msec
