                         Program Version 3.0.3 - RELEASE   -
|  1> ! RI PBE def2-SVP def2-SVP/J NBO PAL2
|  2> % maxcore 2000
|  3> % output
|  4>     # printlevel mini
|  5>     print[ P_Basis ] 0
|  6>     print[ P_SCFInfo ] 1
|  7>     print[ P_SCFIterInfo ] 1
|  8>     print[ P_OrbEn ] 0
|  9>     print[ P_Cartesian ] 0
| 10> end
| 11> *xyz 0 1
| 12>  C        1.8349530000    -0.8423180000     0.7397630000
| 13>  C        1.7129480000     0.2384500000    -0.3243390000
| 14>  C        2.4655120000    -0.1126780000    -1.5799280000
| 15>  C        1.8324720000    -0.9528600000    -2.6554360000
| 16>  C        2.1784510000     0.4831520000    -2.9314530000
| 17>  C        1.0608410000     1.4792890000    -3.1040320000
| 18>  C        3.3644470000     0.7485170000    -3.8234400000
| 19>  H        1.2848580000    -0.5762350000     1.6455600000
| 20>  H        2.8797940000    -1.0018510000     1.0201380000
| 21>  H        1.4432750000    -1.7952860000     0.3744730000
| 22>  H        0.6560730000     0.3999970000    -0.5545040000
| 23>  H        2.0869510000     1.1887370000     0.0747230000
| 24>  H        3.5196610000    -0.3173820000    -1.4025610000
| 25>  H        0.7829730000    -1.2005100000    -2.5328880000
| 26>  H        2.4212330000    -1.7287440000    -3.1314460000
| 27>  H        0.1917440000     1.2416170000    -2.4895500000
| 28>  H        0.7294490000     1.5004510000    -4.1468310000
| 29>  H        1.3905270000     2.4898260000    -2.8422230000
| 30>  H        4.1510060000     0.0058310000    -3.6697880000
| 31>  H        3.7930150000     1.7361230000    -3.6247390000
| 32>  H        3.0767170000     0.7177740000    -4.8792800000
| 33> *
| 34>
| 35>                          ****END OF INPUT****
 Total Charge           Charge          ....    0
 Multiplicity           Mult            ....    1
 Number of Electrons    NEL             ....   56
 Basis Dimension        Dim             ....  168

MULLIKEN ATOMIC CHARGES
-----------------------
   0 C :   -0.004549
   1 C :    0.062444
   2 C :   -0.128477
   3 C :    0.039270
   4 C :   -0.296863
   5 C :    0.100906
   6 C :    0.079908
   7 H :    0.014245
   8 H :    0.014467
   9 H :    0.015157
  10 H :   -0.003327
  11 H :    0.006080
  12 H :    0.004350
  13 H :    0.014812
  14 H :    0.014131
  15 H :    0.000844
  16 H :    0.014368
  17 H :    0.014237
  18 H :    0.005610
  19 H :    0.015583
  20 H :    0.016803
Sum of atomic charges:    0.0000000

LOEWDIN ATOMIC CHARGES
----------------------
   0 C :   -0.062777
   1 C :   -0.039255
   2 C :   -0.039863
   3 C :   -0.042482
   4 C :   -0.061176
   5 C :   -0.047228
   6 C :   -0.047096
   7 H :    0.024516
   8 H :    0.023698
   9 H :    0.024583
  10 H :    0.022767
  11 H :    0.024825
  12 H :    0.022326
  13 H :    0.022140
  14 H :    0.021508
  15 H :    0.023055
  16 H :    0.027974
  17 H :    0.026210
  18 H :    0.024724
  19 H :    0.025972
  20 H :    0.025578

  Mayer bond orders larger than 0.1
B(  0-C ,  1-C ) :   1.1174 B(  0-C ,  7-H ) :   0.9583 B(  0-C ,  8-H ) :   0.9646
B(  0-C ,  9-H ) :   0.9674 B(  1-C ,  2-C ) :   1.0891 B(  1-C , 10-H ) :   0.9148
B(  1-C , 11-H ) :   0.9277 B(  2-C ,  3-C ) :   0.9865 B(  2-C ,  4-C ) :   0.9084
B(  2-C , 12-H ) :   0.9350 B(  3-C ,  4-C ) :   0.9811 B(  3-C , 13-H ) :   0.9372
B(  3-C , 14-H ) :   0.9355 B(  4-C ,  5-C ) :   1.1020 B(  4-C ,  6-C ) :   1.0891
B(  5-C , 15-H ) :   0.9410 B(  5-C , 16-H ) :   0.9511 B(  5-C , 17-H ) :   0.9563
B(  6-C , 18-H ) :   0.9438 B(  6-C , 19-H ) :   0.9582 B(  6-C , 20-H ) :   0.9564

FINAL SINGLE POINT ENERGY      -274.559583804718

DIPOLE MOMENT
-------------
                                X             Y             Z
Electronic contribution:      0.38791      -0.40638      -0.95268
Nuclear contribution   :     -0.39522       0.46372       0.96305
                        -----------------------------------------
Total Dipole Moment    :     -0.00731       0.05735       0.01038
                        -----------------------------------------
Magnitude (a.u.)       :      0.05873
Magnitude (Debye)      :      0.14929

                             ****ORCA TERMINATED NORMALLY****
TOTAL RUN TIME: 0 days 0 hours 0 minutes 8 seconds 950 msec
