                         Program Version 3.0.3 - RELEASE   -
|  1> ! RI PBE def2-SVP def2-SVP/J NBO PAL2
|  2> % maxcore 2000
|  3> % output
|  4>     # printlevel mini
|  5>     print[ P_Basis ] 0
|  6>     print[ P_SCFInfo ] 1
|  7>     print[ P_SCFIterInfo ] 1
|  8>     print[ P_OrbEn ] 0
|  9>     print[ P_Cartesian ] 0
| 10> end
| 11> *xyz 0 1
| 12>  C        1.2486590000     0.0128910000    -0.4301800000
| 13>  C        2.6644000000     0.0861900000     0.1202860000
| 14>  C        3.0213920000    -0.9588750000     1.1634910000
| 15>  C        2.1685430000    -1.1509250000     2.4341490000
| 16>  C        2.5066950000    -2.6511900000     2.3721260000
| 17>  C        2.8512810000    -2.4698520000     0.8803680000
| 18>  C        3.9997550000    -3.2441340000     0.2795290000
| 19>  H        1.0800070000     0.8021640000    -1.1664720000
| 20>  H        0.5000050000     0.1362220000     0.3562090000
| 21>  H        1.0538720000    -0.9412650000    -0.9260940000
| 22>  H        3.3768390000     0.0058030000    -0.7096740000
| 23>  H        2.8288810000     1.0792510000     0.5553540000
| 24>  H        4.0616250000    -0.7963030000     1.4729910000
| 25>  H        1.1074730000    -0.9783710000     2.2395340000
| 26>  H        2.4532240000    -0.5931650000     3.3281880000
| 27>  H        1.7269380000    -3.3678720000     2.6364080000
| 28>  H        3.4047080000    -2.8813400000     2.9527870000
| 29>  H        1.9433670000    -2.6264040000     0.2875390000
| 30>  H        4.9122860000    -3.1036960000     0.8669540000
| 31>  H        4.2094650000    -2.9210940000    -0.7445220000
| 32>  H        3.7858770000    -4.3165370000     0.2488270000
| 33> *
| 34>
| 35>                          ****END OF INPUT****
 Total Charge           Charge          ....    0
 Multiplicity           Mult            ....    1
 Number of Electrons    NEL             ....   56
 Basis Dimension        Dim             ....  168

MULLIKEN ATOMIC CHARGES
-----------------------
   0 C :   -0.057616
   1 C :    0.066303
   2 C :   -0.135857
   3 C :    0.045562
   4 C :    0.045908
   5 C :   -0.165490
   6 C :    0.068326
   7 H :    0.019564
   8 H :    0.025421
   9 H :    0.025359
  10 H :    0.008413
  11 H :    0.004285
  12 H :   -0.010113
  13 H :    0.007160
  14 H :    0.003279
  15 H :    0.005465
  16 H :    0.001865
  17 H :    0.000391
  18 H :    0.005673
  19 H :    0.014571
  20 H :    0.021531
Sum of atomic charges:   -0.0000000

LOEWDIN ATOMIC CHARGES
----------------------
   0 C :   -0.072663
   1 C :   -0.047676
   2 C :   -0.032940
   3 C :   -0.031191
   4 C :   -0.029472
   5 C :   -0.037860
   6 C :   -0.066613
   7 H :    0.028466
   8 H :    0.024214
   9 H :    0.023339
  10 H :    0.026150
  11 H :    0.025524
  12 H :    0.022666
  13 H :    0.020453
  14 H :    0.014091
  15 H :    0.014594
  16 H :    0.020895
  17 H :    0.021270
  18 H :    0.022185
  19 H :    0.026562
  20 H :    0.028007

  Mayer bond orders larger than 0.1
B(  0-C ,  1-C ) :   1.1181 B(  0-C ,  7-H ) :   0.9566 B(  0-C ,  8-H ) :   0.9625
B(  0-C ,  9-H ) :   0.9637 B(  1-C ,  2-C ) :   1.0836 B(  1-C , 10-H ) :   0.9255
B(  1-C , 11-H ) :   0.9272 B(  2-C ,  3-C ) :   1.0818 B(  2-C ,  5-C ) :   1.0379
B(  2-C , 12-H ) :   0.8941 B(  3-C ,  4-C ) :   1.1241 B(  3-C , 13-H ) :   0.9156
B(  3-C , 14-H ) :   0.9299 B(  4-C ,  5-C ) :   1.0820 B(  4-C , 15-H ) :   0.9263
B(  4-C , 16-H ) :   0.9217 B(  5-C ,  6-C ) :   1.1075 B(  5-C , 17-H ) :   0.8956
B(  6-C , 18-H ) :   0.9482 B(  6-C , 19-H ) :   0.9545 B(  6-C , 20-H ) :   0.9569

FINAL SINGLE POINT ENERGY      -274.560751683473

DIPOLE MOMENT
-------------
                                X             Y             Z
Electronic contribution:      0.39702      -0.16875       1.72145
Nuclear contribution   :     -0.38310       0.20018      -1.80069
                        -----------------------------------------
Total Dipole Moment    :      0.01392       0.03143      -0.07924
                        -----------------------------------------
Magnitude (a.u.)       :      0.08637
Magnitude (Debye)      :      0.21955

                             ****ORCA TERMINATED NORMALLY****
TOTAL RUN TIME: 0 days 0 hours 0 minutes 9 seconds 350 msec
