                         Program Version 3.0.3 - RELEASE   -
|  1> ! RI PBE def2-SVP def2-SVP/J NBO PAL2
|  2> % maxcore 2000
|  3> % output
|  4>     # printlevel mini
|  5>     print[ P_Basis ] 0
|  6>     print[ P_SCFInfo ] 1
|  7>     print[ P_SCFIterInfo ] 1
|  8>     print[ P_OrbEn ] 0
|  9>     print[ P_Cartesian ] 0
| 10> end
| 11> *xyz 0 1
| 12>  C        1.1117650000     0.3388690000    -0.4084570000
| 13>  C        2.5425440000    -0.0338790000    -0.0493610000
| 14>  C        2.9096940000     0.2350190000     1.3940860000
| 15>  C        2.1366210000    -0.5731070000     2.4050540000
| 16>  C        4.3554380000     0.5306290000     1.6774110000
| 17>  C        3.3427700000     1.6402620000     1.7219100000
| 18>  C        3.0064510000     2.3378040000     3.0101040000
| 19>  H        0.9178460000     0.1738260000    -1.4709210000
| 20>  H        0.9157840000     1.3928770000    -0.1928690000
| 21>  H        0.3857700000    -0.2548120000     0.1517920000
| 22>  H        3.2321050000     0.5231040000    -0.6928270000
| 23>  H        2.7124880000    -1.0953960000    -0.2690500000
| 24>  H        1.0722820000    -0.3215770000     2.4004320000
| 25>  H        2.5067360000    -0.4190140000     3.4193250000
| 26>  H        2.2262450000    -1.6414840000     2.1839890000
| 27>  H        5.0615240000     0.4992150000     0.8550990000
| 28>  H        4.7601760000     0.1931090000     2.6259450000
| 29>  H        3.3606060000     2.3056900000     0.8619350000
| 30>  H        3.0453120000     1.6597530000     3.8645060000
| 31>  H        2.0043990000     2.7755830000     2.9793670000
| 32>  H        3.7152350000     3.1472280000     3.2066380000
| 33> *
| 34>
| 35>                          ****END OF INPUT****
 Total Charge           Charge          ....    0
 Multiplicity           Mult            ....    1
 Number of Electrons    NEL             ....   56
 Basis Dimension        Dim             ....  168

MULLIKEN ATOMIC CHARGES
-----------------------
   0 C :   -0.012412
   1 C :    0.063418
   2 C :   -0.288591
   3 C :    0.091095
   4 C :    0.041664
   5 C :   -0.150366
   6 C :    0.087488
   7 H :    0.019405
   8 H :    0.015385
   9 H :    0.017226
  10 H :   -0.009509
  11 H :    0.005051
  12 H :    0.022423
  13 H :    0.003554
  14 H :    0.019249
  15 H :    0.014805
  16 H :    0.009643
  17 H :    0.010981
  18 H :   -0.001418
  19 H :    0.018958
  20 H :    0.021952
Sum of atomic charges:   -0.0000000

LOEWDIN ATOMIC CHARGES
----------------------
   0 C :   -0.067768
   1 C :   -0.029373
   2 C :   -0.059756
   3 C :   -0.050906
   4 C :   -0.040206
   5 C :   -0.043653
   6 C :   -0.058146
   7 H :    0.026968
   8 H :    0.024923
   9 H :    0.023575
  10 H :    0.022577
  11 H :    0.023262
  12 H :    0.026381
  13 H :    0.024993
  14 H :    0.029548
  15 H :    0.021508
  16 H :    0.021166
  17 H :    0.022892
  18 H :    0.023979
  19 H :    0.027967
  20 H :    0.030068

  Mayer bond orders larger than 0.1
B(  0-C ,  1-C ) :   1.1231 B(  0-C ,  7-H ) :   0.9579 B(  0-C ,  8-H ) :   0.9633
B(  0-C ,  9-H ) :   0.9597 B(  1-C ,  2-C ) :   1.0760 B(  1-C , 10-H ) :   0.9111
B(  1-C , 11-H ) :   0.9261 B(  2-C ,  3-C ) :   1.0968 B(  2-C ,  4-C ) :   0.9731
B(  2-C ,  5-C ) :   0.9185 B(  3-C , 12-H ) :   0.9525 B(  3-C , 13-H ) :   0.9371
B(  3-C , 14-H ) :   0.9510 B(  4-C ,  5-C ) :   1.0028 B(  4-C , 15-H ) :   0.9306
B(  4-C , 16-H ) :   0.9380 B(  5-C ,  6-C ) :   1.1145 B(  5-C , 17-H ) :   0.9322
B(  6-C , 18-H ) :   0.9435 B(  6-C , 19-H ) :   0.9570 B(  6-C , 20-H ) :   0.9532

FINAL SINGLE POINT ENERGY      -274.558829150125

DIPOLE MOMENT
-------------
                                X             Y             Z
Electronic contribution:      2.27200       0.01807      -0.32989
Nuclear contribution   :     -2.32491      -0.01052       0.33890
                        -----------------------------------------
Total Dipole Moment    :     -0.05291       0.00755       0.00901
                        -----------------------------------------
Magnitude (a.u.)       :      0.05420
Magnitude (Debye)      :      0.13776

                             ****ORCA TERMINATED NORMALLY****
TOTAL RUN TIME: 0 days 0 hours 0 minutes 9 seconds 32 msec
