                         Program Version 3.0.3 - RELEASE   -
|  1> ! RI PBE def2-SVP def2-SVP/J NBO PAL2
|  2> % maxcore 2000
|  3> % output
|  4>     # printlevel mini
|  5>     print[ P_Basis ] 0
|  6>     print[ P_SCFInfo ] 1
|  7>     print[ P_SCFIterInfo ] 1
|  8>     print[ P_OrbEn ] 0
|  9>     print[ P_Cartesian ] 0
| 10> end
| 11> *xyz 0 1
| 12>  C        0.9961290000     0.5382330000    -0.4269980000
| 13>  C        2.0490710000    -0.3763830000     0.1812560000
| 14>  C        2.7116970000    -1.2510150000    -0.8494280000
| 15>  C        3.3884120000    -2.5542700000    -0.5135230000
| 16>  C        3.4684840000    -3.0935650000     0.8877950000
| 17>  C        2.1005370000    -2.5519850000    -1.2841760000
| 18>  C        2.0591540000    -2.9499590000    -2.7321500000
| 19>  H        0.5283310000     1.1706140000     0.3315120000
| 20>  H        0.2081940000    -0.0430540000    -0.9132270000
| 21>  H        1.4344180000     1.1954160000    -1.1833230000
| 22>  H        1.5850960000    -0.9961760000     0.9541250000
| 23>  H        2.8080090000     0.2277070000     0.6924560000
| 24>  H        3.1904520000    -0.6879360000    -1.6485520000
| 25>  H        4.2708640000    -2.7652400000    -1.1129080000
| 26>  H        4.2860300000    -2.6321310000     1.4495390000
| 27>  H        2.5457930000    -2.9195430000     1.4444160000
| 28>  H        3.6426950000    -4.1732190000     0.8768980000
| 29>  H        1.2306550000    -2.8549740000    -0.7042290000
| 30>  H        2.9598370000    -2.6132200000    -3.2527090000
| 31>  H        1.1985660000    -2.5099060000    -3.2444980000
| 32>  H        1.9975740000    -4.0360740000    -2.8484860000
| 33> *
| 34>
| 35>                          ****END OF INPUT****
 Total Charge           Charge          ....    0
 Multiplicity           Mult            ....    1
 Number of Electrons    NEL             ....   56
 Basis Dimension        Dim             ....  168

MULLIKEN ATOMIC CHARGES
-----------------------
   0 C :   -0.014958
   1 C :    0.064163
   2 C :   -0.101058
   3 C :   -0.117838
   4 C :    0.082103
   5 C :   -0.136607
   6 C :    0.081477
   7 H :    0.016365
   8 H :    0.018825
   9 H :    0.013974
  10 H :   -0.007398
  11 H :    0.010365
  12 H :   -0.002890
  13 H :    0.002716
  14 H :    0.018253
  15 H :    0.002385
  16 H :    0.021417
  17 H :    0.007396
  18 H :    0.003610
  19 H :    0.016318
  20 H :    0.021383
Sum of atomic charges:   -0.0000000

LOEWDIN ATOMIC CHARGES
----------------------
   0 C :   -0.064643
   1 C :   -0.038162
   2 C :   -0.040766
   3 C :   -0.042813
   4 C :   -0.058088
   5 C :   -0.045287
   6 C :   -0.056481
   7 H :    0.024772
   8 H :    0.024838
   9 H :    0.023374
  10 H :    0.021885
  11 H :    0.025448
  12 H :    0.020878
  13 H :    0.022589
  14 H :    0.027587
  15 H :    0.023796
  16 H :    0.029801
  17 H :    0.021670
  18 H :    0.025522
  19 H :    0.026519
  20 H :    0.027562

  Mayer bond orders larger than 0.1
B(  0-C ,  1-C ) :   1.1146 B(  0-C ,  7-H ) :   0.9597 B(  0-C ,  8-H ) :   0.9678
B(  0-C ,  9-H ) :   0.9651 B(  1-C ,  2-C ) :   1.0904 B(  1-C , 10-H ) :   0.9171
B(  1-C , 11-H ) :   0.9271 B(  2-C ,  3-C ) :   0.9404 B(  2-C ,  5-C ) :   0.9471
B(  2-C , 12-H ) :   0.9342 B(  3-C ,  4-C ) :   1.1154 B(  3-C ,  5-C ) :   0.9621
B(  3-C , 13-H ) :   0.9294 B(  4-C , 14-H ) :   0.9553 B(  4-C , 15-H ) :   0.9437
B(  4-C , 16-H ) :   0.9545 B(  5-C ,  6-C ) :   1.0990 B(  5-C , 17-H ) :   0.9362
B(  6-C , 18-H ) :   0.9470 B(  6-C , 19-H ) :   0.9589 B(  6-C , 20-H ) :   0.9585

FINAL SINGLE POINT ENERGY      -274.559861154488

DIPOLE MOMENT
-------------
                                X             Y             Z
Electronic contribution:      1.33009      -0.69783      -0.23609
Nuclear contribution   :     -1.33391       0.67493       0.25342
                        -----------------------------------------
Total Dipole Moment    :     -0.00382      -0.02290       0.01734
                        -----------------------------------------
Magnitude (a.u.)       :      0.02898
Magnitude (Debye)      :      0.07365

                             ****ORCA TERMINATED NORMALLY****
TOTAL RUN TIME: 0 days 0 hours 0 minutes 8 seconds 904 msec
