                         Program Version 3.0.3 - RELEASE   -
|  1> ! RI PBE def2-SVP def2-SVP/J NBO PAL2
|  2> % maxcore 2000
|  3> % output
|  4>     # printlevel mini
|  5>     print[ P_Basis ] 0
|  6>     print[ P_SCFInfo ] 1
|  7>     print[ P_SCFIterInfo ] 1
|  8>     print[ P_OrbEn ] 0
|  9>     print[ P_Cartesian ] 0
| 10> end
| 11> *xyz 0 1
| 12>  C        1.2399310000     0.1712420000     0.4080800000
| 13>  C        2.7036780000    -0.1394620000     0.1382380000
| 14>  C        2.9901800000    -0.8076140000    -1.2058800000
| 15>  C        2.5396520000     0.0463330000    -2.3732900000
| 16>  C        4.4566320000    -1.3107100000    -1.2619210000
| 17>  C        3.9744560000    -2.7167740000    -0.8604940000
| 18>  C        2.5409880000    -2.2939140000    -1.2291340000
| 19>  H        1.1055330000     0.5639450000     1.4186270000
| 20>  H        0.6174830000    -0.7235020000     0.3190120000
| 21>  H        0.8477240000     0.9173860000    -0.2863760000
| 22>  H        3.0868370000    -0.7847670000     0.9372980000
| 23>  H        3.2903020000     0.7860550000     0.1922180000
| 24>  H        1.4551670000     0.1848290000    -2.3799780000
| 25>  H        2.8169270000    -0.4195130000    -3.3225700000
| 26>  H        3.0033670000     1.0378120000    -2.3393570000
| 27>  H        5.1722920000    -0.8125240000    -0.6028840000
| 28>  H        4.8500700000    -1.2889800000    -2.2811570000
| 29>  H        4.0897530000    -2.9066160000     0.2080430000
| 30>  H        4.3993640000    -3.5624880000    -1.4027200000
| 31>  H        1.7377560000    -2.5839170000    -0.5479940000
| 32>  H        2.2670000000    -2.6133340000    -2.2376600000
| 33> *
| 34>
| 35>                          ****END OF INPUT****
 Total Charge           Charge          ....    0
 Multiplicity           Mult            ....    1
 Number of Electrons    NEL             ....   56
 Basis Dimension        Dim             ....  168

MULLIKEN ATOMIC CHARGES
-----------------------
   0 C :   -0.008940
   1 C :    0.064313
   2 C :   -0.459304
   3 C :    0.100622
   4 C :    0.123231
   5 C :   -0.023054
   6 C :    0.122451
   7 H :    0.016055
   8 H :    0.017600
   9 H :    0.020862
  10 H :   -0.007212
  11 H :    0.001511
  12 H :    0.017974
  13 H :    0.002738
  14 H :    0.005767
  15 H :   -0.000489
  16 H :   -0.007083
  17 H :    0.014287
  18 H :    0.004146
  19 H :    0.003829
  20 H :   -0.009304
Sum of atomic charges:   -0.0000000

LOEWDIN ATOMIC CHARGES
----------------------
   0 C :   -0.067755
   1 C :   -0.032772
   2 C :   -0.057637
   3 C :   -0.056133
   4 C :   -0.024154
   5 C :   -0.033789
   6 C :   -0.024173
   7 H :    0.027544
   8 H :    0.024110
   9 H :    0.023500
  10 H :    0.022007
  11 H :    0.022008
  12 H :    0.024793
  13 H :    0.021475
  14 H :    0.024719
  15 H :    0.014156
  16 H :    0.020481
  17 H :    0.020900
  18 H :    0.017168
  19 H :    0.012955
  20 H :    0.020597

  Mayer bond orders larger than 0.1
B(  0-C ,  1-C ) :   1.1193 B(  0-C ,  7-H ) :   0.9562 B(  0-C ,  8-H ) :   0.9607
B(  0-C ,  9-H ) :   0.9594 B(  1-C ,  2-C ) :   1.0196 B(  1-C , 10-H ) :   0.9257
B(  1-C , 11-H ) :   0.9221 B(  2-C ,  3-C ) :   1.0664 B(  2-C ,  4-C ) :   1.0567
B(  2-C ,  6-C ) :   1.0493 B(  3-C , 12-H ) :   0.9539 B(  3-C , 13-H ) :   0.9423
B(  3-C , 14-H ) :   0.9533 B(  4-C ,  5-C ) :   1.1420 B(  4-C , 15-H ) :   0.9253
B(  4-C , 16-H ) :   0.9084 B(  5-C ,  6-C ) :   1.1408 B(  5-C , 17-H ) :   0.9291
B(  5-C , 18-H ) :   0.9238 B(  6-C , 19-H ) :   0.9264 B(  6-C , 20-H ) :   0.9083

FINAL SINGLE POINT ENERGY      -274.558950927437

DIPOLE MOMENT
-------------
                                X             Y             Z
Electronic contribution:      1.71275      -1.50931      -0.34616
Nuclear contribution   :     -1.72835       1.52328       0.35612
                        -----------------------------------------
Total Dipole Moment    :     -0.01560       0.01397       0.00996
                        -----------------------------------------
Magnitude (a.u.)       :      0.02319
Magnitude (Debye)      :      0.05893

                             ****ORCA TERMINATED NORMALLY****
TOTAL RUN TIME: 0 days 0 hours 0 minutes 9 seconds 191 msec
