                         Program Version 3.0.3 - RELEASE   -
|  1> ! RI PBE def2-SVP def2-SVP/J NBO PAL2
|  2> % maxcore 2000
|  3> % output
|  4>     # printlevel mini
|  5>     print[ P_Basis ] 0
|  6>     print[ P_SCFInfo ] 1
|  7>     print[ P_SCFIterInfo ] 1
|  8>     print[ P_OrbEn ] 0
|  9>     print[ P_Cartesian ] 0
| 10> end
| 11> *xyz 0 1
| 12>  C        0.8029920000    -0.1241000000    -0.0157040000
| 13>  C        2.2618630000     0.1242570000    -0.3702580000
| 14>  C        2.9034750000     1.2750610000     0.3774450000
| 15>  C        2.9920010000     1.0643240000     1.8775150000
| 16>  C        3.7472540000     2.1104940000     2.6794360000
| 17>  C        3.9948140000     2.0042440000    -0.3474120000
| 18>  C        2.6469770000     2.6455880000    -0.1760340000
| 19>  H        0.3794530000    -0.9148380000    -0.6394480000
| 20>  H        0.2042900000     0.7782230000    -0.1676070000
| 21>  H        0.6824290000    -0.4312990000     1.0254680000
| 22>  H        2.3392670000     0.3245580000    -1.4443480000
| 23>  H        2.8452440000    -0.7868470000    -0.1878330000
| 24>  H        3.4552550000     0.0845690000     2.0512950000
| 25>  H        1.9738830000     0.9878100000     2.2750380000
| 26>  H        3.6986310000     1.8751580000     3.7449400000
| 27>  H        4.8035290000     2.1528390000     2.4052920000
| 28>  H        3.3256810000     3.1104800000     2.5506340000
| 29>  H        4.8201300000     2.4150360000     0.2201520000
| 30>  H        4.2690890000     1.6481610000    -1.3337520000
| 31>  H        2.0047350000     2.7252980000    -1.0458560000
| 32>  H        2.5722970000     3.4827950000     0.5069490000
| 33> *
| 34>
| 35>                          ****END OF INPUT****
 Total Charge           Charge          ....    0
 Multiplicity           Mult            ....    1
 Number of Electrons    NEL             ....   56
 Basis Dimension        Dim             ....  168

MULLIKEN ATOMIC CHARGES
-----------------------
   0 C :   -0.013706
   1 C :    0.060700
   2 C :   -0.288372
   3 C :    0.080976
   4 C :   -0.042226
   5 C :   -0.000612
   6 C :   -0.015343
   7 H :    0.018853
   8 H :    0.017332
   9 H :    0.018962
  10 H :   -0.008606
  11 H :    0.005061
  12 H :    0.002470
  13 H :    0.008549
  14 H :    0.021681
  15 H :    0.027367
  16 H :    0.021624
  17 H :    0.020448
  18 H :    0.017324
  19 H :    0.023149
  20 H :    0.024369
Sum of atomic charges:    0.0000000

LOEWDIN ATOMIC CHARGES
----------------------
   0 C :   -0.067475
   1 C :   -0.028851
   2 C :   -0.058337
   3 C :   -0.031819
   4 C :   -0.068090
   5 C :   -0.041336
   6 C :   -0.045457
   7 H :    0.026983
   8 H :    0.025350
   9 H :    0.023158
  10 H :    0.023178
  11 H :    0.023422
  12 H :    0.025674
  13 H :    0.025430
  14 H :    0.030422
  15 H :    0.025161
  16 H :    0.024598
  17 H :    0.021372
  18 H :    0.022231
  19 H :    0.022899
  20 H :    0.021487

  Mayer bond orders larger than 0.1
B(  0-C ,  1-C ) :   1.1207 B(  0-C ,  7-H ) :   0.9572 B(  0-C ,  8-H ) :   0.9640
B(  0-C ,  9-H ) :   0.9596 B(  1-C ,  2-C ) :   1.0786 B(  1-C , 10-H ) :   0.9134
B(  1-C , 11-H ) :   0.9270 B(  2-C ,  3-C ) :   1.0442 B(  2-C ,  5-C ) :   0.9861
B(  2-C ,  6-C ) :   0.9705 B(  3-C ,  4-C ) :   1.1317 B(  3-C , 12-H ) :   0.9256
B(  3-C , 13-H ) :   0.9220 B(  4-C , 14-H ) :   0.9549 B(  4-C , 15-H ) :   0.9547
B(  4-C , 16-H ) :   0.9605 B(  5-C ,  6-C ) :   1.0295 B(  5-C , 17-H ) :   0.9367
B(  5-C , 18-H ) :   0.9376 B(  6-C , 19-H ) :   0.9393 B(  6-C , 20-H ) :   0.9423

FINAL SINGLE POINT ENERGY      -274.554674302809

DIPOLE MOMENT
-------------
                                X             Y             Z
Electronic contribution:      1.04974       0.54389      -1.46717
Nuclear contribution   :     -1.06429      -0.60073       1.53514
                        -----------------------------------------
Total Dipole Moment    :     -0.01456      -0.05684       0.06797
                        -----------------------------------------
Magnitude (a.u.)       :      0.08979
Magnitude (Debye)      :      0.22823

                             ****ORCA TERMINATED NORMALLY****
TOTAL RUN TIME: 0 days 0 hours 0 minutes 9 seconds 51 msec
