                         Program Version 3.0.3 - RELEASE   -
|  1> ! RI PBE def2-SVP def2-SVP/J NBO PAL2
|  2> % maxcore 2000
|  3> % output
|  4>     # printlevel mini
|  5>     print[ P_Basis ] 0
|  6>     print[ P_SCFInfo ] 1
|  7>     print[ P_SCFIterInfo ] 1
|  8>     print[ P_OrbEn ] 0
|  9>     print[ P_Cartesian ] 0
| 10> end
| 11> *xyz 0 1
| 12>  C        2.0115350000    -0.7272490000     0.4877930000
| 13>  C        2.0199360000     0.0533830000    -0.8164890000
| 14>  C        2.3493060000     1.5174620000    -0.6286380000
| 15>  C        2.5391500000     2.4137740000    -1.8679150000
| 16>  C        3.6747580000     3.1443780000    -1.1235080000
| 17>  C        4.8976080000     3.5878610000    -1.8899810000
| 18>  C        3.7725450000     1.9218190000    -0.1886270000
| 19>  H        2.9829450000    -0.6706470000     0.9867100000
| 20>  H        1.7846420000    -1.7831350000     0.3231770000
| 21>  H        1.2628910000    -0.3305460000     1.1795550000
| 22>  H        2.7505460000    -0.3868990000    -1.5061140000
| 23>  H        1.0440150000    -0.0364680000    -1.3083740000
| 24>  H        1.6167250000     1.9754150000     0.0464980000
| 25>  H        1.6881320000     2.9995700000    -2.2217720000
| 26>  H        2.9380510000     1.8332000000    -2.7068120000
| 27>  H        3.2559150000     3.9901810000    -0.5677610000
| 28>  H        4.6549500000     4.3791920000    -2.6052480000
| 29>  H        5.3290850000     2.7530710000    -2.4505470000
| 30>  H        5.6708510000     3.9730370000    -1.2188620000
| 31>  H        3.9647510000     2.0958820000     0.8719600000
| 32>  H        4.5107720000     1.2051060000    -0.5658450000
| 33> *
| 34>
| 35>                          ****END OF INPUT****
 Total Charge           Charge          ....    0
 Multiplicity           Mult            ....    1
 Number of Electrons    NEL             ....   56
 Basis Dimension        Dim             ....  168

MULLIKEN ATOMIC CHARGES
-----------------------
   0 C :   -0.019043
   1 C :    0.044737
   2 C :   -0.236387
   3 C :    0.156388
   4 C :   -0.232400
   5 C :    0.063329
   6 C :    0.122894
   7 H :    0.019275
   8 H :    0.021087
   9 H :    0.017373
  10 H :   -0.002534
  11 H :    0.005968
  12 H :    0.004391
  13 H :    0.005673
  14 H :   -0.016172
  15 H :    0.002783
  16 H :    0.020374
  17 H :    0.006058
  18 H :    0.018108
  19 H :    0.010632
  20 H :   -0.012532
Sum of atomic charges:    0.0000000

LOEWDIN ATOMIC CHARGES
----------------------
   0 C :   -0.067635
   1 C :   -0.047818
   2 C :   -0.035816
   3 C :   -0.025063
   4 C :   -0.036397
   5 C :   -0.067516
   6 C :   -0.030286
   7 H :    0.024625
   8 H :    0.026504
   9 H :    0.024806
  10 H :    0.019820
  11 H :    0.024454
  12 H :    0.022908
  13 H :    0.013969
  14 H :    0.019344
  15 H :    0.023255
  16 H :    0.027534
  17 H :    0.021756
  18 H :    0.027421
  19 H :    0.014261
  20 H :    0.019873

  Mayer bond orders larger than 0.1
B(  0-C ,  1-C ) :   1.1204 B(  0-C ,  7-H ) :   0.9653 B(  0-C ,  8-H ) :   0.9597
B(  0-C ,  9-H ) :   0.9632 B(  1-C ,  2-C ) :   1.0724 B(  1-C , 10-H ) :   0.9185
B(  1-C , 11-H ) :   0.9269 B(  2-C ,  3-C ) :   1.0721 B(  2-C ,  6-C ) :   1.0804
B(  2-C , 12-H ) :   0.9091 B(  3-C ,  4-C ) :   1.0752 B(  3-C , 13-H ) :   0.9261
B(  3-C , 14-H ) :   0.8986 B(  4-C ,  5-C ) :   1.0995 B(  4-C ,  6-C ) :   1.0805
B(  4-C , 15-H ) :   0.9102 B(  5-C , 16-H ) :   0.9567 B(  5-C , 17-H ) :   0.9486
B(  5-C , 18-H ) :   0.9559 B(  6-C , 19-H ) :   0.9278 B(  6-C , 20-H ) :   0.8977

FINAL SINGLE POINT ENERGY      -274.562582919629

DIPOLE MOMENT
-------------
                                X             Y             Z
Electronic contribution:     -0.76852       1.49651      -0.23106
Nuclear contribution   :      0.74276      -1.46681       0.25008
                        -----------------------------------------
Total Dipole Moment    :     -0.02576       0.02970       0.01901
                        -----------------------------------------
Magnitude (a.u.)       :      0.04367
Magnitude (Debye)      :      0.11100

                             ****ORCA TERMINATED NORMALLY****
TOTAL RUN TIME: 0 days 0 hours 0 minutes 9 seconds 209 msec
