                         Program Version 3.0.3 - RELEASE   -
|  1> ! RI PBE def2-SVP def2-SVP/J NBO PAL2
|  2> % maxcore 2000
|  3> % output
|  4>     # printlevel mini
|  5>     print[ P_Basis ] 0
|  6>     print[ P_SCFInfo ] 1
|  7>     print[ P_SCFIterInfo ] 1
|  8>     print[ P_OrbEn ] 0
|  9>     print[ P_Cartesian ] 0
| 10> end
| 11> *xyz 0 1
| 12>  C        1.6679650000     1.0886710000    -0.7029960000
| 13>  C        2.4115300000     0.4944960000     0.4817460000
| 14>  C        3.8810460000     0.8960880000     0.5693540000
| 15>  C        4.7202030000     0.4012000000    -0.5813350000
| 16>  C        6.1400940000     0.8549580000    -0.7547450000
| 17>  C        5.1086660000     1.2380860000    -1.7730910000
| 18>  C        4.7047270000     2.6753980000    -1.9432280000
| 19>  H        0.6222410000     0.7721140000    -0.7121180000
| 20>  H        2.1172580000     0.7806470000    -1.6498800000
| 21>  H        1.6832370000     2.1817800000    -0.6699470000
| 22>  H        2.3471050000    -0.5993730000     0.4400750000
| 23>  H        1.9103800000     0.7896090000     1.4097760000
| 24>  H        3.9596300000     1.9855230000     0.6525820000
| 25>  H        4.2976780000     0.4941820000     1.5002880000
| 26>  H        4.5492720000    -0.6482420000    -0.8108840000
| 27>  H        6.8982300000     0.1256250000    -1.0134170000
| 28>  H        6.4866410000     1.6422080000    -0.0927880000
| 29>  H        5.1578650000     0.6872870000    -2.7082120000
| 30>  H        4.6883540000     3.2098830000    -0.9912500000
| 31>  H        3.7121390000     2.7659040000    -2.3927070000
| 32>  H        5.4133580000     3.1960560000    -2.5935030000
| 33> *
| 34>
| 35>                          ****END OF INPUT****
 Total Charge           Charge          ....    0
 Multiplicity           Mult            ....    1
 Number of Electrons    NEL             ....   56
 Basis Dimension        Dim             ....  168

MULLIKEN ATOMIC CHARGES
-----------------------
   0 C :   -0.031324
   1 C :   -0.041178
   2 C :    0.094675
   3 C :   -0.138180
   4 C :    0.008487
   5 C :   -0.157339
   6 C :    0.068690
   7 H :    0.017861
   8 H :    0.027889
   9 H :    0.022734
  10 H :    0.012302
  11 H :    0.003893
  12 H :   -0.010358
  13 H :    0.001638
  14 H :    0.011173
  15 H :    0.026741
  16 H :    0.018919
  17 H :    0.013818
  18 H :    0.006046
  19 H :    0.020864
  20 H :    0.022650
Sum of atomic charges:    0.0000000

LOEWDIN ATOMIC CHARGES
----------------------
   0 C :   -0.069517
   1 C :   -0.045635
   2 C :   -0.036308
   3 C :   -0.044649
   4 C :   -0.046733
   5 C :   -0.045931
   6 C :   -0.060309
   7 H :    0.026230
   8 H :    0.025548
   9 H :    0.024032
  10 H :    0.022710
  11 H :    0.022851
  12 H :    0.021790
  13 H :    0.026956
  14 H :    0.024667
  15 H :    0.024544
  16 H :    0.023148
  17 H :    0.024875
  18 H :    0.024274
  19 H :    0.026771
  20 H :    0.030687

  Mayer bond orders larger than 0.1
B(  0-C ,  1-C ) :   1.1185 B(  0-C ,  7-H ) :   0.9579 B(  0-C ,  8-H ) :   0.9638
B(  0-C ,  9-H ) :   0.9650 B(  1-C ,  2-C ) :   1.1078 B(  1-C , 10-H ) :   0.9367
B(  1-C , 11-H ) :   0.9321 B(  2-C ,  3-C ) :   1.0814 B(  2-C , 12-H ) :   0.9159
B(  2-C , 13-H ) :   0.9153 B(  3-C ,  4-C ) :   0.9860 B(  3-C ,  5-C ) :   0.9510
B(  3-C , 14-H ) :   0.9383 B(  4-C ,  5-C ) :   1.0121 B(  4-C , 15-H ) :   0.9368
B(  4-C , 16-H ) :   0.9449 B(  5-C ,  6-C ) :   1.1198 B(  5-C , 17-H ) :   0.9369
B(  6-C , 18-H ) :   0.9451 B(  6-C , 19-H ) :   0.9542 B(  6-C , 20-H ) :   0.9525

FINAL SINGLE POINT ENERGY      -274.555349397307

DIPOLE MOMENT
-------------
                                X             Y             Z
Electronic contribution:      2.71813      -1.68037       0.16760
Nuclear contribution   :     -2.75150       1.67529      -0.17946
                        -----------------------------------------
Total Dipole Moment    :     -0.03336      -0.00508      -0.01186
                        -----------------------------------------
Magnitude (a.u.)       :      0.03577
Magnitude (Debye)      :      0.09092

                             ****ORCA TERMINATED NORMALLY****
TOTAL RUN TIME: 0 days 0 hours 0 minutes 9 seconds 311 msec
