                         Program Version 3.0.3 - RELEASE   -
|  1> ! RI PBE def2-SVP def2-SVP/J NBO PAL2
|  2> % maxcore 2000
|  3> % output
|  4>     # printlevel mini
|  5>     print[ P_Basis ] 0
|  6>     print[ P_SCFInfo ] 1
|  7>     print[ P_SCFIterInfo ] 1
|  8>     print[ P_OrbEn ] 0
|  9>     print[ P_Cartesian ] 0
| 10> end
| 11> *xyz 0 1
| 12>  C        1.1360700000    -0.1283750000    -0.2075630000
| 13>  C        2.6324770000     0.1178560000    -0.0804410000
| 14>  C        2.9428570000     0.8567340000     1.2168630000
| 15>  C        3.4871980000    -1.1306610000    -0.1761100000
| 16>  C        3.1076000000    -2.4364230000     0.4628030000
| 17>  C        3.1704260000    -2.3162630000    -1.0323590000
| 18>  C        4.2580730000    -3.0076110000    -1.8043810000
| 19>  H        0.5939710000     0.8188970000    -0.1543660000
| 20>  H        0.7630120000    -0.7605290000     0.6032370000
| 21>  H        0.8736850000    -0.6020400000    -1.1557830000
| 22>  H        2.9292510000     0.7677780000    -0.9148660000
| 23>  H        2.6583250000     0.2500820000     2.0818160000
| 24>  H        2.3980370000     1.8027190000     1.2756080000
| 25>  H        4.0100010000     1.0774570000     1.3033220000
| 26>  H        4.5499530000    -0.9041190000    -0.1185220000
| 27>  H        2.1316210000    -2.5233410000     0.9248860000
| 28>  H        3.8856850000    -3.0055610000     0.9588370000
| 29>  H        2.2056460000    -2.2980200000    -1.5298830000
| 30>  H        5.1959980000    -3.0015440000    -1.2421390000
| 31>  H        4.4434850000    -2.5155460000    -2.7635350000
| 32>  H        4.0020380000    -4.0513670000    -2.0079250000
| 33> *
| 34>
| 35>                          ****END OF INPUT****
 Total Charge           Charge          ....    0
 Multiplicity           Mult            ....    1
 Number of Electrons    NEL             ....   56
 Basis Dimension        Dim             ....  168

MULLIKEN ATOMIC CHARGES
-----------------------
   0 C :   -0.002536
   1 C :   -0.053145
   2 C :    0.028853
   3 C :   -0.102099
   4 C :    0.013920
   5 C :   -0.163875
   6 C :    0.083918
   7 H :    0.013242
   8 H :    0.018469
   9 H :    0.021744
  10 H :    0.007627
  11 H :    0.010628
  12 H :    0.010264
  13 H :    0.011720
  14 H :    0.005634
  15 H :    0.020862
  16 H :    0.020529
  17 H :    0.012787
  18 H :    0.003909
  19 H :    0.019006
  20 H :    0.018544
Sum of atomic charges:    0.0000000

LOEWDIN ATOMIC CHARGES
----------------------
   0 C :   -0.060309
   1 C :   -0.041287
   2 C :   -0.056676
   3 C :   -0.038263
   4 C :   -0.046759
   5 C :   -0.046899
   6 C :   -0.054916
   7 H :    0.027843
   8 H :    0.023709
   9 H :    0.024274
  10 H :    0.027524
  11 H :    0.023951
  12 H :    0.022684
  13 H :    0.023853
  14 H :    0.023370
  15 H :    0.021640
  16 H :    0.023481
  17 H :    0.022445
  18 H :    0.025312
  19 H :    0.027591
  20 H :    0.027432

  Mayer bond orders larger than 0.1
B(  0-C ,  1-C ) :   1.0934 B(  0-C ,  7-H ) :   0.9539 B(  0-C ,  8-H ) :   0.9591
B(  0-C ,  9-H ) :   0.9522 B(  1-C ,  2-C ) :   1.0853 B(  1-C ,  3-C ) :   1.0342
B(  1-C , 10-H ) :   0.9043 B(  2-C , 11-H ) :   0.9630 B(  2-C , 12-H ) :   0.9570
B(  2-C , 13-H ) :   0.9573 B(  3-C ,  4-C ) :   0.9943 B(  3-C ,  5-C ) :   0.9458
B(  3-C , 14-H ) :   0.9388 B(  4-C ,  5-C ) :   1.0020 B(  4-C , 15-H ) :   0.9386
B(  4-C , 16-H ) :   0.9388 B(  5-C ,  6-C ) :   1.1039 B(  5-C , 17-H ) :   0.9353
B(  6-C , 18-H ) :   0.9482 B(  6-C , 19-H ) :   0.9591 B(  6-C , 20-H ) :   0.9554

FINAL SINGLE POINT ENERGY      -274.556878027224

DIPOLE MOMENT
-------------
                                X             Y             Z
Electronic contribution:      0.66262      -0.86933      -0.46913
Nuclear contribution   :     -0.66572       0.91930       0.40413
                        -----------------------------------------
Total Dipole Moment    :     -0.00310       0.04997      -0.06500
                        -----------------------------------------
Magnitude (a.u.)       :      0.08204
Magnitude (Debye)      :      0.20854

                             ****ORCA TERMINATED NORMALLY****
TOTAL RUN TIME: 0 days 0 hours 0 minutes 8 seconds 849 msec
