                         Program Version 3.0.3 - RELEASE   -
|  1> ! RI PBE def2-SVP def2-SVP/J NBO PAL2
|  2> % maxcore 2000
|  3> % output
|  4>     # printlevel mini
|  5>     print[ P_Basis ] 0
|  6>     print[ P_SCFInfo ] 1
|  7>     print[ P_SCFIterInfo ] 1
|  8>     print[ P_OrbEn ] 0
|  9>     print[ P_Cartesian ] 0
| 10> end
| 11> *xyz 0 1
| 12>  C        1.7912200000    -0.7428210000     0.5877590000
| 13>  C        2.4862500000     0.2878910000    -0.2912980000
| 14>  C        3.2344520000    -0.2605370000    -1.5081640000
| 15>  C        4.6274170000    -0.8527020000    -1.3219650000
| 16>  C        5.6153990000    -0.0149260000    -0.4721780000
| 17>  C        5.4449080000    -1.0171210000     0.6859730000
| 18>  C        4.8121520000    -2.0091500000    -0.3082850000
| 19>  H        1.1729780000    -0.2519830000     1.3437070000
| 20>  H        2.4940470000    -1.3897540000     1.1146950000
| 21>  H        1.1349370000    -1.3840890000    -0.0079830000
| 22>  H        3.1604590000     0.8998440000     0.3177140000
| 23>  H        1.7237290000     0.9807920000    -0.6625870000
| 24>  H        3.3414660000     0.5592930000    -2.2286490000
| 25>  H        2.6006500000    -1.0079310000    -2.0029340000
| 26>  H        5.0035160000    -1.0926640000    -2.3205920000
| 27>  H        5.3475920000     1.0261420000    -0.2783620000
| 28>  H        6.6249030000    -0.0338470000    -0.8879710000
| 29>  H        4.7302590000    -0.6647330000     1.4328510000
| 30>  H        6.3487970000    -1.3395890000     1.2054890000
| 31>  H        3.9221420000    -2.5549130000     0.0074640000
| 32>  H        5.5420280000    -2.7366820000    -0.6704630000
| 33> *
| 34>
| 35>                          ****END OF INPUT****
 Total Charge           Charge          ....    0
 Multiplicity           Mult            ....    1
 Number of Electrons    NEL             ....   56
 Basis Dimension        Dim             ....  168

MULLIKEN ATOMIC CHARGES
-----------------------
   0 C :   -0.032348
   1 C :   -0.049231
   2 C :    0.069514
   3 C :   -0.185642
   4 C :    0.032594
   5 C :   -0.012767
   6 C :    0.040592
   7 H :    0.017408
   8 H :    0.028483
   9 H :    0.016602
  10 H :    0.009978
  11 H :    0.009056
  12 H :    0.007690
  13 H :    0.001843
  14 H :   -0.001975
  15 H :    0.008454
  16 H :    0.006524
  17 H :    0.016241
  18 H :    0.004112
  19 H :    0.007146
  20 H :    0.005727
Sum of atomic charges:   -0.0000000

LOEWDIN ATOMIC CHARGES
----------------------
   0 C :   -0.069868
   1 C :   -0.051494
   2 C :   -0.040040
   3 C :   -0.035597
   4 C :   -0.033992
   5 C :   -0.036612
   6 C :   -0.035674
   7 H :    0.026909
   8 H :    0.022656
   9 H :    0.024414
  10 H :    0.022487
  11 H :    0.027150
  12 H :    0.027774
  13 H :    0.023445
  14 H :    0.017561
  15 H :    0.013251
  16 H :    0.023863
  17 H :    0.020402
  18 H :    0.016502
  19 H :    0.012515
  20 H :    0.024348

  Mayer bond orders larger than 0.1
B(  0-C ,  1-C ) :   1.1174 B(  0-C ,  7-H ) :   0.9584 B(  0-C ,  8-H ) :   0.9602
B(  0-C ,  9-H ) :   0.9632 B(  1-C ,  2-C ) :   1.1013 B(  1-C , 10-H ) :   0.9316
B(  1-C , 11-H ) :   0.9301 B(  2-C ,  3-C ) :   1.0641 B(  2-C , 12-H ) :   0.9196
B(  2-C , 13-H ) :   0.9232 B(  3-C ,  4-C ) :   1.0833 B(  3-C ,  6-C ) :   1.0873
B(  3-C , 14-H ) :   0.9085 B(  4-C ,  5-C ) :   1.1349 B(  4-C , 15-H ) :   0.9299
B(  4-C , 16-H ) :   0.9194 B(  5-C ,  6-C ) :   1.1402 B(  5-C , 17-H ) :   0.9255
B(  5-C , 18-H ) :   0.9226 B(  6-C , 19-H ) :   0.9263 B(  6-C , 20-H ) :   0.9165

FINAL SINGLE POINT ENERGY      -274.551409676455

DIPOLE MOMENT
-------------
                                X             Y             Z
Electronic contribution:      2.30162      -0.15869      -1.33691
Nuclear contribution   :     -2.31048       0.18366       1.30036
                        -----------------------------------------
Total Dipole Moment    :     -0.00886       0.02497      -0.03655
                        -----------------------------------------
Magnitude (a.u.)       :      0.04514
Magnitude (Debye)      :      0.11474

                             ****ORCA TERMINATED NORMALLY****
TOTAL RUN TIME: 0 days 0 hours 0 minutes 9 seconds 127 msec
