                         Program Version 3.0.3 - RELEASE   -
|  1> ! RI PBE def2-SVP def2-SVP/J NBO PAL2
|  2> % maxcore 2000
|  3> % output
|  4>     # printlevel mini
|  5>     print[ P_Basis ] 0
|  6>     print[ P_SCFInfo ] 1
|  7>     print[ P_SCFIterInfo ] 1
|  8>     print[ P_OrbEn ] 0
|  9>     print[ P_Cartesian ] 0
| 10> end
| 11> *xyz 0 1
| 12>  C        1.2919910000    -0.5087880000     0.9902450000
| 13>  C        2.4972100000    -0.0923680000     0.1557780000
| 14>  C        3.2946650000     0.9889890000     0.8735790000
| 15>  C        3.4119600000    -1.2475600000    -0.2483040000
| 16>  C        3.8829970000    -2.1965700000     0.8831790000
| 17>  C        2.9432570000    -3.2930650000     0.3428520000
| 18>  C        2.7351170000    -2.4571100000    -0.9358100000
| 19>  H        0.6517880000     0.3544180000     1.1889340000
| 20>  H        1.5966070000    -0.9156880000     1.9587730000
| 21>  H        0.6812320000    -1.2606030000     0.4856580000
| 22>  H        2.1151860000     0.3368300000    -0.7810250000
| 23>  H        3.7156010000     0.6072600000     1.8089680000
| 24>  H        2.6654340000     1.8474040000     1.1227480000
| 25>  H        4.1242930000     1.3468540000     0.2581180000
| 26>  H        4.2355260000    -0.8218740000    -0.8292910000
| 27>  H        3.7117130000    -1.8651410000     1.9095520000
| 28>  H        4.9376810000    -2.4614980000     0.7888560000
| 29>  H        2.0310630000    -3.3930250000     0.9341000000
| 30>  H        3.3738810000    -4.2872610000     0.2132240000
| 31>  H        1.7055640000    -2.3152080000    -1.2725880000
| 32>  H        3.3167330000    -2.8307950000    -1.7807660000
| 33> *
| 34>
| 35>                          ****END OF INPUT****
 Total Charge           Charge          ....    0
 Multiplicity           Mult            ....    1
 Number of Electrons    NEL             ....   56
 Basis Dimension        Dim             ....  168

MULLIKEN ATOMIC CHARGES
-----------------------
   0 C :   -0.001461
   1 C :   -0.053676
   2 C :    0.025782
   3 C :   -0.193006
   4 C :    0.050940
   5 C :   -0.022115
   6 C :    0.076451
   7 H :    0.016794
   8 H :    0.012773
   9 H :    0.019963
  10 H :    0.000638
  11 H :    0.008449
  12 H :    0.013631
  13 H :    0.013154
  14 H :   -0.004397
  15 H :    0.009587
  16 H :    0.006248
  17 H :    0.013418
  18 H :    0.003746
  19 H :    0.000884
  20 H :    0.002198
Sum of atomic charges:    0.0000000

LOEWDIN ATOMIC CHARGES
----------------------
   0 C :   -0.062736
   1 C :   -0.041877
   2 C :   -0.057851
   3 C :   -0.032813
   4 C :   -0.034255
   5 C :   -0.036689
   6 C :   -0.033184
   7 H :    0.026926
   8 H :    0.023297
   9 H :    0.024163
  10 H :    0.025173
  11 H :    0.023009
  12 H :    0.024142
  13 H :    0.023708
  14 H :    0.016422
  15 H :    0.013274
  16 H :    0.023841
  17 H :    0.020905
  18 H :    0.017245
  19 H :    0.013790
  20 H :    0.023512

  Mayer bond orders larger than 0.1
B(  0-C ,  1-C ) :   1.0914 B(  0-C ,  7-H ) :   0.9557 B(  0-C ,  8-H ) :   0.9542
B(  0-C ,  9-H ) :   0.9544 B(  1-C ,  2-C ) :   1.0898 B(  1-C ,  3-C ) :   1.0182
B(  1-C , 10-H ) :   0.9007 B(  2-C , 11-H ) :   0.9581 B(  2-C , 12-H ) :   0.9590
B(  2-C , 13-H ) :   0.9581 B(  3-C ,  4-C ) :   1.0961 B(  3-C ,  6-C ) :   1.0987
B(  3-C , 14-H ) :   0.9083 B(  4-C ,  5-C ) :   1.1482 B(  4-C , 15-H ) :   0.9255
B(  4-C , 16-H ) :   0.9152 B(  5-C ,  6-C ) :   1.1528 B(  5-C , 17-H ) :   0.9249
B(  5-C , 18-H ) :   0.9199 B(  6-C , 19-H ) :   0.9240 B(  6-C , 20-H ) :   0.9113

FINAL SINGLE POINT ENERGY      -274.555807965541

DIPOLE MOMENT
-------------
                                X             Y             Z
Electronic contribution:      1.01237      -1.53224      -1.54077
Nuclear contribution   :     -1.00585       1.57022       1.51206
                        -----------------------------------------
Total Dipole Moment    :      0.00651       0.03798      -0.02871
                        -----------------------------------------
Magnitude (a.u.)       :      0.04805
Magnitude (Debye)      :      0.12214

                             ****ORCA TERMINATED NORMALLY****
TOTAL RUN TIME: 0 days 0 hours 0 minutes 9 seconds 519 msec
