                         Program Version 3.0.3 - RELEASE   -
|  1> ! RI PBE def2-SVP def2-SVP/J NBO PAL2
|  2> % maxcore 2000
|  3> % output
|  4>     # printlevel mini
|  5>     print[ P_Basis ] 0
|  6>     print[ P_SCFInfo ] 1
|  7>     print[ P_SCFIterInfo ] 1
|  8>     print[ P_OrbEn ] 0
|  9>     print[ P_Cartesian ] 0
| 10> end
| 11> *xyz 0 1
| 12>  C        0.7219070000     0.0435990000     0.1111160000
| 13>  C        2.2305110000     0.0262550000    -0.1020380000
| 14>  C        2.8408510000     1.3913560000     0.1905580000
| 15>  C        2.9093480000    -1.0872850000     0.6819310000
| 16>  C        2.8121420000    -1.0235680000     2.1852500000
| 17>  C        2.9082020000    -2.4488230000     0.0537750000
| 18>  C        4.1754370000    -1.6425330000     0.1014280000
| 19>  H        0.2448960000     0.7736170000    -0.5478730000
| 20>  H        0.4681450000     0.3191200000     1.1385210000
| 21>  H        0.2809400000    -0.9354010000    -0.0927540000
| 22>  H        2.4114600000    -0.1957690000    -1.1619470000
| 23>  H        2.6440630000     1.7030800000     1.2201030000
| 24>  H        2.4169950000     2.1552030000    -0.4664100000
| 25>  H        3.9238100000     1.3816150000     0.0437410000
| 26>  H        3.2652600000    -0.1103270000     2.5804800000
| 27>  H        3.3336430000    -1.8702950000     2.6376330000
| 28>  H        1.7732610000    -1.0592120000     2.5244150000
| 29>  H        2.4212370000    -2.5662780000    -0.9078370000
| 30>  H        2.8295480000    -3.3132810000     0.7027660000
| 31>  H        4.5388050000    -1.2193890000    -0.8283900000
| 32>  H        4.9562380000    -1.9602840000     0.7826330000
| 33> *
| 34>
| 35>                          ****END OF INPUT****
 Total Charge           Charge          ....    0
 Multiplicity           Mult            ....    1
 Number of Electrons    NEL             ....   56
 Basis Dimension        Dim             ....  168

MULLIKEN ATOMIC CHARGES
-----------------------
   0 C :    0.046657
   1 C :   -0.066832
   2 C :    0.033513
   3 C :   -0.297447
   4 C :    0.111249
   5 C :    0.005036
   6 C :    0.001590
   7 H :    0.013611
   8 H :    0.010384
   9 H :    0.009841
  10 H :   -0.018149
  11 H :    0.009479
  12 H :    0.014371
  13 H :    0.016020
  14 H :    0.017405
  15 H :   -0.001341
  16 H :    0.014989
  17 H :    0.019104
  18 H :    0.020410
  19 H :    0.019064
  20 H :    0.021045
Sum of atomic charges:   -0.0000000

LOEWDIN ATOMIC CHARGES
----------------------
   0 C :   -0.055966
   1 C :   -0.033939
   2 C :   -0.058011
   3 C :   -0.057769
   4 C :   -0.045682
   5 C :   -0.042250
   6 C :   -0.042998
   7 H :    0.025088
   8 H :    0.021744
   9 H :    0.024671
  10 H :    0.023218
  11 H :    0.021457
  12 H :    0.025317
  13 H :    0.025774
  14 H :    0.026232
  15 H :    0.026823
  16 H :    0.025671
  17 H :    0.022484
  18 H :    0.022730
  19 H :    0.022476
  20 H :    0.022930

  Mayer bond orders larger than 0.1
B(  0-C ,  1-C ) :   1.0827 B(  0-C ,  7-H ) :   0.9579 B(  0-C ,  8-H ) :   0.9569
B(  0-C ,  9-H ) :   0.9571 B(  1-C ,  2-C ) :   1.0827 B(  1-C ,  3-C ) :   1.0472
B(  1-C , 10-H ) :   0.8847 B(  2-C , 11-H ) :   0.9559 B(  2-C , 12-H ) :   0.9561
B(  2-C , 13-H ) :   0.9583 B(  3-C ,  4-C ) :   1.0729 B(  3-C ,  5-C ) :   0.9762
B(  3-C ,  6-C ) :   0.9768 B(  4-C , 14-H ) :   0.9542 B(  4-C , 15-H ) :   0.9358
B(  4-C , 16-H ) :   0.9554 B(  5-C ,  6-C ) :   1.0482 B(  5-C , 17-H ) :   0.9339
B(  5-C , 18-H ) :   0.9417 B(  6-C , 19-H ) :   0.9341 B(  6-C , 20-H ) :   0.9412

FINAL SINGLE POINT ENERGY      -274.557286410352

DIPOLE MOMENT
-------------
                                X             Y             Z
Electronic contribution:      1.32929      -2.03814      -0.93257
Nuclear contribution   :     -1.35643       2.07615       0.94878
                        -----------------------------------------
Total Dipole Moment    :     -0.02715       0.03800       0.01621
                        -----------------------------------------
Magnitude (a.u.)       :      0.04944
Magnitude (Debye)      :      0.12565

                             ****ORCA TERMINATED NORMALLY****
TOTAL RUN TIME: 0 days 0 hours 0 minutes 9 seconds 158 msec
