                         Program Version 3.0.3 - RELEASE   -
|  1> ! RI PBE def2-SVP def2-SVP/J NBO PAL2
|  2> % maxcore 2000
|  3> % output
|  4>     # printlevel mini
|  5>     print[ P_Basis ] 0
|  6>     print[ P_SCFInfo ] 1
|  7>     print[ P_SCFIterInfo ] 1
|  8>     print[ P_OrbEn ] 0
|  9>     print[ P_Cartesian ] 0
| 10> end
| 11> *xyz 0 1
| 12>  C        1.6503710000     0.6493570000     1.1379230000
| 13>  C        1.9096100000     0.1149550000    -0.2634750000
| 14>  C        2.8397050000     0.9342960000    -1.1547630000
| 15>  C        4.3284090000     0.9883810000    -0.8480680000
| 16>  C        5.1518780000     1.3568700000    -2.0576580000
| 17>  C        4.8371840000     1.5045300000     0.4656500000
| 18>  C        4.9567690000     0.0441090000     0.1332230000
| 19>  H        2.5209960000     0.5591960000     1.7898460000
| 20>  H        0.8354000000     0.0981660000     1.6136830000
| 21>  H        1.3627580000     1.7044120000     1.1110340000
| 22>  H        2.2765690000    -0.9154010000    -0.2046470000
| 23>  H        0.9490330000     0.0517340000    -0.7859550000
| 24>  H        2.4623530000     1.9638540000    -1.2158620000
| 25>  H        2.7436640000     0.5277830000    -2.1687830000
| 26>  H        4.8380950000     2.3237640000    -2.4643700000
| 27>  H        5.0435060000     0.6109240000    -2.8512420000
| 28>  H        6.2129750000     1.4301860000    -1.8072970000
| 29>  H        4.1262560000     1.8007500000     1.2250710000
| 30>  H        5.7406000000     2.1035350000     0.4479420000
| 31>  H        4.3187130000    -0.6462780000     0.6712130000
| 32>  H        5.9399550000    -0.3503230000    -0.0965530000
| 33> *
| 34>
| 35>                          ****END OF INPUT****
 Total Charge           Charge          ....    0
 Multiplicity           Mult            ....    1
 Number of Electrons    NEL             ....   56
 Basis Dimension        Dim             ....  168

MULLIKEN ATOMIC CHARGES
-----------------------
   0 C :   -0.035390
   1 C :   -0.048074
   2 C :    0.101519
   3 C :   -0.295681
   4 C :    0.078267
   5 C :   -0.022930
   6 C :   -0.006684
   7 H :    0.033349
   8 H :    0.018446
   9 H :    0.017753
  10 H :    0.011519
  11 H :    0.008148
  12 H :    0.001485
  13 H :   -0.001730
  14 H :    0.012652
  15 H :    0.022119
  16 H :    0.005001
  17 H :    0.029449
  18 H :    0.019983
  19 H :    0.030968
  20 H :    0.019831
Sum of atomic charges:   -0.0000000

LOEWDIN ATOMIC CHARGES
----------------------
   0 C :   -0.072857
   1 C :   -0.047936
   2 C :   -0.029471
   3 C :   -0.059079
   4 C :   -0.047153
   5 C :   -0.047068
   6 C :   -0.043357
   7 H :    0.023590
   8 H :    0.028134
   9 H :    0.025337
  10 H :    0.023713
  11 H :    0.027748
  12 H :    0.024453
  13 H :    0.027531
  14 H :    0.026029
  15 H :    0.025716
  16 H :    0.024661
  17 H :    0.021587
  18 H :    0.022189
  19 H :    0.023184
  20 H :    0.023050

  Mayer bond orders larger than 0.1
B(  0-C ,  1-C ) :   1.1259 B(  0-C ,  7-H ) :   0.9589 B(  0-C ,  8-H ) :   0.9544
B(  0-C ,  9-H ) :   0.9612 B(  1-C ,  2-C ) :   1.1209 B(  1-C , 10-H ) :   0.9251
B(  1-C , 11-H ) :   0.9283 B(  2-C ,  3-C ) :   1.0473 B(  2-C , 12-H ) :   0.9183
B(  2-C , 13-H ) :   0.9173 B(  3-C ,  4-C ) :   1.0947 B(  3-C ,  5-C ) :   0.9727
B(  3-C ,  6-C ) :   0.9921 B(  4-C , 14-H ) :   0.9570 B(  4-C , 15-H ) :   0.9559
B(  4-C , 16-H ) :   0.9431 B(  5-C ,  6-C ) :   1.0363 B(  5-C , 17-H ) :   0.9371
B(  5-C , 18-H ) :   0.9407 B(  6-C , 19-H ) :   0.9276 B(  6-C , 20-H ) :   0.9440

FINAL SINGLE POINT ENERGY      -274.551555439975

DIPOLE MOMENT
-------------
                                X             Y             Z
Electronic contribution:      1.50649      -0.08420      -0.41511
Nuclear contribution   :     -1.58818       0.06210       0.35220
                        -----------------------------------------
Total Dipole Moment    :     -0.08169      -0.02209      -0.06291
                        -----------------------------------------
Magnitude (a.u.)       :      0.10545
Magnitude (Debye)      :      0.26803

                             ****ORCA TERMINATED NORMALLY****
TOTAL RUN TIME: 0 days 0 hours 0 minutes 9 seconds 47 msec
