                         Program Version 3.0.3 - RELEASE   -
|  1> ! RI PBE def2-SVP def2-SVP/J NBO PAL2
|  2> % maxcore 2000
|  3> % output
|  4>     # printlevel mini
|  5>     print[ P_Basis ] 0
|  6>     print[ P_SCFInfo ] 1
|  7>     print[ P_SCFIterInfo ] 1
|  8>     print[ P_OrbEn ] 0
|  9>     print[ P_Cartesian ] 0
| 10> end
| 11> *xyz 0 1
| 12>  C        1.6613290000    -0.5602590000    -0.4992830000
| 13>  C        2.8207080000    -0.0798960000     0.3564200000
| 14>  C        2.8733110000    -0.7559430000     1.7205680000
| 15>  C        4.0674530000    -0.3349600000     2.5738660000
| 16>  C        5.3555550000    -1.1047140000     2.3662170000
| 17>  C        5.4100950000    -2.5958150000     2.4977380000
| 18>  C        5.6427790000    -1.9533810000     1.1639920000
| 19>  H        1.7344750000    -1.6336930000    -0.6971350000
| 20>  H        1.6323990000    -0.0471420000    -1.4633350000
| 21>  H        0.7037620000    -0.3843730000    -0.0006740000
| 22>  H        3.7645310000    -0.2392320000    -0.1745820000
| 23>  H        2.7434290000     1.0032790000     0.5066020000
| 24>  H        2.8614510000    -1.8453710000     1.5920240000
| 25>  H        1.9486340000    -0.5187410000     2.2578920000
| 26>  H        3.8036860000    -0.4112170000     3.6346090000
| 27>  H        4.2619100000     0.7285620000     2.3918900000
| 28>  H        6.2239490000    -0.5918880000     2.7688480000
| 29>  H        4.4737610000    -3.1245780000     2.6372040000
| 30>  H        6.2516580000    -3.0386200000     3.0160270000
| 31>  H        4.8675900000    -2.0726090000     0.4174530000
| 32>  H        6.6481340000    -1.9481690000     0.7609590000
| 33> *
| 34>
| 35>                          ****END OF INPUT****
 Total Charge           Charge          ....    0
 Multiplicity           Mult            ....    1
 Number of Electrons    NEL             ....   56
 Basis Dimension        Dim             ....  168

MULLIKEN ATOMIC CHARGES
-----------------------
   0 C :   -0.005708
   1 C :   -0.064181
   2 C :   -0.058871
   3 C :    0.120766
   4 C :   -0.156313
   5 C :   -0.044020
   6 C :   -0.041169
   7 H :    0.018544
   8 H :    0.018636
   9 H :    0.014577
  10 H :    0.016188
  11 H :    0.011591
  12 H :    0.007663
  13 H :    0.000220
  14 H :    0.009328
  15 H :    0.005034
  16 H :    0.015588
  17 H :    0.034387
  18 H :    0.029925
  19 H :    0.038434
  20 H :    0.029382
Sum of atomic charges:    0.0000000

LOEWDIN ATOMIC CHARGES
----------------------
   0 C :   -0.067221
   1 C :   -0.049334
   2 C :   -0.045850
   3 C :   -0.035751
   4 C :   -0.043800
   5 C :   -0.050407
   6 C :   -0.050283
   7 H :    0.024248
   8 H :    0.026578
   9 H :    0.023573
  10 H :    0.021368
  11 H :    0.023229
  12 H :    0.020307
  13 H :    0.024549
  14 H :    0.028280
  15 H :    0.026963
  16 H :    0.026342
  17 H :    0.022372
  18 H :    0.024970
  19 H :    0.024171
  20 H :    0.025698

  Mayer bond orders larger than 0.1
B(  0-C ,  1-C ) :   1.1161 B(  0-C ,  7-H ) :   0.9650 B(  0-C ,  8-H ) :   0.9591
B(  0-C ,  9-H ) :   0.9647 B(  1-C ,  2-C ) :   1.0907 B(  1-C , 10-H ) :   0.9398
B(  1-C , 11-H ) :   0.9310 B(  2-C ,  3-C ) :   1.0972 B(  2-C , 12-H ) :   0.9341
B(  2-C , 13-H ) :   0.9259 B(  3-C ,  4-C ) :   1.0742 B(  3-C , 14-H ) :   0.9233
B(  3-C , 15-H ) :   0.9208 B(  4-C ,  5-C ) :   0.9953 B(  4-C ,  6-C ) :   1.0131
B(  4-C , 16-H ) :   0.9363 B(  5-C ,  6-C ) :   1.0335 B(  5-C , 17-H ) :   0.9491
B(  5-C , 18-H ) :   0.9458 B(  6-C , 19-H ) :   0.9353 B(  6-C , 20-H ) :   0.9488

FINAL SINGLE POINT ENERGY      -274.549941004972

DIPOLE MOMENT
-------------
                                X             Y             Z
Electronic contribution:      2.99858      -0.45574       2.20223
Nuclear contribution   :     -3.00697       0.51907      -2.17806
                        -----------------------------------------
Total Dipole Moment    :     -0.00839       0.06334       0.02417
                        -----------------------------------------
Magnitude (a.u.)       :      0.06831
Magnitude (Debye)      :      0.17363

                             ****ORCA TERMINATED NORMALLY****
TOTAL RUN TIME: 0 days 0 hours 0 minutes 8 seconds 848 msec
