                         Program Version 3.0.3 - RELEASE   -
|  1> ! RI PBE def2-SVP def2-SVP/J NBO PAL2
|  2> % maxcore 2000
|  3> % output
|  4>     # printlevel mini
|  5>     print[ P_Basis ] 0
|  6>     print[ P_SCFInfo ] 1
|  7>     print[ P_SCFIterInfo ] 1
|  8>     print[ P_OrbEn ] 0
|  9>     print[ P_Cartesian ] 0
| 10> end
| 11> *xyz 0 1
| 12>  C        2.0327450000    -0.5974440000     0.1946010000
| 13>  C        2.7612150000     0.0495460000    -0.9776650000
| 14>  C        2.0429490000    -0.2710640000    -2.2820990000
| 15>  C        2.8900410000     1.5634340000    -0.7927860000
| 16>  C        4.0306880000     2.0624590000     0.0700170000
| 17>  C        4.8354900000     1.2051870000     1.0012400000
| 18>  C        5.4578920000     1.7394500000    -0.2523600000
| 19>  H        2.0256570000    -1.6871490000     0.1057790000
| 20>  H        0.9912060000    -0.2605620000     0.2218580000
| 21>  H        2.4846970000    -0.3390880000     1.1538830000
| 22>  H        3.7679290000    -0.3837030000    -1.0422090000
| 23>  H        1.0459190000     0.1812820000    -2.2954560000
| 24>  H        1.9178160000    -1.3493150000    -2.4124410000
| 25>  H        2.5928580000     0.1121330000    -3.1454790000
| 26>  H        1.9440960000     1.9342290000    -0.3790140000
| 27>  H        2.9893560000     2.0368880000    -1.7768440000
| 28>  H        3.8773310000     3.0774770000     0.4241580000
| 29>  H        5.1396930000     1.6293540000     1.9504110000
| 30>  H        4.6342920000     0.1422560000     1.0368180000
| 31>  H        5.6449170000     1.0310700000    -1.0520540000
| 32>  H        6.1978040000     2.5263580000    -0.1733390000
| 33> *
| 34>
| 35>                          ****END OF INPUT****
 Total Charge           Charge          ....    0
 Multiplicity           Mult            ....    1
 Number of Electrons    NEL             ....   56
 Basis Dimension        Dim             ....  168

MULLIKEN ATOMIC CHARGES
-----------------------
   0 C :    0.017259
   1 C :   -0.195038
   2 C :    0.019435
   3 C :    0.154097
   4 C :   -0.150716
   5 C :   -0.037215
   6 C :   -0.048259
   7 H :    0.018995
   8 H :    0.009415
   9 H :    0.016007
  10 H :    0.011705
  11 H :    0.009344
  12 H :    0.015069
  13 H :    0.015860
  14 H :   -0.005188
  15 H :   -0.001070
  16 H :    0.015581
  17 H :    0.026368
  18 H :    0.042783
  19 H :    0.032936
  20 H :    0.032632
Sum of atomic charges:    0.0000000

LOEWDIN ATOMIC CHARGES
----------------------
   0 C :   -0.060311
   1 C :   -0.049430
   2 C :   -0.057391
   3 C :   -0.027812
   4 C :   -0.043108
   5 C :   -0.049091
   6 C :   -0.051555
   7 H :    0.024991
   8 H :    0.023181
   9 H :    0.023249
  10 H :    0.021689
  11 H :    0.023085
  12 H :    0.024100
  13 H :    0.023530
  14 H :    0.024850
  15 H :    0.025515
  16 H :    0.026600
  17 H :    0.025437
  18 H :    0.024712
  19 H :    0.022380
  20 H :    0.025378

  Mayer bond orders larger than 0.1
B(  0-C ,  1-C ) :   1.0780 B(  0-C ,  7-H ) :   0.9616 B(  0-C ,  8-H ) :   0.9533
B(  0-C ,  9-H ) :   0.9573 B(  1-C ,  2-C ) :   1.0837 B(  1-C ,  3-C ) :   1.0602
B(  1-C , 10-H ) :   0.9142 B(  2-C , 11-H ) :   0.9587 B(  2-C , 12-H ) :   0.9612
B(  2-C , 13-H ) :   0.9577 B(  3-C ,  4-C ) :   1.0731 B(  3-C , 14-H ) :   0.9167
B(  3-C , 15-H ) :   0.9235 B(  4-C ,  5-C ) :   1.0130 B(  4-C ,  6-C ) :   0.9952
B(  4-C , 16-H ) :   0.9360 B(  5-C ,  6-C ) :   1.0386 B(  5-C , 17-H ) :   0.9472
B(  5-C , 18-H ) :   0.9329 B(  6-C , 19-H ) :   0.9475 B(  6-C , 20-H ) :   0.9455

FINAL SINGLE POINT ENERGY      -274.550153610423

DIPOLE MOMENT
-------------
                                X             Y             Z
Electronic contribution:      2.27128       2.31727       1.03565
Nuclear contribution   :     -2.28829      -2.29105      -1.04902
                        -----------------------------------------
Total Dipole Moment    :     -0.01700       0.02622      -0.01337
                        -----------------------------------------
Magnitude (a.u.)       :      0.03399
Magnitude (Debye)      :      0.08640

                             ****ORCA TERMINATED NORMALLY****
TOTAL RUN TIME: 0 days 0 hours 0 minutes 9 seconds 11 msec
