                         Program Version 3.0.3 - RELEASE   -
|  1> ! RI PBE def2-SVP def2-SVP/J NBO PAL2
|  2> % maxcore 2000
|  3> % output
|  4>     # printlevel mini
|  5>     print[ P_Basis ] 0
|  6>     print[ P_SCFInfo ] 1
|  7>     print[ P_SCFIterInfo ] 1
|  8>     print[ P_OrbEn ] 0
|  9>     print[ P_Cartesian ] 0
| 10> end
| 11> *xyz 0 1
| 12>  C        0.9763040000     0.1375690000    -0.1800390000
| 13>  C        2.5016500000     0.0378820000    -0.1572770000
| 14>  C        2.9769430000    -0.5843880000    -1.4670340000
| 15>  C        3.1012010000     1.4381130000    -0.0267780000
| 16>  C        2.9068910000    -0.7685370000     1.0683450000
| 17>  C        2.9365830000    -2.2642730000     1.1118920000
| 18>  C        4.2152570000    -1.4826330000     1.2038360000
| 19>  H        0.6357630000     0.7420380000    -1.0257390000
| 20>  H        0.5996250000     0.6010670000     0.7362350000
| 21>  H        0.5217340000    -0.8529020000    -0.2658820000
| 22>  H        2.5579520000    -1.5814480000    -1.6216330000
| 23>  H        2.6564710000     0.0374870000    -2.3069350000
| 24>  H        4.0659930000    -0.6579180000    -1.5131990000
| 25>  H        2.8066160000     2.0705710000    -0.8692720000
| 26>  H        4.1931870000     1.3942470000    -0.0008250000
| 27>  H        2.7633010000     1.9255790000     0.8921810000
| 28>  H        2.5562150000    -0.3030780000     1.9867240000
| 29>  H        2.5683880000    -2.7589710000     2.0022790000
| 30>  H        2.7557360000    -2.8121070000     0.1952560000
| 31>  H        4.8784050000    -1.5144710000     0.3481130000
| 32>  H        4.7267850000    -1.4391170000     2.1575510000
| 33> *
| 34>
| 35>                          ****END OF INPUT****
 Total Charge           Charge          ....    0
 Multiplicity           Mult            ....    1
 Number of Electrons    NEL             ....   56
 Basis Dimension        Dim             ....  168

MULLIKEN ATOMIC CHARGES
-----------------------
   0 C :    0.085052
   1 C :   -0.257319
   2 C :    0.033925
   3 C :    0.066011
   4 C :   -0.092502
   5 C :   -0.021850
   6 C :   -0.029231
   7 H :    0.007139
   8 H :    0.004388
   9 H :    0.008914
  10 H :    0.011497
  11 H :    0.010651
  12 H :    0.018786
  13 H :    0.010051
  14 H :    0.016232
  15 H :    0.006608
  16 H :    0.007652
  17 H :    0.026703
  18 H :    0.028853
  19 H :    0.030194
  20 H :    0.028249
Sum of atomic charges:   -0.0000000

LOEWDIN ATOMIC CHARGES
----------------------
   0 C :   -0.045008
   1 C :   -0.059492
   2 C :   -0.050636
   3 C :   -0.048633
   4 C :   -0.033419
   5 C :   -0.047507
   6 C :   -0.048989
   7 H :    0.021631
   8 H :    0.022158
   9 H :    0.023673
  10 H :    0.022640
  11 H :    0.027251
  12 H :    0.023695
  13 H :    0.022195
  14 H :    0.025148
  15 H :    0.022647
  16 H :    0.024891
  17 H :    0.025450
  18 H :    0.023219
  19 H :    0.023594
  20 H :    0.025491

  Mayer bond orders larger than 0.1
B(  0-C ,  1-C ) :   1.0484 B(  0-C ,  7-H ) :   0.9569 B(  0-C ,  8-H ) :   0.9563
B(  0-C ,  9-H ) :   0.9587 B(  1-C ,  2-C ) :   1.0642 B(  1-C ,  3-C ) :   1.0474
B(  1-C ,  4-C ) :   0.9990 B(  2-C , 10-H ) :   0.9494 B(  2-C , 11-H ) :   0.9522
B(  2-C , 12-H ) :   0.9537 B(  3-C , 13-H ) :   0.9555 B(  3-C , 14-H ) :   0.9597
B(  3-C , 15-H ) :   0.9551 B(  4-C ,  5-C ) :   1.0021 B(  4-C ,  6-C ) :   1.0004
B(  4-C , 16-H ) :   0.9380 B(  5-C ,  6-C ) :   1.0504 B(  5-C , 17-H ) :   0.9418
B(  5-C , 18-H ) :   0.9403 B(  6-C , 19-H ) :   0.9402 B(  6-C , 20-H ) :   0.9426

FINAL SINGLE POINT ENERGY      -274.554065534092

DIPOLE MOMENT
-------------
                                X             Y             Z
Electronic contribution:      0.74011      -1.43830       1.91062
Nuclear contribution   :     -0.75794       1.46490      -1.92081
                        -----------------------------------------
Total Dipole Moment    :     -0.01783       0.02660      -0.01019
                        -----------------------------------------
Magnitude (a.u.)       :      0.03361
Magnitude (Debye)      :      0.08542

                             ****ORCA TERMINATED NORMALLY****
TOTAL RUN TIME: 0 days 0 hours 0 minutes 9 seconds 157 msec
