                         Program Version 3.0.3 - RELEASE   -
|  1> ! RI PBE def2-SVP def2-SVP/J NBO PAL2
|  2> % maxcore 2000
|  3> % output
|  4>     # printlevel mini
|  5>     print[ P_Basis ] 0
|  6>     print[ P_SCFInfo ] 1
|  7>     print[ P_SCFIterInfo ] 1
|  8>     print[ P_OrbEn ] 0
|  9>     print[ P_Cartesian ] 0
| 10> end
| 11> *xyz 0 1
| 12>  C        2.6000540000     0.2147740000     0.8079680000
| 13>  C        2.4394550000     0.4860640000    -0.6783760000
| 14>  C        2.7171880000    -0.7092020000    -1.5907070000
| 15>  C        2.3803750000    -0.3599640000    -3.0354650000
| 16>  C        4.1423970000    -1.1976970000    -1.4834060000
| 17>  C        4.5010610000    -2.5750940000    -1.9502610000
| 18>  C        4.5410040000    -2.2450980000    -0.4891920000
| 19>  H        2.3442340000     1.0990820000     1.3965910000
| 20>  H        3.6245960000    -0.0670210000     1.0573610000
| 21>  H        1.9448530000    -0.5986560000     1.1337550000
| 22>  H        3.1007590000     1.3100470000    -0.9753350000
| 23>  H        1.4198440000     0.8373860000    -0.8733310000
| 24>  H        2.0626600000    -1.5349920000    -1.2756240000
| 25>  H        3.0095040000     0.4624620000    -3.3906590000
| 26>  H        1.3379850000    -0.0459210000    -3.1353590000
| 27>  H        2.5447280000    -1.2120740000    -3.6987390000
| 28>  H        4.8867940000    -0.4290970000    -1.6813520000
| 29>  H        5.4389770000    -2.7203080000    -2.4717270000
| 30>  H        3.6938840000    -3.2091290000    -2.2998340000
| 31>  H        5.5074720000    -2.1623150000    -0.0069370000
| 32>  H        3.7636570000    -2.6617590000     0.1406190000
| 33> *
| 34>
| 35>                          ****END OF INPUT****
 Total Charge           Charge          ....    0
 Multiplicity           Mult            ....    1
 Number of Electrons    NEL             ....   56
 Basis Dimension        Dim             ....  168

MULLIKEN ATOMIC CHARGES
-----------------------
   0 C :   -0.001297
   1 C :    0.001005
   2 C :   -0.059770
   3 C :    0.047321
   4 C :   -0.144126
   5 C :   -0.017861
   6 C :   -0.016529
   7 H :    0.015653
   8 H :    0.026458
   9 H :    0.012318
  10 H :   -0.000686
  11 H :    0.000691
  12 H :   -0.019211
  13 H :    0.008138
  14 H :    0.010046
  15 H :    0.014274
  16 H :    0.011268
  17 H :    0.027820
  18 H :    0.027388
  19 H :    0.029154
  20 H :    0.027946
Sum of atomic charges:    0.0000000

LOEWDIN ATOMIC CHARGES
----------------------
   0 C :   -0.066744
   1 C :   -0.038888
   2 C :   -0.038500
   3 C :   -0.056062
   4 C :   -0.040249
   5 C :   -0.047579
   6 C :   -0.047389
   7 H :    0.026026
   8 H :    0.026191
   9 H :    0.023045
  10 H :    0.021151
  11 H :    0.021431
  12 H :    0.021692
  13 H :    0.023823
  14 H :    0.022887
  15 H :    0.024670
  16 H :    0.024406
  17 H :    0.025952
  18 H :    0.024356
  19 H :    0.025404
  20 H :    0.024379

  Mayer bond orders larger than 0.1
B(  0-C ,  1-C ) :   1.1234 B(  0-C ,  7-H ) :   0.9573 B(  0-C ,  8-H ) :   0.9604
B(  0-C ,  9-H ) :   0.9622 B(  1-C ,  2-C ) :   1.0618 B(  1-C , 10-H ) :   0.9287
B(  1-C , 11-H ) :   0.9327 B(  2-C ,  3-C ) :   1.0795 B(  2-C ,  4-C ) :   1.0460
B(  2-C , 12-H ) :   0.8921 B(  3-C , 13-H ) :   0.9565 B(  3-C , 14-H ) :   0.9554
B(  3-C , 15-H ) :   0.9589 B(  4-C ,  5-C ) :   0.9918 B(  4-C ,  6-C ) :   0.9961
B(  4-C , 16-H ) :   0.9384 B(  5-C ,  6-C ) :   1.0532 B(  5-C , 17-H ) :   0.9435
B(  5-C , 18-H ) :   0.9404 B(  6-C , 19-H ) :   0.9444 B(  6-C , 20-H ) :   0.9389

FINAL SINGLE POINT ENERGY      -274.554877890173

DIPOLE MOMENT
-------------
                                X             Y             Z
Electronic contribution:      1.58224      -1.45373      -0.60510
Nuclear contribution   :     -1.57705       1.47826       0.60918
                        -----------------------------------------
Total Dipole Moment    :      0.00519       0.02452       0.00408
                        -----------------------------------------
Magnitude (a.u.)       :      0.02539
Magnitude (Debye)      :      0.06455

                             ****ORCA TERMINATED NORMALLY****
TOTAL RUN TIME: 0 days 0 hours 0 minutes 8 seconds 895 msec
