                         Program Version 3.0.3 - RELEASE   -
|  1> ! RI PBE def2-SVP def2-SVP/J NBO PAL2
|  2> % maxcore 2000
|  3> % output
|  4>     # printlevel mini
|  5>     print[ P_Basis ] 0
|  6>     print[ P_SCFInfo ] 1
|  7>     print[ P_SCFIterInfo ] 1
|  8>     print[ P_OrbEn ] 0
|  9>     print[ P_Cartesian ] 0
| 10> end
| 11> *xyz 0 1
| 12>  C        0.8880480000    -0.8499220000    -0.0197080000
| 13>  C        2.3682350000    -0.5262280000    -0.1338260000
| 14>  C        2.7598650000     0.0036520000    -1.5044870000
| 15>  C        4.2391490000     0.3313610000    -1.6312780000
| 16>  C        4.6292950000     0.8609690000    -3.0020630000
| 17>  C        6.1087210000     1.1891740000    -3.1302760000
| 18>  C        6.4859900000     1.7172960000    -4.5041430000
| 19>  H        0.6334730000    -1.2281330000     0.9731420000
| 20>  H        0.5935750000    -1.6090970000    -0.7498870000
| 21>  H        0.2756070000     0.0372500000    -0.2042680000
| 22>  H        2.9589770000    -1.4226990000     0.0876890000
| 23>  H        2.6434140000     0.2112080000     0.6291750000
| 24>  H        2.1687400000     0.9009720000    -1.7273960000
| 25>  H        2.4844510000    -0.7337370000    -2.2691470000
| 26>  H        4.8295340000    -0.5662770000    -1.4081670000
| 27>  H        4.5137880000     1.0686430000    -0.8663760000
| 28>  H        4.0392890000     1.7587970000    -3.2258840000
| 29>  H        4.3549980000     0.1240780000    -3.7676040000
| 30>  H        6.6971320000     0.2916390000    -2.9068710000
| 31>  H        6.3815780000     1.9255650000    -2.3654340000
| 32>  H        6.2538540000     0.9866730000    -5.2842230000
| 33>  H        7.5525160000     1.9449790000    -4.5696040000
| 34>  H        5.9358690000     2.6330390000    -4.7386730000
| 35> *
| 36>
| 37>                          ****END OF INPUT****
 Total Charge           Charge          ....    0
 Multiplicity           Mult            ....    1
 Number of Electrons    NEL             ....   58
 Basis Dimension        Dim             ....  178

MULLIKEN ATOMIC CHARGES
-----------------------
   0 C :   -0.005558
   1 C :   -0.037628
   2 C :   -0.026524
   3 C :   -0.003123
   4 C :   -0.025788
   5 C :   -0.037732
   6 C :   -0.010571
   7 H :    0.015728
   8 H :    0.016634
   9 H :    0.016647
  10 H :    0.007171
  11 H :    0.009655
  12 H :    0.001373
  13 H :    0.003214
  14 H :   -0.000120
  15 H :    0.001677
  16 H :    0.001335
  17 H :    0.003246
  18 H :    0.008373
  19 H :    0.009062
  20 H :    0.018863
  21 H :    0.019034
  22 H :    0.015032
Sum of atomic charges:   -0.0000000

LOEWDIN ATOMIC CHARGES
----------------------
   0 C :   -0.067232
   1 C :   -0.047638
   2 C :   -0.043686
   3 C :   -0.042687
   4 C :   -0.043592
   5 C :   -0.047696
   6 C :   -0.068567
   7 H :    0.025578
   8 H :    0.023793
   9 H :    0.024130
  10 H :    0.021982
  11 H :    0.022185
  12 H :    0.020550
  13 H :    0.020737
  14 H :    0.020888
  15 H :    0.021050
  16 H :    0.020576
  17 H :    0.020760
  18 H :    0.022087
  19 H :    0.022071
  20 H :    0.024445
  21 H :    0.026309
  22 H :    0.023958

  Mayer bond orders larger than 0.1
B(  0-C ,  1-C ) :   1.1154 B(  0-C ,  7-H ) :   0.9596 B(  0-C ,  8-H ) :   0.9662
B(  0-C ,  9-H ) :   0.9647 B(  1-C ,  2-C ) :   1.0942 B(  1-C , 10-H ) :   0.9353
B(  1-C , 11-H ) :   0.9381 B(  2-C ,  3-C ) :   1.0888 B(  2-C , 12-H ) :   0.9324
B(  2-C , 13-H ) :   0.9352 B(  3-C ,  4-C ) :   1.0929 B(  3-C , 14-H ) :   0.9285
B(  3-C , 15-H ) :   0.9315 B(  4-C ,  5-C ) :   1.0916 B(  4-C , 16-H ) :   0.9321
B(  4-C , 17-H ) :   0.9353 B(  5-C ,  6-C ) :   1.1201 B(  5-C , 18-H ) :   0.9357
B(  5-C , 19-H ) :   0.9375 B(  6-C , 20-H ) :   0.9652 B(  6-C , 21-H ) :   0.9591
B(  6-C , 22-H ) :   0.9635

FINAL SINGLE POINT ENERGY      -275.782121561589

DIPOLE MOMENT
-------------
                                X             Y             Z
Electronic contribution:      0.40317      -0.07321       0.46127
Nuclear contribution   :     -0.38811       0.07191      -0.44332
                        -----------------------------------------
Total Dipole Moment    :      0.01506      -0.00130       0.01795
                        -----------------------------------------
Magnitude (a.u.)       :      0.02347
Magnitude (Debye)      :      0.05966

                             ****ORCA TERMINATED NORMALLY****
TOTAL RUN TIME: 0 days 0 hours 0 minutes 8 seconds 737 msec
