                         Program Version 3.0.3 - RELEASE   -
|  1> ! RI PBE def2-SVP def2-SVP/J NBO PAL2
|  2> % maxcore 2000
|  3> % output
|  4>     # printlevel mini
|  5>     print[ P_Basis ] 0
|  6>     print[ P_SCFInfo ] 1
|  7>     print[ P_SCFIterInfo ] 1
|  8>     print[ P_OrbEn ] 0
|  9>     print[ P_Cartesian ] 0
| 10> end
| 11> *xyz 0 1
| 12>  C        3.9720600000    -0.0944540000     0.8313340000
| 13>  C        2.7672390000    -1.0303990000     0.8311090000
| 14>  C        1.5132340000    -0.2261640000     1.1600920000
| 15>  C        2.6413640000    -1.8930920000    -0.4556380000
| 16>  C        1.4660670000    -2.8616940000    -0.3121780000
| 17>  C        3.9100930000    -2.7272700000    -0.6415120000
| 18>  C        2.4262020000    -1.0383880000    -1.7036780000
| 19>  H        4.9152740000    -0.6229890000     0.6857280000
| 20>  H        4.0369400000     0.4311820000     1.7874960000
| 21>  H        3.8872480000     0.6675600000     0.0514110000
| 22>  H        2.9151370000    -1.7501560000     1.6484960000
| 23>  H        1.6451270000     0.3006660000     2.1086690000
| 24>  H        1.3121620000     0.5315630000     0.3975120000
| 25>  H        0.6250420000    -0.8523410000     1.2562240000
| 26>  H        0.5057630000    -2.3431540000    -0.2869580000
| 27>  H        1.5541880000    -3.4559290000     0.6026420000
| 28>  H        1.4399500000    -3.5549580000    -1.1573640000
| 29>  H        4.7809760000    -2.1080020000    -0.8646320000
| 30>  H        4.1320140000    -3.3130150000     0.2559600000
| 31>  H        3.7861640000    -3.4269700000    -1.4725960000
| 32>  H        1.5080070000    -0.4498250000    -1.6398940000
| 33>  H        2.3433720000    -1.6772810000    -2.5875990000
| 34>  H        3.2587780000    -0.3519880000    -1.8747260000
| 35> *
| 36>
| 37>                          ****END OF INPUT****
 Total Charge           Charge          ....    0
 Multiplicity           Mult            ....    1
 Number of Electrons    NEL             ....   58
 Basis Dimension        Dim             ....  178

MULLIKEN ATOMIC CHARGES
-----------------------
   0 C :    0.021656
   1 C :   -0.077297
   2 C :    0.017921
   3 C :   -0.313503
   4 C :    0.060640
   5 C :    0.066939
   6 C :    0.048183
   7 H :    0.012316
   8 H :    0.009357
   9 H :    0.018762
  10 H :   -0.004110
  11 H :    0.010132
  12 H :    0.017943
  13 H :    0.014573
  14 H :    0.012637
  15 H :    0.008943
  16 H :    0.009877
  17 H :    0.012533
  18 H :    0.008346
  19 H :    0.007249
  20 H :    0.013883
  21 H :    0.008003
  22 H :    0.015019
Sum of atomic charges:   -0.0000000

LOEWDIN ATOMIC CHARGES
----------------------
   0 C :   -0.059886
   1 C :   -0.035977
   2 C :   -0.061030
   3 C :   -0.060569
   4 C :   -0.049777
   5 C :   -0.049419
   6 C :   -0.052134
   7 H :    0.022443
   8 H :    0.025621
   9 H :    0.023361
  10 H :    0.021237
  11 H :    0.026048
  12 H :    0.023141
  13 H :    0.023040
  14 H :    0.020577
  15 H :    0.023169
  16 H :    0.023352
  17 H :    0.020740
  18 H :    0.022937
  19 H :    0.023128
  20 H :    0.022469
  21 H :    0.025049
  22 H :    0.022480

  Mayer bond orders larger than 0.1
B(  0-C ,  1-C ) :   1.0794 B(  0-C ,  7-H ) :   0.9549 B(  0-C ,  8-H ) :   0.9547
B(  0-C ,  9-H ) :   0.9594 B(  1-C ,  2-C ) :   1.0843 B(  1-C ,  3-C ) :   0.9966
B(  1-C , 10-H ) :   0.9028 B(  2-C , 11-H ) :   0.9533 B(  2-C , 12-H ) :   0.9583
B(  2-C , 13-H ) :   0.9536 B(  3-C ,  4-C ) :   1.0484 B(  3-C ,  5-C ) :   1.0508
B(  3-C ,  6-C ) :   1.0396 B(  4-C , 14-H ) :   0.9541 B(  4-C , 15-H ) :   0.9571
B(  4-C , 16-H ) :   0.9553 B(  5-C , 17-H ) :   0.9526 B(  5-C , 18-H ) :   0.9554
B(  5-C , 19-H ) :   0.9550 B(  6-C , 20-H ) :   0.9566 B(  6-C , 21-H ) :   0.9555
B(  6-C , 22-H ) :   0.9562

FINAL SINGLE POINT ENERGY      -275.777519768369

DIPOLE MOMENT
-------------
                                X             Y             Z
Electronic contribution:      0.06960      -0.46704       0.35076
Nuclear contribution   :     -0.06940       0.46263      -0.33510
                        -----------------------------------------
Total Dipole Moment    :      0.00020      -0.00442       0.01566
                        -----------------------------------------
Magnitude (a.u.)       :      0.01627
Magnitude (Debye)      :      0.04136

                             ****ORCA TERMINATED NORMALLY****
TOTAL RUN TIME: 0 days 0 hours 0 minutes 10 seconds 135 msec
