                         Program Version 3.0.3 - RELEASE   -
|  1> ! RI PBE def2-SVP def2-SVP/J NBO PAL2
|  2> % maxcore 2000
|  3> % output
|  4>     # printlevel mini
|  5>     print[ P_Basis ] 0
|  6>     print[ P_SCFInfo ] 1
|  7>     print[ P_SCFIterInfo ] 1
|  8>     print[ P_OrbEn ] 0
|  9>     print[ P_Cartesian ] 0
| 10> end
| 11> *xyz 0 1
| 12>  C        1.4404000000     0.4918760000     1.5400320000
| 13>  C        2.8809570000     0.4777850000     1.0460080000
| 14>  C        3.0615910000     1.4643180000    -0.0999120000
| 15>  C        3.2874030000    -0.9435890000     0.6591490000
| 16>  C        4.7303920000    -1.1546980000     0.2026670000
| 17>  C        4.9400270000    -2.6060140000    -0.2086720000
| 18>  C        5.7402990000    -0.7511550000     1.2686180000
| 19>  H        1.3015750000    -0.1907560000     2.3826150000
| 20>  H        0.7541720000     0.1817380000     0.7451310000
| 21>  H        1.1406130000     1.4918040000     1.8644570000
| 22>  H        3.5178270000     0.8036840000     1.8778760000
| 23>  H        2.4693070000     1.1594820000    -0.9692900000
| 24>  H        2.7311920000     2.4651520000     0.1903680000
| 25>  H        4.1035220000     1.5416160000    -0.4184470000
| 26>  H        2.6153460000    -1.2869020000    -0.1390630000
| 27>  H        3.0984950000    -1.6055340000     1.5151920000
| 28>  H        4.9056810000    -0.5323260000    -0.6837550000
| 29>  H        4.7858520000    -3.2771250000     0.6426820000
| 30>  H        4.2405530000    -2.9021810000    -0.9949450000
| 31>  H        5.9543470000    -2.7716540000    -0.5810900000
| 32>  H        5.6727570000     0.3092450000     1.5217000000
| 33>  H        6.7622050000    -0.9445850000     0.9318890000
| 34>  H        5.5809860000    -1.3238790000     2.1884810000
| 35> *
| 36>
| 37>                          ****END OF INPUT****
 Total Charge           Charge          ....    0
 Multiplicity           Mult            ....    1
 Number of Electrons    NEL             ....   58
 Basis Dimension        Dim             ....  178

MULLIKEN ATOMIC CHARGES
-----------------------
   0 C :    0.022076
   1 C :   -0.143188
   2 C :    0.025327
   3 C :    0.032064
   4 C :   -0.136049
   5 C :    0.023040
   6 C :    0.017538
   7 H :    0.014239
   8 H :    0.011100
   9 H :    0.011277
  10 H :    0.006532
  11 H :    0.008445
  12 H :    0.010394
  13 H :    0.019916
  14 H :   -0.003459
  15 H :   -0.004303
  16 H :    0.006212
  17 H :    0.010633
  18 H :    0.013458
  19 H :    0.011480
  20 H :    0.023683
  21 H :    0.011059
  22 H :    0.008526
Sum of atomic charges:   -0.0000000

LOEWDIN ATOMIC CHARGES
----------------------
   0 C :   -0.058188
   1 C :   -0.049867
   2 C :   -0.058158
   3 C :   -0.033116
   4 C :   -0.049059
   5 C :   -0.057933
   6 C :   -0.059241
   7 H :    0.023946
   8 H :    0.022859
   9 H :    0.023447
  10 H :    0.022045
  11 H :    0.023353
  12 H :    0.024321
  13 H :    0.022372
  14 H :    0.020435
  15 H :    0.020188
  16 H :    0.022057
  17 H :    0.022705
  18 H :    0.023562
  19 H :    0.023428
  20 H :    0.023101
  21 H :    0.024415
  22 H :    0.023328

  Mayer bond orders larger than 0.1
B(  0-C ,  1-C ) :   1.0909 B(  0-C ,  7-H ) :   0.9594 B(  0-C ,  8-H ) :   0.9591
B(  0-C ,  9-H ) :   0.9576 B(  1-C ,  2-C ) :   1.0809 B(  1-C ,  3-C ) :   1.0564
B(  1-C , 10-H ) :   0.9038 B(  2-C , 11-H ) :   0.9594 B(  2-C , 12-H ) :   0.9583
B(  2-C , 13-H ) :   0.9564 B(  3-C ,  4-C ) :   1.0522 B(  3-C , 14-H ) :   0.9269
B(  3-C , 15-H ) :   0.9283 B(  4-C ,  5-C ) :   1.0890 B(  4-C ,  6-C ) :   1.0824
B(  4-C , 16-H ) :   0.9041 B(  5-C , 17-H ) :   0.9591 B(  5-C , 18-H ) :   0.9599
B(  5-C , 19-H ) :   0.9581 B(  6-C , 20-H ) :   0.9564 B(  6-C , 21-H ) :   0.9593
B(  6-C , 22-H ) :   0.9589

FINAL SINGLE POINT ENERGY      -275.781567466589

DIPOLE MOMENT
-------------
                                X             Y             Z
Electronic contribution:      0.01412       0.01908      -0.00243
Nuclear contribution   :      0.01618       0.01890      -0.00108
                        -----------------------------------------
Total Dipole Moment    :      0.03030       0.03798      -0.00352
                        -----------------------------------------
Magnitude (a.u.)       :      0.04871
Magnitude (Debye)      :      0.12382

                             ****ORCA TERMINATED NORMALLY****
TOTAL RUN TIME: 0 days 0 hours 0 minutes 10 seconds 133 msec
