                         Program Version 3.0.3 - RELEASE   -
|  1> ! RI PBE def2-SVP def2-SVP/J NBO PAL2
|  2> % maxcore 2000
|  3> % output
|  4>     # printlevel mini
|  5>     print[ P_Basis ] 0
|  6>     print[ P_SCFInfo ] 1
|  7>     print[ P_SCFIterInfo ] 1
|  8>     print[ P_OrbEn ] 0
|  9>     print[ P_Cartesian ] 0
| 10> end
| 11> *xyz 0 1
| 12>  C        1.9534470000     0.9757880000    -0.5974330000
| 13>  C        2.1151670000     1.4379450000     0.8424240000
| 14>  C        3.4037970000     1.0174360000     1.5718080000
| 15>  C        4.6265860000     1.5730890000     0.8443540000
| 16>  C        3.4985290000    -0.5056030000     1.6390290000
| 17>  C        3.3162420000     1.6074770000     2.9908150000
| 18>  C        4.4828570000     1.3327850000     3.9270240000
| 19>  H        1.0053660000     1.3343880000    -1.0053120000
| 20>  H        1.9493820000    -0.1133590000    -0.6814540000
| 21>  H        2.7474540000     1.3576270000    -1.2432450000
| 22>  H        1.2624320000     1.0747300000     1.4289530000
| 23>  H        2.0533720000     2.5326600000     0.8721310000
| 24>  H        4.6968850000     1.1803800000    -0.1724260000
| 25>  H        5.5519040000     1.3011180000     1.3570170000
| 26>  H        4.5853890000     2.6649410000     0.7811920000
| 27>  H        2.6334460000    -0.9320300000     2.1563450000
| 28>  H        3.5430370000    -0.9457100000     0.6403680000
| 29>  H        4.3981270000    -0.8250240000     2.1697750000
| 30>  H        2.3946990000     1.2345740000     3.4542830000
| 31>  H        3.1853390000     2.6924350000     2.8968540000
| 32>  H        4.6247720000     0.2642490000     4.1042410000
| 33>  H        4.3060060000     1.8002760000     4.8986170000
| 34>  H        5.4225330000     1.7351280000     3.5417290000
| 35> *
| 36>
| 37>                          ****END OF INPUT****
 Total Charge           Charge          ....    0
 Multiplicity           Mult            ....    1
 Number of Electrons    NEL             ....   58
 Basis Dimension        Dim             ....  178

MULLIKEN ATOMIC CHARGES
-----------------------
   0 C :   -0.003267
   1 C :    0.011226
   2 C :   -0.326681
   3 C :    0.068573
   4 C :    0.062914
   5 C :    0.010112
   6 C :    0.016096
   7 H :    0.012669
   8 H :    0.023524
   9 H :    0.022232
  10 H :   -0.001577
  11 H :    0.004661
  12 H :    0.007629
  13 H :    0.005883
  14 H :    0.009800
  15 H :    0.007155
  16 H :    0.009958
  17 H :    0.012800
  18 H :   -0.003254
  19 H :    0.002982
  20 H :    0.018643
  21 H :    0.013156
  22 H :    0.014767
Sum of atomic charges:   -0.0000000

LOEWDIN ATOMIC CHARGES
----------------------
   0 C :   -0.069518
   1 C :   -0.035716
   2 C :   -0.063670
   3 C :   -0.049739
   4 C :   -0.050084
   5 C :   -0.036133
   6 C :   -0.066261
   7 H :    0.028208
   8 H :    0.024224
   9 H :    0.024055
  10 H :    0.020987
  11 H :    0.021794
  12 H :    0.021816
  13 H :    0.021588
  14 H :    0.023813
  15 H :    0.023380
  16 H :    0.021964
  17 H :    0.022841
  18 H :    0.020506
  19 H :    0.021528
  20 H :    0.023341
  21 H :    0.028291
  22 H :    0.022785

  Mayer bond orders larger than 0.1
B(  0-C ,  1-C ) :   1.1141 B(  0-C ,  7-H ) :   0.9521 B(  0-C ,  8-H ) :   0.9585
B(  0-C ,  9-H ) :   0.9581 B(  1-C ,  2-C ) :   1.0341 B(  1-C , 10-H ) :   0.9282
B(  1-C , 11-H ) :   0.9315 B(  2-C ,  3-C ) :   1.0461 B(  2-C ,  4-C ) :   1.0429
B(  2-C ,  5-C ) :   1.0336 B(  3-C , 12-H ) :   0.9506 B(  3-C , 13-H ) :   0.9504
B(  3-C , 14-H ) :   0.9583 B(  4-C , 15-H ) :   0.9592 B(  4-C , 16-H ) :   0.9526
B(  4-C , 17-H ) :   0.9540 B(  5-C ,  6-C ) :   1.1181 B(  5-C , 18-H ) :   0.9286
B(  5-C , 19-H ) :   0.9296 B(  6-C , 20-H ) :   0.9596 B(  6-C , 21-H ) :   0.9516
B(  6-C , 22-H ) :   0.9569

FINAL SINGLE POINT ENERGY      -275.778191389101

DIPOLE MOMENT
-------------
                                X             Y             Z
Electronic contribution:     -0.69923       0.51635       0.35761
Nuclear contribution   :      0.69440      -0.50919      -0.34803
                        -----------------------------------------
Total Dipole Moment    :     -0.00483       0.00716       0.00958
                        -----------------------------------------
Magnitude (a.u.)       :      0.01290
Magnitude (Debye)      :      0.03279

                             ****ORCA TERMINATED NORMALLY****
TOTAL RUN TIME: 0 days 0 hours 0 minutes 10 seconds 374 msec
