                         Program Version 3.0.3 - RELEASE   -
|  1> ! RI PBE def2-SVP def2-SVP/J NBO PAL2
|  2> % maxcore 2000
|  3> % output
|  4>     # printlevel mini
|  5>     print[ P_Basis ] 0
|  6>     print[ P_SCFInfo ] 1
|  7>     print[ P_SCFIterInfo ] 1
|  8>     print[ P_OrbEn ] 0
|  9>     print[ P_Cartesian ] 0
| 10> end
| 11> *xyz 0 1
| 12>  C        1.7242190000     0.4733540000    -0.5723330000
| 13>  C        1.8225590000    -0.8764580000     0.1213900000
| 14>  C        2.8991960000    -1.8423000000    -0.3817920000
| 15>  C        2.7002400000    -3.1983100000     0.2899000000
| 16>  C        4.3654480000    -1.3783930000    -0.2214910000
| 17>  C        4.6584030000    -0.7483310000     1.1345750000
| 18>  C        4.8496960000    -0.4800420000    -1.3552370000
| 19>  H        0.8214540000     1.0017560000    -0.2555080000
| 20>  H        1.6759200000     0.3605040000    -1.6591960000
| 21>  H        2.5721640000     1.1216460000    -0.3450350000
| 22>  H        0.8597060000    -1.3881720000     0.0128040000
| 23>  H        1.9502030000    -0.7256280000     1.1996340000
| 24>  H        2.7315040000    -1.9841790000    -1.4584130000
| 25>  H        1.6820600000    -3.5678330000     0.1427190000
| 26>  H        3.3892000000    -3.9459980000    -0.1110900000
| 27>  H        2.8702500000    -3.1361140000     1.3693850000
| 28>  H        4.9674450000    -2.2943610000    -0.2835060000
| 29>  H        4.1634670000     0.2205480000     1.2427010000
| 30>  H        4.3308160000    -1.3840110000     1.9609530000
| 31>  H        5.7317850000    -0.5804690000     1.2545340000
| 32>  H        4.6680290000    -0.9425550000    -2.3292940000
| 33>  H        5.9252600000    -0.3013880000    -1.2688590000
| 34>  H        4.3569470000     0.4937420000    -1.3539600000
| 35> *
| 36>
| 37>                          ****END OF INPUT****
 Total Charge           Charge          ....    0
 Multiplicity           Mult            ....    1
 Number of Electrons    NEL             ....   58
 Basis Dimension        Dim             ....  178

MULLIKEN ATOMIC CHARGES
-----------------------
   0 C :   -0.004760
   1 C :   -0.027547
   2 C :   -0.106118
   3 C :    0.024637
   4 C :   -0.103322
   5 C :    0.012849
   6 C :    0.034724
   7 H :    0.014202
   8 H :    0.016115
   9 H :    0.033122
  10 H :    0.001677
  11 H :    0.008084
  12 H :   -0.006578
  13 H :    0.012427
  14 H :    0.012333
  15 H :    0.014683
  16 H :   -0.005166
  17 H :    0.013572
  18 H :    0.013407
  19 H :    0.015841
  20 H :    0.008502
  21 H :    0.012612
  22 H :    0.004705
Sum of atomic charges:   -0.0000000

LOEWDIN ATOMIC CHARGES
----------------------
   0 C :   -0.070082
   1 C :   -0.042624
   2 C :   -0.040441
   3 C :   -0.058940
   4 C :   -0.041610
   5 C :   -0.060814
   6 C :   -0.059668
   7 H :    0.027022
   8 H :    0.024848
   9 H :    0.020838
  10 H :    0.023626
  11 H :    0.022473
  12 H :    0.021265
  13 H :    0.023463
  14 H :    0.022982
  15 H :    0.022918
  16 H :    0.024112
  17 H :    0.022963
  18 H :    0.022668
  19 H :    0.026419
  20 H :    0.022674
  21 H :    0.024262
  22 H :    0.021648

  Mayer bond orders larger than 0.1
B(  0-C ,  1-C ) :   1.1311 B(  0-C ,  7-H ) :   0.9528 B(  0-C ,  8-H ) :   0.9565
B(  0-C ,  9-H ) :   0.9540 B(  1-C ,  2-C ) :   1.0703 B(  1-C , 10-H ) :   0.9320
B(  1-C , 11-H ) :   0.9224 B(  2-C ,  3-C ) :   1.0866 B(  2-C ,  4-C ) :   1.0195
B(  2-C , 12-H ) :   0.9037 B(  3-C , 13-H ) :   0.9567 B(  3-C , 14-H ) :   0.9529
B(  3-C , 15-H ) :   0.9581 B(  4-C ,  5-C ) :   1.0874 B(  4-C ,  6-C ) :   1.0916
B(  4-C , 16-H ) :   0.9059 B(  5-C , 17-H ) :   0.9503 B(  5-C , 18-H ) :   0.9550
B(  5-C , 19-H ) :   0.9555 B(  6-C , 20-H ) :   0.9543 B(  6-C , 21-H ) :   0.9570
B(  6-C , 22-H ) :   0.9546

FINAL SINGLE POINT ENERGY      -275.775790569912

DIPOLE MOMENT
-------------
                                X             Y             Z
Electronic contribution:     -0.06688      -1.07588      -0.28595
Nuclear contribution   :      0.06267       1.06158       0.29068
                        -----------------------------------------
Total Dipole Moment    :     -0.00421      -0.01431       0.00473
                        -----------------------------------------
Magnitude (a.u.)       :      0.01565
Magnitude (Debye)      :      0.03977

                             ****ORCA TERMINATED NORMALLY****
TOTAL RUN TIME: 0 days 0 hours 0 minutes 10 seconds 99 msec
