                         Program Version 3.0.3 - RELEASE   -
|  1> ! RI PBE def2-SVP def2-SVP/J NBO PAL2
|  2> % maxcore 2000
|  3> % output
|  4>     # printlevel mini
|  5>     print[ P_Basis ] 0
|  6>     print[ P_SCFInfo ] 1
|  7>     print[ P_SCFIterInfo ] 1
|  8>     print[ P_OrbEn ] 0
|  9>     print[ P_Cartesian ] 0
| 10> end
| 11> *xyz 0 1
| 12>  C        2.0780810000     1.6289790000     2.0504810000
| 13>  C        2.0274460000     0.2275830000     2.6377620000
| 14>  C        2.5777360000    -0.8829220000     1.7389240000
| 15>  C        1.7925130000    -0.9742510000     0.4296780000
| 16>  C        2.2857230000    -2.0193640000    -0.5582420000
| 17>  C        2.6111250000    -2.2192020000     2.5009690000
| 18>  C        3.8769580000    -3.0373930000     2.2917000000
| 19>  H        1.7784820000     2.3726980000     2.7927770000
| 20>  H        1.4133260000     1.7437790000     1.1919780000
| 21>  H        3.0909900000     1.8807010000     1.7216310000
| 22>  H        0.9939720000    -0.0204540000     2.9124770000
| 23>  H        2.5960920000     0.2176600000     3.5743360000
| 24>  H        3.6145430000    -0.6136030000     1.4875650000
| 25>  H        1.8079720000     0.0019610000    -0.0639600000
| 26>  H        0.7405960000    -1.1735660000     0.6734700000
| 27>  H        2.1992770000    -3.0328110000    -0.1598900000
| 28>  H        1.7044980000    -1.9831150000    -1.4828530000
| 29>  H        3.3343750000    -1.8536730000    -0.8216160000
| 30>  H        1.7333610000    -2.8164240000     2.2270660000
| 31>  H        2.5062140000    -2.0194550000     3.5726730000
| 32>  H        4.0367610000    -3.2845530000     1.2403690000
| 33>  H        3.8406130000    -3.9753700000     2.8518210000
| 34>  H        4.7557450000    -2.4831040000     2.6336040000
| 35> *
| 36>
| 37>                          ****END OF INPUT****
 Total Charge           Charge          ....    0
 Multiplicity           Mult            ....    1
 Number of Electrons    NEL             ....   58
 Basis Dimension        Dim             ....  178

MULLIKEN ATOMIC CHARGES
-----------------------
   0 C :   -0.015890
   1 C :   -0.008918
   2 C :   -0.124021
   3 C :   -0.023647
   4 C :   -0.005143
   5 C :    0.006159
   6 C :   -0.013626
   7 H :    0.018558
   8 H :    0.024674
   9 H :    0.015360
  10 H :    0.005020
  11 H :    0.006202
  12 H :   -0.009085
  13 H :    0.008143
  14 H :    0.004225
  15 H :    0.024255
  16 H :    0.016540
  17 H :    0.017831
  18 H :    0.005180
  19 H :    0.000638
  20 H :    0.013627
  21 H :    0.015237
  22 H :    0.018683
Sum of atomic charges:   -0.0000000

LOEWDIN ATOMIC CHARGES
----------------------
   0 C :   -0.069845
   1 C :   -0.042383
   2 C :   -0.041254
   3 C :   -0.041937
   4 C :   -0.067211
   5 C :   -0.041769
   6 C :   -0.066414
   7 H :    0.028072
   8 H :    0.022870
   9 H :    0.024550
  10 H :    0.021729
  11 H :    0.021961
  12 H :    0.018336
  13 H :    0.021673
  14 H :    0.021200
  15 H :    0.022727
  16 H :    0.027109
  17 H :    0.024059
  18 H :    0.021711
  19 H :    0.023185
  20 H :    0.022142
  21 H :    0.025722
  22 H :    0.023766

  Mayer bond orders larger than 0.1
B(  0-C ,  1-C ) :   1.1242 B(  0-C ,  7-H ) :   0.9556 B(  0-C ,  8-H ) :   0.9592
B(  0-C ,  9-H ) :   0.9620 B(  1-C ,  2-C ) :   1.0688 B(  1-C , 10-H ) :   0.9278
B(  1-C , 11-H ) :   0.9285 B(  2-C ,  3-C ) :   1.0713 B(  2-C ,  5-C ) :   1.0376
B(  2-C , 12-H ) :   0.9114 B(  3-C ,  4-C ) :   1.1241 B(  3-C , 13-H ) :   0.9303
B(  3-C , 14-H ) :   0.9270 B(  4-C , 15-H ) :   0.9586 B(  4-C , 16-H ) :   0.9544
B(  4-C , 17-H ) :   0.9588 B(  5-C ,  6-C ) :   1.1260 B(  5-C , 18-H ) :   0.9283
B(  5-C , 19-H ) :   0.9293 B(  6-C , 20-H ) :   0.9600 B(  6-C , 21-H ) :   0.9562
B(  6-C , 22-H ) :   0.9635

FINAL SINGLE POINT ENERGY      -275.775604438767

DIPOLE MOMENT
-------------
                                X             Y             Z
Electronic contribution:     -0.57536       0.34252       0.78899
Nuclear contribution   :      0.56614      -0.32051      -0.78720
                        -----------------------------------------
Total Dipole Moment    :     -0.00922       0.02201       0.00179
                        -----------------------------------------
Magnitude (a.u.)       :      0.02393
Magnitude (Debye)      :      0.06083

                             ****ORCA TERMINATED NORMALLY****
TOTAL RUN TIME: 0 days 0 hours 0 minutes 10 seconds 38 msec
