                         Program Version 3.0.3 - RELEASE   -
|  1> ! RI PBE def2-SVP def2-SVP/J NBO PAL2
|  2> % maxcore 2000
|  3> % output
|  4>     # printlevel mini
|  5>     print[ P_Basis ] 0
|  6>     print[ P_SCFInfo ] 1
|  7>     print[ P_SCFIterInfo ] 1
|  8>     print[ P_OrbEn ] 0
|  9>     print[ P_Cartesian ] 0
| 10> end
| 11> *xyz 0 1
| 12>  C        1.5892870000     2.3334980000     0.0085470000
| 13>  C        2.9775050000     1.9340340000    -0.4641030000
| 14>  C        2.9399230000     0.9751050000    -1.6450530000
| 15>  C        4.2989290000     0.5905450000    -2.2306170000
| 16>  C        4.1059760000    -0.1449330000    -3.5508900000
| 17>  C        5.1336570000    -0.2274680000    -1.2448190000
| 18>  C        6.5547590000    -0.5172600000    -1.7023260000
| 19>  H        1.6354410000     3.0231710000     0.8546410000
| 20>  H        1.0144190000     1.4584610000     0.3251300000
| 21>  H        1.0254390000     2.8243340000    -0.7899000000
| 22>  H        3.5240760000     1.4850240000     0.3709330000
| 23>  H        3.5404330000     2.8309930000    -0.7486720000
| 24>  H        2.3365230000     1.4311200000    -2.4398320000
| 25>  H        2.4059200000     0.0599710000    -1.3541890000
| 26>  H        4.8469980000     1.5213200000    -2.4384120000
| 27>  H        3.5743260000    -1.0892580000    -3.3923440000
| 28>  H        3.5151490000     0.4533830000    -4.2492580000
| 29>  H        5.0556290000    -0.3753150000    -4.0374410000
| 30>  H        4.6106510000    -1.1717440000    -1.0448950000
| 31>  H        5.1786930000     0.3014650000    -0.2881980000
| 32>  H        6.5800450000    -1.1445150000    -2.5959050000
| 33>  H        7.1183030000    -1.0374880000    -0.9241790000
| 34>  H        7.0895300000     0.4090570000    -1.9328270000
| 35> *
| 36>
| 37>                          ****END OF INPUT****
 Total Charge           Charge          ....    0
 Multiplicity           Mult            ....    1
 Number of Electrons    NEL             ....   58
 Basis Dimension        Dim             ....  178

MULLIKEN ATOMIC CHARGES
-----------------------
   0 C :   -0.018939
   1 C :   -0.033684
   2 C :    0.002999
   3 C :   -0.115859
   4 C :    0.028072
   5 C :   -0.020989
   6 C :   -0.011727
   7 H :    0.021524
   8 H :    0.017068
   9 H :    0.018354
  10 H :    0.015567
  11 H :    0.005115
  12 H :   -0.002809
  13 H :   -0.003413
  14 H :   -0.003896
  15 H :    0.009519
  16 H :    0.013862
  17 H :    0.013532
  18 H :    0.000045
  19 H :    0.008364
  20 H :    0.021040
  21 H :    0.020265
  22 H :    0.015992
Sum of atomic charges:    0.0000000

LOEWDIN ATOMIC CHARGES
----------------------
   0 C :   -0.068698
   1 C :   -0.047555
   2 C :   -0.038192
   3 C :   -0.044330
   4 C :   -0.059798
   5 C :   -0.041942
   6 C :   -0.068809
   7 H :    0.026310
   8 H :    0.024773
   9 H :    0.023946
  10 H :    0.021029
  11 H :    0.022254
  12 H :    0.021328
  13 H :    0.020383
  14 H :    0.020621
  15 H :    0.023961
  16 H :    0.024659
  17 H :    0.022486
  18 H :    0.021090
  19 H :    0.021415
  20 H :    0.022640
  21 H :    0.027413
  22 H :    0.025018

  Mayer bond orders larger than 0.1
B(  0-C ,  1-C ) :   1.1228 B(  0-C ,  7-H ) :   0.9602 B(  0-C ,  8-H ) :   0.9622
B(  0-C ,  9-H ) :   0.9633 B(  1-C ,  2-C ) :   1.1005 B(  1-C , 10-H ) :   0.9291
B(  1-C , 11-H ) :   0.9331 B(  2-C ,  3-C ) :   1.0601 B(  2-C , 12-H ) :   0.9302
B(  2-C , 13-H ) :   0.9243 B(  3-C ,  4-C ) :   1.0862 B(  3-C ,  5-C ) :   1.0640
B(  3-C , 14-H ) :   0.9044 B(  4-C , 15-H ) :   0.9561 B(  4-C , 16-H ) :   0.9549
B(  4-C , 17-H ) :   0.9549 B(  5-C ,  6-C ) :   1.1208 B(  5-C , 18-H ) :   0.9297
B(  5-C , 19-H ) :   0.9325 B(  6-C , 20-H ) :   0.9597 B(  6-C , 21-H ) :   0.9576
B(  6-C , 22-H ) :   0.9610

FINAL SINGLE POINT ENERGY      -275.780175032032

DIPOLE MOMENT
-------------
                                X             Y             Z
Electronic contribution:      0.04591       0.27273      -0.03163
Nuclear contribution   :     -0.02694      -0.25150       0.05294
                        -----------------------------------------
Total Dipole Moment    :      0.01897       0.02123       0.02130
                        -----------------------------------------
Magnitude (a.u.)       :      0.03556
Magnitude (Debye)      :      0.09038

                             ****ORCA TERMINATED NORMALLY****
TOTAL RUN TIME: 0 days 0 hours 0 minutes 9 seconds 849 msec
