                         Program Version 3.0.3 - RELEASE   -
|  1> ! RI PBE def2-SVP def2-SVP/J NBO PAL2
|  2> % maxcore 2000
|  3> % output
|  4>     # printlevel mini
|  5>     print[ P_Basis ] 0
|  6>     print[ P_SCFInfo ] 1
|  7>     print[ P_SCFIterInfo ] 1
|  8>     print[ P_OrbEn ] 0
|  9>     print[ P_Cartesian ] 0
| 10> end
| 11> *xyz 0 1
| 12>  C        1.3722770000    -0.7595960000     1.6714820000
| 13>  C        2.7389250000    -1.2663740000     1.2384650000
| 14>  C        3.7066720000    -0.1286810000     0.9479730000
| 15>  C        5.1269810000    -0.5082080000     0.4994380000
| 16>  C        5.0914660000    -1.3018490000    -0.8055120000
| 17>  C        5.8366840000    -1.3275950000     1.5759830000
| 18>  C        5.9080600000     0.7841270000     0.2689990000
| 19>  H        0.6852810000    -1.5837660000     1.8775490000
| 20>  H        0.9188540000    -0.1353460000     0.8962070000
| 21>  H        1.4453270000    -0.1534480000     2.5789950000
| 22>  H        2.6230720000    -1.8959690000     0.3503220000
| 23>  H        3.1459750000    -1.9139850000     2.0217400000
| 24>  H        3.7896140000     0.4973520000     1.8461970000
| 25>  H        3.2667560000     0.5154390000     0.1751940000
| 26>  H        4.5877600000    -2.2636430000    -0.6840900000
| 27>  H        6.1061690000    -1.5055110000    -1.1595680000
| 28>  H        4.5705990000    -0.7449690000    -1.5902830000
| 29>  H        5.8593260000    -0.7895540000     2.5284980000
| 30>  H        5.3477660000    -2.2899540000     1.7443100000
| 31>  H        6.8709950000    -1.5318190000     1.2845210000
| 32>  H        5.4332520000     1.3976420000    -0.5021610000
| 33>  H        6.9313800000     0.5721350000    -0.0535420000
| 34>  H        5.9612980000     1.3793620000     1.1851820000
| 35> *
| 36>
| 37>                          ****END OF INPUT****
 Total Charge           Charge          ....    0
 Multiplicity           Mult            ....    1
 Number of Electrons    NEL             ....   58
 Basis Dimension        Dim             ....  178

MULLIKEN ATOMIC CHARGES
-----------------------
   0 C :   -0.022790
   1 C :   -0.031073
   2 C :    0.030537
   3 C :   -0.334926
   4 C :    0.066557
   5 C :    0.069848
   6 C :    0.066832
   7 H :    0.018775
   8 H :    0.019727
   9 H :    0.017420
  10 H :    0.013398
  11 H :    0.012336
  12 H :   -0.003260
  13 H :   -0.002453
  14 H :    0.013091
  15 H :    0.006491
  16 H :    0.007349
  17 H :    0.008242
  18 H :    0.010390
  19 H :    0.006173
  20 H :    0.009744
  21 H :    0.007652
  22 H :    0.009940
Sum of atomic charges:   -0.0000000

LOEWDIN ATOMIC CHARGES
----------------------
   0 C :   -0.067188
   1 C :   -0.048845
   2 C :   -0.032466
   3 C :   -0.066167
   4 C :   -0.049605
   5 C :   -0.049029
   6 C :   -0.049151
   7 H :    0.026213
   8 H :    0.024259
   9 H :    0.024141
  10 H :    0.022890
  11 H :    0.022442
  12 H :    0.020290
  13 H :    0.020146
  14 H :    0.021140
  15 H :    0.023507
  16 H :    0.023050
  17 H :    0.023052
  18 H :    0.020535
  19 H :    0.023582
  20 H :    0.022551
  21 H :    0.021976
  22 H :    0.022677

  Mayer bond orders larger than 0.1
B(  0-C ,  1-C ) :   1.1223 B(  0-C ,  7-H ) :   0.9583 B(  0-C ,  8-H ) :   0.9652
B(  0-C ,  9-H ) :   0.9637 B(  1-C ,  2-C ) :   1.0934 B(  1-C , 10-H ) :   0.9291
B(  1-C , 11-H ) :   0.9295 B(  2-C ,  3-C ) :   1.0241 B(  2-C , 12-H ) :   0.9278
B(  2-C , 13-H ) :   0.9305 B(  3-C ,  4-C ) :   1.0536 B(  3-C ,  5-C ) :   1.0514
B(  3-C ,  6-C ) :   1.0594 B(  4-C , 14-H ) :   0.9520 B(  4-C , 15-H ) :   0.9546
B(  4-C , 16-H ) :   0.9575 B(  5-C , 17-H ) :   0.9585 B(  5-C , 18-H ) :   0.9526
B(  5-C , 19-H ) :   0.9541 B(  6-C , 20-H ) :   0.9561 B(  6-C , 21-H ) :   0.9528
B(  6-C , 22-H ) :   0.9558

FINAL SINGLE POINT ENERGY      -275.780868769160

DIPOLE MOMENT
-------------
                                X             Y             Z
Electronic contribution:      0.41336       0.08559      -0.12822
Nuclear contribution   :     -0.41530      -0.11149       0.12868
                        -----------------------------------------
Total Dipole Moment    :     -0.00194      -0.02590       0.00045
                        -----------------------------------------
Magnitude (a.u.)       :      0.02598
Magnitude (Debye)      :      0.06602

                             ****ORCA TERMINATED NORMALLY****
TOTAL RUN TIME: 0 days 0 hours 0 minutes 9 seconds 981 msec
