                         Program Version 3.0.3 - RELEASE   -
|  1> ! RI PBE def2-SVP def2-SVP/J NBO PAL2
|  2> % maxcore 2000
|  3> % output
|  4>     # printlevel mini
|  5>     print[ P_Basis ] 0
|  6>     print[ P_SCFInfo ] 1
|  7>     print[ P_SCFIterInfo ] 1
|  8>     print[ P_OrbEn ] 0
|  9>     print[ P_Cartesian ] 0
| 10> end
| 11> *xyz 0 1
| 12>  C        1.2653410000    -0.0077660000    -1.0464220000
| 13>  C        2.5496810000     0.2204010000    -0.2674660000
| 14>  C        3.0084490000     1.6706910000    -0.2830220000
| 15>  C        4.2912450000     1.9004210000     0.5011030000
| 16>  C        4.8563060000     3.3177710000     0.4298220000
| 17>  C        6.2198310000     3.3816490000     1.1043860000
| 18>  C        3.9139790000     4.3494300000     1.0362010000
| 19>  H        0.9594550000    -1.0562850000    -1.0206700000
| 20>  H        1.3847890000     0.2774030000    -2.0956150000
| 21>  H        0.4445280000     0.5874980000    -0.6362980000
| 22>  H        3.3453760000    -0.4134430000    -0.6759700000
| 23>  H        2.4117740000    -0.1020840000     0.7712540000
| 24>  H        2.2046750000     2.2998820000     0.1153480000
| 25>  H        3.1565790000     1.9903730000    -1.3227930000
| 26>  H        5.0549830000     1.2026610000     0.1354360000
| 27>  H        4.1256430000     1.6388560000     1.5552270000
| 28>  H        4.9927310000     3.5670530000    -0.6316000000
| 29>  H        6.1371720000     3.1350990000     2.1680200000
| 30>  H        6.9219470000     2.6750240000     0.6539900000
| 31>  H        6.6546260000     4.3818680000     1.0300680000
| 32>  H        2.9500300000     4.3778270000     0.5243010000
| 33>  H        4.3453910000     5.3524870000     0.9829030000
| 34>  H        3.7259780000     4.1262730000     2.0918970000
| 35> *
| 36>
| 37>                          ****END OF INPUT****
 Total Charge           Charge          ....    0
 Multiplicity           Mult            ....    1
 Number of Electrons    NEL             ....   58
 Basis Dimension        Dim             ....  178

MULLIKEN ATOMIC CHARGES
-----------------------
   0 C :   -0.010421
   1 C :   -0.041461
   2 C :   -0.020355
   3 C :    0.016642
   4 C :   -0.137359
   5 C :    0.023495
   6 C :    0.010778
   7 H :    0.019288
   8 H :    0.017838
   9 H :    0.015613
  10 H :    0.009372
  11 H :    0.007430
  12 H :    0.006890
  13 H :   -0.000033
  14 H :   -0.003965
  15 H :   -0.001937
  16 H :    0.003253
  17 H :    0.011124
  18 H :    0.013680
  19 H :    0.014902
  20 H :    0.021120
  21 H :    0.013590
  22 H :    0.010513
Sum of atomic charges:    0.0000000

LOEWDIN ATOMIC CHARGES
----------------------
   0 C :   -0.068546
   1 C :   -0.046136
   2 C :   -0.044643
   3 C :   -0.037690
   4 C :   -0.048165
   5 C :   -0.060193
   6 C :   -0.060821
   7 H :    0.025895
   8 H :    0.024474
   9 H :    0.023965
  10 H :    0.021910
  11 H :    0.022247
  12 H :    0.020284
  13 H :    0.020966
  14 H :    0.021080
  15 H :    0.020238
  16 H :    0.022805
  17 H :    0.023526
  18 H :    0.023655
  19 H :    0.023772
  20 H :    0.023026
  21 H :    0.024710
  22 H :    0.023639

  Mayer bond orders larger than 0.1
B(  0-C ,  1-C ) :   1.1196 B(  0-C ,  7-H ) :   0.9607 B(  0-C ,  8-H ) :   0.9642
B(  0-C ,  9-H ) :   0.9630 B(  1-C ,  2-C ) :   1.0985 B(  1-C , 10-H ) :   0.9361
B(  1-C , 11-H ) :   0.9357 B(  2-C ,  3-C ) :   1.0915 B(  2-C , 12-H ) :   0.9258
B(  2-C , 13-H ) :   0.9303 B(  3-C ,  4-C ) :   1.0592 B(  3-C , 14-H ) :   0.9273
B(  3-C , 15-H ) :   0.9268 B(  4-C ,  5-C ) :   1.0906 B(  4-C ,  6-C ) :   1.0800
B(  4-C , 16-H ) :   0.9082 B(  5-C , 17-H ) :   0.9584 B(  5-C , 18-H ) :   0.9569
B(  5-C , 19-H ) :   0.9595 B(  6-C , 20-H ) :   0.9587 B(  6-C , 21-H ) :   0.9595
B(  6-C , 22-H ) :   0.9597

FINAL SINGLE POINT ENERGY      -275.781787149629

DIPOLE MOMENT
-------------
                                X             Y             Z
Electronic contribution:      0.66875      -0.11542      -0.24178
Nuclear contribution   :     -0.67108       0.10817       0.21646
                        -----------------------------------------
Total Dipole Moment    :     -0.00233      -0.00725      -0.02532
                        -----------------------------------------
Magnitude (a.u.)       :      0.02644
Magnitude (Debye)      :      0.06721

                             ****ORCA TERMINATED NORMALLY****
TOTAL RUN TIME: 0 days 0 hours 0 minutes 9 seconds 514 msec
