                         Program Version 3.0.3 - RELEASE   -
|  1> ! RI PBE def2-SVP def2-SVP/J NBO PAL2
|  2> % maxcore 2000
|  3> % output
|  4>     # printlevel mini
|  5>     print[ P_Basis ] 0
|  6>     print[ P_SCFInfo ] 1
|  7>     print[ P_SCFIterInfo ] 1
|  8>     print[ P_OrbEn ] 0
|  9>     print[ P_Cartesian ] 0
| 10> end
| 11> *xyz 0 1
| 12>  C       -0.0467090000     0.0263700000    -1.3854600000
| 13>  C        0.0121110000    -1.1096390000    -0.3378750000
| 14>  C        1.2548180000    -0.6426070000     0.4268620000
| 15>  C        1.2205980000     0.6848910000     0.4547300000
| 16>  C       -0.0453350000     1.1189680000    -0.2910930000
| 17>  C       -1.2436820000     0.6199440000     0.5226650000
| 18>  C       -1.2094630000    -0.7075540000     0.4948000000
| 19>  H       -0.9636500000     0.0151800000    -1.9783430000
| 20>  H        0.8355140000     0.0625980000    -2.0279440000
| 21>  H        0.0291510000    -2.1357780000    -0.7007680000
| 22>  H        1.9728370000    -1.3008130000     0.8969190000
| 23>  H        1.9042770000     1.3589070000     0.9527530000
| 24>  H       -0.0815530000     2.1589380000    -0.6106150000
| 25>  H       -1.9334320000     1.2577620000     1.0585500000
| 26>  H       -1.8648710000    -1.4019570000     1.0027210000
| 27> *
| 28>
| 29>                          ****END OF INPUT****
 Total Charge           Charge          ....    0
 Multiplicity           Mult            ....    1
 Number of Electrons    NEL             ....   50
 Basis Dimension        Dim             ....  138

MULLIKEN ATOMIC CHARGES
-----------------------
   0 C :    0.101750
   1 C :   -0.071414
   2 C :    0.016383
   3 C :    0.018184
   4 C :   -0.073253
   5 C :    0.015937
   6 C :    0.019282
   7 H :    0.014924
   8 H :    0.015504
   9 H :   -0.009634
  10 H :   -0.009695
  11 H :   -0.009585
  12 H :   -0.009126
  13 H :   -0.009240
  14 H :   -0.010017
Sum of atomic charges:   -0.0000000

LOEWDIN ATOMIC CHARGES
----------------------
   0 C :    0.008564
   1 C :   -0.034065
   2 C :   -0.024664
   3 C :   -0.024559
   4 C :   -0.034293
   5 C :   -0.025051
   6 C :   -0.024262
   7 H :    0.018917
   8 H :    0.018993
   9 H :    0.018044
  10 H :    0.021036
  11 H :    0.021078
  12 H :    0.018146
  13 H :    0.021097
  14 H :    0.021019

  Mayer bond orders larger than 0.1
B(  0-C ,  1-C ) :   0.9950 B(  0-C ,  4-C ) :   0.9947 B(  0-C ,  7-H ) :   0.9389
B(  0-C ,  8-H ) :   0.9392 B(  1-C ,  2-C ) :   0.9476 B(  1-C ,  6-C ) :   0.9470
B(  1-C ,  9-H ) :   0.9513 B(  2-C ,  3-C ) :   1.8317 B(  2-C , 10-H ) :   1.0021
B(  3-C ,  4-C ) :   0.9474 B(  3-C , 11-H ) :   1.0022 B(  4-C ,  5-C ) :   0.9469
B(  4-C , 12-H ) :   0.9513 B(  5-C ,  6-C ) :   1.8315 B(  5-C , 13-H ) :   1.0023
B(  6-C , 14-H ) :   1.0024

FINAL SINGLE POINT ENERGY      -270.923227004938

DIPOLE MOMENT
-------------
                                X             Y             Z
Electronic contribution:      0.03213      -0.02313       1.09423
Nuclear contribution   :     -0.03067       0.02212      -1.09138
                        -----------------------------------------
Total Dipole Moment    :      0.00146      -0.00101       0.00285
                        -----------------------------------------
Magnitude (a.u.)       :      0.00336
Magnitude (Debye)      :      0.00853

                             ****ORCA TERMINATED NORMALLY****
TOTAL RUN TIME: 0 days 0 hours 0 minutes 6 seconds 899 msec
