                         Program Version 3.0.3 - RELEASE   -
|  1> ! RI PBE def2-SVP def2-SVP/J NBO PAL2
|  2> % maxcore 2000
|  3> % output
|  4>     # printlevel mini
|  5>     print[ P_Basis ] 0
|  6>     print[ P_SCFInfo ] 1
|  7>     print[ P_SCFIterInfo ] 1
|  8>     print[ P_OrbEn ] 0
|  9>     print[ P_Cartesian ] 0
| 10> end
| 11> *xyz 0 1
| 12>  C       -1.4149810000     0.8291610000     0.5935810000
| 13>  C       -1.1620790000    -0.3977570000    -0.2229410000
| 14>  C       -0.2396680000    -1.4225010000     0.2603720000
| 15>  C        1.0424520000    -1.1472510000     0.5516750000
| 16>  C        1.6337140000     0.1242470000     0.2018650000
| 17>  C        0.9218230000     1.0743040000    -0.4264770000
| 18>  C       -0.5254620000     0.9715970000    -0.5996630000
| 19>  H       -0.9478150000     0.8800000000     1.5692920000
| 20>  H       -2.4019530000     1.2681640000     0.5242400000
| 21>  H       -1.9925490000    -0.7407650000    -0.8303740000
| 22>  H       -0.6158970000    -2.4358590000     0.3557990000
| 23>  H        1.6864770000    -1.9269790000     0.9429300000
| 24>  H        2.7010420000     0.2544070000     0.3425350000
| 25>  H        1.4203660000     1.9409770000    -0.8482310000
| 26>  H       -0.9508600000     1.4985540000    -1.4468130000
| 27> *
| 28>
| 29>                          ****END OF INPUT****
 Total Charge           Charge          ....    0
 Multiplicity           Mult            ....    1
 Number of Electrons    NEL             ....   50
 Basis Dimension        Dim             ....  138

MULLIKEN ATOMIC CHARGES
-----------------------
   0 C :    0.057561
   1 C :   -0.080125
   2 C :    0.045162
   3 C :   -0.020475
   4 C :   -0.021027
   5 C :    0.045998
   6 C :   -0.078412
   7 H :    0.041147
   8 H :    0.033621
   9 H :    0.017612
  10 H :   -0.014235
  11 H :   -0.015193
  12 H :   -0.014245
  13 H :   -0.014196
  14 H :    0.016808
Sum of atomic charges:   -0.0000000

LOEWDIN ATOMIC CHARGES
----------------------
   0 C :   -0.020939
   1 C :   -0.026113
   2 C :   -0.022947
   3 C :   -0.053979
   4 C :   -0.054916
   5 C :   -0.022731
   6 C :   -0.026318
   7 H :    0.031088
   8 H :    0.030462
   9 H :    0.028571
  10 H :    0.027734
  11 H :    0.026830
  12 H :    0.027106
  13 H :    0.027915
  14 H :    0.028236

  Mayer bond orders larger than 0.1
B(  0-C ,  1-C ) :   0.9737 B(  0-C ,  6-C ) :   0.9765 B(  0-C ,  7-H ) :   0.9484
B(  0-C ,  8-H ) :   0.9388 B(  1-C ,  2-C ) :   1.1066 B(  1-C ,  6-C ) :   0.8314
B(  1-C ,  9-H ) :   0.9359 B(  2-C ,  3-C ) :   1.7062 B(  2-C ,  5-C ) :   0.1115
B(  2-C , 10-H ) :   0.9786 B(  3-C ,  4-C ) :   1.1261 B(  3-C , 11-H ) :   0.9714
B(  4-C ,  5-C ) :   1.7089 B(  4-C , 12-H ) :   0.9725 B(  5-C ,  6-C ) :   1.1055
B(  5-C , 13-H ) :   0.9762 B(  6-C , 14-H ) :   0.9358

FINAL SINGLE POINT ENERGY      -270.944891389832

DIPOLE MOMENT
-------------
                                X             Y             Z
Electronic contribution:      0.94310      -0.51853      -0.27646
Nuclear contribution   :     -1.19296       0.60109       0.17101
                        -----------------------------------------
Total Dipole Moment    :     -0.24986       0.08256      -0.10544
                        -----------------------------------------
Magnitude (a.u.)       :      0.28349
Magnitude (Debye)      :      0.72057

                             ****ORCA TERMINATED NORMALLY****
TOTAL RUN TIME: 0 days 0 hours 0 minutes 7 seconds 256 msec
