                         Program Version 3.0.3 - RELEASE   -
|  1> ! RI PBE def2-SVP def2-SVP/J NBO PAL2
|  2> % maxcore 2000
|  3> % output
|  4>     # printlevel mini
|  5>     print[ P_Basis ] 0
|  6>     print[ P_SCFInfo ] 1
|  7>     print[ P_SCFIterInfo ] 1
|  8>     print[ P_OrbEn ] 0
|  9>     print[ P_Cartesian ] 0
| 10> end
| 11> *xyz 0 1
| 12>  C       -2.6727210000     0.3282630000     0.6120700000
| 13>  C       -2.4566780000     0.3251510000    -0.8732200000
| 14>  C       -1.2905310000     0.2053990000     0.0599960000
| 15>  C       -0.5101790000    -1.1041170000     0.1326120000
| 16>  C        0.9021790000    -0.6646900000    -0.1130500000
| 17>  C        1.0258090000     0.6577630000    -0.0978380000
| 18>  C       -0.2811660000     1.3456070000     0.1607910000
| 19>  H       -3.1215090000    -0.5498840000     1.0624380000
| 20>  H       -2.9519490000     1.2638700000     1.0833010000
| 21>  H       -2.5863940000     1.2595580000    -1.4075710000
| 22>  H       -2.7561780000    -0.5565970000    -1.4284620000
| 23>  H       -0.8606990000    -1.8367280000    -0.6022740000
| 24>  H       -0.6006880000    -1.5822340000     1.1173940000
| 25>  H        1.7199570000    -1.3623960000    -0.2527810000
| 26>  H        1.9590200000     1.1948290000    -0.2233660000
| 27>  H       -0.4882730000     2.1470520000    -0.5564490000
| 28>  H       -0.2835980000     1.8096330000     1.1564110000
| 29> *
| 30>
| 31>                          ****END OF INPUT****
 Total Charge           Charge          ....    0
 Multiplicity           Mult            ....    1
 Number of Electrons    NEL             ....   52
 Basis Dimension        Dim             ....  148

MULLIKEN ATOMIC CHARGES
-----------------------
   0 C :    0.012209
   1 C :   -0.002634
   2 C :   -0.375071
   3 C :    0.192393
   4 C :   -0.071616
   5 C :   -0.073837
   6 C :    0.194811
   7 H :    0.023251
   8 H :    0.022747
   9 H :    0.027292
  10 H :    0.026713
  11 H :    0.009374
  12 H :    0.017818
  13 H :   -0.013624
  14 H :   -0.015057
  15 H :    0.009351
  16 H :    0.015879
Sum of atomic charges:   -0.0000000

LOEWDIN ATOMIC CHARGES
----------------------
   0 C :   -0.041521
   1 C :   -0.036539
   2 C :   -0.053107
   3 C :   -0.026120
   4 C :   -0.036736
   5 C :   -0.037218
   6 C :   -0.025145
   7 H :    0.025336
   8 H :    0.025090
   9 H :    0.023177
  10 H :    0.023040
  11 H :    0.028522
  12 H :    0.030864
  13 H :    0.020892
  14 H :    0.020453
  15 H :    0.028398
  16 H :    0.030615

  Mayer bond orders larger than 0.1
B(  0-C ,  1-C ) :   1.0486 B(  0-C ,  2-C ) :   0.9756 B(  0-C ,  7-H ) :   0.9408
B(  0-C ,  8-H ) :   0.9408 B(  1-C ,  2-C ) :   0.9794 B(  1-C ,  9-H ) :   0.9429
B(  1-C , 10-H ) :   0.9422 B(  2-C ,  3-C ) :   1.0445 B(  2-C ,  6-C ) :   1.0434
B(  3-C ,  4-C ) :   1.0388 B(  3-C , 11-H ) :   0.9098 B(  3-C , 12-H ) :   0.9019
B(  4-C ,  5-C ) :   1.8667 B(  4-C , 13-H ) :   0.9840 B(  5-C ,  6-C ) :   1.0403
B(  5-C , 14-H ) :   0.9847 B(  6-C , 15-H ) :   0.9117 B(  6-C , 16-H ) :   0.9007

FINAL SINGLE POINT ENERGY      -272.142784946734

DIPOLE MOMENT
-------------
                                X             Y             Z
Electronic contribution:      2.01483      -0.18672      -0.07001
Nuclear contribution   :     -2.02964       0.18861       0.09896
                        -----------------------------------------
Total Dipole Moment    :     -0.01481       0.00188       0.02895
                        -----------------------------------------
Magnitude (a.u.)       :      0.03257
Magnitude (Debye)      :      0.08278

                             ****ORCA TERMINATED NORMALLY****
TOTAL RUN TIME: 0 days 0 hours 0 minutes 7 seconds 487 msec
