                         Program Version 3.0.3 - RELEASE   -
|  1> ! RI PBE def2-SVP def2-SVP/J NBO PAL2
|  2> % maxcore 2000
|  3> % output
|  4>     # printlevel mini
|  5>     print[ P_Basis ] 0
|  6>     print[ P_SCFInfo ] 1
|  7>     print[ P_SCFIterInfo ] 1
|  8>     print[ P_OrbEn ] 0
|  9>     print[ P_Cartesian ] 0
| 10> end
| 11> *xyz 0 1
| 12>  C        0.2818790000     1.5153490000     0.5153100000
| 13>  C        1.2045900000     0.4594570000    -0.1389560000
| 14>  C        0.2087990000    -0.4122450000    -0.9550680000
| 15>  C       -0.7753550000     0.6635260000    -1.4307880000
| 16>  C       -1.1266800000     1.1159970000    -0.0081140000
| 17>  C       -1.4393670000    -0.2172150000     0.6304440000
| 18>  C       -0.6444920000    -1.1268120000     0.0668340000
| 19>  H        0.5382890000     2.5246520000     0.1835410000
| 20>  H        0.3280750000     1.5037810000     1.6052580000
| 21>  H        1.7581120000    -0.1327170000     0.5912480000
| 22>  H        1.9327580000     0.9289300000    -0.8051930000
| 23>  H        0.6749640000    -1.0358720000    -1.7172130000
| 24>  H       -1.6307460000     0.2481390000    -1.9667660000
| 25>  H       -0.3022950000     1.4477230000    -2.0292070000
| 26>  H       -1.8838690000     1.8923110000     0.0971900000
| 27>  H       -2.0976920000    -0.3590070000     1.4787220000
| 28>  H       -0.5222700000    -2.1618060000     0.3616580000
| 29> *
| 30>
| 31>                          ****END OF INPUT****
 Total Charge           Charge          ....    0
 Multiplicity           Mult            ....    1
 Number of Electrons    NEL             ....   52
 Basis Dimension        Dim             ....  148

MULLIKEN ATOMIC CHARGES
-----------------------
   0 C :    0.085387
   1 C :    0.093879
   2 C :   -0.130108
   3 C :    0.088042
   4 C :   -0.147385
   5 C :    0.000537
   6 C :    0.003491
   7 H :    0.005391
   8 H :    0.006649
   9 H :    0.001785
  10 H :    0.005397
  11 H :   -0.008487
  12 H :    0.018936
  13 H :    0.007909
  14 H :   -0.002844
  15 H :   -0.014087
  16 H :   -0.014492
Sum of atomic charges:   -0.0000000

LOEWDIN ATOMIC CHARGES
----------------------
   0 C :   -0.028688
   1 C :   -0.026974
   2 C :   -0.034903
   3 C :   -0.016213
   4 C :   -0.036687
   5 C :   -0.031708
   6 C :   -0.029983
   7 H :    0.023250
   8 H :    0.022451
   9 H :    0.021742
  10 H :    0.023101
  11 H :    0.017343
  12 H :    0.023251
  13 H :    0.017629
  14 H :    0.018354
  15 H :    0.019056
  16 H :    0.018979

  Mayer bond orders larger than 0.1
B(  0-C ,  1-C ) :   1.1113 B(  0-C ,  4-C ) :   1.0489 B(  0-C ,  7-H ) :   0.9184
B(  0-C ,  8-H ) :   0.9198 B(  1-C ,  2-C ) :   1.0476 B(  1-C ,  9-H ) :   0.9186
B(  1-C , 10-H ) :   0.9201 B(  2-C ,  3-C ) :   1.0024 B(  2-C ,  6-C ) :   0.9720
B(  2-C , 11-H ) :   0.9457 B(  3-C ,  4-C ) :   1.0044 B(  3-C , 12-H ) :   0.9380
B(  3-C , 13-H ) :   0.9398 B(  4-C ,  5-C ) :   0.9717 B(  4-C , 14-H ) :   0.9466
B(  5-C ,  6-C ) :   1.8034 B(  5-C , 15-H ) :   1.0039 B(  6-C , 16-H ) :   1.0007

FINAL SINGLE POINT ENERGY      -272.159755761170

DIPOLE MOMENT
-------------
                                X             Y             Z
Electronic contribution:     -1.62887      -1.59092       0.26782
Nuclear contribution   :      1.73215       1.67696      -0.26352
                        -----------------------------------------
Total Dipole Moment    :      0.10328       0.08604       0.00430
                        -----------------------------------------
Magnitude (a.u.)       :      0.13449
Magnitude (Debye)      :      0.34185

                             ****ORCA TERMINATED NORMALLY****
TOTAL RUN TIME: 0 days 0 hours 0 minutes 7 seconds 728 msec
