                         Program Version 3.0.3 - RELEASE   -
|  1> ! RI PBE def2-SVP def2-SVP/J NBO PAL2
|  2> % maxcore 2000
|  3> % output
|  4>     # printlevel mini
|  5>     print[ P_Basis ] 0
|  6>     print[ P_SCFInfo ] 1
|  7>     print[ P_SCFIterInfo ] 1
|  8>     print[ P_OrbEn ] 0
|  9>     print[ P_Cartesian ] 0
| 10> end
| 11> *xyz 0 1
| 12>  C        0.8331840000    -1.2064690000     0.8665320000
| 13>  C        1.1294750000    -0.4016740000    -0.3541260000
| 14>  C        0.9694500000     1.0963780000    -0.3963210000
| 15>  C       -0.2429320000     1.6062020000     0.3841080000
| 16>  C       -1.4690600000     0.7851510000     0.1284510000
| 17>  C       -1.4034030000    -0.5057900000    -0.1909450000
| 18>  C       -0.1250440000    -1.2333510000    -0.3042680000
| 19>  H        0.4904940000    -0.6975030000     1.7594070000
| 20>  H        1.4305600000    -2.0909440000     1.0522120000
| 21>  H        1.9207010000    -0.7873850000    -0.9890650000
| 22>  H        0.8575610000     1.3913690000    -1.4456230000
| 23>  H        1.8769250000     1.5852770000    -0.0286430000
| 24>  H       -0.4286160000     2.6526700000     0.1252270000
| 25>  H       -0.0181700000     1.6090210000     1.4582220000
| 26>  H       -2.4370890000     1.2670380000     0.2235190000
| 27>  H       -2.3167180000    -1.0663560000    -0.3666130000
| 28>  H       -0.1459080000    -2.1473420000    -0.8865830000
| 29> *
| 30>
| 31>                          ****END OF INPUT****
 Total Charge           Charge          ....    0
 Multiplicity           Mult            ....    1
 Number of Electrons    NEL             ....   52
 Basis Dimension        Dim             ....  148

MULLIKEN ATOMIC CHARGES
-----------------------
   0 C :    0.028640
   1 C :   -0.170533
   2 C :    0.138645
   3 C :    0.004102
   4 C :   -0.105364
   5 C :    0.049155
   6 C :   -0.062524
   7 H :    0.034127
   8 H :    0.026833
   9 H :    0.018905
  10 H :    0.012265
  11 H :    0.006112
  12 H :    0.010579
  13 H :    0.033601
  14 H :   -0.014285
  15 H :   -0.021031
  16 H :    0.010772
Sum of atomic charges:   -0.0000000

LOEWDIN ATOMIC CHARGES
----------------------
   0 C :   -0.031428
   1 C :   -0.036750
   2 C :   -0.026728
   3 C :   -0.048059
   4 C :   -0.053548
   5 C :   -0.037356
   6 C :   -0.044207
   7 H :    0.026748
   8 H :    0.027565
   9 H :    0.028171
  10 H :    0.029150
  11 H :    0.027518
  12 H :    0.032373
  13 H :    0.033083
  14 H :    0.021566
  15 H :    0.025517
  16 H :    0.026385

  Mayer bond orders larger than 0.1
B(  0-C ,  1-C ) :   1.0087 B(  0-C ,  6-C ) :   0.9453 B(  0-C ,  7-H ) :   0.9447
B(  0-C ,  8-H ) :   0.9385 B(  1-C ,  2-C ) :   1.0748 B(  1-C ,  6-C ) :   0.9212
B(  1-C ,  9-H ) :   0.9303 B(  2-C ,  3-C ) :   1.0953 B(  2-C , 10-H ) :   0.9253
B(  2-C , 11-H ) :   0.9229 B(  3-C ,  4-C ) :   1.0506 B(  3-C , 12-H ) :   0.9183
B(  3-C , 13-H ) :   0.9084 B(  4-C ,  5-C ) :   1.8693 B(  4-C , 14-H ) :   0.9618
B(  5-C ,  6-C ) :   1.0815 B(  5-C , 15-H ) :   0.9713 B(  6-C , 16-H ) :   0.9392

FINAL SINGLE POINT ENERGY      -272.151990739930

DIPOLE MOMENT
-------------
                                X             Y             Z
Electronic contribution:     -1.22651      -1.25992      -0.59546
Nuclear contribution   :      1.39920       1.26935       0.59601
                        -----------------------------------------
Total Dipole Moment    :      0.17269       0.00943       0.00054
                        -----------------------------------------
Magnitude (a.u.)       :      0.17295
Magnitude (Debye)      :      0.43961

                             ****ORCA TERMINATED NORMALLY****
TOTAL RUN TIME: 0 days 0 hours 0 minutes 8 seconds 91 msec
