                         Program Version 3.0.3 - RELEASE   -
|  1> ! RI PBE def2-SVP def2-SVP/J NBO PAL2
|  2> % maxcore 2000
|  3> % output
|  4>     # printlevel mini
|  5>     print[ P_Basis ] 0
|  6>     print[ P_SCFInfo ] 1
|  7>     print[ P_SCFIterInfo ] 1
|  8>     print[ P_OrbEn ] 0
|  9>     print[ P_Cartesian ] 0
| 10> end
| 11> *xyz 0 1
| 12>  C        1.5756350000    -0.2115450000     0.5191980000
| 13>  C        0.8565330000    -1.5563950000     0.2908280000
| 14>  C       -0.2355440000    -0.8054170000    -0.5049870000
| 15>  C       -1.4071230000    -0.3260040000     0.2927410000
| 16>  C       -1.3680800000     0.9829680000     0.5256960000
| 17>  C       -0.1638870000     1.6454140000    -0.0831720000
| 18>  C        0.6753680000     0.4551200000    -0.5469640000
| 19>  H        2.6501450000    -0.1959520000     0.3300100000
| 20>  H        1.3953730000     0.1989110000     1.5150700000
| 21>  H        0.5317300000    -2.1044720000     1.1776440000
| 22>  H        1.4303490000    -2.2335520000    -0.3453120000
| 23>  H       -0.5392050000    -1.2697420000    -1.4484290000
| 24>  H       -2.1963700000    -0.9891280000     0.6315210000
| 25>  H       -2.1216320000     1.5316030000     1.0804660000
| 26>  H        0.3781810000     2.2702770000     0.6364110000
| 27>  H       -0.4548340000     2.3066040000    -0.9088790000
| 28>  H        1.1897520000     0.6244010000    -1.4935530000
| 29> *
| 30>
| 31>                          ****END OF INPUT****
 Total Charge           Charge          ....    0
 Multiplicity           Mult            ....    1
 Number of Electrons    NEL             ....   52
 Basis Dimension        Dim             ....  148

MULLIKEN ATOMIC CHARGES
-----------------------
   0 C :    0.072032
   1 C :    0.072808
   2 C :   -0.065860
   3 C :    0.007013
   4 C :   -0.091581
   5 C :    0.153351
   6 C :   -0.197179
   7 H :    0.014685
   8 H :    0.002492
   9 H :    0.002012
  10 H :    0.010043
  11 H :    0.009957
  12 H :   -0.009846
  13 H :   -0.010157
  14 H :    0.014386
  15 H :    0.021286
  16 H :   -0.005442
Sum of atomic charges:    0.0000000

LOEWDIN ATOMIC CHARGES
----------------------
   0 C :   -0.028202
   1 C :   -0.028295
   2 C :   -0.031002
   3 C :   -0.035033
   4 C :   -0.034968
   5 C :   -0.040936
   6 C :   -0.022849
   7 H :    0.020260
   8 H :    0.023309
   9 H :    0.016973
  10 H :    0.022811
  11 H :    0.019494
  12 H :    0.021062
  13 H :    0.020026
  14 H :    0.027915
  15 H :    0.029850
  16 H :    0.019584

  Mayer bond orders larger than 0.1
B(  0-C ,  1-C ) :   1.1587 B(  0-C ,  6-C ) :   1.0875 B(  0-C ,  7-H ) :   0.9252
B(  0-C ,  8-H ) :   0.9072 B(  1-C ,  2-C ) :   1.1124 B(  1-C ,  9-H ) :   0.9182
B(  1-C , 10-H ) :   0.9200 B(  2-C ,  3-C ) :   0.9834 B(  2-C ,  6-C ) :   1.0680
B(  2-C , 11-H ) :   0.9002 B(  3-C ,  4-C ) :   1.8678 B(  3-C , 12-H ) :   0.9801
B(  4-C ,  5-C ) :   1.0233 B(  4-C , 13-H ) :   0.9810 B(  5-C ,  6-C ) :   1.0568
B(  5-C , 14-H ) :   0.9149 B(  5-C , 15-H ) :   0.9118 B(  6-C , 16-H ) :   0.9079

FINAL SINGLE POINT ENERGY      -272.148675372947

DIPOLE MOMENT
-------------
                                X             Y             Z
Electronic contribution:     -1.91593       0.13270      -0.44686
Nuclear contribution   :      1.97652      -0.10397       0.39389
                        -----------------------------------------
Total Dipole Moment    :      0.06059       0.02873      -0.05297
                        -----------------------------------------
Magnitude (a.u.)       :      0.08545
Magnitude (Debye)      :      0.21720

                             ****ORCA TERMINATED NORMALLY****
TOTAL RUN TIME: 0 days 0 hours 0 minutes 8 seconds 151 msec
