                         Program Version 3.0.3 - RELEASE   -
|  1> ! RI PBE def2-SVP def2-SVP/J NBO PAL2
|  2> % maxcore 2000
|  3> % output
|  4>     # printlevel mini
|  5>     print[ P_Basis ] 0
|  6>     print[ P_SCFInfo ] 1
|  7>     print[ P_SCFIterInfo ] 1
|  8>     print[ P_OrbEn ] 0
|  9>     print[ P_Cartesian ] 0
| 10> end
| 11> *xyz 0 1
| 12>  C       -1.0056520000    -0.0088030000    -1.0792870000
| 13>  C       -0.6440570000     1.0404700000    -0.0037730000
| 14>  C       -1.0337580000    -0.0332470000     1.0372450000
| 15>  C       -0.6044690000    -1.0713340000    -0.0276370000
| 16>  C        0.8976830000    -1.1659140000    -0.0087810000
| 17>  C        1.5972710000    -0.0359650000     0.0135570000
| 18>  C        0.8651300000     1.2743460000     0.0189670000
| 19>  H       -0.4535620000     0.0004950000    -2.0214260000
| 20>  H       -2.0800840000    -0.0184590000    -1.2743580000
| 21>  H       -1.1944190000     1.9835040000    -0.0001900000
| 22>  H       -2.1129870000    -0.0470760000     1.2034440000
| 23>  H       -0.5068800000    -0.0458760000     1.9936740000
| 24>  H       -1.0957490000    -2.0441880000    -0.0453970000
| 25>  H        1.3803240000    -2.1378820000    -0.0135960000
| 26>  H        2.6825670000    -0.0355660000     0.0279740000
| 27>  H        1.1669970000     1.8795600000    -0.8455600000
| 28>  H        1.1437550000     1.8593450000     0.9049440000
| 29> *
| 30>
| 31>                          ****END OF INPUT****
 Total Charge           Charge          ....    0
 Multiplicity           Mult            ....    1
 Number of Electrons    NEL             ....   52
 Basis Dimension        Dim             ....  148

MULLIKEN ATOMIC CHARGES
-----------------------
   0 C :    0.110741
   1 C :   -0.210842
   2 C :    0.110048
   3 C :   -0.132933
   4 C :    0.049060
   5 C :   -0.132723
   6 C :    0.171782
   7 H :    0.011364
   8 H :    0.009104
   9 H :   -0.006609
  10 H :    0.009737
  11 H :    0.011155
  12 H :   -0.014118
  13 H :   -0.020572
  14 H :   -0.006030
  15 H :    0.020476
  16 H :    0.020360
Sum of atomic charges:   -0.0000000

LOEWDIN ATOMIC CHARGES
----------------------
   0 C :   -0.016438
   1 C :   -0.028558
   2 C :   -0.016551
   3 C :   -0.032697
   4 C :   -0.033953
   5 C :   -0.043864
   6 C :   -0.036672
   7 H :    0.013553
   8 H :    0.022611
   9 H :    0.012731
  10 H :    0.022701
  11 H :    0.013545
  12 H :    0.013352
  13 H :    0.021952
  14 H :    0.021919
  15 H :    0.033202
  16 H :    0.033167

  Mayer bond orders larger than 0.1
B(  0-C ,  1-C ) :   1.0082 B(  0-C ,  3-C ) :   1.0024 B(  0-C ,  7-H ) :   0.9426
B(  0-C ,  8-H ) :   0.9301 B(  1-C ,  2-C ) :   1.0083 B(  1-C ,  6-C ) :   1.0469
B(  1-C ,  9-H ) :   0.9196 B(  2-C ,  3-C ) :   1.0024 B(  2-C , 10-H ) :   0.9304
B(  2-C , 11-H ) :   0.9424 B(  3-C ,  4-C ) :   0.9832 B(  3-C , 12-H ) :   0.9263
B(  4-C ,  5-C ) :   1.8766 B(  4-C , 13-H ) :   0.9803 B(  5-C ,  6-C ) :   1.0255
B(  5-C , 14-H ) :   0.9671 B(  6-C , 15-H ) :   0.9131 B(  6-C , 16-H ) :   0.9132

FINAL SINGLE POINT ENERGY      -272.145129444451

DIPOLE MOMENT
-------------
                                X             Y             Z
Electronic contribution:      0.90544      -1.07285      -0.00017
Nuclear contribution   :     -0.98276       1.16822       0.00044
                        -----------------------------------------
Total Dipole Moment    :     -0.07732       0.09537       0.00027
                        -----------------------------------------
Magnitude (a.u.)       :      0.12278
Magnitude (Debye)      :      0.31207

                             ****ORCA TERMINATED NORMALLY****
TOTAL RUN TIME: 0 days 0 hours 0 minutes 8 seconds 226 msec
