                         Program Version 3.0.3 - RELEASE   -
|  1> ! RI PBE def2-SVP def2-SVP/J NBO PAL2
|  2> % maxcore 2000
|  3> % output
|  4>     # printlevel mini
|  5>     print[ P_Basis ] 0
|  6>     print[ P_SCFInfo ] 1
|  7>     print[ P_SCFIterInfo ] 1
|  8>     print[ P_OrbEn ] 0
|  9>     print[ P_Cartesian ] 0
| 10> end
| 11> *xyz 0 1
| 12>  C        2.0991690000    -0.1988260000    -0.0563700000
| 13>  C        0.7453840000    -0.7993370000     0.1836370000
| 14>  C       -0.3968790000    -1.4280270000    -0.5567310000
| 15>  C       -1.5591440000    -0.4924920000    -0.2375280000
| 16>  C       -1.4379620000     0.7354690000     0.2873190000
| 17>  C       -0.1156490000     1.4499170000     0.5501530000
| 18>  C        0.8633690000     0.6322880000    -0.2380120000
| 19>  H        2.6572280000    -0.3898280000    -0.9668000000
| 20>  H        2.7224490000    -0.1130470000     0.8273450000
| 21>  H        0.5648970000    -0.8640070000     1.2558610000
| 22>  H       -0.6382800000    -2.4443910000    -0.2251990000
| 23>  H       -0.2273560000    -1.4809090000    -1.6387780000
| 24>  H       -2.5616130000    -0.8737990000    -0.4152760000
| 25>  H       -2.3483780000     1.2870640000     0.5082670000
| 26>  H        0.1089130000     1.4678860000     1.6232800000
| 27>  H       -0.1884740000     2.4942050000     0.2255800000
| 28>  H        0.6494350000     0.7321230000    -1.3013480000
| 29> *
| 30>
| 31>                          ****END OF INPUT****
 Total Charge           Charge          ....    0
 Multiplicity           Mult            ....    1
 Number of Electrons    NEL             ....   52
 Basis Dimension        Dim             ....  148

MULLIKEN ATOMIC CHARGES
-----------------------
   0 C :    0.108532
   1 C :   -0.195789
   2 C :    0.197431
   3 C :   -0.103579
   4 C :   -0.103696
   5 C :    0.197135
   6 C :   -0.201769
   7 H :    0.011557
   8 H :    0.011765
   9 H :    0.028372
  10 H :    0.004285
  11 H :    0.016758
  12 H :   -0.013028
  13 H :   -0.009681
  14 H :    0.014915
  15 H :    0.008323
  16 H :    0.028471
Sum of atomic charges:   -0.0000000

LOEWDIN ATOMIC CHARGES
----------------------
   0 C :   -0.024998
   1 C :   -0.056935
   2 C :   -0.033683
   3 C :   -0.041165
   4 C :   -0.041279
   5 C :   -0.034135
   6 C :   -0.057438
   7 H :    0.030317
   8 H :    0.030514
   9 H :    0.028697
  10 H :    0.027699
  11 H :    0.035410
  12 H :    0.022102
  13 H :    0.022790
  14 H :    0.035008
  15 H :    0.028350
  16 H :    0.028745

  Mayer bond orders larger than 0.1
B(  0-C ,  1-C ) :   1.0403 B(  0-C ,  6-C ) :   1.0406 B(  0-C ,  7-H ) :   0.9090
B(  0-C ,  8-H ) :   0.9081 B(  1-C ,  2-C ) :   1.0815 B(  1-C ,  6-C ) :   0.8817
B(  1-C ,  9-H ) :   0.9447 B(  2-C ,  3-C ) :   1.0078 B(  2-C , 10-H ) :   0.9043
B(  2-C , 11-H ) :   0.8998 B(  3-C ,  4-C ) :   1.9412 B(  3-C , 12-H ) :   0.9466
B(  4-C ,  5-C ) :   1.0093 B(  4-C , 13-H ) :   0.9452 B(  5-C ,  6-C ) :   1.0785
B(  5-C , 14-H ) :   0.8984 B(  5-C , 15-H ) :   0.9056 B(  6-C , 16-H ) :   0.9455

FINAL SINGLE POINT ENERGY      -272.108926649015

DIPOLE MOMENT
-------------
                                X             Y             Z
Electronic contribution:     -0.40836       0.03668       0.01004
Nuclear contribution   :      0.38163      -0.03385      -0.00887
                        -----------------------------------------
Total Dipole Moment    :     -0.02673       0.00283       0.00116
                        -----------------------------------------
Magnitude (a.u.)       :      0.02690
Magnitude (Debye)      :      0.06838

                             ****ORCA TERMINATED NORMALLY****
TOTAL RUN TIME: 0 days 0 hours 0 minutes 7 seconds 577 msec
