                         Program Version 3.0.3 - RELEASE   -
|  1> ! RI PBE def2-SVP def2-SVP/J NBO PAL2
|  2> % maxcore 2000
|  3> % output
|  4>     # printlevel mini
|  5>     print[ P_Basis ] 0
|  6>     print[ P_SCFInfo ] 1
|  7>     print[ P_SCFIterInfo ] 1
|  8>     print[ P_OrbEn ] 0
|  9>     print[ P_Cartesian ] 0
| 10> end
| 11> *xyz 0 1
| 12>  C        0.9833130000    -1.3708550000     0.0315070000
| 13>  C       -0.5081750000    -1.5120290000     0.0209540000
| 14>  C       -1.4848430000    -0.6014480000     0.0023950000
| 15>  C       -1.4112400000     0.8485140000    -0.0138500000
| 16>  C       -0.3177320000     1.6235990000    -0.0140000000
| 17>  C        1.0747760000     1.2128230000     0.0020440000
| 18>  C        1.6104970000    -0.0103040000     0.0206630000
| 19>  H        1.3862990000    -1.9395620000    -0.8207860000
| 20>  H        1.3722000000    -1.9193370000     0.9033830000
| 21>  H       -0.8310580000    -2.5514430000     0.0303950000
| 22>  H       -2.4967870000    -0.9977940000    -0.0012610000
| 23>  H       -2.3716930000     1.3551240000    -0.0275210000
| 24>  H       -0.4776500000     2.6976310000    -0.0277820000
| 25>  H        1.7839060000     2.0363850000    -0.0018500000
| 26>  H        2.6981880000    -0.0498950000     0.0299100000
| 27> *
| 28>
| 29>                          ****END OF INPUT****
 Total Charge           Charge          ....    0
 Multiplicity           Mult            ....    1
 Number of Electrons    NEL             ....   50
 Basis Dimension        Dim             ....  138

MULLIKEN ATOMIC CHARGES
-----------------------
   0 C :    0.131601
   1 C :   -0.082766
   2 C :    0.010516
   3 C :    0.008493
   4 C :    0.000923
   5 C :    0.012073
   6 C :   -0.090048
   7 H :    0.026825
   8 H :    0.026266
   9 H :   -0.000535
  10 H :   -0.015629
  11 H :   -0.014767
  12 H :   -0.009633
  13 H :   -0.010030
  14 H :    0.006711
Sum of atomic charges:   -0.0000000

LOEWDIN ATOMIC CHARGES
----------------------
   0 C :   -0.051751
   1 C :   -0.011109
   2 C :   -0.055429
   3 C :   -0.035826
   4 C :   -0.037598
   5 C :   -0.056267
   6 C :   -0.013088
   7 H :    0.040641
   8 H :    0.040503
   9 H :    0.028577
  10 H :    0.030389
  11 H :    0.029264
  12 H :    0.030100
  13 H :    0.031659
  14 H :    0.029935

  Mayer bond orders larger than 0.1
B(  0-C ,  1-C ) :   1.0437 B(  0-C ,  6-C ) :   1.0378 B(  0-C ,  7-H ) :   0.8994
B(  0-C ,  8-H ) :   0.8994 B(  1-C ,  2-C ) :   1.8390 B(  1-C ,  4-C ) :   0.1005
B(  1-C ,  9-H ) :   0.9392 B(  2-C ,  3-C ) :   1.1266 B(  2-C , 10-H ) :   0.9443
B(  3-C ,  4-C ) :   1.7364 B(  3-C ,  6-C ) :   0.1007 B(  3-C , 11-H ) :   0.9483
B(  4-C ,  5-C ) :   1.1269 B(  4-C , 12-H ) :   0.9481 B(  5-C ,  6-C ) :   1.8395
B(  5-C , 13-H ) :   0.9426 B(  6-C , 14-H ) :   0.9405

FINAL SINGLE POINT ENERGY      -270.940309738466

DIPOLE MOMENT
-------------
                                X             Y             Z
Electronic contribution:     -0.82034       1.15809      -0.02062
Nuclear contribution   :      0.96260      -1.35805       0.02369
                        -----------------------------------------
Total Dipole Moment    :      0.14226      -0.19995       0.00307
                        -----------------------------------------
Magnitude (a.u.)       :      0.24541
Magnitude (Debye)      :      0.62379

                             ****ORCA TERMINATED NORMALLY****
TOTAL RUN TIME: 0 days 0 hours 0 minutes 6 seconds 842 msec
