                         Program Version 3.0.3 - RELEASE   -
|  1> ! RI PBE def2-SVP def2-SVP/J NBO PAL2
|  2> % maxcore 2000
|  3> % output
|  4>     # printlevel mini
|  5>     print[ P_Basis ] 0
|  6>     print[ P_SCFInfo ] 1
|  7>     print[ P_SCFIterInfo ] 1
|  8>     print[ P_OrbEn ] 0
|  9>     print[ P_Cartesian ] 0
| 10> end
| 11> *xyz 0 1
| 12>  C       -1.4020270000     0.6973820000     0.2968770000
| 13>  C       -1.4777850000    -0.7667860000    -0.1126130000
| 14>  C       -0.2823260000    -1.6025640000     0.2066290000
| 15>  C        0.9938900000    -1.2171970000     0.3159560000
| 16>  C        1.5986900000     0.0909730000     0.1078250000
| 17>  C        1.0373730000     1.2525710000    -0.2455790000
| 18>  C       -0.4072090000     1.5512830000    -0.4765340000
| 19>  H       -1.1663940000     0.7560520000     1.3643080000
| 20>  H       -2.3964690000     1.1374020000     0.1734350000
| 21>  H       -1.6924240000    -0.8407830000    -1.1877370000
| 22>  H       -2.3459950000    -1.2192820000     0.3793290000
| 23>  H       -0.4862900000    -2.6574870000     0.3733440000
| 24>  H        1.7071000000    -1.9969920000     0.5703500000
| 25>  H        2.6781530000     0.1025600000     0.2346910000
| 26>  H        1.7112070000     2.0951050000    -0.3811630000
| 27>  H       -0.6206600000     1.4868810000    -1.5525240000
| 28>  H       -0.5790430000     2.6021940000    -0.2182940000
| 29> *
| 30>
| 31>                          ****END OF INPUT****
 Total Charge           Charge          ....    0
 Multiplicity           Mult            ....    1
 Number of Electrons    NEL             ....   52
 Basis Dimension        Dim             ....  148

MULLIKEN ATOMIC CHARGES
-----------------------
   0 C :   -0.033275
   1 C :    0.086243
   2 C :   -0.096087
   3 C :    0.001843
   4 C :    0.003050
   5 C :   -0.097868
   6 C :    0.080614
   7 H :    0.026497
   8 H :    0.001996
   9 H :    0.023309
  10 H :    0.006707
  11 H :   -0.006862
  12 H :   -0.013330
  13 H :   -0.010996
  14 H :   -0.005195
  15 H :    0.024294
  16 H :    0.009059
Sum of atomic charges:   -0.0000000

LOEWDIN ATOMIC CHARGES
----------------------
   0 C :   -0.037996
   1 C :   -0.047545
   2 C :   -0.031981
   3 C :   -0.059333
   4 C :   -0.059616
   5 C :   -0.032378
   6 C :   -0.047778
   7 H :    0.030545
   8 H :    0.027141
   9 H :    0.038878
  10 H :    0.034959
  11 H :    0.025886
  12 H :    0.029499
  13 H :    0.029723
  14 H :    0.026029
  15 H :    0.038728
  16 H :    0.035240

  Mayer bond orders larger than 0.1
B(  0-C ,  1-C ) :   1.0957 B(  0-C ,  6-C ) :   1.0944 B(  0-C ,  7-H ) :   0.9419
B(  0-C ,  8-H ) :   0.9201 B(  1-C ,  2-C ) :   1.0679 B(  1-C ,  9-H ) :   0.9010
B(  1-C , 10-H ) :   0.9063 B(  2-C ,  3-C ) :   1.8401 B(  2-C ,  5-C ) :   0.1139
B(  2-C , 11-H ) :   0.9407 B(  3-C ,  4-C ) :   1.1194 B(  3-C , 12-H ) :   0.9418
B(  4-C ,  5-C ) :   1.8392 B(  4-C , 13-H ) :   0.9444 B(  5-C ,  6-C ) :   1.0682
B(  5-C , 14-H ) :   0.9414 B(  6-C , 15-H ) :   0.9021 B(  6-C , 16-H ) :   0.9084

FINAL SINGLE POINT ENERGY      -272.158507422351

DIPOLE MOMENT
-------------
                                X             Y             Z
Electronic contribution:      2.47444      -1.10849       0.24158
Nuclear contribution   :     -2.74560       1.22106      -0.31540
                        -----------------------------------------
Total Dipole Moment    :     -0.27116       0.11257      -0.07382
                        -----------------------------------------
Magnitude (a.u.)       :      0.30274
Magnitude (Debye)      :      0.76950

                             ****ORCA TERMINATED NORMALLY****
TOTAL RUN TIME: 0 days 0 hours 0 minutes 7 seconds 386 msec
