                         Program Version 3.0.3 - RELEASE   -
|  1> ! RI PBE def2-SVP def2-SVP/J NBO PAL2
|  2> % maxcore 2000
|  3> % output
|  4>     # printlevel mini
|  5>     print[ P_Basis ] 0
|  6>     print[ P_SCFInfo ] 1
|  7>     print[ P_SCFIterInfo ] 1
|  8>     print[ P_OrbEn ] 0
|  9>     print[ P_Cartesian ] 0
| 10> end
| 11> *xyz 0 1
| 12>  C        1.1253900000     1.1697320000    -0.3289610000
| 13>  C       -0.1616480000     1.6058100000     0.3645170000
| 14>  C       -1.3880860000     0.8280220000     0.0000490000
| 15>  C       -1.5184990000    -0.4855420000    -0.1533010000
| 16>  C       -0.5245130000    -1.5869830000     0.0217750000
| 17>  C        0.9342510000    -1.3148110000     0.1942760000
| 18>  C        1.6279880000    -0.1922410000     0.0375930000
| 19>  H        1.9066800000     1.8996410000    -0.0963110000
| 20>  H        0.9783090000     1.2273470000    -1.4144940000
| 21>  H       -0.3394650000     2.6597300000     0.1301460000
| 22>  H       -0.0091280000     1.5641530000     1.4500280000
| 23>  H       -2.2880000000     1.4208270000    -0.1463520000
| 24>  H       -2.5120430000    -0.8472730000    -0.4110000000
| 25>  H       -0.6271040000    -2.2770510000    -0.8296050000
| 26>  H       -0.8610390000    -2.1948140000     0.8755190000
| 27>  H        1.5044390000    -2.2049060000     0.4531370000
| 28>  H        2.7031670000    -0.2673610000     0.1826750000
| 29> *
| 30>
| 31>                          ****END OF INPUT****
 Total Charge           Charge          ....    0
 Multiplicity           Mult            ....    1
 Number of Electrons    NEL             ....   52
 Basis Dimension        Dim             ....  148

MULLIKEN ATOMIC CHARGES
-----------------------
   0 C :    0.050298
   1 C :    0.056430
   2 C :   -0.084209
   3 C :   -0.081468
   4 C :    0.128866
   5 C :   -0.076645
   6 C :   -0.089477
   7 H :    0.005083
   8 H :    0.033254
   9 H :    0.002838
  10 H :    0.034080
  11 H :   -0.012280
  12 H :   -0.010324
  13 H :    0.031060
  14 H :    0.028175
  15 H :   -0.008455
  16 H :   -0.007227
Sum of atomic charges:   -0.0000000

LOEWDIN ATOMIC CHARGES
----------------------
   0 C :   -0.045339
   1 C :   -0.044727
   2 C :   -0.051586
   3 C :   -0.047372
   4 C :   -0.052757
   5 C :   -0.047206
   6 C :   -0.052467
   7 H :    0.030339
   8 H :    0.039001
   9 H :    0.030198
  10 H :    0.039107
  11 H :    0.025428
  12 H :    0.026181
  13 H :    0.049403
  14 H :    0.049057
  15 H :    0.026623
  16 H :    0.026117

  Mayer bond orders larger than 0.1
B(  0-C ,  1-C ) :   1.0945 B(  0-C ,  6-C ) :   1.0594 B(  0-C ,  7-H ) :   0.9144
B(  0-C ,  8-H ) :   0.9125 B(  1-C ,  2-C ) :   1.0586 B(  1-C ,  9-H ) :   0.9136
B(  1-C , 10-H ) :   0.9139 B(  2-C ,  3-C ) :   1.9653 B(  2-C , 11-H ) :   0.9364
B(  3-C ,  4-C ) :   1.0456 B(  3-C , 12-H ) :   0.9337 B(  4-C ,  5-C ) :   1.0476
B(  4-C , 13-H ) :   0.8902 B(  4-C , 14-H ) :   0.8877 B(  5-C ,  6-C ) :   1.9641
B(  5-C , 15-H ) :   0.9333 B(  6-C , 16-H ) :   0.9386

FINAL SINGLE POINT ENERGY      -272.148798474154

DIPOLE MOMENT
-------------
                                X             Y             Z
Electronic contribution:     -0.27500      -0.81620       0.00218
Nuclear contribution   :      0.26830       0.79252      -0.00039
                        -----------------------------------------
Total Dipole Moment    :     -0.00670      -0.02367       0.00179
                        -----------------------------------------
Magnitude (a.u.)       :      0.02467
Magnitude (Debye)      :      0.06270

                             ****ORCA TERMINATED NORMALLY****
TOTAL RUN TIME: 0 days 0 hours 0 minutes 7 seconds 642 msec
