                         Program Version 3.0.3 - RELEASE   -
|  1> ! RI PBE def2-SVP def2-SVP/J NBO PAL2
|  2> % maxcore 2000
|  3> % output
|  4>     # printlevel mini
|  5>     print[ P_Basis ] 0
|  6>     print[ P_SCFInfo ] 1
|  7>     print[ P_SCFIterInfo ] 1
|  8>     print[ P_OrbEn ] 0
|  9>     print[ P_Cartesian ] 0
| 10> end
| 11> *xyz 0 1
| 12>  C        1.7239460000    -0.1464110000    -0.0163180000
| 13>  C        0.8140910000    -1.2517750000     0.5112970000
| 14>  C       -0.4250190000    -1.5215210000    -0.3369960000
| 15>  C       -1.5330410000    -0.5250200000    -0.1478990000
| 16>  C       -1.4239360000     0.7576040000     0.1895460000
| 17>  C       -0.1643220000     1.5598090000     0.3517040000
| 18>  C        0.9945060000     1.0936910000    -0.5244440000
| 19>  H        2.3438710000    -0.5409530000    -0.8291370000
| 20>  H        2.4189170000     0.1400950000     0.7809150000
| 21>  H        0.4789900000    -1.0017390000     1.5235040000
| 22>  H        1.3988540000    -2.1722650000     0.6049790000
| 23>  H       -0.8216640000    -2.5087660000    -0.0789790000
| 24>  H       -0.1519580000    -1.5928210000    -1.3990390000
| 25>  H       -2.5392820000    -0.9187190000    -0.2722690000
| 26>  H       -2.3494840000     1.3098400000     0.3358120000
| 27>  H        0.1409470000     1.5833700000     1.4070860000
| 28>  H       -0.4005930000     2.5990650000     0.1013180000
| 29>  H        1.7191670000     1.9067970000    -0.6328510000
| 30>  H        0.6000020000     0.9040190000    -1.5283190000
| 31> *
| 32>
| 33>                          ****END OF INPUT****
 Total Charge           Charge          ....    0
 Multiplicity           Mult            ....    1
 Number of Electrons    NEL             ....   54
 Basis Dimension        Dim             ....  158

MULLIKEN ATOMIC CHARGES
-----------------------
   0 C :   -0.008032
   1 C :   -0.014085
   2 C :    0.064540
   3 C :   -0.085165
   4 C :   -0.081227
   5 C :    0.063996
   6 C :   -0.025161
   7 H :    0.006835
   8 H :    0.007707
   9 H :    0.011861
  10 H :    0.006946
  11 H :    0.001647
  12 H :    0.021244
  13 H :   -0.011281
  14 H :   -0.010325
  15 H :    0.021509
  16 H :    0.006048
  17 H :    0.010382
  18 H :    0.012561
Sum of atomic charges:    0.0000000

LOEWDIN ATOMIC CHARGES
----------------------
   0 C :   -0.045108
   1 C :   -0.043540
   2 C :   -0.047629
   3 C :   -0.049687
   4 C :   -0.049307
   5 C :   -0.048528
   6 C :   -0.045317
   7 H :    0.023725
   8 H :    0.024073
   9 H :    0.025091
  10 H :    0.026490
  11 H :    0.031559
  12 H :    0.032920
  13 H :    0.023403
  14 H :    0.023648
  15 H :    0.032884
  16 H :    0.032597
  17 H :    0.027366
  18 H :    0.025358

  Mayer bond orders larger than 0.1
B(  0-C ,  1-C ) :   1.1100 B(  0-C ,  6-C ) :   1.1101 B(  0-C ,  7-H ) :   0.9311
B(  0-C ,  8-H ) :   0.9299 B(  1-C ,  2-C ) :   1.1038 B(  1-C ,  9-H ) :   0.9242
B(  1-C , 10-H ) :   0.9268 B(  2-C ,  3-C ) :   1.0428 B(  2-C , 11-H ) :   0.9148
B(  2-C , 12-H ) :   0.9156 B(  3-C ,  4-C ) :   1.9614 B(  3-C , 13-H ) :   0.9448
B(  4-C ,  5-C ) :   1.0416 B(  4-C , 14-H ) :   0.9433 B(  5-C ,  6-C ) :   1.1061
B(  5-C , 15-H ) :   0.9153 B(  5-C , 16-H ) :   0.9142 B(  6-C , 17-H ) :   0.9258
B(  6-C , 18-H ) :   0.9233

FINAL SINGLE POINT ENERGY      -273.367624862391

DIPOLE MOMENT
-------------
                                X             Y             Z
Electronic contribution:     -2.20940       0.18254       0.02669
Nuclear contribution   :      2.34684      -0.19228      -0.02713
                        -----------------------------------------
Total Dipole Moment    :      0.13744      -0.00974      -0.00044
                        -----------------------------------------
Magnitude (a.u.)       :      0.13779
Magnitude (Debye)      :      0.35023

                             ****ORCA TERMINATED NORMALLY****
TOTAL RUN TIME: 0 days 0 hours 0 minutes 8 seconds 50 msec
