                         Program Version 3.0.3 - RELEASE   -
|  1> ! RI PBE def2-SVP def2-SVP/J NBO PAL2
|  2> % maxcore 2000
|  3> % output
|  4>     # printlevel mini
|  5>     print[ P_Basis ] 0
|  6>     print[ P_SCFInfo ] 1
|  7>     print[ P_SCFIterInfo ] 1
|  8>     print[ P_OrbEn ] 0
|  9>     print[ P_Cartesian ] 0
| 10> end
| 11> *xyz 0 1
| 12>  C        0.8492030000     0.0913680000    -0.3743420000
| 13>  C        2.1955380000     0.0035480000     0.2853800000
| 14>  C        2.7206880000    -1.2908890000     0.9818160000
| 15>  C        4.0774370000    -0.5460190000     0.8517410000
| 16>  C        3.5351760000    -0.0436690000    -0.5143180000
| 17>  C        3.8009210000     0.6765900000     1.7204110000
| 18>  C        2.5738410000     1.0356320000     1.3516980000
| 19>  H        0.7161040000    -0.7050250000    -1.1107380000
| 20>  H        0.7259050000     1.0478090000    -0.8905920000
| 21>  H        0.0443900000     0.0041360000     0.3612950000
| 22>  H        2.6497580000    -2.1743890000     0.3401360000
| 23>  H        2.3564870000    -1.5029340000     1.9889800000
| 24>  H        5.0349610000    -1.0545390000     0.9490960000
| 25>  H        3.5372080000    -0.8154390000    -1.2900250000
| 26>  H        3.9267250000     0.9015600000    -0.8953900000
| 27>  H        4.4656870000     1.1174060000     2.4497820000
| 28>  H        1.9538730000     1.8527650000     1.6953710000
| 29> *
| 30>
| 31>                          ****END OF INPUT****
 Total Charge           Charge          ....    0
 Multiplicity           Mult            ....    1
 Number of Electrons    NEL             ....   52
 Basis Dimension        Dim             ....  148

MULLIKEN ATOMIC CHARGES
-----------------------
   0 C :    0.110837
   1 C :   -0.323122
   2 C :    0.125727
   3 C :   -0.085794
   4 C :    0.122033
   5 C :    0.016975
   6 C :    0.033983
   7 H :    0.010067
   8 H :    0.016454
   9 H :    0.016689
  10 H :    0.008222
  11 H :    0.004414
  12 H :   -0.025343
  13 H :    0.009025
  14 H :    0.005075
  15 H :   -0.019033
  16 H :   -0.026209
Sum of atomic charges:   -0.0000000

LOEWDIN ATOMIC CHARGES
----------------------
   0 C :   -0.064203
   1 C :   -0.051462
   2 C :   -0.000817
   3 C :   -0.024016
   4 C :   -0.001690
   5 C :   -0.024916
   6 C :   -0.021434
   7 H :    0.028021
   8 H :    0.030125
   9 H :    0.030305
  10 H :    0.015711
  11 H :    0.011554
  12 H :    0.008358
  13 H :    0.015944
  14 H :    0.011780
  15 H :    0.018898
  16 H :    0.017842

  Mayer bond orders larger than 0.1
B(  0-C ,  1-C ) :   1.1140 B(  0-C ,  7-H ) :   0.9453 B(  0-C ,  8-H ) :   0.9488
B(  0-C ,  9-H ) :   0.9476 B(  1-C ,  2-C ) :   0.9706 B(  1-C ,  4-C ) :   0.9730
B(  1-C ,  6-C ) :   0.9272 B(  2-C ,  3-C ) :   0.9817 B(  2-C , 10-H ) :   0.9352
B(  2-C , 11-H ) :   0.9294 B(  3-C ,  4-C ) :   0.9841 B(  3-C ,  5-C ) :   0.9244
B(  3-C , 12-H ) :   0.9703 B(  4-C , 13-H ) :   0.9345 B(  4-C , 14-H ) :   0.9293
B(  5-C ,  6-C ) :   1.7812 B(  5-C , 15-H ) :   1.0204 B(  6-C , 16-H ) :   1.0237

FINAL SINGLE POINT ENERGY      -272.117385378428

DIPOLE MOMENT
-------------
                                X             Y             Z
Electronic contribution:      2.29277       0.96898       2.05787
Nuclear contribution   :     -2.35170      -1.02517      -2.13485
                        -----------------------------------------
Total Dipole Moment    :     -0.05893      -0.05620      -0.07698
                        -----------------------------------------
Magnitude (a.u.)       :      0.11206
Magnitude (Debye)      :      0.28483

                             ****ORCA TERMINATED NORMALLY****
TOTAL RUN TIME: 0 days 0 hours 0 minutes 8 seconds 198 msec
