                         Program Version 3.0.3 - RELEASE   -
|  1> ! RI PBE def2-SVP def2-SVP/J NBO PAL2
|  2> % maxcore 2000
|  3> % output
|  4>     # printlevel mini
|  5>     print[ P_Basis ] 0
|  6>     print[ P_SCFInfo ] 1
|  7>     print[ P_SCFIterInfo ] 1
|  8>     print[ P_OrbEn ] 0
|  9>     print[ P_Cartesian ] 0
| 10> end
| 11> *xyz 0 1
| 12>  C        1.3206620000     0.2905170000     0.7015520000
| 13>  C        2.6016940000    -0.1260850000     0.0405360000
| 14>  C        3.3594990000     0.8652870000    -0.7865130000
| 15>  C        3.9542250000     0.3686030000     0.5086560000
| 16>  C        4.8747850000    -0.7832270000     0.3611500000
| 17>  C        4.2487980000    -1.8479530000    -0.1361380000
| 18>  C        2.7807430000    -1.5924720000    -0.3325770000
| 19>  H        1.3510450000     1.3423420000     0.9958570000
| 20>  H        1.1288770000    -0.3038860000     1.5998500000
| 21>  H        0.4678750000     0.1609630000     0.0276950000
| 22>  H        2.9723750000     1.8782870000    -0.8021060000
| 23>  H        3.8329760000     0.5388320000    -1.7059160000
| 24>  H        4.0563500000     1.0602350000     1.3373400000
| 25>  H        5.9317600000    -0.7331500000     0.5959490000
| 26>  H        4.7228100000    -2.7891530000    -0.3887120000
| 27>  H        2.1774680000    -2.2385010000     0.3187840000
| 28>  H        2.4549570000    -1.8002380000    -1.3583060000
| 29> *
| 30>
| 31>                          ****END OF INPUT****
 Total Charge           Charge          ....    0
 Multiplicity           Mult            ....    1
 Number of Electrons    NEL             ....   52
 Basis Dimension        Dim             ....  148

MULLIKEN ATOMIC CHARGES
-----------------------
   0 C :    0.108289
   1 C :   -0.360885
   2 C :    0.083553
   3 C :   -0.058011
   4 C :    0.054324
   5 C :   -0.128721
   6 C :    0.212852
   7 H :    0.001745
   8 H :    0.018168
   9 H :    0.021033
  10 H :    0.016656
  11 H :    0.018474
  12 H :    0.009191
  13 H :   -0.014782
  14 H :   -0.012821
  15 H :    0.012789
  16 H :    0.018145
Sum of atomic charges:   -0.0000000

LOEWDIN ATOMIC CHARGES
----------------------
   0 C :   -0.048529
   1 C :   -0.054693
   2 C :   -0.024219
   3 C :   -0.039359
   4 C :   -0.028136
   5 C :   -0.041659
   6 C :   -0.022965
   7 H :    0.027423
   8 H :    0.026996
   9 H :    0.028889
  10 H :    0.024836
  11 H :    0.023246
  12 H :    0.021619
  13 H :    0.022929
  14 H :    0.019095
  15 H :    0.031307
  16 H :    0.033220

  Mayer bond orders larger than 0.1
B(  0-C ,  1-C ) :   1.1076 B(  0-C ,  7-H ) :   0.9412 B(  0-C ,  8-H ) :   0.9515
B(  0-C ,  9-H ) :   0.9554 B(  1-C ,  2-C ) :   0.9748 B(  1-C ,  3-C ) :   0.9044
B(  1-C ,  6-C ) :   1.0578 B(  2-C ,  3-C ) :   0.9694 B(  2-C , 10-H ) :   0.9319
B(  2-C , 11-H ) :   0.9352 B(  3-C ,  4-C ) :   1.0164 B(  3-C , 12-H ) :   0.9566
B(  4-C ,  5-C ) :   1.8250 B(  4-C , 13-H ) :   0.9956 B(  5-C ,  6-C ) :   1.0210
B(  5-C , 14-H ) :   0.9804 B(  6-C , 15-H ) :   0.9096 B(  6-C , 16-H ) :   0.9074

FINAL SINGLE POINT ENERGY      -272.147899550076

DIPOLE MOMENT
-------------
                                X             Y             Z
Electronic contribution:      3.16771      -0.93018      -0.07920
Nuclear contribution   :     -3.31848       0.96501       0.09292
                        -----------------------------------------
Total Dipole Moment    :     -0.15077       0.03483       0.01372
                        -----------------------------------------
Magnitude (a.u.)       :      0.15535
Magnitude (Debye)      :      0.39487

                             ****ORCA TERMINATED NORMALLY****
TOTAL RUN TIME: 0 days 0 hours 0 minutes 7 seconds 968 msec
