                         Program Version 3.0.3 - RELEASE   -
|  1> ! RI PBE def2-SVP def2-SVP/J NBO PAL2
|  2> % maxcore 2000
|  3> % output
|  4>     # printlevel mini
|  5>     print[ P_Basis ] 0
|  6>     print[ P_SCFInfo ] 1
|  7>     print[ P_SCFIterInfo ] 1
|  8>     print[ P_OrbEn ] 0
|  9>     print[ P_Cartesian ] 0
| 10> end
| 11> *xyz 0 1
| 12>  C        1.0446500000    -0.1518900000    -0.1947760000
| 13>  C        2.4697370000     0.2846980000     0.0252800000
| 14>  C        3.6816850000    -0.5229930000    -0.5465660000
| 15>  C        4.4837480000     0.7969390000    -0.3673960000
| 16>  C        3.1337070000     1.4108180000    -0.8344810000
| 17>  C        3.0452030000     0.8105430000    -2.2334850000
| 18>  C        3.4045670000    -0.4576580000    -2.0446700000
| 19>  H        0.8237430000    -1.0541400000     0.3824980000
| 20>  H        0.8482270000    -0.3642620000    -1.2473300000
| 21>  H        0.3479240000     0.6250060000     0.1324950000
| 22>  H        2.6381290000     0.4906700000     1.0882250000
| 23>  H        4.0061380000    -1.4688770000    -0.1138760000
| 24>  H        5.3469320000     0.9446980000    -1.0178250000
| 25>  H        4.7261960000     1.0208500000     0.6750880000
| 26>  H        2.8915400000     2.4645360000    -0.6995000000
| 27>  H        2.7505300000     1.3192790000    -3.1403060000
| 28>  H        3.4837430000    -1.2682360000    -2.7550650000
| 29> *
| 30>
| 31>                          ****END OF INPUT****
 Total Charge           Charge          ....    0
 Multiplicity           Mult            ....    1
 Number of Electrons    NEL             ....   52
 Basis Dimension        Dim             ....  148

MULLIKEN ATOMIC CHARGES
-----------------------
   0 C :    0.105979
   1 C :   -0.125437
   2 C :   -0.066825
   3 C :    0.137379
   4 C :   -0.076951
   5 C :    0.025368
   6 C :    0.014023
   7 H :    0.014552
   8 H :    0.009395
   9 H :    0.016678
  10 H :    0.010277
  11 H :   -0.022669
  12 H :    0.002668
  13 H :    0.009436
  14 H :   -0.018684
  15 H :   -0.018858
  16 H :   -0.016332
Sum of atomic charges:   -0.0000000

LOEWDIN ATOMIC CHARGES
----------------------
   0 C :   -0.069175
   1 C :   -0.016516
   2 C :   -0.022490
   3 C :   -0.001789
   4 C :   -0.023350
   5 C :   -0.025372
   6 C :   -0.027679
   7 H :    0.029077
   8 H :    0.024397
   9 H :    0.029361
  10 H :    0.020927
  11 H :    0.007445
  12 H :    0.013084
  13 H :    0.016365
  14 H :    0.008134
  15 H :    0.018530
  16 H :    0.019051

  Mayer bond orders larger than 0.1
B(  0-C ,  1-C ) :   1.1048 B(  0-C ,  7-H ) :   0.9509 B(  0-C ,  8-H ) :   0.9327
B(  0-C ,  9-H ) :   0.9511 B(  1-C ,  2-C ) :   0.9408 B(  1-C ,  4-C ) :   0.9380
B(  1-C , 10-H ) :   0.9303 B(  2-C ,  3-C ) :   0.9854 B(  2-C ,  6-C ) :   0.9346
B(  2-C , 11-H ) :   0.9616 B(  3-C ,  4-C ) :   0.9853 B(  3-C , 12-H ) :   0.9305
B(  3-C , 13-H ) :   0.9357 B(  4-C ,  5-C ) :   0.9346 B(  4-C , 14-H ) :   0.9636
B(  5-C ,  6-C ) :   1.7690 B(  5-C , 15-H ) :   1.0180 B(  6-C , 16-H ) :   1.0192

FINAL SINGLE POINT ENERGY      -272.115350444079

DIPOLE MOMENT
-------------
                                X             Y             Z
Electronic contribution:      2.06196       0.33328      -1.69452
Nuclear contribution   :     -2.10527      -0.32766       1.80614
                        -----------------------------------------
Total Dipole Moment    :     -0.04331       0.00561       0.11162
                        -----------------------------------------
Magnitude (a.u.)       :      0.11986
Magnitude (Debye)      :      0.30466

                             ****ORCA TERMINATED NORMALLY****
TOTAL RUN TIME: 0 days 0 hours 0 minutes 7 seconds 609 msec
