                         Program Version 3.0.3 - RELEASE   -
|  1> ! RI PBE def2-SVP def2-SVP/J NBO PAL2
|  2> % maxcore 2000
|  3> % output
|  4>     # printlevel mini
|  5>     print[ P_Basis ] 0
|  6>     print[ P_SCFInfo ] 1
|  7>     print[ P_SCFIterInfo ] 1
|  8>     print[ P_OrbEn ] 0
|  9>     print[ P_Cartesian ] 0
| 10> end
| 11> *xyz 0 1
| 12>  C        0.9311530000    -0.0700790000    -0.5607000000
| 13>  C        2.2361410000    -0.0737400000     0.1800490000
| 14>  C        3.4459770000     0.6905540000    -0.2669820000
| 15>  C        3.5345940000     1.1478480000    -1.7136070000
| 16>  C        3.5555570000    -0.1341300000    -2.4990220000
| 17>  C        3.5439160000    -1.2024780000    -1.7044650000
| 18>  C        3.4697540000    -0.8267200000    -0.2739980000
| 19>  H        0.3773430000     0.8517800000    -0.3604960000
| 20>  H        0.3041820000    -0.9092420000    -0.2476250000
| 21>  H        1.0750150000    -0.1483250000    -1.6394220000
| 22>  H        2.1195140000    -0.0821100000     1.2605220000
| 23>  H        3.9976490000     1.2442650000     0.4826830000
| 24>  H        4.4397000000     1.7397880000    -1.8904920000
| 25>  H        2.6903910000     1.7867450000    -2.0023010000
| 26>  H        3.5495080000    -0.1617550000    -3.5827380000
| 27>  H        3.5550620000    -2.2310250000    -2.0463050000
| 28>  H        4.0191330000    -1.4002450000     0.4637810000
| 29> *
| 30>
| 31>                          ****END OF INPUT****
 Total Charge           Charge          ....    0
 Multiplicity           Mult            ....    1
 Number of Electrons    NEL             ....   52
 Basis Dimension        Dim             ....  148

MULLIKEN ATOMIC CHARGES
-----------------------
   0 C :    0.096285
   1 C :   -0.135259
   2 C :   -0.126570
   3 C :    0.168915
   4 C :   -0.131820
   5 C :    0.047844
   6 C :   -0.044256
   7 H :    0.021956
   8 H :    0.021891
   9 H :    0.012494
  10 H :    0.015780
  11 H :    0.011737
  12 H :    0.024419
  13 H :    0.024999
  14 H :   -0.007457
  15 H :   -0.014868
  16 H :    0.013911
Sum of atomic charges:   -0.0000000

LOEWDIN ATOMIC CHARGES
----------------------
   0 C :   -0.063444
   1 C :   -0.034441
   2 C :   -0.032413
   3 C :   -0.034049
   4 C :   -0.042835
   5 C :   -0.029263
   6 C :   -0.039731
   7 H :    0.029761
   8 H :    0.030981
   9 H :    0.029034
  10 H :    0.029949
  11 H :    0.022520
  12 H :    0.034856
  13 H :    0.033555
  14 H :    0.020122
  15 H :    0.022703
  16 H :    0.022695

  Mayer bond orders larger than 0.1
B(  0-C ,  1-C ) :   1.1147 B(  0-C ,  7-H ) :   0.9539 B(  0-C ,  8-H ) :   0.9538
B(  0-C ,  9-H ) :   0.9281 B(  1-C ,  2-C ) :   0.9589 B(  1-C ,  6-C ) :   0.9334
B(  1-C , 10-H ) :   0.9281 B(  2-C ,  3-C ) :   1.0823 B(  2-C ,  6-C ) :   0.9380
B(  2-C , 11-H ) :   0.9402 B(  3-C ,  4-C ) :   1.0326 B(  3-C , 12-H ) :   0.9135
B(  3-C , 13-H ) :   0.9018 B(  4-C ,  5-C ) :   1.8034 B(  4-C , 14-H ) :   0.9833
B(  5-C ,  6-C ) :   1.0279 B(  5-C , 15-H ) :   1.0018 B(  6-C , 16-H ) :   0.9466

FINAL SINGLE POINT ENERGY      -272.145817034694

DIPOLE MOMENT
-------------
                                X             Y             Z
Electronic contribution:      2.88277      -1.05798      -0.10455
Nuclear contribution   :     -2.90557       1.13892       0.17359
                        -----------------------------------------
Total Dipole Moment    :     -0.02280       0.08093       0.06904
                        -----------------------------------------
Magnitude (a.u.)       :      0.10880
Magnitude (Debye)      :      0.27654

                             ****ORCA TERMINATED NORMALLY****
TOTAL RUN TIME: 0 days 0 hours 0 minutes 8 seconds 181 msec
