                         Program Version 3.0.3 - RELEASE   -
|  1> ! RI PBE def2-SVP def2-SVP/J NBO PAL2
|  2> % maxcore 2000
|  3> % output
|  4>     # printlevel mini
|  5>     print[ P_Basis ] 0
|  6>     print[ P_SCFInfo ] 1
|  7>     print[ P_SCFIterInfo ] 1
|  8>     print[ P_OrbEn ] 0
|  9>     print[ P_Cartesian ] 0
| 10> end
| 11> *xyz 0 1
| 12>  C        0.9167460000     0.1519040000    -0.2716810000
| 13>  C        2.4041380000    -0.0178930000    -0.1463780000
| 14>  C        3.1717170000    -0.7646480000    -1.1940900000
| 15>  C        3.3225230000     0.7323890000    -1.0544440000
| 16>  C        4.6218050000     1.3108190000    -0.6277250000
| 17>  C        5.5579130000     1.6364750000    -1.7507450000
| 18>  C        4.9475750000     1.5220350000     0.6443050000
| 19>  H        0.3835550000    -0.7211980000     0.1145470000
| 20>  H        0.6260370000     0.2803160000    -1.3178760000
| 21>  H        0.5682670000     1.0293300000     0.2798900000
| 22>  H        2.7609480000    -0.1599000000     0.8685080000
| 23>  H        2.6296780000    -1.1462000000    -2.0521320000
| 24>  H        4.0069290000    -1.3753530000    -0.8725340000
| 25>  H        2.8304680000     1.3012700000    -1.8411790000
| 26>  H        5.7647580000     0.7458620000    -2.3526020000
| 27>  H        6.5037650000     2.0387220000    -1.3858760000
| 28>  H        5.1093690000     2.3727350000    -2.4261250000
| 29>  H        4.2615720000     1.3059360000     1.4546930000
| 30>  H        5.9175360000     1.9242790000     0.9150430000
| 31> *
| 32>
| 33>                          ****END OF INPUT****
 Total Charge           Charge          ....    0
 Multiplicity           Mult            ....    1
 Number of Electrons    NEL             ....   54
 Basis Dimension        Dim             ....  158

MULLIKEN ATOMIC CHARGES
-----------------------
   0 C :    0.076541
   1 C :   -0.164899
   2 C :    0.023418
   3 C :   -0.073309
   4 C :   -0.101185
   5 C :    0.069886
   6 C :   -0.046350
   7 H :    0.023319
   8 H :    0.003031
   9 H :    0.024788
  10 H :    0.019891
  11 H :    0.021431
  12 H :    0.028949
  13 H :    0.017311
  14 H :    0.027067
  15 H :    0.009832
  16 H :    0.027870
  17 H :    0.008242
  18 H :    0.004165
Sum of atomic charges:    0.0000000

LOEWDIN ATOMIC CHARGES
----------------------
   0 C :   -0.053132
   1 C :   -0.040438
   2 C :   -0.033548
   3 C :   -0.038670
   4 C :   -0.024673
   5 C :   -0.054426
   6 C :   -0.083081
   7 H :    0.028904
   8 H :    0.025242
   9 H :    0.029801
  10 H :    0.026367
  11 H :    0.023128
  12 H :    0.027476
  13 H :    0.029609
  14 H :    0.035544
  15 H :    0.029073
  16 H :    0.035603
  17 H :    0.018122
  18 H :    0.019100

  Mayer bond orders larger than 0.1
B(  0-C ,  1-C ) :   1.0943 B(  0-C ,  7-H ) :   0.9585 B(  0-C ,  8-H ) :   0.9494
B(  0-C ,  9-H ) :   0.9616 B(  1-C ,  2-C ) :   1.0130 B(  1-C ,  3-C ) :   0.9413
B(  1-C , 10-H ) :   0.9347 B(  2-C ,  3-C ) :   0.9796 B(  2-C , 11-H ) :   0.9398
B(  2-C , 12-H ) :   0.9385 B(  3-C ,  4-C ) :   1.0382 B(  3-C , 13-H ) :   0.9290
B(  4-C ,  5-C ) :   1.0808 B(  4-C ,  6-C ) :   1.9857 B(  5-C , 14-H ) :   0.9443
B(  5-C , 15-H ) :   0.9470 B(  5-C , 16-H ) :   0.9452 B(  6-C , 17-H ) :   0.9285
B(  6-C , 18-H ) :   0.9272

FINAL SINGLE POINT ENERGY      -273.339619058475

DIPOLE MOMENT
-------------
                                X             Y             Z
Electronic contribution:      1.03456       0.14137       0.70011
Nuclear contribution   :     -1.14460      -0.19712      -0.87881
                        -----------------------------------------
Total Dipole Moment    :     -0.11003      -0.05575      -0.17871
                        -----------------------------------------
Magnitude (a.u.)       :      0.21714
Magnitude (Debye)      :      0.55193

                             ****ORCA TERMINATED NORMALLY****
TOTAL RUN TIME: 0 days 0 hours 0 minutes 8 seconds 607 msec
