                         Program Version 3.0.3 - RELEASE   -
|  1> ! RI PBE def2-SVP def2-SVP/J NBO PAL2
|  2> % maxcore 2000
|  3> % output
|  4>     # printlevel mini
|  5>     print[ P_Basis ] 0
|  6>     print[ P_SCFInfo ] 1
|  7>     print[ P_SCFIterInfo ] 1
|  8>     print[ P_OrbEn ] 0
|  9>     print[ P_Cartesian ] 0
| 10> end
| 11> *xyz 0 1
| 12>  C        0.6631640000     0.1559030000    -0.9096670000
| 13>  C        1.9559600000    -0.0929900000    -0.1867460000
| 14>  C        2.7713400000    -1.3140880000    -0.4938790000
| 15>  C        3.2701070000     0.0427240000    -0.8940700000
| 16>  C        4.4619160000     0.6492590000    -0.1952420000
| 17>  C        4.4713530000     2.1419300000    -0.2636750000
| 18>  C        5.4437480000     2.8751810000    -0.7873280000
| 19>  H       -0.1647180000    -0.3863950000    -0.4442100000
| 20>  H        0.7307420000    -0.1743870000    -1.9497330000
| 21>  H        0.4063230000     1.2189480000    -0.9158580000
| 22>  H        1.9612860000     0.2160660000     0.8555770000
| 23>  H        2.4110190000    -1.9774770000    -1.2717190000
| 24>  H        3.2774740000    -1.8160230000     0.3229590000
| 25>  H        3.2048220000     0.2781960000    -1.9529630000
| 26>  H        5.3912460000     0.2553200000    -0.6206240000
| 27>  H        4.4404060000     0.3345580000     0.8564410000
| 28>  H        3.5925600000     2.6402320000     0.1428700000
| 29>  H        6.3338430000     2.4163990000    -1.2078120000
| 30>  H        5.3896280000     3.9574440000    -0.8138890000
| 31> *
| 32>
| 33>                          ****END OF INPUT****
 Total Charge           Charge          ....    0
 Multiplicity           Mult            ....    1
 Number of Electrons    NEL             ....   54
 Basis Dimension        Dim             ....  158

MULLIKEN ATOMIC CHARGES
-----------------------
   0 C :    0.075434
   1 C :   -0.157306
   2 C :    0.022228
   3 C :   -0.148230
   4 C :    0.166635
   5 C :   -0.076194
   6 C :   -0.041233
   7 H :    0.021330
   8 H :    0.005500
   9 H :    0.022590
  10 H :    0.013051
  11 H :    0.024361
  12 H :    0.018013
  13 H :    0.015727
  14 H :    0.000117
  15 H :   -0.000745
  16 H :   -0.000696
  17 H :    0.014162
  18 H :    0.025258
Sum of atomic charges:   -0.0000000

LOEWDIN ATOMIC CHARGES
----------------------
   0 C :   -0.056139
   1 C :   -0.045263
   2 C :   -0.044389
   3 C :   -0.039219
   4 C :   -0.031016
   5 C :   -0.026335
   6 C :   -0.070479
   7 H :    0.028567
   8 H :    0.026763
   9 H :    0.028169
  10 H :    0.022863
  11 H :    0.025149
  12 H :    0.023995
  13 H :    0.025212
  14 H :    0.029654
  15 H :    0.033412
  16 H :    0.024215
  17 H :    0.020603
  18 H :    0.024239

  Mayer bond orders larger than 0.1
B(  0-C ,  1-C ) :   1.1018 B(  0-C ,  7-H ) :   0.9560 B(  0-C ,  8-H ) :   0.9472
B(  0-C ,  9-H ) :   0.9619 B(  1-C ,  2-C ) :   1.0147 B(  1-C ,  3-C ) :   0.9422
B(  1-C , 10-H ) :   0.9384 B(  2-C ,  3-C ) :   0.9833 B(  2-C , 11-H ) :   0.9387
B(  2-C , 12-H ) :   0.9343 B(  3-C ,  4-C ) :   1.0596 B(  3-C , 13-H ) :   0.9434
B(  4-C ,  5-C ) :   1.0645 B(  4-C , 14-H ) :   0.9191 B(  4-C , 15-H ) :   0.8932
B(  5-C ,  6-C ) :   2.0135 B(  5-C , 16-H ) :   0.9536 B(  6-C , 17-H ) :   0.9461
B(  6-C , 18-H ) :   0.9445

FINAL SINGLE POINT ENERGY      -273.334264095929

DIPOLE MOMENT
-------------
                                X             Y             Z
Electronic contribution:      1.94073       0.46494       0.52572
Nuclear contribution   :     -2.06552      -0.55712      -0.49509
                        -----------------------------------------
Total Dipole Moment    :     -0.12479      -0.09217       0.03063
                        -----------------------------------------
Magnitude (a.u.)       :      0.15814
Magnitude (Debye)      :      0.40195

                             ****ORCA TERMINATED NORMALLY****
TOTAL RUN TIME: 0 days 0 hours 0 minutes 8 seconds 455 msec
