                         Program Version 3.0.3 - RELEASE   -
|  1> ! RI PBE def2-SVP def2-SVP/J NBO PAL2
|  2> % maxcore 2000
|  3> % output
|  4>     # printlevel mini
|  5>     print[ P_Basis ] 0
|  6>     print[ P_SCFInfo ] 1
|  7>     print[ P_SCFIterInfo ] 1
|  8>     print[ P_OrbEn ] 0
|  9>     print[ P_Cartesian ] 0
| 10> end
| 11> *xyz 0 1
| 12>  C        0.7525980000     0.5563360000    -0.3421140000
| 13>  C        2.2276300000     0.5262590000    -0.0624090000
| 14>  C        3.0873840000    -0.5650070000    -0.6311650000
| 15>  C        3.2137200000     0.8390050000    -1.1416580000
| 16>  C        4.4616720000     1.6323790000    -0.8323780000
| 17>  C        4.2505190000     3.0719500000    -0.8757900000
| 18>  C        4.0626010000     4.2569660000    -0.9209140000
| 19>  H        0.2031050000    -0.0865330000     0.3510710000
| 20>  H        0.5419000000     0.2053140000    -1.3559690000
| 21>  H        0.3527070000     1.5697070000    -0.2513660000
| 22>  H        2.5102410000     0.8701100000     0.9289720000
| 23>  H        2.6143440000    -1.3004060000    -1.2715890000
| 24>  H        3.8940860000    -0.9569670000    -0.0220220000
| 25>  H        2.7929590000     1.0355930000    -2.1229860000
| 26>  H        5.2579730000     1.3677470000    -1.5377150000
| 27>  H        4.8303940000     1.3552850000     0.1618080000
| 28>  H        3.8986660000     5.3076620000    -0.9588760000
| 29> *
| 30>
| 31>                          ****END OF INPUT****
 Total Charge           Charge          ....    0
 Multiplicity           Mult            ....    1
 Number of Electrons    NEL             ....   52
 Basis Dimension        Dim             ....  148

MULLIKEN ATOMIC CHARGES
-----------------------
   0 C :    0.083064
   1 C :   -0.149068
   2 C :    0.018022
   3 C :   -0.138752
   4 C :    0.164276
   5 C :    0.338491
   6 C :   -0.501202
   7 H :    0.023761
   8 H :    0.001652
   9 H :    0.025881
  10 H :    0.016282
  11 H :    0.024530
  12 H :    0.021417
  13 H :    0.021782
  14 H :    0.038851
  15 H :    0.015972
  16 H :   -0.004956
Sum of atomic charges:   -0.0000000

LOEWDIN ATOMIC CHARGES
----------------------
   0 C :   -0.053453
   1 C :   -0.040867
   2 C :   -0.044385
   3 C :   -0.032543
   4 C :   -0.037411
   5 C :   -0.019022
   6 C :   -0.093353
   7 H :    0.029293
   8 H :    0.025963
   9 H :    0.030678
  10 H :    0.025723
  11 H :    0.025983
  12 H :    0.024829
  13 H :    0.027839
  14 H :    0.050717
  15 H :    0.047350
  16 H :    0.032661

  Mayer bond orders larger than 0.1
B(  0-C ,  1-C ) :   1.1004 B(  0-C ,  7-H ) :   0.9574 B(  0-C ,  8-H ) :   0.9476
B(  0-C ,  9-H ) :   0.9616 B(  1-C ,  2-C ) :   1.0138 B(  1-C ,  3-C ) :   0.9469
B(  1-C , 10-H ) :   0.9371 B(  2-C ,  3-C ) :   0.9856 B(  2-C , 11-H ) :   0.9379
B(  2-C , 12-H ) :   0.9341 B(  3-C ,  4-C ) :   1.0612 B(  3-C , 13-H ) :   0.9432
B(  4-C ,  5-C ) :   1.0627 B(  4-C , 14-H ) :   0.8885 B(  4-C , 15-H ) :   0.8834
B(  5-C ,  6-C ) :   2.3380 B(  5-C , 16-H ) :  -0.1131 B(  6-C , 16-H ) :   1.1043

FINAL SINGLE POINT ENERGY      -272.091029143917

DIPOLE MOMENT
-------------
                                X             Y             Z
Electronic contribution:      3.79838       4.22388      -0.63362
Nuclear contribution   :     -3.86397      -4.50061       0.65985
                        -----------------------------------------
Total Dipole Moment    :     -0.06559      -0.27673       0.02623
                        -----------------------------------------
Magnitude (a.u.)       :      0.28560
Magnitude (Debye)      :      0.72595

                             ****ORCA TERMINATED NORMALLY****
TOTAL RUN TIME: 0 days 0 hours 0 minutes 7 seconds 557 msec
