                         Program Version 3.0.3 - RELEASE   -
|  1> ! RI PBE def2-SVP def2-SVP/J NBO PAL2
|  2> % maxcore 2000
|  3> % output
|  4>     # printlevel mini
|  5>     print[ P_Basis ] 0
|  6>     print[ P_SCFInfo ] 1
|  7>     print[ P_SCFIterInfo ] 1
|  8>     print[ P_OrbEn ] 0
|  9>     print[ P_Cartesian ] 0
| 10> end
| 11> *xyz 0 1
| 12>  C        1.0240720000     0.0222880000     0.1144020000
| 13>  C        2.3480620000     0.0225180000     0.0978250000
| 14>  C        3.3121380000    -1.1526490000     0.1378870000
| 15>  C        4.6232690000    -0.3596810000     0.0863670000
| 16>  C        4.3187410000     0.6833250000    -1.0103800000
| 17>  C        3.2867990000     1.1896610000     0.0343480000
| 18>  C        4.3450030000     0.7766210000     1.0937580000
| 19>  H        0.4572410000    -0.9013750000     0.1624510000
| 20>  H        0.4593860000     0.9476200000     0.0804340000
| 21>  H        3.1894850000    -1.8226610000    -0.7175590000
| 22>  H        3.2115640000    -1.7442280000     1.0520330000
| 23>  H        5.5531670000    -0.9268250000     0.0999070000
| 24>  H        3.9421960000     0.3311670000    -1.9736320000
| 25>  H        5.1366490000     1.3919740000    -1.1511480000
| 26>  H        2.8536930000     2.1877870000    -0.0045040000
| 27>  H        3.9929550000     0.5115030000     2.0934720000
| 28>  H        5.1653800000     1.4940440000     1.1508480000
| 29> *
| 30>
| 31>                          ****END OF INPUT****
 Total Charge           Charge          ....    0
 Multiplicity           Mult            ....    1
 Number of Electrons    NEL             ....   52
 Basis Dimension        Dim             ....  148

MULLIKEN ATOMIC CHARGES
-----------------------
   0 C :   -0.075442
   1 C :   -0.100225
   2 C :    0.211428
   3 C :   -0.211994
   4 C :    0.094269
   5 C :   -0.093075
   6 C :    0.087650
   7 H :    0.004434
   8 H :    0.005285
   9 H :    0.022009
  10 H :    0.020990
  11 H :   -0.007369
  12 H :    0.016016
  13 H :    0.018376
  14 H :   -0.029664
  15 H :    0.017251
  16 H :    0.020060
Sum of atomic charges:   -0.0000000

LOEWDIN ATOMIC CHARGES
----------------------
   0 C :   -0.094555
   1 C :   -0.020026
   2 C :   -0.024400
   3 C :   -0.023376
   4 C :   -0.014790
   5 C :   -0.013129
   6 C :   -0.015802
   7 H :    0.021955
   8 H :    0.021925
   9 H :    0.030865
  10 H :    0.030815
  11 H :    0.010451
  12 H :    0.014620
  13 H :    0.023442
  14 H :    0.013440
  15 H :    0.014798
  16 H :    0.023765

  Mayer bond orders larger than 0.1
B(  0-C ,  1-C ) :   2.0421 B(  0-C ,  7-H ) :   0.9254 B(  0-C ,  8-H ) :   0.9290
B(  1-C ,  2-C ) :   0.9755 B(  1-C ,  5-C ) :   0.9958 B(  2-C ,  3-C ) :   1.0271
B(  2-C ,  9-H ) :   0.9089 B(  2-C , 10-H ) :   0.9081 B(  3-C ,  4-C ) :   0.9869
B(  3-C ,  6-C ) :   0.9870 B(  3-C , 11-H ) :   0.9584 B(  4-C ,  5-C ) :   0.9555
B(  4-C , 12-H ) :   0.9394 B(  4-C , 13-H ) :   0.9359 B(  5-C ,  6-C ) :   0.9551
B(  5-C , 14-H ) :   0.9692 B(  6-C , 15-H ) :   0.9400 B(  6-C , 16-H ) :   0.9366

FINAL SINGLE POINT ENERGY      -272.134589593617

DIPOLE MOMENT
-------------
                                X             Y             Z
Electronic contribution:     -0.32777       0.18904      -0.00445
Nuclear contribution   :      0.61648      -0.18404       0.00048
                        -----------------------------------------
Total Dipole Moment    :      0.28871       0.00501      -0.00396
                        -----------------------------------------
Magnitude (a.u.)       :      0.28878
Magnitude (Debye)      :      0.73402

                             ****ORCA TERMINATED NORMALLY****
TOTAL RUN TIME: 0 days 0 hours 0 minutes 7 seconds 565 msec
