                         Program Version 3.0.3 - RELEASE   -
|  1> ! RI PBE def2-SVP def2-SVP/J NBO PAL2
|  2> % maxcore 2000
|  3> % output
|  4>     # printlevel mini
|  5>     print[ P_Basis ] 0
|  6>     print[ P_SCFInfo ] 1
|  7>     print[ P_SCFIterInfo ] 1
|  8>     print[ P_OrbEn ] 0
|  9>     print[ P_Cartesian ] 0
| 10> end
| 11> *xyz 0 1
| 12>  C        1.1969790000    -0.0267110000     0.1918800000
| 13>  C        2.6487510000    -0.3107250000     0.1298040000
| 14>  C        3.3351640000    -1.3464630000    -0.3552090000
| 15>  C        4.7891170000    -0.9710860000    -0.0838580000
| 16>  C        4.7763540000     0.5222100000    -0.5150940000
| 17>  C        3.7566050000     0.6069760000     0.6558590000
| 18>  C        4.6706370000    -0.4298550000     1.3684130000
| 19>  H        0.6150400000    -0.8372900000    -0.2505040000
| 20>  H        0.9505330000     0.8996680000    -0.3385470000
| 21>  H        0.8626980000     0.1086460000     1.2263840000
| 22>  H        2.9767370000    -2.2488410000    -0.8314550000
| 23>  H        5.5745390000    -1.6612080000    -0.3886130000
| 24>  H        4.4120040000     0.7524570000    -1.5179490000
| 25>  H        5.7151920000     1.0426420000    -0.3053510000
| 26>  H        3.4688500000     1.5518200000     1.1173030000
| 27>  H        4.2082890000    -1.0821530000     2.1115320000
| 28>  H        5.6000200000     0.0054250000     1.7466160000
| 29> *
| 30>
| 31>                          ****END OF INPUT****
 Total Charge           Charge          ....    0
 Multiplicity           Mult            ....    1
 Number of Electrons    NEL             ....   52
 Basis Dimension        Dim             ....  148

MULLIKEN ATOMIC CHARGES
-----------------------
   0 C :    0.099170
   1 C :   -0.051812
   2 C :   -0.049801
   3 C :   -0.095150
   4 C :    0.100370
   5 C :   -0.115401
   6 C :    0.101280
   7 H :    0.015257
   8 H :    0.023346
   9 H :    0.023394
  10 H :   -0.035012
  11 H :   -0.019953
  12 H :    0.009738
  13 H :    0.010095
  14 H :   -0.035169
  15 H :    0.011570
  16 H :    0.008079
Sum of atomic charges:   -0.0000000

LOEWDIN ATOMIC CHARGES
----------------------
   0 C :   -0.061169
   1 C :   -0.030017
   2 C :   -0.048624
   3 C :   -0.024042
   4 C :   -0.005019
   5 C :   -0.020867
   6 C :   -0.005210
   7 H :    0.034598
   8 H :    0.036857
   9 H :    0.036592
  10 H :    0.015875
  11 H :    0.008275
  12 H :    0.012320
  13 H :    0.016093
  14 H :    0.006099
  15 H :    0.012473
  16 H :    0.015768

  Mayer bond orders larger than 0.1
B(  0-C ,  1-C ) :   1.1523 B(  0-C ,  7-H ) :   0.9442 B(  0-C ,  8-H ) :   0.9315
B(  0-C ,  9-H ) :   0.9331 B(  1-C ,  2-C ) :   1.7768 B(  1-C ,  5-C ) :   0.9342
B(  2-C ,  3-C ) :   0.9207 B(  2-C , 10-H ) :   1.0225 B(  3-C ,  4-C ) :   0.9836
B(  3-C ,  6-C ) :   0.9853 B(  3-C , 11-H ) :   0.9659 B(  4-C ,  5-C ) :   0.9744
B(  4-C , 12-H ) :   0.9363 B(  4-C , 13-H ) :   0.9381 B(  5-C ,  6-C ) :   0.9738
B(  5-C , 14-H ) :   0.9712 B(  6-C , 15-H ) :   0.9376 B(  6-C , 16-H ) :   0.9368

FINAL SINGLE POINT ENERGY      -272.120213081489

DIPOLE MOMENT
-------------
                                X             Y             Z
Electronic contribution:      1.24438      -1.00821      -0.44194
Nuclear contribution   :     -1.32228       1.10997       0.48684
                        -----------------------------------------
Total Dipole Moment    :     -0.07790       0.10176       0.04491
                        -----------------------------------------
Magnitude (a.u.)       :      0.13579
Magnitude (Debye)      :      0.34516

                             ****ORCA TERMINATED NORMALLY****
TOTAL RUN TIME: 0 days 0 hours 0 minutes 8 seconds 93 msec
