                         Program Version 3.0.3 - RELEASE   -
|  1> ! RI PBE def2-SVP def2-SVP/J NBO PAL2
|  2> % maxcore 2000
|  3> % output
|  4>     # printlevel mini
|  5>     print[ P_Basis ] 0
|  6>     print[ P_SCFInfo ] 1
|  7>     print[ P_SCFIterInfo ] 1
|  8>     print[ P_OrbEn ] 0
|  9>     print[ P_Cartesian ] 0
| 10> end
| 11> *xyz 0 1
| 12>  C        1.5375290000     0.0429420000     1.1837780000
| 13>  C        2.3049700000     0.0118290000     0.1032380000
| 14>  C        2.8335600000    -1.2301820000    -0.5713990000
| 15>  C        4.1486470000    -0.7924920000    -1.1775770000
| 16>  C        5.0836390000    -0.0366530000    -0.2833230000
| 17>  C        4.1711130000     0.7136960000    -1.2049890000
| 18>  C        2.8699900000     1.2121630000    -0.6158490000
| 19>  H        1.1927850000    -0.8685500000     1.6602950000
| 20>  H        1.2203740000     0.9810390000     1.6266330000
| 21>  H        2.1499860000    -1.5382820000    -1.3727240000
| 22>  H        2.9216010000    -2.0698160000     0.1228830000
| 23>  H        4.5673900000    -1.3684090000    -1.9937220000
| 24>  H        6.1372720000    -0.0569050000    -0.5325350000
| 25>  H        4.8719810000    -0.0141250000     0.7810430000
| 26>  H        4.6063990000     1.2468010000    -2.0413160000
| 27>  H        2.1954710000     1.5111520000    -1.4282220000
| 28>  H        2.9834020000     2.0735000000     0.0474760000
| 29> *
| 30>
| 31>                          ****END OF INPUT****
 Total Charge           Charge          ....    0
 Multiplicity           Mult            ....    1
 Number of Electrons    NEL             ....   52
 Basis Dimension        Dim             ....  148

MULLIKEN ATOMIC CHARGES
-----------------------
   0 C :   -0.032421
   1 C :   -0.304009
   2 C :    0.244947
   3 C :   -0.168153
   4 C :    0.021280
   5 C :   -0.167428
   6 C :    0.246319
   7 H :    0.003738
   8 H :    0.003415
   9 H :    0.023594
  10 H :    0.012570
  11 H :    0.007525
  12 H :    0.028002
  13 H :    0.038526
  14 H :    0.006889
  15 H :    0.023593
  16 H :    0.011613
Sum of atomic charges:   -0.0000000

LOEWDIN ATOMIC CHARGES
----------------------
   0 C :   -0.077431
   1 C :   -0.028200
   2 C :   -0.025096
   3 C :   -0.040408
   4 C :   -0.047010
   5 C :   -0.040323
   6 C :   -0.024803
   7 H :    0.021376
   8 H :    0.021321
   9 H :    0.039042
  10 H :    0.031002
  11 H :    0.021582
  12 H :    0.030208
  13 H :    0.027429
  14 H :    0.021461
  15 H :    0.039021
  16 H :    0.030829

  Mayer bond orders larger than 0.1
B(  0-C ,  1-C ) :   1.9995 B(  0-C ,  7-H ) :   0.9261 B(  0-C ,  8-H ) :   0.9262
B(  1-C ,  2-C ) :   1.0207 B(  1-C ,  6-C ) :   1.0205 B(  2-C ,  3-C ) :   1.0502
B(  2-C ,  9-H ) :   0.8967 B(  2-C , 10-H ) :   0.9121 B(  3-C ,  4-C ) :   0.9889
B(  3-C ,  5-C ) :   0.9538 B(  3-C , 11-H ) :   0.9529 B(  4-C ,  5-C ) :   0.9895
B(  4-C , 12-H ) :   0.9357 B(  4-C , 13-H ) :   0.9358 B(  5-C ,  6-C ) :   1.0503
B(  5-C , 14-H ) :   0.9529 B(  6-C , 15-H ) :   0.8969 B(  6-C , 16-H ) :   0.9120

FINAL SINGLE POINT ENERGY      -272.146364862218

DIPOLE MOMENT
-------------
                                X             Y             Z
Electronic contribution:      0.01216      -0.01195      -0.65782
Nuclear contribution   :      0.05172       0.00740       0.44878
                        -----------------------------------------
Total Dipole Moment    :      0.06388      -0.00455      -0.20905
                        -----------------------------------------
Magnitude (a.u.)       :      0.21864
Magnitude (Debye)      :      0.55574

                             ****ORCA TERMINATED NORMALLY****
TOTAL RUN TIME: 0 days 0 hours 0 minutes 7 seconds 531 msec
