                         Program Version 3.0.3 - RELEASE   -
|  1> ! RI PBE def2-SVP def2-SVP/J NBO PAL2
|  2> % maxcore 2000
|  3> % output
|  4>     # printlevel mini
|  5>     print[ P_Basis ] 0
|  6>     print[ P_SCFInfo ] 1
|  7>     print[ P_SCFIterInfo ] 1
|  8>     print[ P_OrbEn ] 0
|  9>     print[ P_Cartesian ] 0
| 10> end
| 11> *xyz 0 1
| 12>  C        0.8951020000     0.0531690000    -0.2732490000
| 13>  C        2.3335360000     0.0716720000     0.1025090000
| 14>  C        3.1037350000     1.1406060000     0.3139090000
| 15>  C        4.5152400000     0.7741990000     0.5810240000
| 16>  C        5.2129060000     0.0732880000    -0.5547980000
| 17>  C        4.5448750000    -0.7352600000     0.5127550000
| 18>  C        3.1232330000    -1.2038630000     0.2749250000
| 19>  H        0.4784670000     1.0608370000    -0.3149880000
| 20>  H        0.3087180000    -0.5315960000     0.4440370000
| 21>  H        0.7465250000    -0.4155190000    -1.2520680000
| 22>  H        2.7600700000     2.1677640000     0.2554470000
| 23>  H        5.1066410000     1.3332270000     1.2966010000
| 24>  H        6.2968250000     0.0754260000    -0.5597060000
| 25>  H        4.7492500000     0.1311170000    -1.5335500000
| 26>  H        5.1793610000    -1.3021990000     1.1820940000
| 27>  H        2.7420800000    -1.7813360000     1.1267560000
| 28>  H        3.0358260000    -1.8565340000    -0.6021860000
| 29> *
| 30>
| 31>                          ****END OF INPUT****
 Total Charge           Charge          ....    0
 Multiplicity           Mult            ....    1
 Number of Electrons    NEL             ....   52
 Basis Dimension        Dim             ....  148

MULLIKEN ATOMIC CHARGES
-----------------------
   0 C :    0.090179
   1 C :   -0.248188
   2 C :    0.017755
   3 C :   -0.070318
   4 C :    0.024509
   5 C :   -0.160922
   6 C :    0.201308
   7 H :    0.012174
   8 H :    0.025489
   9 H :    0.022203
  10 H :   -0.031037
  11 H :    0.013002
  12 H :    0.030271
  13 H :    0.026792
  14 H :    0.012816
  15 H :    0.016429
  16 H :    0.017538
Sum of atomic charges:   -0.0000000

LOEWDIN ATOMIC CHARGES
----------------------
   0 C :   -0.059610
   1 C :   -0.042992
   2 C :   -0.044054
   3 C :   -0.039776
   4 C :   -0.035519
   5 C :   -0.036058
   6 C :   -0.025481
   7 H :    0.032263
   8 H :    0.034793
   9 H :    0.035311
  10 H :    0.019513
  11 H :    0.022571
  12 H :    0.027890
  13 H :    0.023843
  14 H :    0.023186
  15 H :    0.032331
  16 H :    0.031789

  Mayer bond orders larger than 0.1
B(  0-C ,  1-C ) :   1.1103 B(  0-C ,  7-H ) :   0.9479 B(  0-C ,  8-H ) :   0.9413
B(  0-C ,  9-H ) :   0.9366 B(  1-C ,  2-C ) :   1.8213 B(  1-C ,  6-C ) :   1.0320
B(  2-C ,  3-C ) :   1.0101 B(  2-C , 10-H ) :   0.9984 B(  3-C ,  4-C ) :   0.9790
B(  3-C ,  5-C ) :   0.9405 B(  3-C , 11-H ) :   0.9505 B(  4-C ,  5-C ) :   1.0013
B(  4-C , 12-H ) :   0.9370 B(  4-C , 13-H ) :   0.9394 B(  5-C ,  6-C ) :   1.0661
B(  5-C , 14-H ) :   0.9451 B(  6-C , 15-H ) :   0.9064 B(  6-C , 16-H ) :   0.9084

FINAL SINGLE POINT ENERGY      -272.150866990032

DIPOLE MOMENT
-------------
                                X             Y             Z
Electronic contribution:      2.01176       1.02684       1.11595
Nuclear contribution   :     -2.08955      -1.14529      -1.10985
                        -----------------------------------------
Total Dipole Moment    :     -0.07780      -0.11845       0.00610
                        -----------------------------------------
Magnitude (a.u.)       :      0.14184
Magnitude (Debye)      :      0.36053

                             ****ORCA TERMINATED NORMALLY****
TOTAL RUN TIME: 0 days 0 hours 0 minutes 7 seconds 952 msec
