                         Program Version 3.0.3 - RELEASE   -
|  1> ! RI PBE def2-SVP def2-SVP/J NBO PAL2
|  2> % maxcore 2000
|  3> % output
|  4>     # printlevel mini
|  5>     print[ P_Basis ] 0
|  6>     print[ P_SCFInfo ] 1
|  7>     print[ P_SCFIterInfo ] 1
|  8>     print[ P_OrbEn ] 0
|  9>     print[ P_Cartesian ] 0
| 10> end
| 11> *xyz 0 1
| 12>  C        0.7449350000    -0.0714550000     0.1858990000
| 13>  C        2.2508670000     0.0588030000     0.0343390000
| 14>  C        2.9480120000     1.1232410000     0.9144400000
| 15>  C        4.0537940000     0.1044500000     1.2390920000
| 16>  C        3.1073120000    -1.0142710000     0.7729750000
| 17>  C        2.6103090000     0.1009330000    -1.4189410000
| 18>  C        3.2577520000     1.0534500000    -2.0751940000
| 19>  H        0.4700420000    -0.1758960000     1.2388390000
| 20>  H        0.3694170000    -0.9492080000    -0.3490570000
| 21>  H        0.2338530000     0.8074480000    -0.2166920000
| 22>  H        2.3365390000     1.3455090000     1.7922860000
| 23>  H        3.2354650000     2.0686490000     0.4524650000
| 24>  H        4.4137100000     0.0617540000     2.2677380000
| 25>  H        4.9104480000     0.2115700000     0.5720250000
| 26>  H        2.5482110000    -1.4510670000     1.6045410000
| 27>  H        3.5267840000    -1.8204150000     0.1675160000
| 28>  H        2.2821380000    -0.7776740000    -1.9757430000
| 29>  H        3.6126090000     1.9557250000    -1.5896600000
| 30>  H        3.4560920000     0.9634450000    -3.1369670000
| 31> *
| 32>
| 33>                          ****END OF INPUT****
 Total Charge           Charge          ....    0
 Multiplicity           Mult            ....    1
 Number of Electrons    NEL             ....   54
 Basis Dimension        Dim             ....  158

MULLIKEN ATOMIC CHARGES
-----------------------
   0 C :    0.095374
   1 C :   -0.376968
   2 C :    0.101908
   3 C :   -0.005338
   4 C :    0.097589
   5 C :    0.014349
   6 C :   -0.033674
   7 H :    0.006593
   8 H :    0.014146
   9 H :    0.023272
  10 H :   -0.004543
  11 H :    0.007050
  12 H :    0.007176
  13 H :    0.019038
  14 H :   -0.003122
  15 H :    0.008707
  16 H :   -0.003792
  17 H :    0.010388
  18 H :    0.021846
Sum of atomic charges:    0.0000000

LOEWDIN ATOMIC CHARGES
----------------------
   0 C :   -0.049861
   1 C :   -0.058128
   2 C :   -0.021154
   3 C :   -0.032145
   4 C :   -0.016972
   5 C :   -0.013209
   6 C :   -0.072699
   7 H :    0.021545
   8 H :    0.026215
   9 H :    0.029194
  10 H :    0.023629
  11 H :    0.013733
  12 H :    0.017102
  13 H :    0.025587
  14 H :    0.021539
  15 H :    0.016244
  16 H :    0.024860
  17 H :    0.019236
  18 H :    0.025281

  Mayer bond orders larger than 0.1
B(  0-C ,  1-C ) :   1.0563 B(  0-C ,  7-H ) :   0.9444 B(  0-C ,  8-H ) :   0.9553
B(  0-C ,  9-H ) :   0.9584 B(  1-C ,  2-C ) :   1.0680 B(  1-C ,  4-C ) :   1.0377
B(  1-C ,  5-C ) :   0.9710 B(  2-C ,  3-C ) :   1.1315 B(  2-C , 10-H ) :   0.9067
B(  2-C , 11-H ) :   0.9226 B(  3-C ,  4-C ) :   1.1324 B(  3-C , 12-H ) :   0.9300
B(  3-C , 13-H ) :   0.9288 B(  4-C , 14-H ) :   0.9110 B(  4-C , 15-H ) :   0.9305
B(  5-C ,  6-C ) :   2.0260 B(  5-C , 16-H ) :   0.9453 B(  6-C , 17-H ) :   0.9330
B(  6-C , 18-H ) :   0.9374

FINAL SINGLE POINT ENERGY      -273.335047553323

DIPOLE MOMENT
-------------
                                X             Y             Z
Electronic contribution:      0.86303      -0.00006      -1.05853
Nuclear contribution   :     -0.92664      -0.06830       1.16696
                        -----------------------------------------
Total Dipole Moment    :     -0.06361      -0.06836       0.10843
                        -----------------------------------------
Magnitude (a.u.)       :      0.14310
Magnitude (Debye)      :      0.36372

                             ****ORCA TERMINATED NORMALLY****
TOTAL RUN TIME: 0 days 0 hours 0 minutes 8 seconds 308 msec
