                         Program Version 3.0.3 - RELEASE   -
|  1> ! RI PBE def2-SVP def2-SVP/J NBO PAL2
|  2> % maxcore 2000
|  3> % output
|  4>     # printlevel mini
|  5>     print[ P_Basis ] 0
|  6>     print[ P_SCFInfo ] 1
|  7>     print[ P_SCFIterInfo ] 1
|  8>     print[ P_OrbEn ] 0
|  9>     print[ P_Cartesian ] 0
| 10> end
| 11> *xyz 0 1
| 12>  C        0.9464170000    -0.0595720000     0.1214630000
| 13>  C        2.4617070000    -0.0594750000     0.0093060000
| 14>  C        3.2359930000     1.0148220000     0.8326350000
| 15>  C        4.2615010000    -0.0595040000     1.2291530000
| 16>  C        3.2361100000    -1.1338570000     0.8324390000
| 17>  C        2.8784570000    -0.0592690000    -1.3841150000
| 18>  C        3.2188450000    -0.0592650000    -2.5368600000
| 19>  H        0.6482970000    -0.0596860000     1.1727450000
| 20>  H        0.5203180000    -0.9432590000    -0.3591860000
| 21>  H        0.5202140000     0.8241510000    -0.3590260000
| 22>  H        2.6310400000     1.3349550000     1.6843260000
| 23>  H        3.5883890000     1.8928760000     0.2917430000
| 24>  H        4.6189680000    -0.0595830000     2.2592130000
| 25>  H        5.1216860000    -0.0594060000     0.5581430000
| 26>  H        2.6312280000    -1.4542060000     1.6841020000
| 27>  H        3.5885960000    -2.0117780000     0.2913900000
| 28>  H        3.5199550000    -0.0592350000    -3.5574710000
| 29> *
| 30>
| 31>                          ****END OF INPUT****
 Total Charge           Charge          ....    0
 Multiplicity           Mult            ....    1
 Number of Electrons    NEL             ....   52
 Basis Dimension        Dim             ....  148

MULLIKEN ATOMIC CHARGES
-----------------------
   0 C :    0.102261
   1 C :   -0.450438
   2 C :    0.116849
   3 C :   -0.010258
   4 C :    0.116850
   5 C :    0.542011
   6 C :   -0.556450
   7 H :    0.007818
   8 H :    0.029039
   9 H :    0.029037
  10 H :    0.002893
  11 H :    0.018519
  12 H :    0.011108
  13 H :    0.027590
  14 H :    0.002897
  15 H :    0.018519
  16 H :   -0.008246
Sum of atomic charges:   -0.0000000

LOEWDIN ATOMIC CHARGES
----------------------
   0 C :   -0.042099
   1 C :   -0.066638
   2 C :   -0.009050
   3 C :   -0.033686
   4 C :   -0.009048
   5 C :   -0.001329
   6 C :   -0.100041
   7 H :    0.022713
   8 H :    0.032643
   9 H :    0.032642
  10 H :    0.024376
  11 H :    0.022111
  12 H :    0.018443
  13 H :    0.029587
  14 H :    0.024378
  15 H :    0.022110
  16 H :    0.032889

  Mayer bond orders larger than 0.1
B(  0-C ,  1-C ) :   1.0543 B(  0-C ,  7-H ) :   0.9438 B(  0-C ,  8-H ) :   0.9582
B(  0-C ,  9-H ) :   0.9582 B(  1-C ,  2-C ) :   1.0414 B(  1-C ,  4-C ) :   1.0414
B(  1-C ,  5-C ) :   0.9118 B(  2-C ,  3-C ) :   1.1282 B(  2-C , 10-H ) :   0.9129
B(  2-C , 11-H ) :   0.9295 B(  3-C ,  4-C ) :   1.1282 B(  3-C , 12-H ) :   0.9312
B(  3-C , 13-H ) :   0.9296 B(  4-C , 14-H ) :   0.9129 B(  4-C , 15-H ) :   0.9295
B(  5-C ,  6-C ) :   2.2355 B(  5-C , 16-H ) :  -0.1264 B(  6-C , 16-H ) :   1.1157

FINAL SINGLE POINT ENERGY      -272.093028570660

DIPOLE MOMENT
-------------
                                X             Y             Z
Electronic contribution:      1.22029       0.00053      -3.85930
Nuclear contribution   :     -1.27689      -0.00060       4.14342
                        -----------------------------------------
Total Dipole Moment    :     -0.05660      -0.00007       0.28412
                        -----------------------------------------
Magnitude (a.u.)       :      0.28970
Magnitude (Debye)      :      0.73636

                             ****ORCA TERMINATED NORMALLY****
TOTAL RUN TIME: 0 days 0 hours 0 minutes 7 seconds 390 msec
