                         Program Version 3.0.3 - RELEASE   -
|  1> ! RI PBE def2-SVP def2-SVP/J NBO PAL2
|  2> % maxcore 2000
|  3> % output
|  4>     # printlevel mini
|  5>     print[ P_Basis ] 0
|  6>     print[ P_SCFInfo ] 1
|  7>     print[ P_SCFIterInfo ] 1
|  8>     print[ P_OrbEn ] 0
|  9>     print[ P_Cartesian ] 0
| 10> end
| 11> *xyz 0 1
| 12>  C        1.1402640000    -0.1688540000     0.2312560000
| 13>  C        2.6128440000    -0.0856130000    -0.0516980000
| 14>  C        3.2547060000    -0.7138060000    -1.2563020000
| 15>  C        2.4730150000    -1.4811050000    -2.2863980000
| 16>  C        3.1529740000     0.7791270000    -1.1714160000
| 17>  C        4.3133830000     1.6637450000    -0.9513710000
| 18>  C        5.5942090000     1.3169290000    -0.9867690000
| 19>  H        0.8856430000    -1.1072630000     0.7327490000
| 20>  H        0.5435550000    -0.1098590000    -0.6808900000
| 21>  H        0.8230450000     0.6500750000     0.8826020000
| 22>  H        3.2386060000    -0.0909200000     0.8362870000
| 23>  H        4.2444680000    -1.1185860000    -1.0693950000
| 24>  H        1.5030890000    -1.0226790000    -2.4875480000
| 25>  H        2.2929970000    -2.5105890000    -1.9639520000
| 26>  H        3.0173560000    -1.5194390000    -3.2336370000
| 27>  H        2.3723780000     1.2188720000    -1.7892280000
| 28>  H        4.0652570000     2.6992010000    -0.7221780000
| 29>  H        5.9112630000     0.3067100000    -1.2231150000
| 30>  H        6.3756280000     2.0387540000    -0.7807970000
| 31> *
| 32>
| 33>                          ****END OF INPUT****
 Total Charge           Charge          ....    0
 Multiplicity           Mult            ....    1
 Number of Electrons    NEL             ....   54
 Basis Dimension        Dim             ....  158

MULLIKEN ATOMIC CHARGES
-----------------------
   0 C :    0.072915
   1 C :   -0.116794
   2 C :   -0.123895
   3 C :    0.076207
   4 C :   -0.045507
   5 C :    0.000275
   6 C :   -0.042355
   7 H :    0.024287
   8 H :    0.005990
   9 H :    0.025589
  10 H :    0.016444
  11 H :    0.015567
  12 H :    0.000926
  13 H :    0.022899
  14 H :    0.026700
  15 H :    0.013340
  16 H :   -0.003558
  17 H :    0.008965
  18 H :    0.022005
Sum of atomic charges:   -0.0000000

LOEWDIN ATOMIC CHARGES
----------------------
   0 C :   -0.059557
   1 C :   -0.029501
   2 C :   -0.037801
   3 C :   -0.056088
   4 C :   -0.044536
   5 C :   -0.023402
   6 C :   -0.074072
   7 H :    0.030529
   8 H :    0.025414
   9 H :    0.031461
  10 H :    0.026858
  11 H :    0.026090
  12 H :    0.024332
  13 H :    0.029411
  14 H :    0.032128
  15 H :    0.029598
  16 H :    0.027153
  17 H :    0.018008
  18 H :    0.023974

  Mayer bond orders larger than 0.1
B(  0-C ,  1-C ) :   1.1084 B(  0-C ,  7-H ) :   0.9553 B(  0-C ,  8-H ) :   0.9450
B(  0-C ,  9-H ) :   0.9568 B(  1-C ,  2-C ) :   0.9620 B(  1-C ,  4-C ) :   0.9190
B(  1-C , 10-H ) :   0.9353 B(  2-C ,  3-C ) :   1.1196 B(  2-C ,  4-C ) :   0.9436
B(  2-C , 11-H ) :   0.9245 B(  3-C , 12-H ) :   0.9433 B(  3-C , 13-H ) :   0.9551
B(  3-C , 14-H ) :   0.9562 B(  4-C ,  5-C ) :   1.0725 B(  4-C , 15-H ) :   0.9282
B(  5-C ,  6-C ) :   1.9910 B(  5-C , 16-H ) :   0.9545 B(  6-C , 17-H ) :   0.9353
B(  6-C , 18-H ) :   0.9413

FINAL SINGLE POINT ENERGY      -273.336407237990

DIPOLE MOMENT
-------------
                                X             Y             Z
Electronic contribution:      2.52924       2.19732       0.35900
Nuclear contribution   :     -2.76327      -2.30648      -0.33057
                        -----------------------------------------
Total Dipole Moment    :     -0.23403      -0.10915       0.02842
                        -----------------------------------------
Magnitude (a.u.)       :      0.25979
Magnitude (Debye)      :      0.66033

                             ****ORCA TERMINATED NORMALLY****
TOTAL RUN TIME: 0 days 0 hours 0 minutes 8 seconds 611 msec
