                         Program Version 3.0.3 - RELEASE   -
|  1> ! RI PBE def2-SVP def2-SVP/J NBO PAL2
|  2> % maxcore 2000
|  3> % output
|  4>     # printlevel mini
|  5>     print[ P_Basis ] 0
|  6>     print[ P_SCFInfo ] 1
|  7>     print[ P_SCFIterInfo ] 1
|  8>     print[ P_OrbEn ] 0
|  9>     print[ P_Cartesian ] 0
| 10> end
| 11> *xyz 0 1
| 12>  C        0.9508160000     0.1646890000    -0.0465180000
| 13>  C        2.4493700000     0.0759810000    -0.0787330000
| 14>  C        3.2037810000    -0.7003240000    -1.1116930000
| 15>  C        2.5359520000    -1.4662320000    -2.2171360000
| 16>  C        3.2361130000     0.8134440000    -1.1420140000
| 17>  C        4.4288930000     1.5259210000    -0.8062090000
| 18>  C        5.4345640000     2.1183680000    -0.5167670000
| 19>  H        0.5174290000    -0.6973950000     0.4683100000
| 20>  H        0.5191960000     0.2032270000    -1.0482120000
| 21>  H        0.6298030000     1.0647350000     0.4837980000
| 22>  H        2.9189300000     0.0925910000     0.8994860000
| 23>  H        4.1242450000    -1.1478690000    -0.7509710000
| 24>  H        1.6466630000    -0.9565200000    -2.5920180000
| 25>  H        2.2301590000    -2.4597520000    -1.8773290000
| 26>  H        3.2182220000    -1.5985480000    -3.0605590000
| 27>  H        2.6362090000     1.2712220000    -1.9240510000
| 28>  H        6.3238530000     2.6438420000    -0.2621940000
| 29> *
| 30>
| 31>                          ****END OF INPUT****
 Total Charge           Charge          ....    0
 Multiplicity           Mult            ....    1
 Number of Electrons    NEL             ....   52
 Basis Dimension        Dim             ....  148

MULLIKEN ATOMIC CHARGES
-----------------------
   0 C :    0.073984
   1 C :   -0.106372
   2 C :   -0.100164
   3 C :    0.076301
   4 C :   -0.130762
   5 C :    0.457018
   6 C :   -0.482330
   7 H :    0.028696
   8 H :    0.006997
   9 H :    0.030511
  10 H :    0.024319
  11 H :    0.024146
  12 H :    0.002833
  13 H :    0.026604
  14 H :    0.033005
  15 H :    0.040357
  16 H :   -0.005142
Sum of atomic charges:   -0.0000000

LOEWDIN ATOMIC CHARGES
----------------------
   0 C :   -0.055858
   1 C :   -0.023697
   2 C :   -0.022296
   3 C :   -0.056221
   4 C :   -0.051734
   5 C :   -0.015393
   6 C :   -0.100141
   7 H :    0.032410
   8 H :    0.025950
   9 H :    0.034537
  10 H :    0.032685
  11 H :    0.032900
  12 H :    0.025638
  13 H :    0.032340
  14 H :    0.034729
  15 H :    0.042058
  16 H :    0.032094

  Mayer bond orders larger than 0.1
B(  0-C ,  1-C ) :   1.1092 B(  0-C ,  7-H ) :   0.9561 B(  0-C ,  8-H ) :   0.9454
B(  0-C ,  9-H ) :   0.9560 B(  1-C ,  2-C ) :   0.9532 B(  1-C ,  4-C ) :   0.9128
B(  1-C , 10-H ) :   0.9354 B(  2-C ,  3-C ) :   1.1163 B(  2-C ,  4-C ) :   0.9138
B(  2-C , 11-H ) :   0.9348 B(  3-C , 12-H ) :   0.9419 B(  3-C , 13-H ) :   0.9538
B(  3-C , 14-H ) :   0.9560 B(  4-C ,  5-C ) :   1.0346 B(  4-C , 15-H ) :   0.9234
B(  5-C ,  6-C ) :   2.2618 B(  5-C , 16-H ) :  -0.1070 B(  6-C , 16-H ) :   1.0974

FINAL SINGLE POINT ENERGY      -272.095388736083

DIPOLE MOMENT
-------------
                                X             Y             Z
Electronic contribution:      5.49269       4.02010       0.98870
Nuclear contribution   :     -5.86920      -4.35741      -1.01193
                        -----------------------------------------
Total Dipole Moment    :     -0.37650      -0.33731      -0.02322
                        -----------------------------------------
Magnitude (a.u.)       :      0.50603
Magnitude (Debye)      :      1.28624

                             ****ORCA TERMINATED NORMALLY****
TOTAL RUN TIME: 0 days 0 hours 0 minutes 7 seconds 498 msec
