                         Program Version 3.0.3 - RELEASE   -
|  1> ! RI PBE def2-SVP def2-SVP/J NBO PAL2
|  2> % maxcore 2000
|  3> % output
|  4>     # printlevel mini
|  5>     print[ P_Basis ] 0
|  6>     print[ P_SCFInfo ] 1
|  7>     print[ P_SCFIterInfo ] 1
|  8>     print[ P_OrbEn ] 0
|  9>     print[ P_Cartesian ] 0
| 10> end
| 11> *xyz 0 1
| 12>  C        0.8070260000    -0.2228200000     0.2021060000
| 13>  C        2.3098570000    -0.1216830000     0.1002900000
| 14>  C        3.0170680000     1.1130560000     0.6933820000
| 15>  C        4.1524180000     0.1938140000     1.2180940000
| 16>  C        3.1813900000    -1.0006980000     1.0191050000
| 17>  C        5.3457300000     0.1502360000     0.3331520000
| 18>  C        6.5999130000     0.3095970000     0.7348140000
| 19>  H        0.3138710000     0.5412360000    -0.4057390000
| 20>  H        0.4778340000    -0.0889140000     1.2371360000
| 21>  H        0.4491570000    -1.1990440000    -0.1375620000
| 22>  H        2.6178920000    -0.2582310000    -0.9412510000
| 23>  H        2.4435180000     1.5370860000     1.5220610000
| 24>  H        3.3008810000     1.9202490000     0.0151650000
| 25>  H        4.4683290000     0.3770040000     2.2475420000
| 26>  H        2.6593120000    -1.2387690000     1.9498210000
| 27>  H        3.5995110000    -1.9213350000     0.6071680000
| 28>  H        5.1526600000    -0.0278270000    -0.7248750000
| 29>  H        6.8401980000     0.4890600000     1.7784810000
| 30>  H        7.4299350000     0.2668730000     0.0391090000
| 31> *
| 32>
| 33>                          ****END OF INPUT****
 Total Charge           Charge          ....    0
 Multiplicity           Mult            ....    1
 Number of Electrons    NEL             ....   54
 Basis Dimension        Dim             ....  158

MULLIKEN ATOMIC CHARGES
-----------------------
   0 C :    0.070846
   1 C :   -0.247850
   2 C :    0.134265
   3 C :   -0.151760
   4 C :    0.144819
   5 C :    0.006930
   6 C :   -0.041204
   7 H :    0.021163
   8 H :    0.004278
   9 H :    0.017753
  10 H :    0.011611
  11 H :   -0.002733
  12 H :    0.013158
  13 H :   -0.013531
  14 H :   -0.003342
  15 H :    0.006840
  16 H :   -0.006266
  17 H :    0.014543
  18 H :    0.020478
Sum of atomic charges:   -0.0000000

LOEWDIN ATOMIC CHARGES
----------------------
   0 C :   -0.063624
   1 C :   -0.041320
   2 C :   -0.019637
   3 C :   -0.031895
   4 C :   -0.018235
   5 C :   -0.023431
   6 C :   -0.070433
   7 H :    0.028173
   8 H :    0.021334
   9 H :    0.027513
  10 H :    0.023414
  11 H :    0.024177
  12 H :    0.017075
  13 H :    0.019011
  14 H :    0.023850
  15 H :    0.016138
  16 H :    0.023717
  17 H :    0.020671
  18 H :    0.023503

  Mayer bond orders larger than 0.1
B(  0-C ,  1-C ) :   1.0970 B(  0-C ,  7-H ) :   0.9580 B(  0-C ,  8-H ) :   0.9508
B(  0-C ,  9-H ) :   0.9578 B(  1-C ,  2-C ) :   1.0815 B(  1-C ,  4-C ) :   1.0781
B(  1-C , 10-H ) :   0.9098 B(  2-C ,  3-C ) :   1.0599 B(  2-C , 11-H ) :   0.9027
B(  2-C , 12-H ) :   0.9312 B(  3-C ,  4-C ) :   1.0588 B(  3-C ,  5-C ) :   1.0258
B(  3-C , 13-H ) :   0.9122 B(  4-C , 14-H ) :   0.9046 B(  4-C , 15-H ) :   0.9306
B(  5-C ,  6-C ) :   2.0013 B(  5-C , 16-H ) :   0.9504 B(  6-C , 17-H ) :   0.9498
B(  6-C , 18-H ) :   0.9393

FINAL SINGLE POINT ENERGY      -273.336970079542

DIPOLE MOMENT
-------------
                                X             Y             Z
Electronic contribution:      2.90737       0.24875       0.12789
Nuclear contribution   :     -3.12712      -0.26671      -0.15254
                        -----------------------------------------
Total Dipole Moment    :     -0.21976      -0.01796      -0.02465
                        -----------------------------------------
Magnitude (a.u.)       :      0.22186
Magnitude (Debye)      :      0.56393

                             ****ORCA TERMINATED NORMALLY****
TOTAL RUN TIME: 0 days 0 hours 0 minutes 8 seconds 366 msec
