                         Program Version 3.0.3 - RELEASE   -
|  1> ! RI PBE def2-SVP def2-SVP/J NBO PAL2
|  2> % maxcore 2000
|  3> % output
|  4>     # printlevel mini
|  5>     print[ P_Basis ] 0
|  6>     print[ P_SCFInfo ] 1
|  7>     print[ P_SCFIterInfo ] 1
|  8>     print[ P_OrbEn ] 0
|  9>     print[ P_Cartesian ] 0
| 10> end
| 11> *xyz 0 1
| 12>  C        0.8400760000    -0.0688330000     0.0456760000
| 13>  C        2.3489470000    -0.0683730000     0.0345790000
| 14>  C        3.1022680000     1.0214110000     0.8216900000
| 15>  C        4.1493300000    -0.0444680000     1.2478950000
| 16>  C        3.1030380000    -1.1266580000     0.8628760000
| 17>  C        5.3418690000    -0.0598120000     0.4270190000
| 18>  C        6.3260550000    -0.0726830000    -0.2626860000
| 19>  H        0.4380680000     0.8033720000    -0.4775750000
| 20>  H        0.4573120000    -0.0487000000     1.0707070000
| 21>  H        0.4389910000    -0.9615280000    -0.4425630000
| 22>  H        2.7190200000    -0.0879770000    -0.9948370000
| 23>  H        2.5261940000     1.3557700000     1.6884200000
| 24>  H        3.4721410000     1.8905680000     0.2778900000
| 25>  H        4.4382420000    -0.0241650000     2.3012630000
| 26>  H        2.5271770000    -1.4279720000     1.7417880000
| 27>  H        3.4735480000    -2.0157700000     0.3528090000
| 28>  H        7.1997350000    -0.0835810000    -0.8699410000
| 29> *
| 30>
| 31>                          ****END OF INPUT****
 Total Charge           Charge          ....    0
 Multiplicity           Mult            ....    1
 Number of Electrons    NEL             ....   52
 Basis Dimension        Dim             ....  148

MULLIKEN ATOMIC CHARGES
-----------------------
   0 C :    0.065177
   1 C :   -0.227697
   2 C :    0.143529
   3 C :   -0.225490
   4 C :    0.144210
   5 C :    0.473762
   6 C :   -0.514425
   7 H :    0.023203
   8 H :    0.004906
   9 H :    0.022829
  10 H :    0.022002
  11 H :   -0.000690
  12 H :    0.020494
  13 H :    0.035484
  14 H :   -0.000635
  15 H :    0.019879
  16 H :   -0.006537
Sum of atomic charges:    0.0000000

LOEWDIN ATOMIC CHARGES
----------------------
   0 C :   -0.064203
   1 C :   -0.038850
   2 C :   -0.008914
   3 C :   -0.043226
   4 C :   -0.008840
   5 C :   -0.014943
   6 C :   -0.097246
   7 H :    0.029292
   8 H :    0.021570
   9 H :    0.029249
  10 H :    0.030355
  11 H :    0.024391
  12 H :    0.022437
  13 H :    0.039498
  14 H :    0.024350
  15 H :    0.022363
  16 H :    0.032718

  Mayer bond orders larger than 0.1
B(  0-C ,  1-C ) :   1.1010 B(  0-C ,  7-H ) :   0.9589 B(  0-C ,  8-H ) :   0.9502
B(  0-C ,  9-H ) :   0.9588 B(  1-C ,  2-C ) :   1.0778 B(  1-C ,  4-C ) :   1.0768
B(  1-C , 10-H ) :   0.9106 B(  2-C ,  3-C ) :   1.0770 B(  2-C , 11-H ) :   0.9049
B(  2-C , 12-H ) :   0.9305 B(  3-C ,  4-C ) :   1.0770 B(  3-C ,  5-C ) :   0.9592
B(  3-C , 13-H ) :   0.8873 B(  4-C , 14-H ) :   0.9053 B(  4-C , 15-H ) :   0.9305
B(  5-C ,  6-C ) :   2.2615 B(  5-C , 16-H ) :  -0.1180 B(  6-C , 16-H ) :   1.1079

FINAL SINGLE POINT ENERGY      -272.094428110902

DIPOLE MOMENT
-------------
                                X             Y             Z
Electronic contribution:      6.62128       0.00208      -0.02702
Nuclear contribution   :     -6.97512      -0.00068       0.09158
                        -----------------------------------------
Total Dipole Moment    :     -0.35384       0.00140       0.06457
                        -----------------------------------------
Magnitude (a.u.)       :      0.35969
Magnitude (Debye)      :      0.91425

                             ****ORCA TERMINATED NORMALLY****
TOTAL RUN TIME: 0 days 0 hours 0 minutes 7 seconds 306 msec
