                         Program Version 3.0.3 - RELEASE   -
|  1> ! RI PBE def2-SVP def2-SVP/J NBO PAL2
|  2> % maxcore 2000
|  3> % output
|  4>     # printlevel mini
|  5>     print[ P_Basis ] 0
|  6>     print[ P_SCFInfo ] 1
|  7>     print[ P_SCFIterInfo ] 1
|  8>     print[ P_OrbEn ] 0
|  9>     print[ P_Cartesian ] 0
| 10> end
| 11> *xyz 0 1
| 12>  C        1.0364680000    -0.1424910000     0.1579490000
| 13>  C        2.5283150000     0.0774380000     0.1959650000
| 14>  C        3.1183780000     1.2307730000     1.0296440000
| 15>  C        4.2976740000     0.3093620000     1.3834350000
| 16>  C        3.4111780000    -0.9032270000     1.0152540000
| 17>  C        4.0168580000    -2.0680390000     0.3284810000
| 18>  C        3.8776640000    -3.3362810000     0.6941740000
| 19>  H        0.5281190000     0.6673780000    -0.3731990000
| 20>  H        0.6238980000    -0.1876190000     1.1702300000
| 21>  H        0.7876650000    -1.0800170000    -0.3472380000
| 22>  H        2.9278630000     0.1308660000    -0.8235370000
| 23>  H        2.4959590000     1.4359430000     1.9053200000
| 24>  H        3.3319110000     2.1744780000     0.5249320000
| 25>  H        4.7050850000     0.3462460000     2.3947330000
| 26>  H        5.1197500000     0.4195800000     0.6712260000
| 27>  H        2.8527190000    -1.2356930000     1.8975310000
| 28>  H        4.6172700000    -1.8363730000    -0.5516850000
| 29>  H        3.2904290000    -3.6116580000     1.5651520000
| 30>  H        4.3442660000    -4.1434870000     0.1412530000
| 31> *
| 32>
| 33>                          ****END OF INPUT****
 Total Charge           Charge          ....    0
 Multiplicity           Mult            ....    1
 Number of Electrons    NEL             ....   54
 Basis Dimension        Dim             ....  158

MULLIKEN ATOMIC CHARGES
-----------------------
   0 C :    0.075857
   1 C :   -0.146481
   2 C :    0.048708
   3 C :    0.077407
   4 C :   -0.115989
   5 C :    0.015646
   6 C :   -0.026922
   7 H :    0.021783
   8 H :    0.004404
   9 H :    0.020418
  10 H :   -0.001454
  11 H :    0.002141
  12 H :    0.006348
  13 H :    0.009497
  14 H :    0.001827
  15 H :   -0.014999
  16 H :   -0.011085
  17 H :    0.014289
  18 H :    0.018604
Sum of atomic charges:   -0.0000000

LOEWDIN ATOMIC CHARGES
----------------------
   0 C :   -0.064091
   1 C :   -0.028910
   2 C :   -0.030977
   3 C :   -0.020464
   4 C :   -0.033749
   5 C :   -0.030656
   6 C :   -0.064384
   7 H :    0.028834
   8 H :    0.022368
   9 H :    0.029771
  10 H :    0.023077
  11 H :    0.021976
  12 H :    0.014980
  13 H :    0.016893
  14 H :    0.022644
  15 H :    0.025734
  16 H :    0.022719
  17 H :    0.020870
  18 H :    0.023365

  Mayer bond orders larger than 0.1
B(  0-C ,  1-C ) :   1.1055 B(  0-C ,  7-H ) :   0.9575 B(  0-C ,  8-H ) :   0.9481
B(  0-C ,  9-H ) :   0.9560 B(  1-C ,  2-C ) :   1.0782 B(  1-C ,  4-C ) :   1.0100
B(  1-C , 10-H ) :   0.9003 B(  2-C ,  3-C ) :   1.1260 B(  2-C , 11-H ) :   0.9165
B(  2-C , 12-H ) :   0.9303 B(  3-C ,  4-C ) :   1.0582 B(  3-C , 13-H ) :   0.9276
B(  3-C , 14-H ) :   0.9181 B(  4-C ,  5-C ) :   1.0610 B(  4-C , 15-H ) :   0.9015
B(  5-C ,  6-C ) :   1.9937 B(  5-C , 16-H ) :   0.9430 B(  6-C , 17-H ) :   0.9488
B(  6-C , 18-H ) :   0.9347

FINAL SINGLE POINT ENERGY      -273.339491014394

DIPOLE MOMENT
-------------
                                X             Y             Z
Electronic contribution:      2.05591      -0.99978       0.01582
Nuclear contribution   :     -2.11652       1.11862      -0.05106
                        -----------------------------------------
Total Dipole Moment    :     -0.06060       0.11883      -0.03524
                        -----------------------------------------
Magnitude (a.u.)       :      0.13797
Magnitude (Debye)      :      0.35069

                             ****ORCA TERMINATED NORMALLY****
TOTAL RUN TIME: 0 days 0 hours 0 minutes 8 seconds 396 msec
