                         Program Version 3.0.3 - RELEASE   -
|  1> ! RI PBE def2-SVP def2-SVP/J NBO PAL2
|  2> % maxcore 2000
|  3> % output
|  4>     # printlevel mini
|  5>     print[ P_Basis ] 0
|  6>     print[ P_SCFInfo ] 1
|  7>     print[ P_SCFIterInfo ] 1
|  8>     print[ P_OrbEn ] 0
|  9>     print[ P_Cartesian ] 0
| 10> end
| 11> *xyz 0 1
| 12>  C        1.0074490000    -0.0177700000    -0.1071840000
| 13>  C        2.5121740000     0.0326180000    -0.0307750000
| 14>  C        3.2057040000     1.0933460000     0.8459330000
| 15>  C        4.2639890000     0.0420000000     1.2203380000
| 16>  C        3.2555500000    -1.0534830000     0.7964150000
| 17>  C        3.7294890000    -2.2451130000     0.1327810000
| 18>  C        4.1314460000    -3.2217490000    -0.4414060000
| 19>  H        0.6094550000     0.8577130000    -0.6278380000
| 20>  H        0.5654820000    -0.0398280000     0.8934160000
| 21>  H        0.6688830000    -0.9075270000    -0.6448240000
| 22>  H        2.9464860000     0.0508910000    -1.0349090000
| 23>  H        2.5823870000     1.3579350000     1.7048010000
| 24>  H        3.5440800000     2.0108730000     0.3633150000
| 25>  H        4.6288930000     0.0112860000     2.2471220000
| 26>  H        5.1156890000     0.0630490000     0.5388420000
| 27>  H        2.6347310000    -1.3324740000     1.6552800000
| 28>  H        4.4865330000    -4.0891570000    -0.9451860000
| 29> *
| 30>
| 31>                          ****END OF INPUT****
 Total Charge           Charge          ....    0
 Multiplicity           Mult            ....    1
 Number of Electrons    NEL             ....   52
 Basis Dimension        Dim             ....  148

MULLIKEN ATOMIC CHARGES
-----------------------
   0 C :    0.072223
   1 C :   -0.146581
   2 C :    0.052383
   3 C :    0.075186
   4 C :   -0.132742
   5 C :    0.481270
   6 C :   -0.533860
   7 H :    0.024576
   8 H :    0.005242
   9 H :    0.028049
  10 H :    0.010974
  11 H :    0.003337
  12 H :    0.011660
  13 H :    0.015366
  14 H :    0.015410
  15 H :    0.021991
  16 H :   -0.004482
Sum of atomic charges:   -0.0000000

LOEWDIN ATOMIC CHARGES
----------------------
   0 C :   -0.063530
   1 C :   -0.019874
   2 C :   -0.030626
   3 C :   -0.011236
   4 C :   -0.043348
   5 C :   -0.020860
   6 C :   -0.093259
   7 H :    0.030625
   8 H :    0.022871
   9 H :    0.032560
  10 H :    0.029368
  11 H :    0.023219
  12 H :    0.018396
  13 H :    0.019701
  14 H :    0.029281
  15 H :    0.043778
  16 H :    0.032932

  Mayer bond orders larger than 0.1
B(  0-C ,  1-C ) :   1.1018 B(  0-C ,  7-H ) :   0.9573 B(  0-C ,  8-H ) :   0.9476
B(  0-C ,  9-H ) :   0.9573 B(  1-C ,  2-C ) :   1.0821 B(  1-C ,  4-C ) :   1.0206
B(  1-C , 10-H ) :   0.9005 B(  2-C ,  3-C ) :   1.1343 B(  2-C , 11-H ) :   0.9135
B(  2-C , 12-H ) :   0.9314 B(  3-C ,  4-C ) :   1.0764 B(  3-C , 13-H ) :   0.9254
B(  3-C , 14-H ) :   0.9181 B(  4-C ,  5-C ) :   1.0075 B(  4-C , 15-H ) :   0.8514
B(  5-C ,  6-C ) :   2.2382 B(  5-C , 16-H ) :  -0.1143 B(  6-C , 16-H ) :   1.1040

FINAL SINGLE POINT ENERGY      -272.096937251199

DIPOLE MOMENT
-------------
                                X             Y             Z
Electronic contribution:      3.04783      -4.44047      -0.53103
Nuclear contribution   :     -3.18098       4.73692       0.58511
                        -----------------------------------------
Total Dipole Moment    :     -0.13315       0.29645       0.05409
                        -----------------------------------------
Magnitude (a.u.)       :      0.32945
Magnitude (Debye)      :      0.83740

                             ****ORCA TERMINATED NORMALLY****
TOTAL RUN TIME: 0 days 0 hours 0 minutes 7 seconds 553 msec
