                         Program Version 3.0.3 - RELEASE   -
|  1> ! RI PBE def2-SVP def2-SVP/J NBO PAL2
|  2> % maxcore 2000
|  3> % output
|  4>     # printlevel mini
|  5>     print[ P_Basis ] 0
|  6>     print[ P_SCFInfo ] 1
|  7>     print[ P_SCFIterInfo ] 1
|  8>     print[ P_OrbEn ] 0
|  9>     print[ P_Cartesian ] 0
| 10> end
| 11> *xyz 0 1
| 12>  C        1.3835700000     0.0399420000     0.7173430000
| 13>  C        2.4440960000    -0.1245460000    -0.0651660000
| 14>  C        2.8832100000    -1.4164860000    -0.7105990000
| 15>  C        4.4141700000    -1.3145450000    -0.7844960000
| 16>  C        4.7017450000     0.1711080000    -0.8427490000
| 17>  C        3.9178110000     0.9817170000    -1.8162420000
| 18>  C        3.4600150000     0.9015990000    -0.3795140000
| 19>  H        0.7219170000    -0.7860450000     0.9530290000
| 20>  H        1.1432330000     1.0053680000     1.1485700000
| 21>  H        2.4556390000    -1.4887600000    -1.7163080000
| 22>  H        2.5384870000    -2.2924730000    -0.1597530000
| 23>  H        4.8319090000    -1.8640080000    -1.6324730000
| 24>  H        4.8600390000    -1.7271690000     0.1253850000
| 25>  H        5.6836380000     0.5248890000    -0.5524710000
| 26>  H        3.3322650000     0.4824350000    -2.5796640000
| 27>  H        4.3413220000     1.9284090000    -2.1281490000
| 28>  H        3.5134350000     1.7968540000     0.2270590000
| 29> *
| 30>
| 31>                          ****END OF INPUT****
 Total Charge           Charge          ....    0
 Multiplicity           Mult            ....    1
 Number of Electrons    NEL             ....   52
 Basis Dimension        Dim             ....  148

MULLIKEN ATOMIC CHARGES
-----------------------
   0 C :   -0.065144
   1 C :   -0.023291
   2 C :   -0.002557
   3 C :    0.136975
   4 C :   -0.155171
   5 C :    0.040251
   6 C :   -0.069642
   7 H :    0.001167
   8 H :    0.000983
   9 H :    0.031996
  10 H :    0.010889
  11 H :    0.009651
  12 H :    0.014676
  13 H :    0.012459
  14 H :    0.028501
  15 H :    0.025485
  16 H :    0.002772
Sum of atomic charges:   -0.0000000

LOEWDIN ATOMIC CHARGES
----------------------
   0 C :   -0.090719
   1 C :   -0.018811
   2 C :   -0.033836
   3 C :   -0.026364
   4 C :   -0.033646
   5 C :   -0.032806
   6 C :   -0.031512
   7 H :    0.020135
   8 H :    0.020494
   9 H :    0.035290
  10 H :    0.032421
  11 H :    0.024509
  12 H :    0.029163
  13 H :    0.023327
  14 H :    0.024250
  15 H :    0.031209
  16 H :    0.026896

  Mayer bond orders larger than 0.1
B(  0-C ,  1-C ) :   1.9966 B(  0-C ,  7-H ) :   0.9217 B(  0-C ,  8-H ) :   0.9309
B(  1-C ,  2-C ) :   1.0249 B(  1-C ,  6-C ) :   1.0604 B(  2-C ,  3-C ) :   1.0832
B(  2-C ,  9-H ) :   0.9076 B(  2-C , 10-H ) :   0.9212 B(  3-C ,  4-C ) :   1.0814
B(  3-C , 11-H ) :   0.9278 B(  3-C , 12-H ) :   0.9263 B(  4-C ,  5-C ) :   1.0028
B(  4-C ,  6-C ) :   0.8949 B(  4-C , 13-H ) :   0.9425 B(  5-C ,  6-C ) :   0.9494
B(  5-C , 14-H ) :   0.9378 B(  5-C , 15-H ) :   0.9364 B(  6-C , 16-H ) :   0.9573

FINAL SINGLE POINT ENERGY      -272.147507198449

DIPOLE MOMENT
-------------
                                X             Y             Z
Electronic contribution:      0.03360       1.07662       0.51547
Nuclear contribution   :      0.22823      -1.11675      -0.64496
                        -----------------------------------------
Total Dipole Moment    :      0.26183      -0.04013      -0.12949
                        -----------------------------------------
Magnitude (a.u.)       :      0.29485
Magnitude (Debye)      :      0.74944

                             ****ORCA TERMINATED NORMALLY****
TOTAL RUN TIME: 0 days 0 hours 0 minutes 7 seconds 492 msec
