                         Program Version 3.0.3 - RELEASE   -
|  1> ! RI PBE def2-SVP def2-SVP/J NBO PAL2
|  2> % maxcore 2000
|  3> % output
|  4>     # printlevel mini
|  5>     print[ P_Basis ] 0
|  6>     print[ P_SCFInfo ] 1
|  7>     print[ P_SCFIterInfo ] 1
|  8>     print[ P_OrbEn ] 0
|  9>     print[ P_Cartesian ] 0
| 10> end
| 11> *xyz 0 1
| 12>  C        1.0233710000    -0.1079500000     0.0191430000
| 13>  C        2.3441460000     0.0635670000     0.0917600000
| 14>  C        3.0857960000     1.2870980000    -0.2125010000
| 15>  C        4.3856740000     1.1413430000     0.0729590000
| 16>  C        4.6836410000    -0.2316570000     0.5496010000
| 17>  C        4.4269990000    -1.3131470000    -0.4631950000
| 18>  C        3.3524800000    -0.9441080000     0.5263290000
| 19>  H        0.3723340000     0.6921680000    -0.3137620000
| 20>  H        0.5574080000    -1.0485000000     0.2884370000
| 21>  H        2.6254410000     2.1714020000    -0.6352510000
| 22>  H        5.1473840000     1.8997190000    -0.0616360000
| 23>  H        5.4177630000    -0.4012900000     1.3277760000
| 24>  H        4.9115000000    -2.2705070000    -0.3111060000
| 25>  H        4.3021390000    -1.0148410000    -1.4972950000
| 26>  H        3.0873240000    -1.6751880000     1.2789310000
| 27> *
| 28>
| 29>                          ****END OF INPUT****
 Total Charge           Charge          ....    0
 Multiplicity           Mult            ....    1
 Number of Electrons    NEL             ....   50
 Basis Dimension        Dim             ....  138

MULLIKEN ATOMIC CHARGES
-----------------------
   0 C :   -0.057150
   1 C :    0.048724
   2 C :   -0.015117
   3 C :    0.037025
   4 C :   -0.069987
   5 C :    0.027366
   6 C :   -0.078072
   7 H :    0.008826
   8 H :    0.009512
   9 H :   -0.021813
  10 H :   -0.005964
  11 H :    0.022502
  12 H :    0.033641
  13 H :    0.043850
  14 H :    0.016657
Sum of atomic charges:   -0.0000000

LOEWDIN ATOMIC CHARGES
----------------------
   0 C :   -0.070511
   1 C :   -0.021779
   2 C :   -0.031741
   3 C :   -0.010651
   4 C :   -0.038996
   5 C :   -0.015126
   6 C :   -0.026561
   7 H :    0.023543
   8 H :    0.023122
   9 H :    0.024928
  10 H :    0.025401
  11 H :    0.028198
  12 H :    0.030033
  13 H :    0.029570
  14 H :    0.030571

  Mayer bond orders larger than 0.1
B(  0-C ,  1-C ) :   1.9039 B(  0-C ,  3-C ) :   0.1230 B(  0-C ,  7-H ) :   0.9232
B(  0-C ,  8-H ) :   0.9335 B(  1-C ,  2-C ) :   1.0693 B(  1-C ,  6-C ) :   1.0337
B(  2-C ,  3-C ) :   1.7005 B(  2-C ,  9-H ) :   0.9942 B(  3-C ,  4-C ) :   1.0363
B(  3-C , 10-H ) :   0.9935 B(  4-C ,  5-C ) :   0.9769 B(  4-C ,  6-C ) :   0.9057
B(  4-C , 11-H ) :   0.9448 B(  5-C ,  6-C ) :   0.9709 B(  5-C , 12-H ) :   0.9390
B(  5-C , 13-H ) :   0.9400 B(  6-C , 14-H ) :   0.9495

FINAL SINGLE POINT ENERGY      -270.933449040128

DIPOLE MOMENT
-------------
                                X             Y             Z
Electronic contribution:      0.43752       1.19713       0.54192
Nuclear contribution   :     -0.17951      -1.30739      -0.50632
                        -----------------------------------------
Total Dipole Moment    :      0.25802      -0.11026       0.03560
                        -----------------------------------------
Magnitude (a.u.)       :      0.28284
Magnitude (Debye)      :      0.71892

                             ****ORCA TERMINATED NORMALLY****
TOTAL RUN TIME: 0 days 0 hours 0 minutes 7 seconds 133 msec
