                         Program Version 3.0.3 - RELEASE   -
|  1> ! RI PBE def2-SVP def2-SVP/J NBO PAL2
|  2> % maxcore 2000
|  3> % output
|  4>     # printlevel mini
|  5>     print[ P_Basis ] 0
|  6>     print[ P_SCFInfo ] 1
|  7>     print[ P_SCFIterInfo ] 1
|  8>     print[ P_OrbEn ] 0
|  9>     print[ P_Cartesian ] 0
| 10> end
| 11> *xyz 0 1
| 12>  C        1.1356150000    -0.0808000000    -0.0828790000
| 13>  C        2.5911710000     0.2072610000     0.0179450000
| 14>  C        3.2192890000     1.3428800000    -0.2930830000
| 15>  C        4.6988230000     1.2767070000    -0.0372520000
| 16>  C        4.9225060000    -0.1653350000     0.3797070000
| 17>  C        4.5603040000    -1.2433990000    -0.5916710000
| 18>  C        3.5674760000    -0.8260950000     0.4608740000
| 19>  H        0.5773370000     0.7892680000    -0.4317510000
| 20>  H        0.7287220000    -0.3795280000     0.8889900000
| 21>  H        0.9461850000    -0.9122800000    -0.7699150000
| 22>  H        2.7328610000     2.2202020000    -0.7053660000
| 23>  H        4.9955500000     1.9700590000     0.7590900000
| 24>  H        5.2884440000     1.5500060000    -0.9202020000
| 25>  H        5.6867180000    -0.3889350000     1.1132020000
| 26>  H        5.0530060000    -2.2006750000    -0.4668410000
| 27>  H        4.3417770000    -0.9691510000    -1.6181050000
| 28>  H        3.3028170000    -1.5264850000     1.2454360000
| 29> *
| 30>
| 31>                          ****END OF INPUT****
 Total Charge           Charge          ....    0
 Multiplicity           Mult            ....    1
 Number of Electrons    NEL             ....   52
 Basis Dimension        Dim             ....  148

MULLIKEN ATOMIC CHARGES
-----------------------
   0 C :    0.091065
   1 C :   -0.039567
   2 C :   -0.176866
   3 C :    0.185527
   4 C :   -0.160657
   5 C :    0.032285
   6 C :   -0.086088
   7 H :    0.012914
   8 H :    0.023934
   9 H :    0.027874
  10 H :   -0.028354
  11 H :    0.022233
  12 H :    0.021146
  13 H :    0.014097
  14 H :    0.024572
  15 H :    0.029943
  16 H :    0.005942
Sum of atomic charges:   -0.0000000

LOEWDIN ATOMIC CHARGES
----------------------
   0 C :   -0.057493
   1 C :   -0.033892
   2 C :   -0.057586
   3 C :   -0.030622
   4 C :   -0.035193
   5 C :   -0.031939
   6 C :   -0.036021
   7 H :    0.032052
   8 H :    0.036159
   9 H :    0.036785
  10 H :    0.016001
  11 H :    0.032390
  12 H :    0.032387
  13 H :    0.023471
  14 H :    0.027205
  15 H :    0.025017
  16 H :    0.021279

  Mayer bond orders larger than 0.1
B(  0-C ,  1-C ) :   1.1227 B(  0-C ,  7-H ) :   0.9469 B(  0-C ,  8-H ) :   0.9374
B(  0-C ,  9-H ) :   0.9379 B(  1-C ,  2-C ) :   1.8132 B(  1-C ,  6-C ) :   1.0243
B(  2-C ,  3-C ) :   1.0115 B(  2-C , 10-H ) :   0.9767 B(  3-C ,  4-C ) :   1.0719
B(  3-C , 11-H ) :   0.9127 B(  3-C , 12-H ) :   0.9076 B(  4-C ,  5-C ) :   1.0052
B(  4-C ,  6-C ) :   0.9299 B(  4-C , 13-H ) :   0.9440 B(  5-C ,  6-C ) :   0.9749
B(  5-C , 14-H ) :   0.9352 B(  5-C , 15-H ) :   0.9410 B(  6-C , 16-H ) :   0.9560

FINAL SINGLE POINT ENERGY      -272.150918100800

DIPOLE MOMENT
-------------
                                X             Y             Z
Electronic contribution:      1.33525       0.39471       0.63530
Nuclear contribution   :     -1.36168      -0.48407      -0.58338
                        -----------------------------------------
Total Dipole Moment    :     -0.02643      -0.08936       0.05192
                        -----------------------------------------
Magnitude (a.u.)       :      0.10667
Magnitude (Debye)      :      0.27114

                             ****ORCA TERMINATED NORMALLY****
TOTAL RUN TIME: 0 days 0 hours 0 minutes 8 seconds 47 msec
