                         Program Version 3.0.3 - RELEASE   -
|  1> ! RI PBE def2-SVP def2-SVP/J NBO PAL2
|  2> % maxcore 2000
|  3> % output
|  4>     # printlevel mini
|  5>     print[ P_Basis ] 0
|  6>     print[ P_SCFInfo ] 1
|  7>     print[ P_SCFIterInfo ] 1
|  8>     print[ P_OrbEn ] 0
|  9>     print[ P_Cartesian ] 0
| 10> end
| 11> *xyz 0 1
| 12>  C        0.8717900000     0.1164880000    -0.0756560000
| 13>  C        2.3787410000    -0.0390710000     0.0959350000
| 14>  C        3.0393960000     1.2405080000     0.5425520000
| 15>  C        3.5747130000     1.1385690000     1.7574970000
| 16>  C        3.4568150000    -0.2384090000     2.2919550000
| 17>  C        4.1837820000    -1.2838930000     1.4864640000
| 18>  C        2.7411130000    -1.0137920000     1.2073450000
| 19>  H        0.6364590000     0.8719180000    -0.8294880000
| 20>  H        0.4090230000     0.4250600000     0.8652340000
| 21>  H        0.4147190000    -0.8260960000    -0.3896600000
| 22>  H        2.8030860000    -0.3722780000    -0.8604760000
| 23>  H        3.0639730000     2.1290410000    -0.0784610000
| 24>  H        4.0780260000     1.9382980000     2.2885730000
| 25>  H        3.2838820000    -0.4119730000     3.3473360000
| 26>  H        4.4209750000    -2.2204840000     1.9777320000
| 27>  H        4.9267920000    -0.9352340000     0.7776620000
| 28>  H        2.0247240000    -1.7844410000     1.4671760000
| 29> *
| 30>
| 31>                          ****END OF INPUT****
 Total Charge           Charge          ....    0
 Multiplicity           Mult            ....    1
 Number of Electrons    NEL             ....   52
 Basis Dimension        Dim             ....  148

MULLIKEN ATOMIC CHARGES
-----------------------
   0 C :    0.039999
   1 C :    0.033397
   2 C :   -0.086902
   3 C :    0.050078
   4 C :   -0.088947
   5 C :    0.061916
   6 C :   -0.126682
   7 H :    0.016205
   8 H :    0.018583
   9 H :    0.017745
  10 H :    0.015004
  11 H :   -0.011849
  12 H :   -0.013496
  13 H :    0.018289
  14 H :    0.022076
  15 H :    0.025124
  16 H :    0.009460
Sum of atomic charges:   -0.0000000

LOEWDIN ATOMIC CHARGES
----------------------
   0 C :   -0.054782
   1 C :   -0.034792
   2 C :   -0.035937
   3 C :   -0.026383
   4 C :   -0.041028
   5 C :   -0.028495
   6 C :   -0.030805
   7 H :    0.026636
   8 H :    0.027030
   9 H :    0.024635
  10 H :    0.031909
  11 H :    0.019325
  12 H :    0.023186
  13 H :    0.023484
  14 H :    0.027459
  15 H :    0.025277
  16 H :    0.023280

  Mayer bond orders larger than 0.1
B(  0-C ,  1-C ) :   1.0801 B(  0-C ,  7-H ) :   0.9590 B(  0-C ,  8-H ) :   0.9595
B(  0-C ,  9-H ) :   0.9574 B(  1-C ,  2-C ) :   0.9989 B(  1-C ,  6-C ) :   1.0317
B(  1-C , 10-H ) :   0.8900 B(  2-C ,  3-C ) :   1.8145 B(  2-C , 11-H ) :   0.9823
B(  3-C ,  4-C ) :   1.0293 B(  3-C , 12-H ) :   0.9952 B(  4-C ,  5-C ) :   0.9810
B(  4-C ,  6-C ) :   0.9256 B(  4-C , 13-H ) :   0.9544 B(  5-C ,  6-C ) :   0.9935
B(  5-C , 14-H ) :   0.9351 B(  5-C , 15-H ) :   0.9347 B(  6-C , 16-H ) :   0.9485

FINAL SINGLE POINT ENERGY      -272.145481459383

DIPOLE MOMENT
-------------
                                X             Y             Z
Electronic contribution:      2.34376       0.80281       1.56202
Nuclear contribution   :     -2.39736      -0.89845      -1.56795
                        -----------------------------------------
Total Dipole Moment    :     -0.05360      -0.09564      -0.00593
                        -----------------------------------------
Magnitude (a.u.)       :      0.10979
Magnitude (Debye)      :      0.27908

                             ****ORCA TERMINATED NORMALLY****
TOTAL RUN TIME: 0 days 0 hours 0 minutes 8 seconds 80 msec
