                         Program Version 3.0.3 - RELEASE   -
|  1> ! RI PBE def2-SVP def2-SVP/J NBO PAL2
|  2> % maxcore 2000
|  3> % output
|  4>     # printlevel mini
|  5>     print[ P_Basis ] 0
|  6>     print[ P_SCFInfo ] 1
|  7>     print[ P_SCFIterInfo ] 1
|  8>     print[ P_OrbEn ] 0
|  9>     print[ P_Cartesian ] 0
| 10> end
| 11> *xyz 0 1
| 12>  C        1.0318070000     0.0676480000     0.3012160000
| 13>  C        2.3311310000     0.0661790000     0.0238740000
| 14>  C        3.1639560000    -1.1664150000    -0.2662490000
| 15>  C        4.5314320000    -0.6079590000    -0.5075340000
| 16>  C        4.5508150000     0.7220300000    -0.3904210000
| 17>  C        3.2282010000     1.2445280000    -0.0601740000
| 18>  C        2.9134280000     2.5301860000     0.1245190000
| 19>  H        0.4614420000    -0.8535280000     0.3389420000
| 20>  H        0.4925160000     0.9868080000     0.5000420000
| 21>  H        2.7871960000    -1.7163110000    -1.1362770000
| 22>  H        3.1522860000    -1.8718130000     0.5725420000
| 23>  H        5.3875140000    -1.2267920000    -0.7468430000
| 24>  H        5.4209250000     1.3541140000    -0.5186840000
| 25>  H        3.6644910000     3.3057990000     0.0348690000
| 26>  H        1.9056720000     2.8443440000     0.3685670000
| 27> *
| 28>
| 29>                          ****END OF INPUT****
 Total Charge           Charge          ....    0
 Multiplicity           Mult            ....    1
 Number of Electrons    NEL             ....   50
 Basis Dimension        Dim             ....  138

MULLIKEN ATOMIC CHARGES
-----------------------
   0 C :   -0.050310
   1 C :   -0.103832
   2 C :    0.126416
   3 C :   -0.073926
   4 C :    0.029971
   5 C :    0.045610
   6 C :   -0.072606
   7 H :    0.010355
   8 H :    0.012424
   9 H :    0.042063
  10 H :    0.045401
  11 H :   -0.007256
  12 H :   -0.023969
  13 H :    0.011711
  14 H :    0.007948
Sum of atomic charges:   -0.0000000

LOEWDIN ATOMIC CHARGES
----------------------
   0 C :   -0.050399
   1 C :   -0.018048
   2 C :   -0.033639
   3 C :   -0.016687
   4 C :   -0.025966
   5 C :   -0.031705
   6 C :   -0.057820
   7 H :    0.024770
   8 H :    0.024087
   9 H :    0.044285
  10 H :    0.044979
  11 H :    0.023592
  12 H :    0.026095
  13 H :    0.024728
  14 H :    0.021728

  Mayer bond orders larger than 0.1
B(  0-C ,  1-C ) :   1.9890 B(  0-C ,  6-C ) :   0.1013 B(  0-C ,  7-H ) :   0.9277
B(  0-C ,  8-H ) :   0.9208 B(  1-C ,  2-C ) :   1.0146 B(  1-C ,  5-C ) :   1.0371
B(  2-C ,  3-C ) :   1.0443 B(  2-C ,  9-H ) :   0.8993 B(  2-C , 10-H ) :   0.8996
B(  3-C ,  4-C ) :   1.7231 B(  3-C ,  6-C ) :   0.1286 B(  3-C , 11-H ) :   0.9844
B(  4-C ,  5-C ) :   1.0585 B(  4-C , 12-H ) :   0.9965 B(  5-C ,  6-C ) :   1.8660
B(  6-C , 13-H ) :   0.9267 B(  6-C , 14-H ) :   0.9257

FINAL SINGLE POINT ENERGY      -270.942057142586

DIPOLE MOMENT
-------------
                                X             Y             Z
Electronic contribution:      1.44993       0.10023      -0.29961
Nuclear contribution   :     -1.35771      -0.37804       0.25563
                        -----------------------------------------
Total Dipole Moment    :      0.09222      -0.27782      -0.04398
                        -----------------------------------------
Magnitude (a.u.)       :      0.29601
Magnitude (Debye)      :      0.75239

                             ****ORCA TERMINATED NORMALLY****
TOTAL RUN TIME: 0 days 0 hours 0 minutes 7 seconds 105 msec
