                         Program Version 3.0.3 - RELEASE   -
|  1> ! RI PBE def2-SVP def2-SVP/J NBO PAL2
|  2> % maxcore 2000
|  3> % output
|  4>     # printlevel mini
|  5>     print[ P_Basis ] 0
|  6>     print[ P_SCFInfo ] 1
|  7>     print[ P_SCFIterInfo ] 1
|  8>     print[ P_OrbEn ] 0
|  9>     print[ P_Cartesian ] 0
| 10> end
| 11> *xyz 0 1
| 12>  C        1.0597430000     0.0588240000     0.3873530000
| 13>  C        2.3679080000     0.0692750000     0.1454610000
| 14>  C        3.2203670000     1.3066230000     0.0010620000
| 15>  C        4.4166120000     0.8362120000    -0.8263100000
| 16>  C        4.6374100000    -0.5953700000    -0.3377800000
| 17>  C        3.2436410000    -1.1060540000    -0.0634640000
| 18>  C        2.8815910000    -2.3861100000    -0.0463470000
| 19>  H        0.5013100000     0.9808210000     0.5022900000
| 20>  H        0.5014700000    -0.8661940000     0.4771340000
| 21>  H        3.5633570000     1.6273450000     0.9927720000
| 22>  H        2.6778940000     2.1442870000    -0.4403600000
| 23>  H        5.2966980000     1.4709650000    -0.7088190000
| 24>  H        4.1510820000     0.8275140000    -1.8878160000
| 25>  H        5.2078240000    -0.5795360000     0.5994290000
| 26>  H        5.1869310000    -1.2238270000    -1.0405480000
| 27>  H        3.5989660000    -3.1764350000    -0.2358130000
| 28>  H        1.8604070000    -2.6896400000     0.1547480000
| 29> *
| 30>
| 31>                          ****END OF INPUT****
 Total Charge           Charge          ....    0
 Multiplicity           Mult            ....    1
 Number of Electrons    NEL             ....   52
 Basis Dimension        Dim             ....  148

MULLIKEN ATOMIC CHARGES
-----------------------
   0 C :   -0.065789
   1 C :   -0.073326
   2 C :    0.084681
   3 C :   -0.043240
   4 C :    0.063176
   5 C :   -0.062360
   6 C :   -0.065916
   7 H :    0.009734
   8 H :    0.011464
   9 H :    0.023666
  10 H :    0.013375
  11 H :    0.011903
  12 H :    0.030479
  13 H :    0.029042
  14 H :    0.017410
  15 H :    0.009255
  16 H :    0.006445
Sum of atomic charges:    0.0000000

LOEWDIN ATOMIC CHARGES
----------------------
   0 C :   -0.055660
   1 C :   -0.029752
   2 C :   -0.032089
   3 C :   -0.038623
   4 C :   -0.035219
   5 C :   -0.028456
   6 C :   -0.056254
   7 H :    0.023337
   8 H :    0.022048
   9 H :    0.036437
  10 H :    0.029802
  11 H :    0.023796
  12 H :    0.028072
  13 H :    0.037603
  14 H :    0.030437
  15 H :    0.023303
  16 H :    0.021218

  Mayer bond orders larger than 0.1
B(  0-C ,  1-C ) :   1.9714 B(  0-C ,  6-C ) :   0.1106 B(  0-C ,  7-H ) :   0.9284
B(  0-C ,  8-H ) :   0.9225 B(  1-C ,  2-C ) :   1.0344 B(  1-C ,  5-C ) :   1.0574
B(  2-C ,  3-C ) :   1.0796 B(  2-C ,  9-H ) :   0.9044 B(  2-C , 10-H ) :   0.9263
B(  3-C ,  4-C ) :   1.0854 B(  3-C , 11-H ) :   0.9344 B(  3-C , 12-H ) :   0.9429
B(  4-C ,  5-C ) :   1.0330 B(  4-C , 13-H ) :   0.9044 B(  4-C , 14-H ) :   0.9259
B(  5-C ,  6-C ) :   1.9643 B(  6-C , 15-H ) :   0.9295 B(  6-C , 16-H ) :   0.9239

FINAL SINGLE POINT ENERGY      -272.153000941224

DIPOLE MOMENT
-------------
                                X             Y             Z
Electronic contribution:     -0.93410      -0.76634       0.42550
Nuclear contribution   :      1.14278       0.93026      -0.44384
                        -----------------------------------------
Total Dipole Moment    :      0.20868       0.16392      -0.01834
                        -----------------------------------------
Magnitude (a.u.)       :      0.26600
Magnitude (Debye)      :      0.67611

                             ****ORCA TERMINATED NORMALLY****
TOTAL RUN TIME: 0 days 0 hours 0 minutes 7 seconds 401 msec
