                         Program Version 3.0.3 - RELEASE   -
|  1> ! RI PBE def2-SVP def2-SVP/J NBO PAL2
|  2> % maxcore 2000
|  3> % output
|  4>     # printlevel mini
|  5>     print[ P_Basis ] 0
|  6>     print[ P_SCFInfo ] 1
|  7>     print[ P_SCFIterInfo ] 1
|  8>     print[ P_OrbEn ] 0
|  9>     print[ P_Cartesian ] 0
| 10> end
| 11> *xyz 0 1
| 12>  C        1.0389770000     0.0934960000     0.0208520000
| 13>  C        2.5249010000     0.0766300000     0.0224810000
| 14>  C        3.3723670000     1.1253080000     0.0257190000
| 15>  C        4.7571580000     0.6425070000     0.0262280000
| 16>  C        4.7538470000    -0.7020790000     0.0232990000
| 17>  C        3.3556980000    -1.1431630000     0.0207530000
| 18>  C        2.9181260000    -2.4047480000     0.0175010000
| 19>  H        0.6642900000     1.1181620000     0.0226210000
| 20>  H        0.6271960000    -0.4136330000     0.8992940000
| 21>  H        0.6291670000    -0.4098750000    -0.8606660000
| 22>  H        3.0852410000     2.1693280000     0.0276690000
| 23>  H        5.6297410000     1.2822270000     0.0286030000
| 24>  H        5.6066460000    -1.3657510000     0.0228160000
| 25>  H        3.6087830000    -3.2406800000     0.0164570000
| 26>  H        1.8591530000    -2.6390200000     0.0157930000
| 27> *
| 28>
| 29>                          ****END OF INPUT****
 Total Charge           Charge          ....    0
 Multiplicity           Mult            ....    1
 Number of Electrons    NEL             ....   50
 Basis Dimension        Dim             ....  138

MULLIKEN ATOMIC CHARGES
-----------------------
   0 C :    0.079662
   1 C :   -0.063478
   2 C :   -0.053817
   3 C :    0.021530
   4 C :    0.014658
   5 C :   -0.005659
   6 C :   -0.034202
   7 H :    0.012780
   8 H :    0.031084
   9 H :    0.031007
  10 H :   -0.029565
  11 H :   -0.018995
  12 H :   -0.029473
  13 H :    0.023942
  14 H :    0.020528
Sum of atomic charges:   -0.0000000

LOEWDIN ATOMIC CHARGES
----------------------
   0 C :   -0.059537
   1 C :   -0.044368
   2 C :   -0.039946
   3 C :   -0.022554
   4 C :   -0.049928
   5 C :   -0.018271
   6 C :    0.004929
   7 H :    0.035624
   8 H :    0.036625
   9 H :    0.036610
  10 H :    0.019402
  11 H :    0.022324
  12 H :    0.021347
  13 H :    0.030331
  14 H :    0.027411

  Mayer bond orders larger than 0.1
B(  0-C ,  1-C ) :   1.1230 B(  0-C ,  7-H ) :   0.9448 B(  0-C ,  8-H ) :   0.9364
B(  0-C ,  9-H ) :   0.9364 B(  1-C ,  2-C ) :   1.6613 B(  1-C ,  5-C ) :   1.0593
B(  2-C ,  3-C ) :   1.0537 B(  2-C ,  6-C ) :   0.1015 B(  2-C , 10-H ) :   1.0003
B(  3-C ,  4-C ) :   1.6556 B(  3-C ,  6-C ) :   0.1061 B(  3-C , 11-H ) :   0.9959
B(  4-C ,  5-C ) :   1.0482 B(  4-C , 12-H ) :   1.0021 B(  5-C ,  6-C ) :   1.8600
B(  6-C , 13-H ) :   0.9281 B(  6-C , 14-H ) :   0.9251

FINAL SINGLE POINT ENERGY      -270.949161414639

DIPOLE MOMENT
-------------
                                X             Y             Z
Electronic contribution:      3.40779       0.51845       0.00502
Nuclear contribution   :     -3.64405      -0.73357      -0.00569
                        -----------------------------------------
Total Dipole Moment    :     -0.23626      -0.21512      -0.00068
                        -----------------------------------------
Magnitude (a.u.)       :      0.31953
Magnitude (Debye)      :      0.81217

                             ****ORCA TERMINATED NORMALLY****
TOTAL RUN TIME: 0 days 0 hours 0 minutes 7 seconds 278 msec
