                         Program Version 3.0.3 - RELEASE   -
|  1> ! RI PBE def2-SVP def2-SVP/J NBO PAL2
|  2> % maxcore 2000
|  3> % output
|  4>     # printlevel mini
|  5>     print[ P_Basis ] 0
|  6>     print[ P_SCFInfo ] 1
|  7>     print[ P_SCFIterInfo ] 1
|  8>     print[ P_OrbEn ] 0
|  9>     print[ P_Cartesian ] 0
| 10> end
| 11> *xyz 0 1
| 12>  C        1.0726640000     0.1033080000     0.0705890000
| 13>  C        2.5589720000     0.0182040000     0.0728690000
| 14>  C        3.3153450000    -1.0924370000     0.0764730000
| 15>  C        4.7589340000    -0.7190500000     0.0776480000
| 16>  C        4.7229000000     0.7716070000     0.0741850000
| 17>  C        3.4476320000     1.1950680000     0.0714250000
| 18>  C        2.9589260000     2.6013080000     0.0675180000
| 19>  H        0.6213220000    -0.8897070000     0.0722140000
| 20>  H        0.7052480000     0.6414260000    -0.8090040000
| 21>  H        0.7027830000     0.6454190000     0.9466890000
| 22>  H        2.9516660000    -2.1120340000     0.0782950000
| 23>  H        5.2887110000    -1.1201620000    -0.7967310000
| 24>  H        5.2862490000    -1.1161530000     0.9553400000
| 25>  H        5.6040050000     1.4004940000     0.0739840000
| 26>  H        3.7904690000     3.3072320000     0.0670830000
| 27>  H        2.3372840000     2.8100350000     0.9440130000
| 28>  H        2.3397720000     2.8060210000    -0.8116800000
| 29> *
| 30>
| 31>                          ****END OF INPUT****
 Total Charge           Charge          ....    0
 Multiplicity           Mult            ....    1
 Number of Electrons    NEL             ....   52
 Basis Dimension        Dim             ....  148

MULLIKEN ATOMIC CHARGES
-----------------------
   0 C :    0.089713
   1 C :   -0.074339
   2 C :   -0.147706
   3 C :    0.109703
   4 C :   -0.142432
   5 C :   -0.083090
   6 C :    0.095652
   7 H :    0.011700
   8 H :    0.025355
   9 H :    0.025429
  10 H :   -0.027622
  11 H :    0.043863
  12 H :    0.043776
  13 H :   -0.029698
  14 H :    0.013313
  15 H :    0.023217
  16 H :    0.023167
Sum of atomic charges:    0.0000000

LOEWDIN ATOMIC CHARGES
----------------------
   0 C :   -0.059837
   1 C :   -0.040556
   2 C :   -0.054427
   3 C :   -0.035972
   4 C :   -0.054447
   5 C :   -0.041020
   6 C :   -0.060497
   7 H :    0.033260
   8 H :    0.035914
   9 H :    0.035925
  10 H :    0.015842
  11 H :    0.052409
  12 H :    0.052387
  13 H :    0.015836
  14 H :    0.033740
  15 H :    0.035723
  16 H :    0.035718

  Mayer bond orders larger than 0.1
B(  0-C ,  1-C ) :   1.1235 B(  0-C ,  7-H ) :   0.9440 B(  0-C ,  8-H ) :   0.9361
B(  0-C ,  9-H ) :   0.9361 B(  1-C ,  2-C ) :   1.7280 B(  1-C ,  5-C ) :   1.1013
B(  2-C ,  3-C ) :   1.0474 B(  2-C , 10-H ) :   0.9898 B(  3-C ,  4-C ) :   1.0504
B(  3-C , 11-H ) :   0.8892 B(  3-C , 12-H ) :   0.8893 B(  4-C ,  5-C ) :   1.7327
B(  4-C , 13-H ) :   0.9841 B(  5-C ,  6-C ) :   1.1295 B(  6-C , 14-H ) :   0.9417
B(  6-C , 15-H ) :   0.9338 B(  6-C , 16-H ) :   0.9337

FINAL SINGLE POINT ENERGY      -272.168533124404

DIPOLE MOMENT
-------------
                                X             Y             Z
Electronic contribution:      2.44872      -1.85668       0.00773
Nuclear contribution   :     -2.50857       1.89424      -0.00786
                        -----------------------------------------
Total Dipole Moment    :     -0.05986       0.03756      -0.00013
                        -----------------------------------------
Magnitude (a.u.)       :      0.07067
Magnitude (Debye)      :      0.17962

                             ****ORCA TERMINATED NORMALLY****
TOTAL RUN TIME: 0 days 0 hours 0 minutes 7 seconds 306 msec
