                         Program Version 3.0.3 - RELEASE   -
|  1> ! RI PBE def2-SVP def2-SVP/J NBO PAL2
|  2> % maxcore 2000
|  3> % output
|  4>     # printlevel mini
|  5>     print[ P_Basis ] 0
|  6>     print[ P_SCFInfo ] 1
|  7>     print[ P_SCFIterInfo ] 1
|  8>     print[ P_OrbEn ] 0
|  9>     print[ P_Cartesian ] 0
| 10> end
| 11> *xyz 0 1
| 12>  C        1.0852590000    -0.0394320000     0.1406970000
| 13>  C        2.5663990000    -0.0747240000     0.0115160000
| 14>  C        3.3354800000    -1.1607590000    -0.1358950000
| 15>  C        4.7924850000    -0.8405950000    -0.2357930000
| 16>  C        4.8378580000     0.6947020000    -0.1255210000
| 17>  C        3.3972840000     1.1298500000     0.0314220000
| 18>  C        2.9582720000     2.3818600000     0.1641470000
| 19>  H        0.6593000000    -1.0426540000     0.1014300000
| 20>  H        0.6368970000     0.5564420000    -0.6602190000
| 21>  H        0.7860310000     0.4247640000     1.0854460000
| 22>  H        2.9552770000    -2.1758480000    -0.1798490000
| 23>  H        5.2182320000    -1.2012690000    -1.1786030000
| 24>  H        5.3654650000    -1.3303170000     0.5592890000
| 25>  H        5.2843140000     1.1496870000    -1.0125740000
| 26>  H        5.4354720000     1.0205650000     0.7287750000
| 27>  H        3.6390190000     3.2255190000     0.1697320000
| 28>  H        1.9023660000     2.6017200000     0.2715020000
| 29> *
| 30>
| 31>                          ****END OF INPUT****
 Total Charge           Charge          ....    0
 Multiplicity           Mult            ....    1
 Number of Electrons    NEL             ....   52
 Basis Dimension        Dim             ....  148

MULLIKEN ATOMIC CHARGES
-----------------------
   0 C :    0.078145
   1 C :   -0.034650
   2 C :   -0.142360
   3 C :    0.056935
   4 C :    0.081863
   5 C :   -0.122054
   6 C :   -0.074909
   7 H :    0.010350
   8 H :    0.035833
   9 H :    0.032465
  10 H :   -0.022019
  11 H :    0.021687
  12 H :    0.026402
  13 H :    0.025862
  14 H :    0.027419
  15 H :   -0.000304
  16 H :   -0.000666
Sum of atomic charges:   -0.0000000

LOEWDIN ATOMIC CHARGES
----------------------
   0 C :   -0.056908
   1 C :   -0.037989
   2 C :   -0.028700
   3 C :   -0.038716
   4 C :   -0.028133
   5 C :   -0.026848
   6 C :   -0.089917
   7 H :    0.032590
   8 H :    0.039296
   9 H :    0.038749
  10 H :    0.018344
  11 H :    0.031541
  12 H :    0.032746
  13 H :    0.037185
  14 H :    0.037309
  15 H :    0.020448
  16 H :    0.019004

  Mayer bond orders larger than 0.1
B(  0-C ,  1-C ) :   1.1205 B(  0-C ,  7-H ) :   0.9454 B(  0-C ,  8-H ) :   0.9354
B(  0-C ,  9-H ) :   0.9346 B(  1-C ,  2-C ) :   1.7185 B(  1-C ,  5-C ) :   1.0939
B(  2-C ,  3-C ) :   1.0490 B(  2-C ,  6-C ) :   0.1348 B(  2-C , 10-H ) :   0.9812
B(  3-C ,  4-C ) :   1.1094 B(  3-C , 11-H ) :   0.9150 B(  3-C , 12-H ) :   0.9137
B(  4-C ,  5-C ) :   1.0366 B(  4-C , 13-H ) :   0.9125 B(  4-C , 14-H ) :   0.9135
B(  5-C ,  6-C ) :   1.9311 B(  6-C , 15-H ) :   0.9321 B(  6-C , 16-H ) :   0.9175

FINAL SINGLE POINT ENERGY      -272.164356279005

DIPOLE MOMENT
-------------
                                X             Y             Z
Electronic contribution:      0.85575      -0.43610      -0.10541
Nuclear contribution   :     -0.78433       0.20240       0.08243
                        -----------------------------------------
Total Dipole Moment    :      0.07141      -0.23370      -0.02298
                        -----------------------------------------
Magnitude (a.u.)       :      0.24545
Magnitude (Debye)      :      0.62388

                             ****ORCA TERMINATED NORMALLY****
TOTAL RUN TIME: 0 days 0 hours 0 minutes 7 seconds 878 msec
