                         Program Version 3.0.3 - RELEASE   -
|  1> ! RI PBE def2-SVP def2-SVP/J NBO PAL2
|  2> % maxcore 2000
|  3> % output
|  4>     # printlevel mini
|  5>     print[ P_Basis ] 0
|  6>     print[ P_SCFInfo ] 1
|  7>     print[ P_SCFIterInfo ] 1
|  8>     print[ P_OrbEn ] 0
|  9>     print[ P_Cartesian ] 0
| 10> end
| 11> *xyz 0 1
| 12>  C        0.9127530000     0.0435900000     0.0240300000
| 13>  C        2.4379080000     0.0381310000    -0.0557600000
| 14>  C        3.0091460000     1.1950670000    -0.8167550000
| 15>  C        3.7912960000     0.7353410000    -1.8033110000
| 16>  C        3.7949590000    -0.7237700000    -1.7722500000
| 17>  C        3.0144200000    -1.1582960000    -0.7677350000
| 18>  C        2.7314110000    -2.5607080000    -0.3685770000
| 19>  H        0.5525150000     0.9409520000     0.5317270000
| 20>  H        0.5432280000    -0.8240430000     0.5757650000
| 21>  H        0.4794150000     0.0226160000    -0.9784510000
| 22>  H        2.8384150000     0.0558170000     0.9701950000
| 23>  H        2.7984990000     2.2301010000    -0.5817760000
| 24>  H        4.3412450000     1.3367540000    -2.5163100000
| 25>  H        4.3486550000    -1.3542730000    -2.4579080000
| 26>  H        3.2555680000    -3.2668370000    -1.0145530000
| 27>  H        1.6606650000    -2.7867580000    -0.4226920000
| 28>  H        3.0401120000    -2.7555950000     0.6640690000
| 29> *
| 30>
| 31>                          ****END OF INPUT****
 Total Charge           Charge          ....    0
 Multiplicity           Mult            ....    1
 Number of Electrons    NEL             ....   52
 Basis Dimension        Dim             ....  148

MULLIKEN ATOMIC CHARGES
-----------------------
   0 C :    0.022064
   1 C :   -0.030705
   2 C :   -0.037954
   3 C :    0.017715
   4 C :   -0.021299
   5 C :   -0.150125
   6 C :    0.102634
   7 H :    0.022267
   8 H :    0.023370
   9 H :    0.029829
  10 H :    0.037465
  11 H :   -0.016450
  12 H :   -0.021663
  13 H :   -0.034339
  14 H :    0.010273
  15 H :    0.024269
  16 H :    0.022650
Sum of atomic charges:   -0.0000000

LOEWDIN ATOMIC CHARGES
----------------------
   0 C :   -0.042372
   1 C :   -0.034636
   2 C :   -0.040831
   3 C :   -0.036469
   4 C :   -0.052490
   5 C :   -0.034316
   6 C :   -0.059121
   7 H :    0.028118
   8 H :    0.024775
   9 H :    0.031696
  10 H :    0.053289
  11 H :    0.018646
  12 H :    0.021207
  13 H :    0.018323
  14 H :    0.034234
  15 H :    0.034088
  16 H :    0.035859

  Mayer bond orders larger than 0.1
B(  0-C ,  1-C ) :   1.0569 B(  0-C ,  7-H ) :   0.9605 B(  0-C ,  8-H ) :   0.9572
B(  0-C ,  9-H ) :   0.9649 B(  1-C ,  2-C ) :   1.0138 B(  1-C ,  5-C ) :   1.0280
B(  1-C , 10-H ) :   0.8608 B(  2-C ,  3-C ) :   1.7271 B(  2-C , 11-H ) :   0.9935
B(  3-C ,  4-C ) :   1.0770 B(  3-C , 12-H ) :   0.9938 B(  4-C ,  5-C ) :   1.7291
B(  4-C , 13-H ) :   0.9938 B(  5-C ,  6-C ) :   1.1229 B(  6-C , 14-H ) :   0.9411
B(  6-C , 15-H ) :   0.9350 B(  6-C , 16-H ) :   0.9365

FINAL SINGLE POINT ENERGY      -272.162078886250

DIPOLE MOMENT
-------------
                                X             Y             Z
Electronic contribution:      3.40205       2.30629      -2.04932
Nuclear contribution   :     -3.57963      -2.45367       2.27315
                        -----------------------------------------
Total Dipole Moment    :     -0.17758      -0.14738       0.22383
                        -----------------------------------------
Magnitude (a.u.)       :      0.32149
Magnitude (Debye)      :      0.81717

                             ****ORCA TERMINATED NORMALLY****
TOTAL RUN TIME: 0 days 0 hours 0 minutes 7 seconds 665 msec
