                         Program Version 3.0.3 - RELEASE   -
|  1> ! RI PBE def2-SVP def2-SVP/J NBO PAL2
|  2> % maxcore 2000
|  3> % output
|  4>     # printlevel mini
|  5>     print[ P_Basis ] 0
|  6>     print[ P_SCFInfo ] 1
|  7>     print[ P_SCFIterInfo ] 1
|  8>     print[ P_OrbEn ] 0
|  9>     print[ P_Cartesian ] 0
| 10> end
| 11> *xyz 0 1
| 12>  C        0.8571270000    -0.1209130000    -0.1658980000
| 13>  C        2.3721210000    -0.0539460000     0.0123350000
| 14>  C        3.0848650000    -1.2796150000    -0.4861550000
| 15>  C        4.0038030000    -1.0031350000    -1.4034190000
| 16>  C        4.0957600000     0.4651570000    -1.6866610000
| 17>  C        3.0367990000     1.0606070000    -0.7823290000
| 18>  C        2.7311420000     2.3477580000    -0.6995620000
| 19>  H        0.4353760000    -0.9573590000     0.3978720000
| 20>  H        0.5992790000    -0.2535510000    -1.2191540000
| 21>  H        0.3809330000     0.7964160000     0.1867570000
| 22>  H        2.5781940000     0.0854180000     1.0829300000
| 23>  H        2.8483970000    -2.2735220000    -0.1224780000
| 24>  H        4.6303620000    -1.7369150000    -1.8969580000
| 25>  H        3.9104620000     0.6961840000    -2.7422770000
| 26>  H        5.0920280000     0.8632930000    -1.4587960000
| 27>  H        3.2411900000     3.0934660000    -1.2999990000
| 28>  H        1.9594490000     2.7076870000    -0.0274100000
| 29> *
| 30>
| 31>                          ****END OF INPUT****
 Total Charge           Charge          ....    0
 Multiplicity           Mult            ....    1
 Number of Electrons    NEL             ....   52
 Basis Dimension        Dim             ....  148

MULLIKEN ATOMIC CHARGES
-----------------------
   0 C :    0.039410
   1 C :   -0.009525
   2 C :   -0.015882
   3 C :   -0.077933
   4 C :    0.155826
   5 C :   -0.187937
   6 C :   -0.027953
   7 H :    0.016676
   8 H :    0.017047
   9 H :    0.020019
  10 H :    0.032070
  11 H :   -0.018572
  12 H :   -0.015593
  13 H :    0.035335
  14 H :    0.033202
  15 H :   -0.000727
  16 H :    0.004537
Sum of atomic charges:   -0.0000000

LOEWDIN ATOMIC CHARGES
----------------------
   0 C :   -0.048591
   1 C :   -0.041184
   2 C :   -0.031410
   3 C :   -0.036058
   4 C :   -0.035705
   5 C :   -0.013082
   6 C :   -0.076233
   7 H :    0.025097
   8 H :    0.026275
   9 H :    0.025516
  10 H :    0.039883
  11 H :    0.020728
  12 H :    0.021384
  13 H :    0.040734
  14 H :    0.040930
  15 H :    0.021330
  16 H :    0.020387

  Mayer bond orders larger than 0.1
B(  0-C ,  1-C ) :   1.0698 B(  0-C ,  7-H ) :   0.9599 B(  0-C ,  8-H ) :   0.9629
B(  0-C ,  9-H ) :   0.9583 B(  1-C ,  2-C ) :   0.9985 B(  1-C ,  5-C ) :   0.9979
B(  1-C , 10-H ) :   0.8786 B(  2-C ,  3-C ) :   1.8526 B(  2-C , 11-H ) :   0.9878
B(  3-C ,  4-C ) :   1.0273 B(  3-C , 12-H ) :   0.9849 B(  4-C ,  5-C ) :   1.0339
B(  4-C , 13-H ) :   0.9017 B(  4-C , 14-H ) :   0.8995 B(  5-C ,  6-C ) :   2.0326
B(  6-C , 15-H ) :   0.9267 B(  6-C , 16-H ) :   0.9287

FINAL SINGLE POINT ENERGY      -272.149647278263

DIPOLE MOMENT
-------------
                                X             Y             Z
Electronic contribution:      2.67931      -0.93430      -0.29359
Nuclear contribution   :     -2.64325       0.83639       0.28965
                        -----------------------------------------
Total Dipole Moment    :      0.03606      -0.09792      -0.00394
                        -----------------------------------------
Magnitude (a.u.)       :      0.10442
Magnitude (Debye)      :      0.26542

                             ****ORCA TERMINATED NORMALLY****
TOTAL RUN TIME: 0 days 0 hours 0 minutes 7 seconds 412 msec
