                         Program Version 3.0.3 - RELEASE   -
|  1> ! RI PBE def2-SVP def2-SVP/J NBO PAL2
|  2> % maxcore 2000
|  3> % output
|  4>     # printlevel mini
|  5>     print[ P_Basis ] 0
|  6>     print[ P_SCFInfo ] 1
|  7>     print[ P_SCFIterInfo ] 1
|  8>     print[ P_OrbEn ] 0
|  9>     print[ P_Cartesian ] 0
| 10> end
| 11> *xyz 0 1
| 12>  C        1.0668970000    -0.0400090000    -0.0147490000
| 13>  C        2.5835560000    -0.0968930000    -0.1135250000
| 14>  C        3.0406810000    -1.3300670000    -0.9229520000
| 15>  C        3.3913710000    -0.7630670000    -2.2647150000
| 16>  C        3.4320100000     0.5637260000    -2.2464650000
| 17>  C        3.1450550000     1.1260820000    -0.8830440000
| 18>  C        4.3928140000     1.7299690000    -0.2438600000
| 19>  H        0.6696830000    -0.9147070000     0.5071760000
| 20>  H        0.6185770000    -0.0127990000    -1.0127980000
| 21>  H        0.7368430000     0.8517830000     0.5250480000
| 22>  H        3.0003290000    -0.1227270000     0.8978080000
| 23>  H        2.2521630000    -2.0885950000    -0.9800720000
| 24>  H        3.9086140000    -1.8278350000    -0.4733940000
| 25>  H        3.6073650000    -1.3803410000    -3.1297780000
| 26>  H        3.6877400000     1.1903500000    -3.0944330000
| 27>  H        2.3808990000     1.9122620000    -0.9392600000
| 28>  H        5.1765100000     0.9750600000    -0.1362560000
| 29>  H        4.1695560000     2.1335150000     0.7476330000
| 30>  H        4.7970380000     2.5428840000    -0.8529650000
| 31> *
| 32>
| 33>                          ****END OF INPUT****
 Total Charge           Charge          ....    0
 Multiplicity           Mult            ....    1
 Number of Electrons    NEL             ....   54
 Basis Dimension        Dim             ....  158

MULLIKEN ATOMIC CHARGES
-----------------------
   0 C :    0.035334
   1 C :   -0.121273
   2 C :    0.102377
   3 C :   -0.072107
   4 C :   -0.010797
   5 C :   -0.084670
   6 C :    0.053454
   7 H :    0.016871
   8 H :    0.016616
   9 H :    0.018171
  10 H :   -0.007317
  11 H :    0.011226
  12 H :    0.018672
  13 H :   -0.012559
  14 H :   -0.015920
  15 H :    0.006609
  16 H :    0.014830
  17 H :    0.016322
  18 H :    0.014164
Sum of atomic charges:   -0.0000000

LOEWDIN ATOMIC CHARGES
----------------------
   0 C :   -0.057519
   1 C :   -0.028726
   2 C :   -0.036596
   3 C :   -0.036674
   4 C :   -0.033142
   5 C :   -0.041139
   6 C :   -0.056070
   7 H :    0.023821
   8 H :    0.025865
   9 H :    0.023925
  10 H :    0.020634
  11 H :    0.026740
  12 H :    0.030394
  13 H :    0.019838
  14 H :    0.019346
  15 H :    0.024653
  16 H :    0.025163
  17 H :    0.024333
  18 H :    0.025152

  Mayer bond orders larger than 0.1
B(  0-C ,  1-C ) :   1.0763 B(  0-C ,  7-H ) :   0.9569 B(  0-C ,  8-H ) :   0.9594
B(  0-C ,  9-H ) :   0.9596 B(  1-C ,  2-C ) :   1.0576 B(  1-C ,  5-C ) :   1.0262
B(  1-C , 10-H ) :   0.9158 B(  2-C ,  3-C ) :   1.0308 B(  2-C , 11-H ) :   0.9260
B(  2-C , 12-H ) :   0.9083 B(  3-C ,  4-C ) :   1.8531 B(  3-C , 13-H ) :   0.9829
B(  4-C ,  5-C ) :   1.0069 B(  4-C , 14-H ) :   0.9843 B(  5-C ,  6-C ) :   1.0710
B(  5-C , 15-H ) :   0.9091 B(  6-C , 16-H ) :   0.9576 B(  6-C , 17-H ) :   0.9552
B(  6-C , 18-H ) :   0.9569

FINAL SINGLE POINT ENERGY      -273.369019557556

DIPOLE MOMENT
-------------
                                X             Y             Z
Electronic contribution:      0.90653      -1.00392      -2.80974
Nuclear contribution   :     -0.88947       1.00004       2.89203
                        -----------------------------------------
Total Dipole Moment    :      0.01706      -0.00388       0.08229
                        -----------------------------------------
Magnitude (a.u.)       :      0.08413
Magnitude (Debye)      :      0.21385

                             ****ORCA TERMINATED NORMALLY****
TOTAL RUN TIME: 0 days 0 hours 0 minutes 8 seconds 884 msec
