                         Program Version 3.0.3 - RELEASE   -
|  1> ! RI PBE def2-SVP def2-SVP/J NBO PAL2
|  2> % maxcore 2000
|  3> % output
|  4>     # printlevel mini
|  5>     print[ P_Basis ] 0
|  6>     print[ P_SCFInfo ] 1
|  7>     print[ P_SCFIterInfo ] 1
|  8>     print[ P_OrbEn ] 0
|  9>     print[ P_Cartesian ] 0
| 10> end
| 11> *xyz 0 1
| 12>  C        1.0105030000     0.0701740000     0.2639630000
| 13>  C        2.5127800000    -0.0104920000     0.0210670000
| 14>  C        2.9029700000    -1.2452420000    -0.8224340000
| 15>  C        3.4307890000    -0.6694930000    -2.0980450000
| 16>  C        3.4931350000     0.6639110000    -2.0592580000
| 17>  C        3.0181240000     1.1763960000    -0.7839660000
| 18>  C        3.0176210000     2.4512990000    -0.3934600000
| 19>  H        0.6593260000    -0.7943170000     0.8339180000
| 20>  H        0.4701540000     0.0943680000    -0.6864090000
| 21>  H        0.7490110000     0.9735450000     0.8191090000
| 22>  H        3.0215800000    -0.0364130000     0.9889790000
| 23>  H        2.0458580000    -1.9059710000    -0.9968540000
| 24>  H        3.6629680000    -1.8602610000    -0.3268130000
| 25>  H        3.7330570000    -1.2819490000    -2.9397080000
| 26>  H        3.8546530000     1.3015020000    -2.8573200000
| 27>  H        3.3848930000     3.2383170000    -1.0422250000
| 28>  H        2.6550710000     2.7482370000     0.5843460000
| 29> *
| 30>
| 31>                          ****END OF INPUT****
 Total Charge           Charge          ....    0
 Multiplicity           Mult            ....    1
 Number of Electrons    NEL             ....   52
 Basis Dimension        Dim             ....  148

MULLIKEN ATOMIC CHARGES
-----------------------
   0 C :    0.035510
   1 C :   -0.080646
   2 C :    0.102593
   3 C :   -0.083457
   4 C :    0.048014
   5 C :   -0.066253
   6 C :   -0.049762
   7 H :    0.021410
   8 H :    0.020128
   9 H :    0.019414
  10 H :    0.012238
  11 H :    0.014770
  12 H :    0.028453
  13 H :   -0.007911
  14 H :   -0.023683
  15 H :    0.004158
  16 H :    0.005025
Sum of atomic charges:   -0.0000000

LOEWDIN ATOMIC CHARGES
----------------------
   0 C :   -0.050355
   1 C :   -0.028478
   2 C :   -0.034896
   3 C :   -0.016560
   4 C :   -0.030396
   5 C :   -0.025521
   6 C :   -0.081104
   7 H :    0.024570
   8 H :    0.027675
   9 H :    0.025777
  10 H :    0.033146
  11 H :    0.030750
  12 H :    0.035509
  13 H :    0.022110
  14 H :    0.025560
  15 H :    0.022144
  16 H :    0.020071

  Mayer bond orders larger than 0.1
B(  0-C ,  1-C ) :   1.0807 B(  0-C ,  7-H ) :   0.9588 B(  0-C ,  8-H ) :   0.9581
B(  0-C ,  9-H ) :   0.9602 B(  1-C ,  2-C ) :   1.0552 B(  1-C ,  5-C ) :   1.0102
B(  1-C , 10-H ) :   0.8903 B(  2-C ,  3-C ) :   1.0575 B(  2-C , 11-H ) :   0.9126
B(  2-C , 12-H ) :   0.9055 B(  3-C ,  4-C ) :   1.7203 B(  3-C ,  6-C ) :   0.1314
B(  3-C , 13-H ) :   0.9795 B(  4-C ,  5-C ) :   1.0902 B(  4-C , 14-H ) :   0.9927
B(  5-C ,  6-C ) :   1.9192 B(  6-C , 15-H ) :   0.9245 B(  6-C , 16-H ) :   0.9306

FINAL SINGLE POINT ENERGY      -272.158374884364

DIPOLE MOMENT
-------------
                                X             Y             Z
Electronic contribution:      2.87701       0.54621      -2.30259
Nuclear contribution   :     -2.89657      -0.84087       2.31701
                        -----------------------------------------
Total Dipole Moment    :     -0.01957      -0.29465       0.01442
                        -----------------------------------------
Magnitude (a.u.)       :      0.29565
Magnitude (Debye)      :      0.75149

                             ****ORCA TERMINATED NORMALLY****
TOTAL RUN TIME: 0 days 0 hours 0 minutes 8 seconds 55 msec
