                         Program Version 3.0.3 - RELEASE   -
|  1> ! RI PBE def2-SVP def2-SVP/J NBO PAL2
|  2> % maxcore 2000
|  3> % output
|  4>     # printlevel mini
|  5>     print[ P_Basis ] 0
|  6>     print[ P_SCFInfo ] 1
|  7>     print[ P_SCFIterInfo ] 1
|  8>     print[ P_OrbEn ] 0
|  9>     print[ P_Cartesian ] 0
| 10> end
| 11> *xyz 0 1
| 12>  C        1.0774090000     0.1003100000    -0.0459410000
| 13>  C        2.6019700000     0.0471210000     0.0324670000
| 14>  C        3.1298830000    -1.2451810000     0.6823440000
| 15>  C        3.4521480000    -0.8785220000     2.1404270000
| 16>  C        3.6023920000     0.6115390000     2.0796300000
| 17>  C        3.1585410000     1.1260530000     0.9347940000
| 18>  C        3.1322520000     2.5621940000     0.5468940000
| 19>  H        0.6940930000    -0.6877900000    -0.6992900000
| 20>  H        0.7264030000     1.0568840000    -0.4411700000
| 21>  H        0.6337460000    -0.0345360000     0.9447100000
| 22>  H        2.9959930000     0.1575850000    -0.9854690000
| 23>  H        4.0500620000    -1.5536480000     0.1798290000
| 24>  H        2.4216910000    -2.0726740000     0.5966240000
| 25>  H        4.3521000000    -1.3828810000     2.5048740000
| 26>  H        2.6449410000    -1.1624800000     2.8280490000
| 27>  H        4.0005860000     1.1993960000     2.9004590000
| 28>  H        3.5610970000     3.1959420000     1.3248160000
| 29>  H        2.1103740000     2.9060550000     0.3560240000
| 30>  H        3.6950270000     2.7279230000    -0.3782610000
| 31> *
| 32>
| 33>                          ****END OF INPUT****
 Total Charge           Charge          ....    0
 Multiplicity           Mult            ....    1
 Number of Electrons    NEL             ....   54
 Basis Dimension        Dim             ....  158

MULLIKEN ATOMIC CHARGES
-----------------------
   0 C :    0.049541
   1 C :   -0.106540
   2 C :    0.027044
   3 C :    0.058256
   4 C :   -0.106000
   5 C :   -0.124055
   6 C :    0.092659
   7 H :    0.018256
   8 H :    0.013150
   9 H :    0.011470
  10 H :   -0.003192
  11 H :    0.012470
  12 H :   -0.001869
  13 H :    0.012005
  14 H :    0.021219
  15 H :   -0.030523
  16 H :    0.012305
  17 H :    0.021436
  18 H :    0.022370
Sum of atomic charges:   -0.0000000

LOEWDIN ATOMIC CHARGES
----------------------
   0 C :   -0.055453
   1 C :   -0.037397
   2 C :   -0.028485
   3 C :   -0.041447
   4 C :   -0.052205
   5 C :   -0.039134
   6 C :   -0.059237
   7 H :    0.025128
   8 H :    0.022865
   9 H :    0.025170
  10 H :    0.021578
  11 H :    0.027720
  12 H :    0.019967
  13 H :    0.025789
  14 H :    0.027712
  15 H :    0.015903
  16 H :    0.032353
  17 H :    0.033637
  18 H :    0.035535

  Mayer bond orders larger than 0.1
B(  0-C ,  1-C ) :   1.0677 B(  0-C ,  7-H ) :   0.9569 B(  0-C ,  8-H ) :   0.9581
B(  0-C ,  9-H ) :   0.9593 B(  1-C ,  2-C ) :   1.0652 B(  1-C ,  5-C ) :   1.0074
B(  1-C , 10-H ) :   0.9080 B(  2-C ,  3-C ) :   1.1035 B(  2-C , 11-H ) :   0.9309
B(  2-C , 12-H ) :   0.9348 B(  3-C ,  4-C ) :   1.0225 B(  3-C , 13-H ) :   0.9286
B(  3-C , 14-H ) :   0.9123 B(  4-C ,  5-C ) :   1.8591 B(  4-C , 15-H ) :   0.9760
B(  5-C ,  6-C ) :   1.1193 B(  6-C , 16-H ) :   0.9454 B(  6-C , 17-H ) :   0.9367
B(  6-C , 18-H ) :   0.9368

FINAL SINGLE POINT ENERGY      -273.374614000488

DIPOLE MOMENT
-------------
                                X             Y             Z
Electronic contribution:      2.13693      -0.24405       1.38083
Nuclear contribution   :     -2.18547       0.30069      -1.46800
                        -----------------------------------------
Total Dipole Moment    :     -0.04854       0.05663      -0.08717
                        -----------------------------------------
Magnitude (a.u.)       :      0.11473
Magnitude (Debye)      :      0.29161

                             ****ORCA TERMINATED NORMALLY****
TOTAL RUN TIME: 0 days 0 hours 0 minutes 8 seconds 230 msec
