                         Program Version 3.0.3 - RELEASE   -
|  1> ! RI PBE def2-SVP def2-SVP/J NBO PAL2
|  2> % maxcore 2000
|  3> % output
|  4>     # printlevel mini
|  5>     print[ P_Basis ] 0
|  6>     print[ P_SCFInfo ] 1
|  7>     print[ P_SCFIterInfo ] 1
|  8>     print[ P_OrbEn ] 0
|  9>     print[ P_Cartesian ] 0
| 10> end
| 11> *xyz 0 1
| 12>  C        0.9575280000     0.0078800000    -0.1206920000
| 13>  C        2.4702560000    -0.0055770000    -0.0223560000
| 14>  C        3.0754650000     1.1245650000     0.8137020000
| 15>  C        4.4899120000     0.6354480000     1.1045740000
| 16>  C        4.2962060000    -0.8552090000     1.3923010000
| 17>  C        3.0779230000    -1.2534460000     0.5869000000
| 18>  C        2.6113180000    -2.4887940000     0.4613210000
| 19>  H        0.6039150000     0.9492220000    -0.5493340000
| 20>  H        0.5049570000    -0.1083060000     0.8677590000
| 21>  H        0.5873230000    -0.8008210000    -0.7545580000
| 22>  H        2.8845080000     0.0878610000    -1.0376430000
| 23>  H        2.5130800000     1.2247440000     1.7500840000
| 24>  H        3.0428350000     2.0913110000     0.3060780000
| 25>  H        4.9737610000     1.1693860000     1.9245440000
| 26>  H        5.1142020000     0.7691930000     0.2150840000
| 27>  H        4.0887600000    -1.0073810000     2.4573750000
| 28>  H        5.1724590000    -1.4615520000     1.1522700000
| 29>  H        3.1115780000    -3.3322870000     0.9254690000
| 30>  H        1.7144240000    -2.7074250000    -0.1073990000
| 31> *
| 32>
| 33>                          ****END OF INPUT****
 Total Charge           Charge          ....    0
 Multiplicity           Mult            ....    1
 Number of Electrons    NEL             ....   54
 Basis Dimension        Dim             ....  158

MULLIKEN ATOMIC CHARGES
-----------------------
   0 C :    0.053736
   1 C :   -0.077109
   2 C :    0.009066
   3 C :   -0.006406
   4 C :    0.086473
   5 C :   -0.168539
   6 C :   -0.048324
   7 H :    0.011015
   8 H :    0.014660
   9 H :    0.024019
  10 H :    0.022205
  11 H :    0.009127
  12 H :    0.005756
  13 H :    0.010708
  14 H :    0.011285
  15 H :    0.025889
  16 H :    0.015455
  17 H :   -0.000007
  18 H :    0.000990
Sum of atomic charges:    0.0000000

LOEWDIN ATOMIC CHARGES
----------------------
   0 C :   -0.053542
   1 C :   -0.042355
   2 C :   -0.034557
   3 C :   -0.041755
   4 C :   -0.036116
   5 C :   -0.024064
   6 C :   -0.084170
   7 H :    0.026312
   8 H :    0.026095
   9 H :    0.026004
  10 H :    0.037462
  11 H :    0.022432
  12 H :    0.021640
  13 H :    0.023634
  14 H :    0.024177
  15 H :    0.037944
  16 H :    0.032163
  17 H :    0.020364
  18 H :    0.018332

  Mayer bond orders larger than 0.1
B(  0-C ,  1-C ) :   1.1071 B(  0-C ,  7-H ) :   0.9527 B(  0-C ,  8-H ) :   0.9566
B(  0-C ,  9-H ) :   0.9531 B(  1-C ,  2-C ) :   1.0495 B(  1-C ,  5-C ) :   1.0101
B(  1-C , 10-H ) :   0.8796 B(  2-C ,  3-C ) :   1.0927 B(  2-C , 11-H ) :   0.9331
B(  2-C , 12-H ) :   0.9321 B(  3-C ,  4-C ) :   1.1059 B(  3-C , 13-H ) :   0.9350
B(  3-C , 14-H ) :   0.9279 B(  4-C ,  5-C ) :   1.0477 B(  4-C , 15-H ) :   0.9081
B(  4-C , 16-H ) :   0.9168 B(  5-C ,  6-C ) :   2.0312 B(  6-C , 17-H ) :   0.9300
B(  6-C , 18-H ) :   0.9271

FINAL SINGLE POINT ENERGY      -273.369199246285

DIPOLE MOMENT
-------------
                                X             Y             Z
Electronic contribution:      1.43763      -1.21631       0.07301
Nuclear contribution   :     -1.35455       1.42233      -0.06338
                        -----------------------------------------
Total Dipole Moment    :      0.08308       0.20602       0.00963
                        -----------------------------------------
Magnitude (a.u.)       :      0.22235
Magnitude (Debye)      :      0.56518

                             ****ORCA TERMINATED NORMALLY****
TOTAL RUN TIME: 0 days 0 hours 0 minutes 8 seconds 104 msec
