                         Program Version 3.0.3 - RELEASE   -
|  1> ! RI PBE def2-SVP def2-SVP/J NBO PAL2
|  2> % maxcore 2000
|  3> % output
|  4>     # printlevel mini
|  5>     print[ P_Basis ] 0
|  6>     print[ P_SCFInfo ] 1
|  7>     print[ P_SCFIterInfo ] 1
|  8>     print[ P_OrbEn ] 0
|  9>     print[ P_Cartesian ] 0
| 10> end
| 11> *xyz 0 1
| 12>  C        1.0411170000     0.0802060000     0.1148830000
| 13>  C        2.5381980000     0.1050260000     0.0185250000
| 14>  C        3.2381660000     1.3062270000    -0.0180420000
| 15>  C        4.6233040000     1.3245270000    -0.1072830000
| 16>  C        5.3330220000     0.1354100000    -0.1615820000
| 17>  C        4.6469360000    -1.0707890000    -0.1259380000
| 18>  C        3.2642170000    -1.0830540000    -0.0368080000
| 19>  H        0.6292510000     1.0896280000     0.1492810000
| 20>  H        0.7121670000    -0.4475650000     1.0138820000
| 21>  H        0.5989100000    -0.4339040000    -0.7424990000
| 22>  H        2.6900070000     2.2420850000     0.0240300000
| 23>  H        5.1489850000     2.2726790000    -0.1344100000
| 24>  H        6.4147640000     0.1470200000    -0.2312900000
| 25>  H        5.1926720000    -2.0070410000    -0.1678360000
| 26>  H        2.7363620000    -2.0314460000    -0.0095230000
| 27> *
| 28>
| 29>                          ****END OF INPUT****
 Total Charge           Charge          ....    0
 Multiplicity           Mult            ....    1
 Number of Electrons    NEL             ....   50
 Basis Dimension        Dim             ....  138

MULLIKEN ATOMIC CHARGES
-----------------------
   0 C :    0.059937
   1 C :   -0.058569
   2 C :   -0.007257
   3 C :    0.022574
   4 C :    0.006058
   5 C :    0.022938
   6 C :   -0.010367
   7 H :    0.011697
   8 H :    0.035130
   9 H :    0.035972
  10 H :   -0.031956
  11 H :   -0.020983
  12 H :   -0.012193
  13 H :   -0.019666
  14 H :   -0.033315
Sum of atomic charges:   -0.0000000

LOEWDIN ATOMIC CHARGES
----------------------
   0 C :   -0.055108
   1 C :   -0.029228
   2 C :   -0.033441
   3 C :   -0.026457
   4 C :   -0.036857
   5 C :   -0.025962
   6 C :   -0.030837
   7 H :    0.029908
   8 H :    0.038518
   9 H :    0.038658
  10 H :    0.024269
  11 H :    0.027115
  12 H :    0.027702
  13 H :    0.027159
  14 H :    0.024559

  Mayer bond orders larger than 0.1
B(  0-C ,  1-C ) :   1.0721 B(  0-C ,  7-H ) :   0.9540 B(  0-C ,  8-H ) :   0.9496
B(  0-C ,  9-H ) :   0.9497 B(  1-C ,  2-C ) :   1.3941 B(  1-C ,  6-C ) :   1.3798
B(  2-C ,  3-C ) :   1.3735 B(  2-C , 10-H ) :   0.9814 B(  3-C ,  4-C ) :   1.3847
B(  3-C , 11-H ) :   0.9815 B(  4-C ,  5-C ) :   1.3686 B(  4-C , 12-H ) :   0.9864
B(  5-C ,  6-C ) :   1.3887 B(  5-C , 13-H ) :   0.9825 B(  6-C , 14-H ) :   0.9883

FINAL SINGLE POINT ENERGY      -271.003733714830

DIPOLE MOMENT
-------------
                                X             Y             Z
Electronic contribution:      3.33427       0.04249      -0.21655
Nuclear contribution   :     -3.49984      -0.06851       0.22520
                        -----------------------------------------
Total Dipole Moment    :     -0.16557      -0.02602       0.00864
                        -----------------------------------------
Magnitude (a.u.)       :      0.16782
Magnitude (Debye)      :      0.42657

                             ****ORCA TERMINATED NORMALLY****
TOTAL RUN TIME: 0 days 0 hours 0 minutes 7 seconds 54 msec
