                         Program Version 3.0.3 - RELEASE   -
|  1> ! RI PBE def2-SVP def2-SVP/J NBO PAL2
|  2> % maxcore 2000
|  3> % output
|  4>     # printlevel mini
|  5>     print[ P_Basis ] 0
|  6>     print[ P_SCFInfo ] 1
|  7>     print[ P_SCFIterInfo ] 1
|  8>     print[ P_OrbEn ] 0
|  9>     print[ P_Cartesian ] 0
| 10> end
| 11> *xyz 0 1
| 12>  C        0.9737280000    -0.0108320000     0.1316310000
| 13>  C        2.3021540000    -0.0313360000     0.1103050000
| 14>  C        3.0963280000    -1.3040060000     0.0997100000
| 15>  C        4.0706610000    -1.3379440000    -1.0789170000
| 16>  C        4.9485510000    -0.0945340000    -1.1064540000
| 17>  C        4.1086790000     1.1750020000    -1.1267520000
| 18>  C        3.1344430000     1.2154110000     0.0517520000
| 19>  H        0.3935200000    -0.9273350000     0.1611790000
| 20>  H        0.4215180000     0.9232570000     0.1259530000
| 21>  H        2.4296540000    -2.1697460000     0.0799020000
| 22>  H        3.6762790000    -1.3663530000     1.0311770000
| 23>  H        3.4983770000    -1.3980140000    -2.0120790000
| 24>  H        4.6866370000    -2.2407690000    -1.0275780000
| 25>  H        5.6150010000    -0.1211280000    -1.9738430000
| 26>  H        5.5933260000    -0.0873810000    -0.2182290000
| 27>  H        3.5379360000     1.2168010000    -2.0618530000
| 28>  H        4.7517040000     2.0600860000    -1.1094450000
| 29>  H        2.4942430000     2.0995350000    -0.0013650000
| 30>  H        3.7165510000     1.2955880000     0.9805070000
| 31> *
| 32>
| 33>                          ****END OF INPUT****
 Total Charge           Charge          ....    0
 Multiplicity           Mult            ....    1
 Number of Electrons    NEL             ....   54
 Basis Dimension        Dim             ....  158

MULLIKEN ATOMIC CHARGES
-----------------------
   0 C :   -0.033850
   1 C :   -0.213296
   2 C :    0.111145
   3 C :   -0.000571
   4 C :   -0.021893
   5 C :   -0.002976
   6 C :    0.114014
   7 H :    0.002747
   8 H :    0.002947
   9 H :   -0.004925
  10 H :    0.006292
  11 H :    0.003425
  12 H :    0.007258
  13 H :    0.013397
  14 H :    0.004167
  15 H :    0.003035
  16 H :    0.008300
  17 H :   -0.005728
  18 H :    0.006512
Sum of atomic charges:   -0.0000000

LOEWDIN ATOMIC CHARGES
----------------------
   0 C :   -0.080464
   1 C :   -0.029682
   2 C :   -0.032304
   3 C :   -0.036907
   4 C :   -0.044701
   5 C :   -0.037238
   6 C :   -0.031982
   7 H :    0.018312
   8 H :    0.018335
   9 H :    0.026981
  10 H :    0.030431
  11 H :    0.023142
  12 H :    0.024276
  13 H :    0.026234
  14 H :    0.020696
  15 H :    0.023062
  16 H :    0.024467
  17 H :    0.026846
  18 H :    0.030497

  Mayer bond orders larger than 0.1
B(  0-C ,  1-C ) :   2.0055 B(  0-C ,  7-H ) :   0.9297 B(  0-C ,  8-H ) :   0.9299
B(  1-C ,  2-C ) :   1.0588 B(  1-C ,  6-C ) :   1.0585 B(  2-C ,  3-C ) :   1.0877
B(  2-C ,  9-H ) :   0.9136 B(  2-C , 10-H ) :   0.9022 B(  3-C ,  4-C ) :   1.0998
B(  3-C , 11-H ) :   0.9260 B(  3-C , 12-H ) :   0.9285 B(  4-C ,  5-C ) :   1.0995
B(  4-C , 13-H ) :   0.9303 B(  4-C , 14-H ) :   0.9322 B(  5-C ,  6-C ) :   1.0877
B(  5-C , 15-H ) :   0.9259 B(  5-C , 16-H ) :   0.9286 B(  6-C , 17-H ) :   0.9137
B(  6-C , 18-H ) :   0.9021

FINAL SINGLE POINT ENERGY      -273.376645990431

DIPOLE MOMENT
-------------
                                X             Y             Z
Electronic contribution:     -1.38962       0.03583       0.79343
Nuclear contribution   :      1.65075      -0.04093      -0.83834
                        -----------------------------------------
Total Dipole Moment    :      0.26113      -0.00511      -0.04491
                        -----------------------------------------
Magnitude (a.u.)       :      0.26501
Magnitude (Debye)      :      0.67360

                             ****ORCA TERMINATED NORMALLY****
TOTAL RUN TIME: 0 days 0 hours 0 minutes 8 seconds 590 msec
