                         Program Version 3.0.3 - RELEASE   -
|  1> ! RI PBE def2-SVP def2-SVP/J NBO PAL2
|  2> % maxcore 2000
|  3> % output
|  4>     # printlevel mini
|  5>     print[ P_Basis ] 0
|  6>     print[ P_SCFInfo ] 1
|  7>     print[ P_SCFIterInfo ] 1
|  8>     print[ P_OrbEn ] 0
|  9>     print[ P_Cartesian ] 0
| 10> end
| 11> *xyz 0 1
| 12>  C        0.8535450000     0.0439070000    -0.1657370000
| 13>  C        2.1693080000     0.0497260000     0.0957620000
| 14>  C        2.9225460000     1.2886020000     0.2451820000
| 15>  C        4.2301900000     1.3034070000     0.5051300000
| 16>  C        5.0394170000     0.0624190000     0.6663380000
| 17>  C        4.2406730000    -1.1856810000     0.5077690000
| 18>  C        2.9329530000    -1.1824420000     0.2478020000
| 19>  H        0.2973110000     0.9674530000    -0.2764920000
| 20>  H        0.3051110000    -0.8845240000    -0.2745280000
| 21>  H        2.3774200000     2.2213340000     0.1365670000
| 22>  H        4.7490640000     2.2516780000     0.6080280000
| 23>  H        5.5353850000     0.0655490000     1.6486640000
| 24>  H        5.8735270000     0.0651710000    -0.0514390000
| 25>  H        4.7675160000    -2.1293270000     0.6126730000
| 26>  H        2.3957040000    -2.1199600000     0.1411700000
| 27> *
| 28>
| 29>                          ****END OF INPUT****
 Total Charge           Charge          ....    0
 Multiplicity           Mult            ....    1
 Number of Electrons    NEL             ....   50
 Basis Dimension        Dim             ....  138

MULLIKEN ATOMIC CHARGES
-----------------------
   0 C :   -0.053485
   1 C :    0.001078
   2 C :    0.041896
   3 C :   -0.112636
   4 C :    0.168106
   5 C :   -0.112363
   6 C :    0.041675
   7 H :    0.009783
   8 H :    0.009762
   9 H :   -0.030524
  10 H :   -0.005124
  11 H :    0.035841
  12 H :    0.041550
  13 H :   -0.005000
  14 H :   -0.030560
Sum of atomic charges:    0.0000000

LOEWDIN ATOMIC CHARGES
----------------------
   0 C :   -0.062080
   1 C :   -0.038938
   2 C :   -0.026870
   3 C :   -0.024399
   4 C :   -0.043629
   5 C :   -0.024387
   6 C :   -0.026887
   7 H :    0.020711
   8 H :    0.020704
   9 H :    0.028518
  10 H :    0.025986
  11 H :    0.047849
  12 H :    0.048902
  13 H :    0.026017
  14 H :    0.028503

  Mayer bond orders larger than 0.1
B(  0-C ,  1-C ) :   1.8175 B(  0-C ,  3-C ) :   0.1124 B(  0-C ,  5-C ) :   0.1124
B(  0-C ,  7-H ) :   0.9354 B(  0-C ,  8-H ) :   0.9355 B(  1-C ,  2-C ) :   1.0733
B(  1-C ,  6-C ) :   1.0733 B(  2-C ,  3-C ) :   1.7870 B(  2-C ,  9-H ) :   0.9788
B(  3-C ,  4-C ) :   1.0340 B(  3-C , 10-H ) :   0.9608 B(  4-C ,  5-C ) :   1.0338
B(  4-C , 11-H ) :   0.8834 B(  4-C , 12-H ) :   0.8851 B(  5-C ,  6-C ) :   1.7869
B(  5-C , 13-H ) :   0.9608 B(  6-C , 14-H ) :   0.9788

FINAL SINGLE POINT ENERGY      -270.955186786911

DIPOLE MOMENT
-------------
                                X             Y             Z
Electronic contribution:     -0.21169      -0.00094      -0.04570
Nuclear contribution   :      0.61126       0.00270       0.12163
                        -----------------------------------------
Total Dipole Moment    :      0.39957       0.00177       0.07593
                        -----------------------------------------
Magnitude (a.u.)       :      0.40673
Magnitude (Debye)      :      1.03381

                             ****ORCA TERMINATED NORMALLY****
TOTAL RUN TIME: 0 days 0 hours 0 minutes 7 seconds 90 msec
