                         Program Version 3.0.3 - RELEASE   -
|  1> ! RI PBE def2-SVP def2-SVP/J NBO PAL2
|  2> % maxcore 2000
|  3> % output
|  4>     # printlevel mini
|  5>     print[ P_Basis ] 0
|  6>     print[ P_SCFInfo ] 1
|  7>     print[ P_SCFIterInfo ] 1
|  8>     print[ P_OrbEn ] 0
|  9>     print[ P_Cartesian ] 0
| 10> end
| 11> *xyz 0 1
| 12>  C        0.8107870000     0.0172570000     0.0057460000
| 13>  C        2.1488690000     0.0584370000     0.0074530000
| 14>  C        2.9032010000     1.3733250000    -0.0024360000
| 15>  C        4.3934670000     1.2583410000     0.0015370000
| 16>  C        5.0205910000     0.0819230000     0.0125040000
| 17>  C        4.2699020000    -1.1619290000     0.0213030000
| 18>  C        2.9282680000    -1.1659830000     0.0188840000
| 19>  H        0.2093920000     0.9196130000    -0.0026650000
| 20>  H        0.2822770000    -0.9290770000     0.0127780000
| 21>  H        2.5952510000     1.9779500000     0.8598640000
| 22>  H        2.5987950000     1.9628180000    -0.8764060000
| 23>  H        4.9599550000     2.1840720000    -0.0050270000
| 24>  H        6.1040820000     0.0378800000     0.0150040000
| 25>  H        4.8154820000    -2.0989990000     0.0300240000
| 26>  H        2.3806720000    -2.1031170000     0.0256370000
| 27> *
| 28>
| 29>                          ****END OF INPUT****
 Total Charge           Charge          ....    0
 Multiplicity           Mult            ....    1
 Number of Electrons    NEL             ....   50
 Basis Dimension        Dim             ....  138

MULLIKEN ATOMIC CHARGES
-----------------------
   0 C :   -0.045211
   1 C :   -0.115030
   2 C :    0.154139
   3 C :   -0.088982
   4 C :    0.014805
   5 C :   -0.004519
   6 C :    0.044714
   7 H :    0.006173
   8 H :    0.009661
   9 H :    0.043425
  10 H :    0.043220
  11 H :   -0.005841
  12 H :   -0.010886
  13 H :   -0.016671
  14 H :   -0.028997
Sum of atomic charges:   -0.0000000

LOEWDIN ATOMIC CHARGES
----------------------
   0 C :   -0.068085
   1 C :   -0.031099
   2 C :   -0.036625
   3 C :   -0.013912
   4 C :   -0.052656
   5 C :   -0.034616
   6 C :   -0.017440
   7 H :    0.019015
   8 H :    0.021061
   9 H :    0.051572
  10 H :    0.051539
  11 H :    0.026065
  12 H :    0.029016
  13 H :    0.027613
  14 H :    0.028554

  Mayer bond orders larger than 0.1
B(  0-C ,  1-C ) :   1.8811 B(  0-C ,  5-C ) :   0.1314 B(  0-C ,  7-H ) :   0.9395
B(  0-C ,  8-H ) :   0.9350 B(  1-C ,  2-C ) :   1.0161 B(  1-C ,  6-C ) :   1.1316
B(  2-C ,  3-C ) :   1.0302 B(  2-C ,  9-H ) :   0.8912 B(  2-C , 10-H ) :   0.8912
B(  3-C ,  4-C ) :   1.7881 B(  3-C , 11-H ) :   0.9645 B(  4-C ,  5-C ) :   1.0769
B(  4-C , 12-H ) :   0.9818 B(  5-C ,  6-C ) :   1.6565 B(  5-C , 13-H ) :   0.9722
B(  6-C , 14-H ) :   0.9768

FINAL SINGLE POINT ENERGY      -270.949310591042

DIPOLE MOMENT
-------------
                                X             Y             Z
Electronic contribution:      1.58944      -1.01196       0.01150
Nuclear contribution   :     -1.48948       1.21892      -0.01290
                        -----------------------------------------
Total Dipole Moment    :      0.09997       0.20696      -0.00140
                        -----------------------------------------
Magnitude (a.u.)       :      0.22984
Magnitude (Debye)      :      0.58421

                             ****ORCA TERMINATED NORMALLY****
TOTAL RUN TIME: 0 days 0 hours 0 minutes 7 seconds 352 msec
