                         Program Version 3.0.3 - RELEASE   -
|  1> ! RI PBE def2-SVP def2-SVP/J NBO PAL2
|  2> % maxcore 2000
|  3> % output
|  4>     # printlevel mini
|  5>     print[ P_Basis ] 0
|  6>     print[ P_SCFInfo ] 1
|  7>     print[ P_SCFIterInfo ] 1
|  8>     print[ P_OrbEn ] 0
|  9>     print[ P_Cartesian ] 0
| 10> end
| 11> *xyz 0 1
| 12>  C        0.9778980000     0.1232540000    -0.3180570000
| 13>  C        2.2664090000     0.1056860000     0.0266330000
| 14>  C        3.1319560000    -1.1150810000     0.2525190000
| 15>  C        4.4889960000    -0.5538180000     0.6184350000
| 16>  C        5.5914560000    -1.2457200000     0.9103830000
| 17>  C        4.3615620000     0.8925890000     0.5910420000
| 18>  C        3.1121310000     1.2633300000     0.2583590000
| 19>  H        0.4165380000    -0.7909230000    -0.4725320000
| 20>  H        0.4487800000     1.0592560000    -0.4552630000
| 21>  H        3.1873690000    -1.7349110000    -0.6463260000
| 22>  H        2.7324070000    -1.7430810000     1.0532380000
| 23>  H        5.6016980000    -2.3295090000     0.9081070000
| 24>  H        6.5177820000    -0.7415930000     1.1607140000
| 25>  H        5.1813250000     1.5648020000     0.8135840000
| 26>  H        2.7591830000     2.2835190000     0.1686460000
| 27> *
| 28>
| 29>                          ****END OF INPUT****
 Total Charge           Charge          ....    0
 Multiplicity           Mult            ....    1
 Number of Electrons    NEL             ....   50
 Basis Dimension        Dim             ....  138

MULLIKEN ATOMIC CHARGES
-----------------------
   0 C :   -0.048472
   1 C :   -0.126966
   2 C :    0.198164
   3 C :   -0.126539
   4 C :   -0.049469
   5 C :    0.038145
   6 C :    0.035522
   7 H :    0.009726
   8 H :    0.009756
   9 H :    0.042824
  10 H :    0.043733
  11 H :    0.009425
  12 H :    0.008398
  13 H :   -0.022169
  14 H :   -0.022078
Sum of atomic charges:   -0.0000000

LOEWDIN ATOMIC CHARGES
----------------------
   0 C :   -0.069980
   1 C :   -0.030774
   2 C :   -0.021521
   3 C :   -0.030686
   4 C :   -0.070409
   5 C :   -0.011670
   6 C :   -0.012065
   7 H :    0.023337
   8 H :    0.023792
   9 H :    0.049285
  10 H :    0.049377
  11 H :    0.023170
  12 H :    0.023762
  13 H :    0.027314
  14 H :    0.027070

  Mayer bond orders larger than 0.1
B(  0-C ,  1-C ) :   1.8972 B(  0-C ,  5-C ) :   0.1199 B(  0-C ,  7-H ) :   0.9323
B(  0-C ,  8-H ) :   0.9291 B(  1-C ,  2-C ) :   1.0090 B(  1-C ,  6-C ) :   1.1146
B(  2-C ,  3-C ) :   1.0081 B(  2-C ,  9-H ) :   0.8938 B(  2-C , 10-H ) :   0.8943
B(  3-C ,  4-C ) :   1.8932 B(  3-C ,  5-C ) :   1.1166 B(  4-C ,  6-C ) :   0.1204
B(  4-C , 11-H ) :   0.9348 B(  4-C , 12-H ) :   0.9284 B(  5-C ,  6-C ) :   1.5776
B(  5-C , 13-H ) :   0.9931 B(  6-C , 14-H ) :   0.9960

FINAL SINGLE POINT ENERGY      -270.948463491786

DIPOLE MOMENT
-------------
                                X             Y             Z
Electronic contribution:      0.42827       1.55426       0.12239
Nuclear contribution   :     -0.43142      -1.56404      -0.12270
                        -----------------------------------------
Total Dipole Moment    :     -0.00315      -0.00978      -0.00031
                        -----------------------------------------
Magnitude (a.u.)       :      0.01028
Magnitude (Debye)      :      0.02613

                             ****ORCA TERMINATED NORMALLY****
TOTAL RUN TIME: 0 days 0 hours 0 minutes 7 seconds 43 msec
