                         Program Version 3.0.3 - RELEASE   -
|  1> ! RI PBE def2-SVP def2-SVP/J NBO PAL2
|  2> % maxcore 2000
|  3> % output
|  4>     # printlevel mini
|  5>     print[ P_Basis ] 0
|  6>     print[ P_SCFInfo ] 1
|  7>     print[ P_SCFIterInfo ] 1
|  8>     print[ P_OrbEn ] 0
|  9>     print[ P_Cartesian ] 0
| 10> end
| 11> *xyz 0 1
| 12>  C        1.0143000000     0.1071560000     0.4927720000
| 13>  C        2.1897970000     0.0477630000    -0.1220550000
| 14>  C        2.9351390000     1.2620790000    -0.5816900000
| 15>  C        4.3093880000     1.3391130000     0.0846420000
| 16>  C        5.0061020000     0.0148150000     0.0710840000
| 17>  C        4.3819270000    -1.1357650000    -0.1558980000
| 18>  C        2.9041440000    -1.2453200000    -0.3872380000
| 19>  H        0.5171680000     1.0554010000     0.6684130000
| 20>  H        0.5068810000    -0.7879740000     0.8370420000
| 21>  H        2.3565400000     2.1675750000    -0.3863160000
| 22>  H        3.0839330000     1.1956360000    -1.6670850000
| 23>  H        4.2040060000     1.6878790000     1.1199690000
| 24>  H        4.9276350000     2.0884030000    -0.4209470000
| 25>  H        6.0766280000     0.0111960000     0.2566860000
| 26>  H        4.9506440000    -2.0613360000    -0.1706780000
| 27>  H        2.4842720000    -2.0428740000     0.2338650000
| 28>  H        2.7285870000    -1.5567370000    -1.4280540000
| 29> *
| 30>
| 31>                          ****END OF INPUT****
 Total Charge           Charge          ....    0
 Multiplicity           Mult            ....    1
 Number of Electrons    NEL             ....   52
 Basis Dimension        Dim             ....  148

MULLIKEN ATOMIC CHARGES
-----------------------
   0 C :   -0.037112
   1 C :   -0.201868
   2 C :    0.066450
   3 C :    0.062672
   4 C :   -0.072345
   5 C :   -0.103056
   6 C :    0.186703
   7 H :    0.004364
   8 H :    0.003457
   9 H :   -0.002971
  10 H :    0.025246
  11 H :    0.025165
  12 H :    0.013201
  13 H :   -0.003796
  14 H :   -0.007026
  15 H :    0.011917
  16 H :    0.028998
Sum of atomic charges:   -0.0000000

LOEWDIN ATOMIC CHARGES
----------------------
   0 C :   -0.077776
   1 C :   -0.025917
   2 C :   -0.030206
   3 C :   -0.039497
   4 C :   -0.047706
   5 C :   -0.044590
   6 C :   -0.035115
   7 H :    0.019249
   8 H :    0.018965
   9 H :    0.027405
  10 H :    0.035480
  11 H :    0.036277
  12 H :    0.032215
  13 H :    0.025285
  14 H :    0.023997
  15 H :    0.037432
  16 H :    0.044503

  Mayer bond orders larger than 0.1
B(  0-C ,  1-C ) :   2.0152 B(  0-C ,  7-H ) :   0.9289 B(  0-C ,  8-H ) :   0.9303
B(  1-C ,  2-C ) :   1.0583 B(  1-C ,  6-C ) :   1.0341 B(  2-C ,  3-C ) :   1.0906
B(  2-C ,  9-H ) :   0.9163 B(  2-C , 10-H ) :   0.9144 B(  3-C ,  4-C ) :   1.0452
B(  3-C , 11-H ) :   0.9069 B(  3-C , 12-H ) :   0.9138 B(  4-C ,  5-C ) :   1.9345
B(  4-C , 13-H ) :   0.9572 B(  5-C ,  6-C ) :   1.0258 B(  5-C , 14-H ) :   0.9565
B(  6-C , 15-H ) :   0.9054 B(  6-C , 16-H ) :   0.8854

FINAL SINGLE POINT ENERGY      -272.156276239616

DIPOLE MOMENT
-------------
                                X             Y             Z
Electronic contribution:      0.67095      -0.97246      -0.00892
Nuclear contribution   :     -0.54500       1.00550      -0.08568
                        -----------------------------------------
Total Dipole Moment    :      0.12595       0.03304      -0.09459
                        -----------------------------------------
Magnitude (a.u.)       :      0.16095
Magnitude (Debye)      :      0.40909

                             ****ORCA TERMINATED NORMALLY****
TOTAL RUN TIME: 0 days 0 hours 0 minutes 7 seconds 843 msec
