                         Program Version 3.0.3 - RELEASE   -
|  1> ! RI PBE def2-SVP def2-SVP/J NBO PAL2
|  2> % maxcore 2000
|  3> % output
|  4>     # printlevel mini
|  5>     print[ P_Basis ] 0
|  6>     print[ P_SCFInfo ] 1
|  7>     print[ P_SCFIterInfo ] 1
|  8>     print[ P_OrbEn ] 0
|  9>     print[ P_Cartesian ] 0
| 10> end
| 11> *xyz 0 1
| 12>  C        1.1351970000    -0.0409140000     0.1757160000
| 13>  C        2.4536060000    -0.0466500000     0.0384560000
| 14>  C        3.3531900000     1.1604960000     0.0675790000
| 15>  C        4.4983670000     0.7762430000    -0.8721820000
| 16>  C        4.6581540000    -0.7038090000    -0.6458500000
| 17>  C        5.7894760000    -1.3890190000    -0.7334520000
| 18>  C        3.3123450000    -1.2599270000    -0.2386530000
| 19>  H        0.5890980000     0.8796300000     0.3507100000
| 20>  H        0.5541030000    -0.9554740000     0.1221990000
| 21>  H        3.7478350000     1.2941510000     1.0826620000
| 22>  H        2.8370990000     2.0808100000    -0.2097500000
| 23>  H        5.4211570000     1.3331720000    -0.7032740000
| 24>  H        4.1891800000     0.9530010000    -1.9100460000
| 25>  H        6.7212360000    -0.9085980000    -1.0114200000
| 26>  H        5.8253530000    -2.4549120000    -0.5346090000
| 27>  H        3.4019380000    -1.8994590000     0.6451410000
| 28>  H        2.8765670000    -1.8780510000    -1.0299390000
| 29> *
| 30>
| 31>                          ****END OF INPUT****
 Total Charge           Charge          ....    0
 Multiplicity           Mult            ....    1
 Number of Electrons    NEL             ....   52
 Basis Dimension        Dim             ....  148

MULLIKEN ATOMIC CHARGES
-----------------------
   0 C :   -0.045076
   1 C :   -0.234229
   2 C :    0.092609
   3 C :    0.079732
   4 C :   -0.225462
   5 C :   -0.049933
   6 C :    0.213765
   7 H :    0.006211
   8 H :    0.005607
   9 H :    0.031765
  10 H :    0.003150
  11 H :    0.004838
  12 H :    0.033494
  13 H :    0.006036
  14 H :    0.004606
  15 H :    0.036141
  16 H :    0.036745
Sum of atomic charges:   -0.0000000

LOEWDIN ATOMIC CHARGES
----------------------
   0 C :   -0.081407
   1 C :   -0.029711
   2 C :   -0.029935
   3 C :   -0.030851
   4 C :   -0.028444
   5 C :   -0.082253
   6 C :   -0.031304
   7 H :    0.021613
   8 H :    0.021504
   9 H :    0.037985
  10 H :    0.028651
  11 H :    0.028871
  12 H :    0.038218
  13 H :    0.021533
  14 H :    0.021302
  15 H :    0.047081
  16 H :    0.047146

  Mayer bond orders larger than 0.1
B(  0-C ,  1-C ) :   2.0247 B(  0-C ,  7-H ) :   0.9284 B(  0-C ,  8-H ) :   0.9315
B(  1-C ,  2-C ) :   1.0608 B(  1-C ,  6-C ) :   1.0089 B(  2-C ,  3-C ) :   1.0637
B(  2-C ,  9-H ) :   0.9126 B(  2-C , 10-H ) :   0.9208 B(  3-C ,  4-C ) :   1.0630
B(  3-C , 11-H ) :   0.9214 B(  3-C , 12-H ) :   0.9141 B(  4-C ,  5-C ) :   2.0198
B(  4-C ,  6-C ) :   1.0077 B(  5-C , 13-H ) :   0.9297 B(  5-C , 14-H ) :   0.9326
B(  6-C , 15-H ) :   0.8957 B(  6-C , 16-H ) :   0.8973

FINAL SINGLE POINT ENERGY      -272.148158692539

DIPOLE MOMENT
-------------
                                X             Y             Z
Electronic contribution:     -0.11177      -0.40909       0.03224
Nuclear contribution   :      0.13662       0.49614      -0.03643
                        -----------------------------------------
Total Dipole Moment    :      0.02485       0.08705      -0.00420
                        -----------------------------------------
Magnitude (a.u.)       :      0.09062
Magnitude (Debye)      :      0.23035

                             ****ORCA TERMINATED NORMALLY****
TOTAL RUN TIME: 0 days 0 hours 0 minutes 7 seconds 369 msec
