                         Program Version 3.0.3 - RELEASE   -
|  1> ! RI PBE def2-SVP def2-SVP/J NBO PAL2
|  2> % maxcore 2000
|  3> % output
|  4>     # printlevel mini
|  5>     print[ P_Basis ] 0
|  6>     print[ P_SCFInfo ] 1
|  7>     print[ P_SCFIterInfo ] 1
|  8>     print[ P_OrbEn ] 0
|  9>     print[ P_Cartesian ] 0
| 10> end
| 11> *xyz 0 1
| 12>  C        0.8500430000    -0.0918630000     0.2796210000
| 13>  C        2.1664170000    -0.0607700000     0.0574330000
| 14>  C        2.9043400000     1.2031700000    -0.2883720000
| 15>  C        4.2960710000     1.2212240000     0.3315510000
| 16>  C        5.1030690000     0.0075850000    -0.1089610000
| 17>  C        4.3089430000    -1.2543190000     0.0031690000
| 18>  C        2.9768720000    -1.2702540000     0.1065470000
| 19>  H        0.2471020000     0.8087980000     0.2483850000
| 20>  H        0.3388930000    -1.0238590000     0.4957260000
| 21>  H        2.3228250000     2.0753610000     0.0196590000
| 22>  H        3.0035680000     1.2575740000    -1.3806290000
| 23>  H        4.2012020000     1.2100110000     1.4226240000
| 24>  H        4.8187920000     2.1439390000     0.0657750000
| 25>  H        6.0169950000    -0.0791970000     0.4879100000
| 26>  H        5.4426350000     0.1337970000    -1.1467530000
| 27>  H        4.8548870000    -2.1933590000     0.0127430000
| 28>  H        2.4540660000    -2.2150380000     0.2254830000
| 29> *
| 30>
| 31>                          ****END OF INPUT****
 Total Charge           Charge          ....    0
 Multiplicity           Mult            ....    1
 Number of Electrons    NEL             ....   52
 Basis Dimension        Dim             ....  148

MULLIKEN ATOMIC CHARGES
-----------------------
   0 C :   -0.042234
   1 C :   -0.107823
   2 C :    0.084205
   3 C :   -0.034034
   4 C :    0.073214
   5 C :   -0.094671
   6 C :    0.045120
   7 H :    0.007164
   8 H :    0.006175
   9 H :    0.000296
  10 H :    0.026537
  11 H :    0.027256
  12 H :    0.002829
  13 H :    0.018479
  14 H :    0.021731
  15 H :   -0.007565
  16 H :   -0.026679
Sum of atomic charges:   -0.0000000

LOEWDIN ATOMIC CHARGES
----------------------
   0 C :   -0.065187
   1 C :   -0.032779
   2 C :   -0.031658
   3 C :   -0.037549
   4 C :   -0.044337
   5 C :   -0.029622
   6 C :   -0.040058
   7 H :    0.019805
   8 H :    0.020201
   9 H :    0.028908
  10 H :    0.036912
  11 H :    0.028934
  12 H :    0.024731
  13 H :    0.034072
  14 H :    0.036365
  15 H :    0.024217
  16 H :    0.027045

  Mayer bond orders larger than 0.1
B(  0-C ,  1-C ) :   1.9044 B(  0-C ,  5-C ) :   0.1325 B(  0-C ,  7-H ) :   0.9317
B(  0-C ,  8-H ) :   0.9317 B(  1-C ,  2-C ) :   1.0541 B(  1-C ,  6-C ) :   1.0993
B(  2-C ,  3-C ) :   1.0798 B(  2-C ,  9-H ) :   0.9140 B(  2-C , 10-H ) :   0.9107
B(  3-C ,  4-C ) :   1.1001 B(  3-C , 11-H ) :   0.9405 B(  3-C , 12-H ) :   0.9246
B(  4-C ,  5-C ) :   1.0492 B(  4-C , 13-H ) :   0.9187 B(  4-C , 14-H ) :   0.9024
B(  5-C ,  6-C ) :   1.7941 B(  5-C , 15-H ) :   0.9552 B(  6-C , 16-H ) :   0.9637

FINAL SINGLE POINT ENERGY      -272.164737620399

DIPOLE MOMENT
-------------
                                X             Y             Z
Electronic contribution:     -0.89227      -1.95341       0.01864
Nuclear contribution   :      1.17872       2.06784      -0.07820
                        -----------------------------------------
Total Dipole Moment    :      0.28645       0.11443      -0.05956
                        -----------------------------------------
Magnitude (a.u.)       :      0.31416
Magnitude (Debye)      :      0.79853

                             ****ORCA TERMINATED NORMALLY****
TOTAL RUN TIME: 0 days 0 hours 0 minutes 7 seconds 977 msec
