                         Program Version 3.0.3 - RELEASE   -
|  1> ! RI PBE def2-SVP def2-SVP/J NBO PAL2
|  2> % maxcore 2000
|  3> % output
|  4>     # printlevel mini
|  5>     print[ P_Basis ] 0
|  6>     print[ P_SCFInfo ] 1
|  7>     print[ P_SCFIterInfo ] 1
|  8>     print[ P_OrbEn ] 0
|  9>     print[ P_Cartesian ] 0
| 10> end
| 11> *xyz 0 1
| 12>  C        0.9197410000     0.0705070000    -0.0803010000
| 13>  C        2.4136020000     0.1031860000    -0.0362750000
| 14>  C        3.0971910000     1.2403320000     0.0853880000
| 15>  C        4.5918360000     1.3324350000     0.0939190000
| 16>  C        5.2494630000     0.0457760000    -0.3849860000
| 17>  C        4.5776970000    -1.1627480000     0.2470770000
| 18>  C        3.1073510000    -1.2258790000    -0.1409990000
| 19>  H        0.4918830000     1.0731940000    -0.0312450000
| 20>  H        0.5141460000    -0.5177910000     0.7502140000
| 21>  H        0.5659770000    -0.4072520000    -1.0009540000
| 22>  H        2.5455720000     2.1733740000     0.1801360000
| 23>  H        4.9378570000     1.5758100000     1.1082260000
| 24>  H        4.9094480000     2.1749170000    -0.5304270000
| 25>  H        6.3193110000     0.0588230000    -0.1586390000
| 26>  H        5.1572180000    -0.0230990000    -1.4752660000
| 27>  H        4.6602070000    -1.0882060000     1.3377680000
| 28>  H        5.0848990000    -2.0869340000    -0.0441520000
| 29>  H        2.5809390000    -1.9549330000     0.4866000000
| 30>  H        3.0024410000    -1.6008120000    -1.1689750000
| 31> *
| 32>
| 33>                          ****END OF INPUT****
 Total Charge           Charge          ....    0
 Multiplicity           Mult            ....    1
 Number of Electrons    NEL             ....   54
 Basis Dimension        Dim             ....  158

MULLIKEN ATOMIC CHARGES
-----------------------
   0 C :    0.068060
   1 C :   -0.181993
   2 C :   -0.099823
   3 C :    0.077935
   4 C :   -0.031440
   5 C :   -0.007395
   6 C :    0.071889
   7 H :    0.008590
   8 H :    0.023253
   9 H :    0.020679
  10 H :   -0.029626
  11 H :    0.012857
  12 H :    0.008917
  13 H :    0.008580
  14 H :    0.017891
  15 H :    0.013242
  16 H :    0.000622
  17 H :    0.006033
  18 H :    0.011730
Sum of atomic charges:    0.0000000

LOEWDIN ATOMIC CHARGES
----------------------
   0 C :   -0.055337
   1 C :   -0.049166
   2 C :   -0.060440
   3 C :   -0.044063
   4 C :   -0.042647
   5 C :   -0.040169
   6 C :   -0.037938
   7 H :    0.028188
   8 H :    0.032143
   9 H :    0.032399
  10 H :    0.018064
  11 H :    0.030528
  12 H :    0.030595
  13 H :    0.024430
  14 H :    0.025101
  15 H :    0.024780
  16 H :    0.023226
  17 H :    0.029418
  18 H :    0.030888

  Mayer bond orders larger than 0.1
B(  0-C ,  1-C ) :   1.0962 B(  0-C ,  7-H ) :   0.9519 B(  0-C ,  8-H ) :   0.9429
B(  0-C ,  9-H ) :   0.9470 B(  1-C ,  2-C ) :   1.8990 B(  1-C ,  6-C ) :   1.0377
B(  2-C ,  3-C ) :   1.0399 B(  2-C , 10-H ) :   0.9444 B(  3-C ,  4-C ) :   1.1072
B(  3-C , 11-H ) :   0.9060 B(  3-C , 12-H ) :   0.9162 B(  4-C ,  5-C ) :   1.0915
B(  4-C , 13-H ) :   0.9272 B(  4-C , 14-H ) :   0.9384 B(  5-C ,  6-C ) :   1.1014
B(  5-C , 15-H ) :   0.9369 B(  5-C , 16-H ) :   0.9257 B(  6-C , 17-H ) :   0.9141
B(  6-C , 18-H ) :   0.9036

FINAL SINGLE POINT ENERGY      -273.381202052101

DIPOLE MOMENT
-------------
                                X             Y             Z
Electronic contribution:      0.25374       0.98191       0.13094
Nuclear contribution   :     -0.24527      -1.07838      -0.14445
                        -----------------------------------------
Total Dipole Moment    :      0.00847      -0.09647      -0.01351
                        -----------------------------------------
Magnitude (a.u.)       :      0.09778
Magnitude (Debye)      :      0.24854

                             ****ORCA TERMINATED NORMALLY****
TOTAL RUN TIME: 0 days 0 hours 0 minutes 8 seconds 811 msec
