                         Program Version 3.0.3 - RELEASE   -
|  1> ! RI PBE def2-SVP def2-SVP/J NBO PAL2
|  2> % maxcore 2000
|  3> % output
|  4>     # printlevel mini
|  5>     print[ P_Basis ] 0
|  6>     print[ P_SCFInfo ] 1
|  7>     print[ P_SCFIterInfo ] 1
|  8>     print[ P_OrbEn ] 0
|  9>     print[ P_Cartesian ] 0
| 10> end
| 11> *xyz 0 1
| 12>  C        1.0193120000     0.1439910000    -0.0553870000
| 13>  C        2.5036200000     0.0603640000    -0.1123230000
| 14>  C        3.2707610000    -1.0307140000    -0.2023260000
| 15>  C        2.8468010000    -2.4551830000    -0.2697870000
| 16>  C        4.7332400000    -0.6755140000    -0.1624160000
| 17>  C        4.7464230000     0.8410060000    -0.3870240000
| 18>  C        3.3386830000     1.3079170000     0.0011980000
| 19>  H        0.5402220000    -0.8334340000    -0.1221810000
| 20>  H        0.6309160000     0.7665000000    -0.8688450000
| 21>  H        0.6920170000     0.6157430000     0.8781330000
| 22>  H        1.7624920000    -2.5718270000    -0.2655730000
| 23>  H        3.2491220000    -3.0211320000     0.5781350000
| 24>  H        3.2344890000    -2.9364780000    -1.1742960000
| 25>  H        5.3177410000    -1.2184000000    -0.9129030000
| 26>  H        5.1599650000    -0.9501230000     0.8125410000
| 27>  H        4.9147870000     1.0468450000    -1.4472900000
| 28>  H        5.5354610000     1.3498470000     0.1698280000
| 29>  H        2.9716750000     2.1183330000    -0.6376510000
| 30>  H        3.3024530000     1.6917500000     1.0304730000
| 31> *
| 32>
| 33>                          ****END OF INPUT****
 Total Charge           Charge          ....    0
 Multiplicity           Mult            ....    1
 Number of Electrons    NEL             ....   54
 Basis Dimension        Dim             ....  158

MULLIKEN ATOMIC CHARGES
-----------------------
   0 C :    0.081966
   1 C :   -0.210396
   2 C :   -0.206682
   3 C :    0.076928
   4 C :    0.059564
   5 C :   -0.000492
   6 C :    0.053039
   7 H :    0.006490
   8 H :    0.022693
   9 H :    0.020036
  10 H :    0.007315
  11 H :    0.022019
  12 H :    0.020681
  13 H :    0.005123
  14 H :    0.009311
  15 H :    0.012897
  16 H :    0.002260
  17 H :    0.006565
  18 H :    0.010683
Sum of atomic charges:   -0.0000000

LOEWDIN ATOMIC CHARGES
----------------------
   0 C :   -0.060319
   1 C :   -0.057302
   2 C :   -0.057049
   3 C :   -0.061345
   4 C :   -0.033976
   5 C :   -0.033074
   6 C :   -0.034335
   7 H :    0.027536
   8 H :    0.034622
   9 H :    0.034783
  10 H :    0.027490
  11 H :    0.035233
  12 H :    0.034450
  13 H :    0.022537
  14 H :    0.025358
  15 H :    0.026132
  16 H :    0.021022
  17 H :    0.022448
  18 H :    0.025786

  Mayer bond orders larger than 0.1
B(  0-C ,  1-C ) :   1.1283 B(  0-C ,  7-H ) :   0.9434 B(  0-C ,  8-H ) :   0.9377
B(  0-C ,  9-H ) :   0.9367 B(  1-C ,  2-C ) :   1.8505 B(  1-C ,  6-C ) :   1.0379
B(  2-C ,  3-C ) :   1.1304 B(  2-C ,  4-C ) :   1.0360 B(  3-C , 10-H ) :   0.9430
B(  3-C , 11-H ) :   0.9362 B(  3-C , 12-H ) :   0.9363 B(  4-C ,  5-C ) :   1.1038
B(  4-C , 13-H ) :   0.9254 B(  4-C , 14-H ) :   0.9068 B(  5-C ,  6-C ) :   1.1057
B(  5-C , 15-H ) :   0.9397 B(  5-C , 16-H ) :   0.9334 B(  6-C , 17-H ) :   0.9278
B(  6-C , 18-H ) :   0.9058

FINAL SINGLE POINT ENERGY      -273.380398281664

DIPOLE MOMENT
-------------
                                X             Y             Z
Electronic contribution:      0.91530       0.65102      -0.03855
Nuclear contribution   :     -0.97563      -0.69118       0.06320
                        -----------------------------------------
Total Dipole Moment    :     -0.06032      -0.04016       0.02465
                        -----------------------------------------
Magnitude (a.u.)       :      0.07655
Magnitude (Debye)      :      0.19457

                             ****ORCA TERMINATED NORMALLY****
TOTAL RUN TIME: 0 days 0 hours 0 minutes 8 seconds 95 msec
