                         Program Version 3.0.3 - RELEASE   -
|  1> ! RI PBE def2-SVP def2-SVP/J NBO PAL2
|  2> % maxcore 2000
|  3> % output
|  4>     # printlevel mini
|  5>     print[ P_Basis ] 0
|  6>     print[ P_SCFInfo ] 1
|  7>     print[ P_SCFIterInfo ] 1
|  8>     print[ P_OrbEn ] 0
|  9>     print[ P_Cartesian ] 0
| 10> end
| 11> *xyz 0 1
| 12>  C        0.9897880000    -0.0377710000    -0.0795010000
| 13>  C        2.4759800000     0.0019510000    -0.0778340000
| 14>  C        3.2977130000     1.0725860000    -0.0751440000
| 15>  C        2.9423020000     2.5187120000    -0.0730890000
| 16>  C        4.6853300000     0.5983780000    -0.0744510000
| 17>  C        4.7127050000    -0.7404000000    -0.0766780000
| 18>  C        3.3083190000    -1.2452520000    -0.0790440000
| 19>  H        0.5545590000     0.9623810000    -0.0782710000
| 20>  H        0.6024810000    -0.5682000000     0.7973300000
| 21>  H        0.6043710000    -0.5652180000    -0.9589600000
| 22>  H        1.8635250000     2.6781580000    -0.0739770000
| 23>  H        3.3565670000     3.0260310000    -0.9503230000
| 24>  H        3.3546830000     3.0230710000     0.8067370000
| 25>  H        5.5478980000     1.2547650000    -0.0724160000
| 26>  H        5.5893450000    -1.3735110000    -0.0768020000
| 27>  H        3.0977780000    -1.8751660000     0.7956360000
| 28>  H        3.0996660000    -1.8722050000    -0.9563010000
| 29> *
| 30>
| 31>                          ****END OF INPUT****
 Total Charge           Charge          ....    0
 Multiplicity           Mult            ....    1
 Number of Electrons    NEL             ....   52
 Basis Dimension        Dim             ....  148

MULLIKEN ATOMIC CHARGES
-----------------------
   0 C :    0.086917
   1 C :   -0.255343
   2 C :   -0.098083
   3 C :    0.078629
   4 C :    0.016370
   5 C :   -0.073073
   6 C :    0.105829
   7 H :    0.006852
   8 H :    0.022932
   9 H :    0.022865
  10 H :    0.007009
  11 H :    0.025568
  12 H :    0.025512
  13 H :   -0.037398
  14 H :   -0.016018
  15 H :    0.040743
  16 H :    0.040691
Sum of atomic charges:   -0.0000000

LOEWDIN ATOMIC CHARGES
----------------------
   0 C :   -0.060814
   1 C :   -0.054043
   2 C :   -0.056207
   3 C :   -0.061166
   4 C :   -0.034093
   5 C :   -0.042985
   6 C :   -0.031921
   7 H :    0.029638
   8 H :    0.034602
   9 H :    0.034591
  10 H :    0.028348
  11 H :    0.036642
  12 H :    0.036630
  13 H :    0.018476
  14 H :    0.019010
  15 H :    0.051650
  16 H :    0.051643

  Mayer bond orders larger than 0.1
B(  0-C ,  1-C ) :   1.1249 B(  0-C ,  7-H ) :   0.9420 B(  0-C ,  8-H ) :   0.9390
B(  0-C ,  9-H ) :   0.9389 B(  1-C ,  2-C ) :   1.7515 B(  1-C ,  6-C ) :   1.0587
B(  2-C ,  3-C ) :   1.1209 B(  2-C ,  4-C ) :   1.0803 B(  3-C , 10-H ) :   0.9444
B(  3-C , 11-H ) :   0.9376 B(  3-C , 12-H ) :   0.9376 B(  4-C ,  5-C ) :   1.7264
B(  4-C , 13-H ) :   1.0005 B(  5-C ,  6-C ) :   1.0501 B(  5-C , 14-H ) :   0.9896
B(  6-C , 15-H ) :   0.8871 B(  6-C , 16-H ) :   0.8871

FINAL SINGLE POINT ENERGY      -272.167561437564

DIPOLE MOMENT
-------------
                                X             Y             Z
Electronic contribution:      3.44193      -1.41925       0.00135
Nuclear contribution   :     -3.64121       1.33424      -0.00168
                        -----------------------------------------
Total Dipole Moment    :     -0.19928      -0.08500      -0.00032
                        -----------------------------------------
Magnitude (a.u.)       :      0.21665
Magnitude (Debye)      :      0.55068

                             ****ORCA TERMINATED NORMALLY****
TOTAL RUN TIME: 0 days 0 hours 0 minutes 7 seconds 289 msec
