                         Program Version 3.0.3 - RELEASE   -
|  1> ! RI PBE def2-SVP def2-SVP/J NBO PAL2
|  2> % maxcore 2000
|  3> % output
|  4>     # printlevel mini
|  5>     print[ P_Basis ] 0
|  6>     print[ P_SCFInfo ] 1
|  7>     print[ P_SCFIterInfo ] 1
|  8>     print[ P_OrbEn ] 0
|  9>     print[ P_Cartesian ] 0
| 10> end
| 11> *xyz 0 1
| 12>  C        1.0513960000     0.0692480000    -0.1415820000
| 13>  C        2.5346060000     0.0919110000    -0.0076820000
| 14>  C        3.2591590000     1.2178150000    -0.0210100000
| 15>  C        4.7014570000     1.1915650000     0.1791310000
| 16>  C        5.3855910000     0.0484730000     0.0887070000
| 17>  C        4.6709670000    -1.2221450000    -0.2563690000
| 18>  C        3.2353990000    -1.2141010000     0.2542700000
| 19>  H        0.6396280000     1.0732260000    -0.2571630000
| 20>  H        0.5891710000    -0.3921140000     0.7395190000
| 21>  H        0.7408060000    -0.5321950000    -1.0029290000
| 22>  H        2.7686290000     2.1776670000    -0.1528350000
| 23>  H        5.2144850000     2.1259180000     0.3819220000
| 24>  H        6.4644790000     0.0354980000     0.2012900000
| 25>  H        5.2043550000    -2.0913100000     0.1371040000
| 26>  H        4.6724150000    -1.3354880000    -1.3514590000
| 27>  H        3.2264930000    -1.3881400000     1.3415530000
| 28>  H        2.6738850000    -2.0428180000    -0.1871480000
| 29> *
| 30>
| 31>                          ****END OF INPUT****
 Total Charge           Charge          ....    0
 Multiplicity           Mult            ....    1
 Number of Electrons    NEL             ....   52
 Basis Dimension        Dim             ....  148

MULLIKEN ATOMIC CHARGES
-----------------------
   0 C :    0.067524
   1 C :   -0.194108
   2 C :    0.000968
   3 C :    0.025704
   4 C :   -0.098044
   5 C :    0.061539
   6 C :    0.070155
   7 H :    0.012570
   8 H :    0.028171
   9 H :    0.028864
  10 H :   -0.033806
  11 H :   -0.020795
  12 H :   -0.003699
  13 H :    0.004535
  14 H :    0.029070
  15 H :    0.023645
  16 H :   -0.002292
Sum of atomic charges:   -0.0000000

LOEWDIN ATOMIC CHARGES
----------------------
   0 C :   -0.056042
   1 C :   -0.027189
   2 C :   -0.062615
   3 C :   -0.046290
   4 C :   -0.037119
   5 C :   -0.040735
   6 C :   -0.032580
   7 H :    0.030309
   8 H :    0.036304
   9 H :    0.035547
  10 H :    0.021671
  11 H :    0.025103
  12 H :    0.022993
  13 H :    0.030211
  14 H :    0.036310
  15 H :    0.035996
  16 H :    0.028125

  Mayer bond orders larger than 0.1
B(  0-C ,  1-C ) :   1.1075 B(  0-C ,  7-H ) :   0.9520 B(  0-C ,  8-H ) :   0.9415
B(  0-C ,  9-H ) :   0.9383 B(  1-C ,  2-C ) :   1.7775 B(  1-C ,  6-C ) :   1.0529
B(  2-C ,  3-C ) :   1.0962 B(  2-C , 10-H ) :   0.9636 B(  3-C ,  4-C ) :   1.8113
B(  3-C , 11-H ) :   0.9669 B(  4-C ,  5-C ) :   1.0478 B(  4-C , 12-H ) :   0.9636
B(  5-C ,  6-C ) :   1.1062 B(  5-C , 13-H ) :   0.9185 B(  5-C , 14-H ) :   0.9071
B(  6-C , 15-H ) :   0.8978 B(  6-C , 16-H ) :   0.9164

FINAL SINGLE POINT ENERGY      -272.165907245652

DIPOLE MOMENT
-------------
                                X             Y             Z
Electronic contribution:      2.58608       1.98288       0.22987
Nuclear contribution   :     -2.75560      -2.20397      -0.24003
                        -----------------------------------------
Total Dipole Moment    :     -0.16952      -0.22109      -0.01016
                        -----------------------------------------
Magnitude (a.u.)       :      0.27879
Magnitude (Debye)      :      0.70862

                             ****ORCA TERMINATED NORMALLY****
TOTAL RUN TIME: 0 days 0 hours 0 minutes 7 seconds 910 msec
