                         Program Version 3.0.3 - RELEASE   -
|  1> ! RI PBE def2-SVP def2-SVP/J NBO PAL2
|  2> % maxcore 2000
|  3> % output
|  4>     # printlevel mini
|  5>     print[ P_Basis ] 0
|  6>     print[ P_SCFInfo ] 1
|  7>     print[ P_SCFIterInfo ] 1
|  8>     print[ P_OrbEn ] 0
|  9>     print[ P_Cartesian ] 0
| 10> end
| 11> *xyz 0 1
| 12>  C        0.9955190000     0.1208500000     0.0342560000
| 13>  C        2.4809440000     0.0974400000     0.0387130000
| 14>  C        3.3330210000     1.1368420000     0.0416440000
| 15>  C        4.7083310000     0.6507490000     0.0456030000
| 16>  C        4.7180260000    -0.6932400000     0.0451530000
| 17>  C        5.8882540000    -1.6084510000     0.0483420000
| 18>  C        3.2933330000    -1.1641110000     0.0407070000
| 19>  H        0.6182320000     1.1449750000     0.0334900000
| 20>  H        0.5811860000    -0.3889870000     0.9109470000
| 21>  H        0.5864650000    -0.3883570000    -0.8452760000
| 22>  H        3.0483320000     2.1824170000     0.0411600000
| 23>  H        5.5868090000     1.2852110000     0.0484680000
| 24>  H        6.8252870000    -1.0488620000     0.0513530000
| 25>  H        5.8909760000    -2.2632020000    -0.8300000000
| 26>  H        5.8857030000    -2.2638230000     0.9262230000
| 27>  H        3.0699580000    -1.7889800000     0.9157340000
| 28>  H        3.0752230000    -1.7883520000    -0.8360950000
| 29> *
| 30>
| 31>                          ****END OF INPUT****
 Total Charge           Charge          ....    0
 Multiplicity           Mult            ....    1
 Number of Electrons    NEL             ....   52
 Basis Dimension        Dim             ....  148

MULLIKEN ATOMIC CHARGES
-----------------------
   0 C :    0.093171
   1 C :   -0.203105
   2 C :   -0.019425
   3 C :   -0.011323
   4 C :   -0.202392
   5 C :    0.089802
   6 C :    0.142548
   7 H :    0.011576
   8 H :    0.023524
   9 H :    0.023444
  10 H :   -0.038298
  11 H :   -0.039942
  12 H :    0.010502
  13 H :    0.024580
  14 H :    0.024553
  15 H :    0.035414
  16 H :    0.035369
Sum of atomic charges:   -0.0000000

LOEWDIN ATOMIC CHARGES
----------------------
   0 C :   -0.059829
   1 C :   -0.044937
   2 C :   -0.052793
   3 C :   -0.051560
   4 C :   -0.045266
   5 C :   -0.060446
   6 C :   -0.026374
   7 H :    0.033080
   8 H :    0.034225
   9 H :    0.034211
  10 H :    0.017791
  11 H :    0.017771
  12 H :    0.033012
  13 H :    0.034251
  14 H :    0.034250
  15 H :    0.051310
  16 H :    0.051302

  Mayer bond orders larger than 0.1
B(  0-C ,  1-C ) :   1.1087 B(  0-C ,  7-H ) :   0.9481 B(  0-C ,  8-H ) :   0.9407
B(  0-C ,  9-H ) :   0.9407 B(  1-C ,  2-C ) :   1.7393 B(  1-C ,  4-C ) :   0.1075
B(  1-C ,  6-C ) :   1.0553 B(  2-C ,  3-C ) :   1.0503 B(  2-C , 10-H ) :   0.9995
B(  3-C ,  4-C ) :   1.7454 B(  3-C , 11-H ) :   0.9971 B(  4-C ,  5-C ) :   1.1050
B(  4-C ,  6-C ) :   1.0547 B(  5-C , 12-H ) :   0.9473 B(  5-C , 13-H ) :   0.9418
B(  5-C , 14-H ) :   0.9418 B(  6-C , 15-H ) :   0.8839 B(  6-C , 16-H ) :   0.8839

FINAL SINGLE POINT ENERGY      -272.168538546464

DIPOLE MOMENT
-------------
                                X             Y             Z
Electronic contribution:      0.83889       2.38344       0.00344
Nuclear contribution   :     -0.95707      -2.70788      -0.00385
                        -----------------------------------------
Total Dipole Moment    :     -0.11817      -0.32444      -0.00040
                        -----------------------------------------
Magnitude (a.u.)       :      0.34529
Magnitude (Debye)      :      0.87766

                             ****ORCA TERMINATED NORMALLY****
TOTAL RUN TIME: 0 days 0 hours 0 minutes 7 seconds 761 msec
