                         Program Version 3.0.3 - RELEASE   -
|  1> ! RI PBE def2-SVP def2-SVP/J NBO PAL2
|  2> % maxcore 2000
|  3> % output
|  4>     # printlevel mini
|  5>     print[ P_Basis ] 0
|  6>     print[ P_SCFInfo ] 1
|  7>     print[ P_SCFIterInfo ] 1
|  8>     print[ P_OrbEn ] 0
|  9>     print[ P_Cartesian ] 0
| 10> end
| 11> *xyz 0 1
| 12>  C        0.9982650000     0.1275030000     0.0890240000
| 13>  C        2.4809410000     0.0971930000     0.0288460000
| 14>  C        3.2715260000    -0.9836220000     0.0431560000
| 15>  C        4.6790590000    -0.6344470000    -0.0303380000
| 16>  C        5.7109540000    -1.4794330000    -0.0357260000
| 17>  C        4.7531210000     0.8776930000    -0.1000330000
| 18>  C        3.2922560000     1.3587700000    -0.0595520000
| 19>  H        0.5745960000    -0.8757530000     0.1502490000
| 20>  H        0.5812930000     0.6243810000    -0.7937850000
| 21>  H        0.6539100000     0.7005500000     0.9568640000
| 22>  H        2.9188170000    -2.0073540000     0.1024490000
| 23>  H        5.5583400000    -2.5512680000     0.0177220000
| 24>  H        6.7345000000    -1.1272500000    -0.0934260000
| 25>  H        5.2588750000     1.1976210000    -1.0137370000
| 26>  H        5.3330620000     1.2748920000     0.7359540000
| 27>  H        3.0172020000     1.9375510000    -0.9488660000
| 28>  H        3.0903640000     2.0125830000     0.7967890000
| 29> *
| 30>
| 31>                          ****END OF INPUT****
 Total Charge           Charge          ....    0
 Multiplicity           Mult            ....    1
 Number of Electrons    NEL             ....   52
 Basis Dimension        Dim             ....  148

MULLIKEN ATOMIC CHARGES
-----------------------
   0 C :    0.089443
   1 C :   -0.224715
   2 C :    0.035708
   3 C :   -0.114410
   4 C :   -0.070271
   5 C :    0.089635
   6 C :    0.059849
   7 H :    0.014968
   8 H :    0.029543
   9 H :    0.029650
  10 H :   -0.036426
  11 H :    0.004523
  12 H :    0.002608
  13 H :    0.024972
  14 H :    0.026915
  15 H :    0.018496
  16 H :    0.019511
Sum of atomic charges:   -0.0000000

LOEWDIN ATOMIC CHARGES
----------------------
   0 C :   -0.058025
   1 C :   -0.025258
   2 C :   -0.042398
   3 C :   -0.029434
   4 C :   -0.094486
   5 C :   -0.027512
   6 C :   -0.033286
   7 H :    0.033438
   8 H :    0.038653
   9 H :    0.038705
  10 H :    0.022612
  11 H :    0.020785
  12 H :    0.019511
  13 H :    0.036826
  14 H :    0.037295
  15 H :    0.031241
  16 H :    0.031333

  Mayer bond orders larger than 0.1
B(  0-C ,  1-C ) :   1.1072 B(  0-C ,  7-H ) :   0.9489 B(  0-C ,  8-H ) :   0.9385
B(  0-C ,  9-H ) :   0.9383 B(  1-C ,  2-C ) :   1.6997 B(  1-C ,  4-C ) :   0.1270
B(  1-C ,  6-C ) :   1.0848 B(  2-C ,  3-C ) :   1.0860 B(  2-C , 10-H ) :   1.0013
B(  3-C ,  4-C ) :   1.9035 B(  3-C ,  5-C ) :   1.0521 B(  4-C , 11-H ) :   0.9280
B(  4-C , 12-H ) :   0.9361 B(  5-C ,  6-C ) :   1.1066 B(  5-C , 13-H ) :   0.9119
B(  5-C , 14-H ) :   0.9111 B(  6-C , 15-H ) :   0.9073 B(  6-C , 16-H ) :   0.9075

FINAL SINGLE POINT ENERGY      -272.165505734266

DIPOLE MOMENT
-------------
                                X             Y             Z
Electronic contribution:      1.50624      -1.40728       0.00080
Nuclear contribution   :     -1.89263       1.75508       0.00212
                        -----------------------------------------
Total Dipole Moment    :     -0.38639       0.34780       0.00292
                        -----------------------------------------
Magnitude (a.u.)       :      0.51988
Magnitude (Debye)      :      1.32143

                             ****ORCA TERMINATED NORMALLY****
TOTAL RUN TIME: 0 days 0 hours 0 minutes 7 seconds 851 msec
