                         Program Version 3.0.3 - RELEASE   -
|  1> ! RI PBE def2-SVP def2-SVP/J NBO PAL2
|  2> % maxcore 2000
|  3> % output
|  4>     # printlevel mini
|  5>     print[ P_Basis ] 0
|  6>     print[ P_SCFInfo ] 1
|  7>     print[ P_SCFIterInfo ] 1
|  8>     print[ P_OrbEn ] 0
|  9>     print[ P_Cartesian ] 0
| 10> end
| 11> *xyz 0 1
| 12>  C        1.0003930000     0.0842350000     0.0881970000
| 13>  C        2.4837820000     0.0136190000     0.0881180000
| 14>  C        3.2660960000    -1.0854580000     0.0873300000
| 15>  C        4.6645210000    -0.6597980000     0.0875990000
| 16>  C        5.7499760000    -1.4396790000     0.0870270000
| 17>  C        4.6453840000     0.8065660000     0.0886270000
| 18>  C        3.3598450000     1.1988600000     0.0889350000
| 19>  H        0.5532590000    -0.9105380000     0.0875170000
| 20>  H        0.6321860000     0.6255580000    -0.7895140000
| 21>  H        0.6322220000     0.6243410000     0.9666730000
| 22>  H        2.9384230000    -2.1161240000     0.0866130000
| 23>  H        5.6689060000    -2.5209970000     0.0862690000
| 24>  H        6.7481820000    -1.0162580000     0.0873020000
| 25>  H        5.5274280000     1.4312990000     0.0890440000
| 26>  H        2.9983870000     2.2197520000     0.0896620000
| 27> *
| 28>
| 29>                          ****END OF INPUT****
 Total Charge           Charge          ....    0
 Multiplicity           Mult            ....    1
 Number of Electrons    NEL             ....   50
 Basis Dimension        Dim             ....  138

MULLIKEN ATOMIC CHARGES
-----------------------
   0 C :    0.084491
   1 C :   -0.090787
   2 C :   -0.028102
   3 C :    0.008531
   4 C :   -0.028952
   5 C :    0.016252
   6 C :    0.002282
   7 H :    0.014612
   8 H :    0.031949
   9 H :    0.031932
  10 H :   -0.037041
  11 H :    0.026144
  12 H :    0.023176
  13 H :   -0.026588
  14 H :   -0.027898
Sum of atomic charges:   -0.0000000

LOEWDIN ATOMIC CHARGES
----------------------
   0 C :   -0.058882
   1 C :   -0.028616
   2 C :   -0.062397
   3 C :   -0.020766
   4 C :    0.000053
   5 C :   -0.039554
   6 C :   -0.023496
   7 H :    0.033715
   8 H :    0.039692
   9 H :    0.039689
  10 H :    0.019599
  11 H :    0.029357
  12 H :    0.028609
  13 H :    0.022374
  14 H :    0.020623

  Mayer bond orders larger than 0.1
B(  0-C ,  1-C ) :   1.1032 B(  0-C ,  7-H ) :   0.9509 B(  0-C ,  8-H ) :   0.9382
B(  0-C ,  9-H ) :   0.9382 B(  1-C ,  2-C ) :   1.6455 B(  1-C ,  4-C ) :   0.1065
B(  1-C ,  6-C ) :   1.0787 B(  2-C ,  3-C ) :   1.0504 B(  2-C , 10-H ) :   1.0093
B(  3-C ,  4-C ) :   1.8238 B(  3-C ,  5-C ) :   1.0590 B(  4-C ,  6-C ) :   0.1090
B(  4-C , 11-H ) :   0.9333 B(  4-C , 12-H ) :   0.9341 B(  5-C ,  6-C ) :   1.6427
B(  5-C , 13-H ) :   1.0035 B(  6-C , 14-H ) :   1.0031

FINAL SINGLE POINT ENERGY      -270.950625608693

DIPOLE MOMENT
-------------
                                X             Y             Z
Electronic contribution:      2.60577       0.31798       0.00014
Nuclear contribution   :     -2.62532      -0.36536      -0.00021
                        -----------------------------------------
Total Dipole Moment    :     -0.01955      -0.04738      -0.00006
                        -----------------------------------------
Magnitude (a.u.)       :      0.05126
Magnitude (Debye)      :      0.13029

                             ****ORCA TERMINATED NORMALLY****
TOTAL RUN TIME: 0 days 0 hours 0 minutes 7 seconds 222 msec
