                         Program Version 3.0.3 - RELEASE   -
|  1> ! RI PBE def2-SVP def2-SVP/J NBO PAL2
|  2> % maxcore 2000
|  3> % output
|  4>     # printlevel mini
|  5>     print[ P_Basis ] 0
|  6>     print[ P_SCFInfo ] 1
|  7>     print[ P_SCFIterInfo ] 1
|  8>     print[ P_OrbEn ] 0
|  9>     print[ P_Cartesian ] 0
| 10> end
| 11> *xyz 0 1
| 12>  C        0.8822600000     0.0677150000     0.0661260000
| 13>  C        2.3672760000     0.0239470000     0.0662470000
| 14>  C        3.2322750000     1.0525770000     0.0669880000
| 15>  C        4.6122970000     0.5635350000     0.0668110000
| 16>  C        5.8152150000     1.4518220000     0.0675030000
| 17>  C        4.5806320000    -0.7811250000     0.0659490000
| 18>  C        3.1625140000    -1.2464910000     0.0655130000
| 19>  H        0.5176290000     1.0963370000     0.0667580000
| 20>  H        0.4653930000    -0.4378090000     0.9438100000
| 21>  H        0.4655700000    -0.4366660000    -0.8123000000
| 22>  H        2.9622580000     2.1030660000     0.0676310000
| 23>  H        5.5307840000     2.5054840000     0.0680030000
| 24>  H        6.4396440000     1.2789430000    -0.8126240000
| 25>  H        6.4393070000     1.2780240000     0.9476900000
| 26>  H        5.4352010000    -1.4453790000     0.0656070000
| 27>  H        2.9281820000    -1.8670550000     0.9409430000
| 28>  H        2.9283540000    -1.8659360000    -0.8107560000
| 29> *
| 30>
| 31>                          ****END OF INPUT****
 Total Charge           Charge          ....    0
 Multiplicity           Mult            ....    1
 Number of Electrons    NEL             ....   52
 Basis Dimension        Dim             ....  148

MULLIKEN ATOMIC CHARGES
-----------------------
   0 C :    0.093044
   1 C :   -0.209399
   2 C :   -0.010078
   3 C :   -0.068965
   4 C :    0.068458
   5 C :   -0.147056
   6 C :    0.122057
   7 H :    0.011544
   8 H :    0.024750
   9 H :    0.024734
  10 H :   -0.043034
  11 H :    0.010514
  12 H :    0.035823
  13 H :    0.035816
  14 H :   -0.029309
  15 H :    0.040558
  16 H :    0.040541
Sum of atomic charges:   -0.0000000

LOEWDIN ATOMIC CHARGES
----------------------
   0 C :   -0.059253
   1 C :   -0.039599
   2 C :   -0.051548
   3 C :   -0.043054
   4 C :   -0.064406
   5 C :   -0.060027
   6 C :   -0.031770
   7 H :    0.033023
   8 H :    0.035172
   9 H :    0.035169
  10 H :    0.016333
  11 H :    0.030217
  12 H :    0.039735
  13 H :    0.039737
  14 H :    0.015579
  15 H :    0.052347
  16 H :    0.052345

  Mayer bond orders larger than 0.1
B(  0-C ,  1-C ) :   1.1066 B(  0-C ,  7-H ) :   0.9486 B(  0-C ,  8-H ) :   0.9406
B(  0-C ,  9-H ) :   0.9406 B(  1-C ,  2-C ) :   1.7154 B(  1-C ,  6-C ) :   1.0790
B(  2-C ,  3-C ) :   1.0810 B(  2-C , 10-H ) :   1.0004 B(  3-C ,  4-C ) :   1.0856
B(  3-C ,  5-C ) :   1.7416 B(  4-C , 11-H ) :   0.9498 B(  4-C , 12-H ) :   0.9476
B(  4-C , 13-H ) :   0.9476 B(  5-C ,  6-C ) :   1.0307 B(  5-C , 14-H ) :   0.9987
B(  6-C , 15-H ) :   0.8843 B(  6-C , 16-H ) :   0.8843

FINAL SINGLE POINT ENERGY      -272.166326068736

DIPOLE MOMENT
-------------
                                X             Y             Z
Electronic contribution:      0.79004      -0.61672      -0.00029
Nuclear contribution   :     -0.92611       0.49585       0.00024
                        -----------------------------------------
Total Dipole Moment    :     -0.13607      -0.12087      -0.00006
                        -----------------------------------------
Magnitude (a.u.)       :      0.18200
Magnitude (Debye)      :      0.46262

                             ****ORCA TERMINATED NORMALLY****
TOTAL RUN TIME: 0 days 0 hours 0 minutes 7 seconds 512 msec
