                         Program Version 3.0.3 - RELEASE   -
|  1> ! RI PBE def2-SVP def2-SVP/J NBO PAL2
|  2> % maxcore 2000
|  3> % output
|  4>     # printlevel mini
|  5>     print[ P_Basis ] 0
|  6>     print[ P_SCFInfo ] 1
|  7>     print[ P_SCFIterInfo ] 1
|  8>     print[ P_OrbEn ] 0
|  9>     print[ P_Cartesian ] 0
| 10> end
| 11> *xyz 0 1
| 12>  C        0.9006290000     0.0123020000     0.1421200000
| 13>  C        2.3878940000     0.0845250000     0.0169650000
| 14>  C        3.0426780000     1.2406500000    -0.0463280000
| 15>  C        4.5255400000     1.3677340000    -0.1715090000
| 16>  C        5.2232540000     0.0497210000    -0.2206000000
| 17>  C        4.5866470000    -1.1120250000    -0.1587920000
| 18>  C        3.1036630000    -1.2321530000    -0.0334130000
| 19>  H        0.4501920000     1.0055360000     0.1725960000
| 20>  H        0.6092950000    -0.5251800000     1.0514160000
| 21>  H        0.4626880000    -0.5379910000    -0.6980980000
| 22>  H        2.4751150000     2.1676120000    -0.0055320000
| 23>  H        4.9211050000     1.9658710000     0.6622100000
| 24>  H        4.7761230000     1.9535690000    -1.0677940000
| 25>  H        6.3057380000     0.0644990000    -0.3115930000
| 26>  H        5.1541340000    -2.0376480000    -0.1997830000
| 27>  H        2.8509950000    -1.8182660000     0.8629480000
| 28>  H        2.7058110000    -1.8310370000    -0.8664050000
| 29> *
| 30>
| 31>                          ****END OF INPUT****
 Total Charge           Charge          ....    0
 Multiplicity           Mult            ....    1
 Number of Electrons    NEL             ....   52
 Basis Dimension        Dim             ....  148

MULLIKEN ATOMIC CHARGES
-----------------------
   0 C :    0.062728
   1 C :   -0.185465
   2 C :   -0.123343
   3 C :    0.171917
   4 C :   -0.103830
   5 C :   -0.084047
   6 C :    0.170801
   7 H :    0.010488
   8 H :    0.022905
   9 H :    0.024717
  10 H :   -0.030083
  11 H :    0.024714
  12 H :    0.023807
  13 H :   -0.007602
  14 H :   -0.015423
  15 H :    0.018555
  16 H :    0.019162
Sum of atomic charges:   -0.0000000

LOEWDIN ATOMIC CHARGES
----------------------
   0 C :   -0.054382
   1 C :   -0.041968
   2 C :   -0.053177
   3 C :   -0.046065
   4 C :   -0.042175
   5 C :   -0.040925
   6 C :   -0.039574
   7 H :    0.029157
   8 H :    0.032806
   9 H :    0.033136
  10 H :    0.019596
  11 H :    0.040008
  12 H :    0.039782
  13 H :    0.024574
  14 H :    0.023498
  15 H :    0.037787
  16 H :    0.037922

  Mayer bond orders larger than 0.1
B(  0-C ,  1-C ) :   1.0933 B(  0-C ,  7-H ) :   0.9520 B(  0-C ,  8-H ) :   0.9458
B(  0-C ,  9-H ) :   0.9457 B(  1-C ,  2-C ) :   1.9023 B(  1-C ,  6-C ) :   1.0396
B(  2-C ,  3-C ) :   1.0348 B(  2-C , 10-H ) :   0.9538 B(  3-C ,  4-C ) :   1.0408
B(  3-C , 11-H ) :   0.8852 B(  3-C , 12-H ) :   0.8855 B(  4-C ,  5-C ) :   1.9236
B(  4-C , 13-H ) :   0.9664 B(  5-C ,  6-C ) :   1.0350 B(  5-C , 14-H ) :   0.9635
B(  6-C , 15-H ) :   0.8853 B(  6-C , 16-H ) :   0.8848

FINAL SINGLE POINT ENERGY      -272.164259116964

DIPOLE MOMENT
-------------
                                X             Y             Z
Electronic contribution:      2.62649       0.11521      -0.22349
Nuclear contribution   :     -2.71962      -0.15065       0.22922
                        -----------------------------------------
Total Dipole Moment    :     -0.09314      -0.03544       0.00573
                        -----------------------------------------
Magnitude (a.u.)       :      0.09982
Magnitude (Debye)      :      0.25372

                             ****ORCA TERMINATED NORMALLY****
TOTAL RUN TIME: 0 days 0 hours 0 minutes 7 seconds 845 msec
