                         Program Version 3.0.3 - RELEASE   -
|  1> ! RI PBE def2-SVP def2-SVP/J NBO PAL2
|  2> % maxcore 2000
|  3> % output
|  4>     # printlevel mini
|  5>     print[ P_Basis ] 0
|  6>     print[ P_SCFInfo ] 1
|  7>     print[ P_SCFIterInfo ] 1
|  8>     print[ P_OrbEn ] 0
|  9>     print[ P_Cartesian ] 0
| 10> end
| 11> *xyz 0 1
| 12>  C        0.9160930000     0.0330730000     0.0696090000
| 13>  C        2.3915820000    -0.0103870000    -0.1047030000
| 14>  C        3.1684990000    -1.0908140000    -0.1429720000
| 15>  C        4.6170650000    -0.7633070000    -0.3327680000
| 16>  C        4.6242780000     0.7504120000    -0.4104780000
| 17>  C        5.6960080000     1.5120330000    -0.5776840000
| 18>  C        3.2019940000     1.2459080000    -0.2651560000
| 19>  H        0.4931850000    -0.9676070000     0.1707560000
| 20>  H        0.4340090000     0.5243630000    -0.7824850000
| 21>  H        0.6422270000     0.6122940000     0.9580550000
| 22>  H        2.8042090000    -2.1080750000    -0.0479210000
| 23>  H        5.0294740000    -1.2160710000    -1.2427700000
| 24>  H        5.2371930000    -1.1278180000     0.4953420000
| 25>  H        6.6876450000     1.0831250000    -0.6748040000
| 26>  H        5.6230180000     2.5933670000    -0.6238660000
| 27>  H        2.8796450000     1.8259350000    -1.1394350000
| 28>  H        3.0877660000     1.9135680000     0.5985000000
| 29> *
| 30>
| 31>                          ****END OF INPUT****
 Total Charge           Charge          ....    0
 Multiplicity           Mult            ....    1
 Number of Electrons    NEL             ....   52
 Basis Dimension        Dim             ....  148

MULLIKEN ATOMIC CHARGES
-----------------------
   0 C :    0.086106
   1 C :   -0.188067
   2 C :   -0.121517
   3 C :    0.161985
   4 C :   -0.231328
   5 C :   -0.034885
   6 C :    0.172991
   7 H :    0.012999
   8 H :    0.026784
   9 H :    0.025154
  10 H :   -0.033386
  11 H :    0.029609
  12 H :    0.032638
  13 H :    0.001256
  14 H :    0.003007
  15 H :    0.027822
  16 H :    0.028831
Sum of atomic charges:   -0.0000000

LOEWDIN ATOMIC CHARGES
----------------------
   0 C :   -0.058310
   1 C :   -0.043297
   2 C :   -0.053128
   3 C :   -0.034766
   4 C :   -0.017530
   5 C :   -0.082039
   6 C :   -0.029816
   7 H :    0.032231
   8 H :    0.036242
   9 H :    0.035993
  10 H :    0.017487
  11 H :    0.038456
  12 H :    0.039015
  13 H :    0.020994
  14 H :    0.021149
  15 H :    0.038593
  16 H :    0.038726

  Mayer bond orders larger than 0.1
B(  0-C ,  1-C ) :   1.1081 B(  0-C ,  7-H ) :   0.9487 B(  0-C ,  8-H ) :   0.9400
B(  0-C ,  9-H ) :   0.9394 B(  1-C ,  2-C ) :   1.8587 B(  1-C ,  6-C ) :   1.0281
B(  2-C ,  3-C ) :   1.0062 B(  2-C , 10-H ) :   0.9858 B(  3-C ,  4-C ) :   1.0419
B(  3-C , 11-H ) :   0.8980 B(  3-C , 12-H ) :   0.8982 B(  4-C ,  5-C ) :   2.0229
B(  4-C ,  6-C ) :   1.0316 B(  5-C , 13-H ) :   0.9299 B(  5-C , 14-H ) :   0.9299
B(  6-C , 15-H ) :   0.8962 B(  6-C , 16-H ) :   0.8965

FINAL SINGLE POINT ENERGY      -272.156093263104

DIPOLE MOMENT
-------------
                                X             Y             Z
Electronic contribution:      1.64063      -0.64447      -0.16593
Nuclear contribution   :     -1.88211       0.61782       0.19401
                        -----------------------------------------
Total Dipole Moment    :     -0.24149      -0.02665       0.02808
                        -----------------------------------------
Magnitude (a.u.)       :      0.24457
Magnitude (Debye)      :      0.62165

                             ****ORCA TERMINATED NORMALLY****
TOTAL RUN TIME: 0 days 0 hours 0 minutes 7 seconds 541 msec
