                         Program Version 3.0.3 - RELEASE   -
|  1> ! RI PBE def2-SVP def2-SVP/J NBO PAL2
|  2> % maxcore 2000
|  3> % output
|  4>     # printlevel mini
|  5>     print[ P_Basis ] 0
|  6>     print[ P_SCFInfo ] 1
|  7>     print[ P_SCFIterInfo ] 1
|  8>     print[ P_OrbEn ] 0
|  9>     print[ P_Cartesian ] 0
| 10> end
| 11> *xyz 0 1
| 12>  C        0.8967110000    -0.1152240000     0.0834640000
| 13>  C        2.3894330000    -0.0349980000     0.0704120000
| 14>  C        3.0530550000     1.1215420000     0.0561440000
| 15>  C        4.5472990000     1.2347390000     0.0426760000
| 16>  C        5.3194430000    -0.1019920000     0.0471810000
| 17>  C        4.4670450000    -1.3315820000     0.0631060000
| 18>  C        3.1373170000    -1.2959640000     0.0736290000
| 19>  H        0.4422150000     0.8764450000     0.0798890000
| 20>  H        0.5406270000    -0.6524230000     0.9689490000
| 21>  H        0.5259750000    -0.6654690000    -0.7878860000
| 22>  H        2.4982420000     2.0564680000     0.0536790000
| 23>  H        4.8524430000     1.8432220000     0.9018460000
| 24>  H        4.8378620000     1.8290050000    -0.8313830000
| 25>  H        5.9954130000    -0.1434570000     0.9089860000
| 26>  H        5.9823540000    -0.1567920000    -0.8239620000
| 27>  H        4.9847350000    -2.2864030000     0.0660440000
| 28>  H        2.5707420000    -2.2225180000     0.0851160000
| 29> *
| 30>
| 31>                          ****END OF INPUT****
 Total Charge           Charge          ....    0
 Multiplicity           Mult            ....    1
 Number of Electrons    NEL             ....   52
 Basis Dimension        Dim             ....  148

MULLIKEN ATOMIC CHARGES
-----------------------
   0 C :    0.060487
   1 C :   -0.050370
   2 C :   -0.148975
   3 C :    0.073919
   4 C :    0.078306
   5 C :   -0.097155
   6 C :    0.009023
   7 H :    0.009741
   8 H :    0.027386
   9 H :    0.027681
  10 H :   -0.026719
  11 H :    0.019561
  12 H :    0.019364
  13 H :    0.022551
  14 H :    0.021928
  15 H :   -0.010579
  16 H :   -0.036147
Sum of atomic charges:   -0.0000000

LOEWDIN ATOMIC CHARGES
----------------------
   0 C :   -0.054753
   1 C :   -0.056068
   2 C :   -0.039304
   3 C :   -0.042767
   4 C :   -0.042129
   5 C :   -0.022347
   6 C :   -0.049294
   7 H :    0.029024
   8 H :    0.034270
   9 H :    0.034320
  10 H :    0.019717
  11 H :    0.034723
  12 H :    0.034677
  13 H :    0.036248
  14 H :    0.036168
  15 H :    0.023779
  16 H :    0.023737

  Mayer bond orders larger than 0.1
B(  0-C ,  1-C ) :   1.0819 B(  0-C ,  7-H ) :   0.9537 B(  0-C ,  8-H ) :   0.9461
B(  0-C ,  9-H ) :   0.9462 B(  1-C ,  2-C ) :   1.8145 B(  1-C ,  6-C ) :   1.0480
B(  2-C ,  3-C ) :   1.0531 B(  2-C ,  5-C ) :   0.1018 B(  2-C , 10-H ) :   0.9602
B(  3-C ,  4-C ) :   1.0904 B(  3-C , 11-H ) :   0.9099 B(  3-C , 12-H ) :   0.9099
B(  4-C ,  5-C ) :   1.0497 B(  4-C , 13-H ) :   0.9117 B(  4-C , 14-H ) :   0.9114
B(  5-C ,  6-C ) :   1.8205 B(  5-C , 15-H ) :   0.9661 B(  6-C , 16-H ) :   0.9776

FINAL SINGLE POINT ENERGY      -272.160844196752

DIPOLE MOMENT
-------------
                                X             Y             Z
Electronic contribution:      0.79924      -0.96446       0.00067
Nuclear contribution   :     -0.65688       1.02699      -0.00206
                        -----------------------------------------
Total Dipole Moment    :      0.14236       0.06253      -0.00139
                        -----------------------------------------
Magnitude (a.u.)       :      0.15549
Magnitude (Debye)      :      0.39523

                             ****ORCA TERMINATED NORMALLY****
TOTAL RUN TIME: 0 days 0 hours 0 minutes 7 seconds 335 msec
