                         Program Version 3.0.3 - RELEASE   -
|  1> ! RI PBE def2-SVP def2-SVP/J NBO PAL2
|  2> % maxcore 2000
|  3> % output
|  4>     # printlevel mini
|  5>     print[ P_Basis ] 0
|  6>     print[ P_SCFInfo ] 1
|  7>     print[ P_SCFIterInfo ] 1
|  8>     print[ P_OrbEn ] 0
|  9>     print[ P_Cartesian ] 0
| 10> end
| 11> *xyz 0 1
| 12>  C        0.9790730000     0.0923370000     0.0584840000
| 13>  C        2.5126260000     0.0916680000     0.0576950000
| 14>  C        3.0403160000     0.0933170000     1.4976020000
| 15>  C        3.0571430000     1.2570510000    -0.7230050000
| 16>  C        3.7819710000     0.8204370000    -1.7608730000
| 17>  C        3.7813330000    -0.6429500000    -1.7589630000
| 18>  C        3.0561270000    -1.0762220000    -0.7199600000
| 19>  H        0.5962520000     0.9770930000     0.5738190000
| 20>  H        0.5954820000    -0.7907340000     0.5761290000
| 21>  H        0.5891710000     0.0911740000    -0.9611800000
| 22>  H        2.6878910000     0.9780890000     2.0341550000
| 23>  H        4.1318850000     0.0928560000     1.5122690000
| 24>  H        2.6871120000    -0.7897380000     2.0364650000
| 25>  H        2.8675620000     2.2882960000    -0.4521720000
| 26>  H        4.2913870000     1.4367070000    -2.4909250000
| 27>  H        4.2902110000    -1.2615690000    -2.4874030000
| 28>  H        2.8656480000    -2.1065910000    -0.4464360000
| 29> *
| 30>
| 31>                          ****END OF INPUT****
 Total Charge           Charge          ....    0
 Multiplicity           Mult            ....    1
 Number of Electrons    NEL             ....   52
 Basis Dimension        Dim             ....  148

MULLIKEN ATOMIC CHARGES
-----------------------
   0 C :    0.077453
   1 C :   -0.274309
   2 C :    0.069601
   3 C :    0.018874
   4 C :    0.009533
   5 C :    0.009592
   6 C :    0.018955
   7 H :    0.016007
   8 H :    0.016029
   9 H :    0.027952
  10 H :    0.017728
  11 H :    0.031601
  12 H :    0.017743
  13 H :   -0.011744
  14 H :   -0.016606
  15 H :   -0.016611
  16 H :   -0.011797
Sum of atomic charges:   -0.0000000

LOEWDIN ATOMIC CHARGES
----------------------
   0 C :   -0.031329
   1 C :   -0.060234
   2 C :   -0.033316
   3 C :   -0.022553
   4 C :   -0.038875
   5 C :   -0.038865
   6 C :   -0.022535
   7 H :    0.024935
   8 H :    0.024939
   9 H :    0.031395
  10 H :    0.025166
  11 H :    0.032169
  12 H :    0.025168
  13 H :    0.020200
  14 H :    0.021772
  15 H :    0.021772
  16 H :    0.020192

  Mayer bond orders larger than 0.1
B(  0-C ,  1-C ) :   1.0109 B(  0-C ,  7-H ) :   0.9594 B(  0-C ,  8-H ) :   0.9594
B(  0-C ,  9-H ) :   0.9624 B(  1-C ,  2-C ) :   1.0131 B(  1-C ,  3-C ) :   1.0018
B(  1-C ,  6-C ) :   1.0018 B(  2-C , 10-H ) :   0.9587 B(  2-C , 11-H ) :   0.9613
B(  2-C , 12-H ) :   0.9587 B(  3-C ,  4-C ) :   1.7335 B(  3-C , 13-H ) :   0.9930
B(  4-C ,  5-C ) :   1.0799 B(  4-C , 14-H ) :   0.9947 B(  5-C ,  6-C ) :   1.7335
B(  5-C , 15-H ) :   0.9947 B(  6-C , 16-H ) :   0.9930

FINAL SINGLE POINT ENERGY      -272.154745353579

DIPOLE MOMENT
-------------
                                X             Y             Z
Electronic contribution:      2.61938      -0.00609      -3.76211
Nuclear contribution   :     -2.73674       0.00631       3.91981
                        -----------------------------------------
Total Dipole Moment    :     -0.11736       0.00022       0.15771
                        -----------------------------------------
Magnitude (a.u.)       :      0.19658
Magnitude (Debye)      :      0.49967

                             ****ORCA TERMINATED NORMALLY****
TOTAL RUN TIME: 0 days 0 hours 0 minutes 7 seconds 707 msec
