                         Program Version 3.0.3 - RELEASE   -
|  1> ! RI PBE def2-SVP def2-SVP/J NBO PAL2
|  2> % maxcore 2000
|  3> % output
|  4>     # printlevel mini
|  5>     print[ P_Basis ] 0
|  6>     print[ P_SCFInfo ] 1
|  7>     print[ P_SCFIterInfo ] 1
|  8>     print[ P_OrbEn ] 0
|  9>     print[ P_Cartesian ] 0
| 10> end
| 11> *xyz 0 1
| 12>  C        1.0423670000    -0.0130170000     0.0301510000
| 13>  C        2.5681960000    -0.0145910000     0.0759140000
| 14>  C        3.0426250000    -0.0096440000     1.5212180000
| 15>  C        3.0968190000    -1.2370380000    -0.7162050000
| 16>  C        3.3956690000    -0.6877200000    -2.0773480000
| 17>  C        3.3971910000     0.6402630000    -2.0823920000
| 18>  C        3.0996110000     1.2005890000    -0.7254650000
| 19>  H        0.6354070000    -0.8950510000     0.5330150000
| 20>  H        0.6844860000    -0.0165300000    -1.0031060000
| 21>  H        0.6374320000     0.8737390000     0.5263000000
| 22>  H        2.6769750000    -0.8899010000     2.0580960000
| 23>  H        2.6789970000     0.8755010000     2.0513900000
| 24>  H        4.1345500000    -0.0106760000     1.5785150000
| 25>  H        2.3682170000    -2.0549450000    -0.7338290000
| 26>  H        4.0082060000    -1.6466020000    -0.2607230000
| 27>  H        3.6155410000    -1.3135810000    -2.9349760000
| 28>  H        3.6184900000     1.2590850000    -2.9447480000
| 29>  H        2.3728830000     2.0200050000    -0.7493090000
| 30>  H        4.0119370000     1.6115130000    -0.2730990000
| 31> *
| 32>
| 33>                          ****END OF INPUT****
 Total Charge           Charge          ....    0
 Multiplicity           Mult            ....    1
 Number of Electrons    NEL             ....   54
 Basis Dimension        Dim             ....  158

MULLIKEN ATOMIC CHARGES
-----------------------
   0 C :    0.081263
   1 C :   -0.409143
   2 C :    0.059666
   3 C :    0.153343
   4 C :   -0.066574
   5 C :   -0.066652
   6 C :    0.153696
   7 H :    0.011286
   8 H :    0.013002
   9 H :    0.011233
  10 H :    0.014748
  11 H :    0.014677
  12 H :    0.016971
  13 H :    0.009283
  14 H :    0.010268
  15 H :   -0.013218
  16 H :   -0.013322
  17 H :    0.009244
  18 H :    0.010230
Sum of atomic charges:    0.0000000

LOEWDIN ATOMIC CHARGES
----------------------
   0 C :   -0.047200
   1 C :   -0.052774
   2 C :   -0.054306
   3 C :   -0.029263
   4 C :   -0.038641
   5 C :   -0.038614
   6 C :   -0.029220
   7 H :    0.021994
   8 H :    0.025430
   9 H :    0.021984
  10 H :    0.024655
  11 H :    0.024647
  12 H :    0.022212
  13 H :    0.025664
  14 H :    0.029213
  15 H :    0.019689
  16 H :    0.019664
  17 H :    0.025663
  18 H :    0.029205

  Mayer bond orders larger than 0.1
B(  0-C ,  1-C ) :   1.0423 B(  0-C ,  7-H ) :   0.9552 B(  0-C ,  8-H ) :   0.9592
B(  0-C ,  9-H ) :   0.9552 B(  1-C ,  2-C ) :   1.0623 B(  1-C ,  3-C ) :   1.0290
B(  1-C ,  6-C ) :   1.0290 B(  2-C , 10-H ) :   0.9583 B(  2-C , 11-H ) :   0.9583
B(  2-C , 12-H ) :   0.9517 B(  3-C ,  4-C ) :   1.0296 B(  3-C , 13-H ) :   0.9224
B(  3-C , 14-H ) :   0.9072 B(  4-C ,  5-C ) :   1.8575 B(  4-C , 15-H ) :   0.9820
B(  5-C ,  6-C ) :   1.0296 B(  5-C , 16-H ) :   0.9820 B(  6-C , 17-H ) :   0.9224
B(  6-C , 18-H ) :   0.9072

FINAL SINGLE POINT ENERGY      -273.369284184772

DIPOLE MOMENT
-------------
                                X             Y             Z
Electronic contribution:      1.84348      -0.01630      -3.74863
Nuclear contribution   :     -1.82875       0.01661       3.82229
                        -----------------------------------------
Total Dipole Moment    :      0.01473       0.00031       0.07366
                        -----------------------------------------
Magnitude (a.u.)       :      0.07512
Magnitude (Debye)      :      0.19094

                             ****ORCA TERMINATED NORMALLY****
TOTAL RUN TIME: 0 days 0 hours 0 minutes 8 seconds 382 msec
