                         Program Version 3.0.3 - RELEASE   -
|  1> ! RI PBE def2-SVP def2-SVP/J NBO PAL2
|  2> % maxcore 2000
|  3> % output
|  4>     # printlevel mini
|  5>     print[ P_Basis ] 0
|  6>     print[ P_SCFInfo ] 1
|  7>     print[ P_SCFIterInfo ] 1
|  8>     print[ P_OrbEn ] 0
|  9>     print[ P_Cartesian ] 0
| 10> end
| 11> *xyz 0 1
| 12>  C        1.0006490000    -0.0477600000     0.0498470000
| 13>  C        2.5320160000    -0.0733130000     0.0305660000
| 14>  C        3.0269720000     0.0882170000    -1.4023480000
| 15>  C        3.0829850000    -1.3558660000     0.6974910000
| 16>  C        3.3917230000    -0.9868590000     2.1561530000
| 17>  C        3.5216840000     0.5072130000     2.0989650000
| 18>  C        3.0679140000     0.9967610000     0.9520060000
| 19>  H        0.5921260000    -0.8220720000    -0.6066080000
| 20>  H        0.6196660000     0.9179590000    -0.2943440000
| 21>  H        0.6176170000    -0.2165900000     1.0593300000
| 22>  H        2.6886240000    -0.7438160000    -2.0271880000
| 23>  H        4.1187660000     0.1183150000    -1.4396310000
| 24>  H        2.6476460000     1.0123360000    -1.8482560000
| 25>  H        4.0125730000    -1.6423300000     0.1973790000
| 26>  H        2.3922830000    -2.1972980000     0.6042970000
| 27>  H        4.2938100000    -1.4799840000     2.5298620000
| 28>  H        2.5818860000    -1.2744710000     2.8388580000
| 29>  H        3.9035560000     1.1004170000     2.9224500000
| 30>  H        3.0218060000     2.0507220000     0.6963590000
| 31> *
| 32>
| 33>                          ****END OF INPUT****
 Total Charge           Charge          ....    0
 Multiplicity           Mult            ....    1
 Number of Electrons    NEL             ....   54
 Basis Dimension        Dim             ....  158

MULLIKEN ATOMIC CHARGES
-----------------------
   0 C :    0.094513
   1 C :   -0.330350
   2 C :    0.060833
   3 C :    0.078115
   4 C :    0.053251
   5 C :   -0.072104
   6 C :    0.025967
   7 H :    0.013065
   8 H :    0.006921
   9 H :    0.009974
  10 H :    0.016873
  11 H :    0.017155
  12 H :    0.010594
  13 H :    0.002357
  14 H :   -0.000635
  15 H :    0.015347
  16 H :    0.024118
  17 H :   -0.011746
  18 H :   -0.014246
Sum of atomic charges:   -0.0000000

LOEWDIN ATOMIC CHARGES
----------------------
   0 C :   -0.045238
   1 C :   -0.063898
   2 C :   -0.052439
   3 C :   -0.020711
   4 C :   -0.041613
   5 C :   -0.036599
   6 C :   -0.027328
   7 H :    0.023086
   8 H :    0.023119
   9 H :    0.024355
  10 H :    0.025251
  11 H :    0.023792
  12 H :    0.023481
  13 H :    0.025814
  14 H :    0.021352
  15 H :    0.027664
  16 H :    0.030207
  17 H :    0.019868
  18 H :    0.019838

  Mayer bond orders larger than 0.1
B(  0-C ,  1-C ) :   1.0298 B(  0-C ,  7-H ) :   0.9547 B(  0-C ,  8-H ) :   0.9568
B(  0-C ,  9-H ) :   0.9591 B(  1-C ,  2-C ) :   1.0546 B(  1-C ,  3-C ) :   1.0396
B(  1-C ,  6-C ) :   0.9855 B(  2-C , 10-H ) :   0.9573 B(  2-C , 11-H ) :   0.9549
B(  2-C , 12-H ) :   0.9598 B(  3-C ,  4-C ) :   1.0968 B(  3-C , 13-H ) :   0.9264
B(  3-C , 14-H ) :   0.9298 B(  4-C ,  5-C ) :   1.0361 B(  4-C , 15-H ) :   0.9304
B(  4-C , 16-H ) :   0.9105 B(  5-C ,  6-C ) :   1.8639 B(  5-C , 17-H ) :   0.9805
B(  6-C , 18-H ) :   0.9897

FINAL SINGLE POINT ENERGY      -273.369011639443

DIPOLE MOMENT
-------------
                                X             Y             Z
Electronic contribution:      1.72275       1.31753       2.65586
Nuclear contribution   :     -1.76395      -1.38006      -2.64386
                        -----------------------------------------
Total Dipole Moment    :     -0.04120      -0.06253       0.01201
                        -----------------------------------------
Magnitude (a.u.)       :      0.07584
Magnitude (Debye)      :      0.19277

                             ****ORCA TERMINATED NORMALLY****
TOTAL RUN TIME: 0 days 0 hours 0 minutes 8 seconds 341 msec
