                         Program Version 3.0.3 - RELEASE   -
|  1> ! RI PBE def2-SVP def2-SVP/J NBO PAL2
|  2> % maxcore 2000
|  3> % output
|  4>     # printlevel mini
|  5>     print[ P_Basis ] 0
|  6>     print[ P_SCFInfo ] 1
|  7>     print[ P_SCFIterInfo ] 1
|  8>     print[ P_OrbEn ] 0
|  9>     print[ P_Cartesian ] 0
| 10> end
| 11> *xyz 0 1
| 12>  C        0.8000470000     0.1827180000     0.0916650000
| 13>  C        2.3209120000     0.0505320000     0.0436690000
| 14>  C        3.0188630000     1.2041870000    -0.6081390000
| 15>  C        3.7982160000     0.7538730000    -1.6000440000
| 16>  C        3.6793300000    -0.7060080000    -1.6964760000
| 17>  C        4.4109860000    -1.5336350000    -2.6937240000
| 18>  C        2.8194300000    -1.1169320000    -0.7494710000
| 19>  H        0.5015060000     1.0621190000     0.6671720000
| 20>  H        0.3476800000    -0.6947610000     0.5593510000
| 21>  H        0.3935500000     0.2794700000    -0.9173230000
| 22>  H        2.6906660000    -0.0388040000     1.0779180000
| 23>  H        2.8913910000     2.2337500000    -0.2992880000
| 24>  H        4.4271000000     1.3567780000    -2.2448070000
| 25>  H        4.1698330000    -1.2240470000    -3.7155690000
| 26>  H        4.1631110000    -2.5909960000    -2.5914240000
| 27>  H        5.4939020000    -1.4247890000    -2.5776070000
| 28>  H        2.5149760000    -2.1396380000    -0.5637220000
| 29> *
| 30>
| 31>                          ****END OF INPUT****
 Total Charge           Charge          ....    0
 Multiplicity           Mult            ....    1
 Number of Electrons    NEL             ....   52
 Basis Dimension        Dim             ....  148

MULLIKEN ATOMIC CHARGES
-----------------------
   0 C :    0.024121
   1 C :   -0.037869
   2 C :   -0.028654
   3 C :    0.007714
   4 C :   -0.080901
   5 C :    0.065993
   6 C :   -0.076449
   7 H :    0.021136
   8 H :    0.021317
   9 H :    0.029031
  10 H :    0.043135
  11 H :   -0.014437
  12 H :   -0.027662
  13 H :    0.029520
  14 H :    0.017540
  15 H :    0.035875
  16 H :   -0.029409
Sum of atomic charges:   -0.0000000

LOEWDIN ATOMIC CHARGES
----------------------
   0 C :   -0.043313
   1 C :   -0.039869
   2 C :   -0.030535
   3 C :   -0.035303
   4 C :   -0.042285
   5 C :   -0.063384
   6 C :   -0.048818
   7 H :    0.026222
   8 H :    0.026614
   9 H :    0.030542
  10 H :    0.054920
  11 H :    0.019450
  12 H :    0.019924
  13 H :    0.037416
  14 H :    0.033392
  15 H :    0.038675
  16 H :    0.016351

  Mayer bond orders larger than 0.1
B(  0-C ,  1-C ) :   1.0509 B(  0-C ,  7-H ) :   0.9617 B(  0-C ,  8-H ) :   0.9617
B(  0-C ,  9-H ) :   0.9666 B(  1-C ,  2-C ) :   1.0297 B(  1-C ,  6-C ) :   1.0064
B(  1-C , 10-H ) :   0.8618 B(  2-C ,  3-C ) :   1.7240 B(  2-C , 11-H ) :   0.9899
B(  3-C ,  4-C ) :   1.0920 B(  3-C , 12-H ) :   0.9995 B(  4-C ,  5-C ) :   1.1010
B(  4-C ,  6-C ) :   1.7383 B(  5-C , 13-H ) :   0.9414 B(  5-C , 14-H ) :   0.9510
B(  5-C , 15-H ) :   0.9420 B(  6-C , 16-H ) :   0.9911

FINAL SINGLE POINT ENERGY      -272.161892795150

DIPOLE MOMENT
-------------
                                X             Y             Z
Electronic contribution:      1.79141       1.23872       0.30394
Nuclear contribution   :     -1.83367      -1.27023      -0.25275
                        -----------------------------------------
Total Dipole Moment    :     -0.04226      -0.03150       0.05120
                        -----------------------------------------
Magnitude (a.u.)       :      0.07348
Magnitude (Debye)      :      0.18678

                             ****ORCA TERMINATED NORMALLY****
TOTAL RUN TIME: 0 days 0 hours 0 minutes 7 seconds 303 msec
