                         Program Version 3.0.3 - RELEASE   -
|  1> ! RI PBE def2-SVP def2-SVP/J NBO PAL2
|  2> % maxcore 2000
|  3> % output
|  4>     # printlevel mini
|  5>     print[ P_Basis ] 0
|  6>     print[ P_SCFInfo ] 1
|  7>     print[ P_SCFIterInfo ] 1
|  8>     print[ P_OrbEn ] 0
|  9>     print[ P_Cartesian ] 0
| 10> end
| 11> *xyz 0 1
| 12>  C        0.9839980000    -0.0587590000    -0.2843210000
| 13>  C        2.4778350000    -0.0531910000     0.0551800000
| 14>  C        2.8586000000     1.1867710000     0.8040400000
| 15>  C        3.4440600000     1.1903860000     1.9949410000
| 16>  C        3.8145560000    -0.0522520000     2.7347200000
| 17>  C        3.4542870000    -1.2953700000     1.9907110000
| 18>  C        2.8688010000    -1.2925200000     0.7998210000
| 19>  H        0.7132240000     0.8253540000    -0.8672570000
| 20>  H        0.3837920000    -0.0627820000     0.6284350000
| 21>  H        0.7205000000    -0.9430820000    -0.8702670000
| 22>  H        3.0167340000    -0.0493390000    -0.9055400000
| 23>  H        2.6177270000     2.1329490000     0.3253120000
| 24>  H        3.6778120000     2.1378330000     2.4726530000
| 25>  H        3.3337340000    -0.0559130000     3.7234620000
| 26>  H        4.8915100000    -0.0481980000     2.9563390000
| 27>  H        3.6958340000    -2.2424830000     2.4651990000
| 28>  H        2.6357150000    -2.2390130000     0.3178710000
| 29> *
| 30>
| 31>                          ****END OF INPUT****
 Total Charge           Charge          ....    0
 Multiplicity           Mult            ....    1
 Number of Electrons    NEL             ....   52
 Basis Dimension        Dim             ....  148

MULLIKEN ATOMIC CHARGES
-----------------------
   0 C :   -0.006666
   1 C :    0.047205
   2 C :   -0.040957
   3 C :   -0.106902
   4 C :    0.176474
   5 C :   -0.106677
   6 C :   -0.041209
   7 H :    0.019337
   8 H :    0.027093
   9 H :    0.019396
  10 H :    0.019504
  11 H :   -0.017253
  12 H :   -0.012486
  13 H :    0.024796
  14 H :    0.028046
  15 H :   -0.012560
  16 H :   -0.017141
Sum of atomic charges:   -0.0000000

LOEWDIN ATOMIC CHARGES
----------------------
   0 C :   -0.053199
   1 C :   -0.046999
   2 C :   -0.033794
   3 C :   -0.039480
   4 C :   -0.045452
   5 C :   -0.039445
   6 C :   -0.033822
   7 H :    0.025042
   8 H :    0.027347
   9 H :    0.025052
  10 H :    0.038904
  11 H :    0.022901
  12 H :    0.023715
  13 H :    0.041384
  14 H :    0.041223
  15 H :    0.023708
  16 H :    0.022914

  Mayer bond orders larger than 0.1
B(  0-C ,  1-C ) :   1.0484 B(  0-C ,  7-H ) :   0.9611 B(  0-C ,  8-H ) :   0.9649
B(  0-C ,  9-H ) :   0.9612 B(  1-C ,  2-C ) :   0.9999 B(  1-C ,  6-C ) :   0.9998
B(  1-C , 10-H ) :   0.8649 B(  2-C ,  3-C ) :   1.9296 B(  2-C , 11-H ) :   0.9653
B(  3-C ,  4-C ) :   1.0334 B(  3-C , 12-H ) :   0.9622 B(  4-C ,  5-C ) :   1.0335
B(  4-C , 13-H ) :   0.8849 B(  4-C , 14-H ) :   0.8886 B(  5-C ,  6-C ) :   1.9297
B(  5-C , 15-H ) :   0.9622 B(  6-C , 16-H ) :   0.9653

FINAL SINGLE POINT ENERGY      -272.158585130173

DIPOLE MOMENT
-------------
                                X             Y             Z
Electronic contribution:      2.32314       0.00757       1.13358
Nuclear contribution   :     -2.29963      -0.00758      -1.10432
                        -----------------------------------------
Total Dipole Moment    :      0.02351      -0.00002       0.02926
                        -----------------------------------------
Magnitude (a.u.)       :      0.03753
Magnitude (Debye)      :      0.09540

                             ****ORCA TERMINATED NORMALLY****
TOTAL RUN TIME: 0 days 0 hours 0 minutes 7 seconds 380 msec
