                         Program Version 3.0.3 - RELEASE   -
|  1> ! RI PBE def2-SVP def2-SVP/J NBO PAL2
|  2> % maxcore 2000
|  3> % output
|  4>     # printlevel mini
|  5>     print[ P_Basis ] 0
|  6>     print[ P_SCFInfo ] 1
|  7>     print[ P_SCFIterInfo ] 1
|  8>     print[ P_OrbEn ] 0
|  9>     print[ P_Cartesian ] 0
| 10> end
| 11> *xyz 0 1
| 12>  C        1.0683830000    -0.0796490000     0.0806030000
| 13>  C        2.5871500000    -0.0658700000    -0.0080900000
| 14>  C        3.1101850000    -1.2983370000    -0.7780800000
| 15>  C        3.3856670000    -0.7643130000    -2.1500810000
| 16>  C        3.3748780000     0.5661120000    -2.1915570000
| 17>  C        3.6461580000     1.4381950000    -3.3650730000
| 18>  C        3.0842530000     1.1385000000    -0.8314400000
| 19>  H        0.7107530000    -0.9541010000     0.6307160000
| 20>  H        0.6263510000    -0.1091540000    -0.9201590000
| 21>  H        0.6923030000     0.8130160000     0.5876700000
| 22>  H        2.9964630000    -0.0392990000     1.0052390000
| 23>  H        2.3817200000    -2.1167580000    -0.7758040000
| 24>  H        4.0258520000    -1.7023210000    -0.3273280000
| 25>  H        3.6020640000    -1.4014720000    -3.0014000000
| 26>  H        3.8603120000     0.8543550000    -4.2617740000
| 27>  H        4.5002400000     2.0973720000    -3.1744080000
| 28>  H        2.7919990000     2.0905390000    -3.5761090000
| 29>  H        2.3420940000     1.9448870000    -0.8676550000
| 30>  H        3.9952540000     1.5811060000    -0.4070610000
| 31> *
| 32>
| 33>                          ****END OF INPUT****
 Total Charge           Charge          ....    0
 Multiplicity           Mult            ....    1
 Number of Electrons    NEL             ....   54
 Basis Dimension        Dim             ....  158

MULLIKEN ATOMIC CHARGES
-----------------------
   0 C :    0.035960
   1 C :   -0.165048
   2 C :    0.099575
   3 C :   -0.095906
   4 C :   -0.184031
   5 C :    0.083802
   6 C :    0.114406
   7 H :    0.017618
   8 H :    0.014937
   9 H :    0.016376
  10 H :   -0.004119
  11 H :    0.006904
  12 H :    0.015768
  13 H :   -0.031131
  14 H :    0.012547
  15 H :    0.023866
  16 H :    0.026268
  17 H :    0.000557
  18 H :    0.011652
Sum of atomic charges:   -0.0000000

LOEWDIN ATOMIC CHARGES
----------------------
   0 C :   -0.058153
   1 C :   -0.033227
   2 C :   -0.036012
   3 C :   -0.054095
   4 C :   -0.044514
   5 C :   -0.060141
   6 C :   -0.029849
   7 H :    0.023788
   8 H :    0.025306
   9 H :    0.023429
  10 H :    0.020566
  11 H :    0.023813
  12 H :    0.028470
  13 H :    0.016307
  14 H :    0.031705
  15 H :    0.035640
  16 H :    0.035462
  17 H :    0.022486
  18 H :    0.029018

  Mayer bond orders larger than 0.1
B(  0-C ,  1-C ) :   1.0812 B(  0-C ,  7-H ) :   0.9592 B(  0-C ,  8-H ) :   0.9606
B(  0-C ,  9-H ) :   0.9588 B(  1-C ,  2-C ) :   1.0671 B(  1-C ,  6-C ) :   1.0598
B(  1-C , 10-H ) :   0.9147 B(  2-C ,  3-C ) :   1.0174 B(  2-C , 11-H ) :   0.9262
B(  2-C , 12-H ) :   0.9074 B(  3-C ,  4-C ) :   1.8538 B(  3-C , 13-H ) :   0.9797
B(  4-C ,  5-C ) :   1.1091 B(  4-C ,  6-C ) :   1.0401 B(  5-C , 14-H ) :   0.9485
B(  5-C , 15-H ) :   0.9403 B(  5-C , 16-H ) :   0.9403 B(  6-C , 17-H ) :   0.9243
B(  6-C , 18-H ) :   0.9009

FINAL SINGLE POINT ENERGY      -273.375560867472

DIPOLE MOMENT
-------------
                                X             Y             Z
Electronic contribution:      1.85541      -1.08490      -0.61646
Nuclear contribution   :     -1.80466       1.19413       0.62194
                        -----------------------------------------
Total Dipole Moment    :      0.05075       0.10923       0.00548
                        -----------------------------------------
Magnitude (a.u.)       :      0.12057
Magnitude (Debye)      :      0.30646

                             ****ORCA TERMINATED NORMALLY****
TOTAL RUN TIME: 0 days 0 hours 0 minutes 8 seconds 773 msec
