                         Program Version 3.0.3 - RELEASE   -
|  1> ! RI PBE def2-SVP def2-SVP/J NBO PAL2
|  2> % maxcore 2000
|  3> % output
|  4>     # printlevel mini
|  5>     print[ P_Basis ] 0
|  6>     print[ P_SCFInfo ] 1
|  7>     print[ P_SCFIterInfo ] 1
|  8>     print[ P_OrbEn ] 0
|  9>     print[ P_Cartesian ] 0
| 10> end
| 11> *xyz 0 1
| 12>  C        0.8856690000     0.0254120000    -0.2972620000
| 13>  C        2.3625960000     0.0712850000     0.0994900000
| 14>  C        3.0598900000     1.3351890000    -0.4124300000
| 15>  C        3.4544310000     1.2377000000    -1.8536910000
| 16>  C        3.7670580000     0.0552150000    -2.3885940000
| 17>  C        3.6884020000    -1.1596830000    -1.5881560000
| 18>  C        3.0576100000    -1.1615350000    -0.4109550000
| 19>  H        0.3449980000     0.8815640000     0.1165900000
| 20>  H        0.4091890000    -0.8861860000     0.0712780000
| 21>  H        0.7795220000     0.0438270000    -1.3846180000
| 22>  H        2.4137680000     0.0787560000     1.1932640000
| 23>  H        3.9705440000     1.5151560000     0.1780240000
| 24>  H        2.4161270000     2.2042480000    -0.2441460000
| 25>  H        3.5356580000     2.1479990000    -2.4387630000
| 26>  H        4.0984970000    -0.0161890000    -3.4190350000
| 27>  H        4.1323370000    -2.0705840000    -1.9759670000
| 28>  H        2.9644130000    -2.0787720000     0.1626920000
| 29> *
| 30>
| 31>                          ****END OF INPUT****
 Total Charge           Charge          ....    0
 Multiplicity           Mult            ....    1
 Number of Electrons    NEL             ....   52
 Basis Dimension        Dim             ....  148

MULLIKEN ATOMIC CHARGES
-----------------------
   0 C :    0.041032
   1 C :   -0.111032
   2 C :    0.116180
   3 C :   -0.093719
   4 C :    0.019860
   5 C :    0.009052
   6 C :   -0.032369
   7 H :    0.014521
   8 H :    0.013781
   9 H :    0.028762
  10 H :    0.011337
  11 H :    0.027202
  12 H :    0.001507
  13 H :   -0.005990
  14 H :   -0.014678
  15 H :   -0.018670
  16 H :   -0.006775
Sum of atomic charges:   -0.0000000

LOEWDIN ATOMIC CHARGES
----------------------
   0 C :   -0.053147
   1 C :   -0.045555
   2 C :   -0.034427
   3 C :   -0.027488
   4 C :   -0.049734
   5 C :   -0.047062
   6 C :   -0.019237
   7 H :    0.023417
   8 H :    0.026038
   9 H :    0.029353
  10 H :    0.031628
  11 H :    0.038778
  12 H :    0.029642
  13 H :    0.023163
  14 H :    0.026185
  15 H :    0.025501
  16 H :    0.022947

  Mayer bond orders larger than 0.1
B(  0-C ,  1-C ) :   1.0593 B(  0-C ,  7-H ) :   0.9529 B(  0-C ,  8-H ) :   0.9576
B(  0-C ,  9-H ) :   0.9660 B(  1-C ,  2-C ) :   1.0707 B(  1-C ,  6-C ) :   1.0138
B(  1-C , 10-H ) :   0.9000 B(  2-C ,  3-C ) :   1.0459 B(  2-C , 11-H ) :   0.8976
B(  2-C , 12-H ) :   0.9177 B(  3-C ,  4-C ) :   1.8012 B(  3-C , 13-H ) :   0.9645
B(  4-C ,  5-C ) :   1.0957 B(  4-C , 14-H ) :   0.9683 B(  5-C ,  6-C ) :   1.8090
B(  5-C , 15-H ) :   0.9693 B(  6-C , 16-H ) :   0.9617

FINAL SINGLE POINT ENERGY      -272.159673173277

DIPOLE MOMENT
-------------
                                X             Y             Z
Electronic contribution:      3.19081      -0.95685      -1.58146
Nuclear contribution   :     -3.26733       1.04154       1.71512
                        -----------------------------------------
Total Dipole Moment    :     -0.07652       0.08469       0.13366
                        -----------------------------------------
Magnitude (a.u.)       :      0.17576
Magnitude (Debye)      :      0.44675

                             ****ORCA TERMINATED NORMALLY****
TOTAL RUN TIME: 0 days 0 hours 0 minutes 8 seconds 282 msec
