                         Program Version 3.0.3 - RELEASE   -
|  1> ! RI PBE def2-SVP def2-SVP/J NBO PAL2
|  2> % maxcore 2000
|  3> % output
|  4>     # printlevel mini
|  5>     print[ P_Basis ] 0
|  6>     print[ P_SCFInfo ] 1
|  7>     print[ P_SCFIterInfo ] 1
|  8>     print[ P_OrbEn ] 0
|  9>     print[ P_Cartesian ] 0
| 10> end
| 11> *xyz 0 1
| 12>  C        0.9792750000     0.0616710000    -0.4184500000
| 13>  C        2.3832400000    -0.0713840000     0.1546520000
| 14>  C        2.6243730000    -1.3823440000     0.9328210000
| 15>  C        3.3161110000    -0.9796730000     2.2162990000
| 16>  C        3.8845660000    -1.7886790000     3.1103270000
| 17>  C        3.2451230000     0.4731090000     2.2856810000
| 18>  C        2.7298080000     0.9846210000     1.1653830000
| 19>  H        0.7714480000    -0.7378030000    -1.1343110000
| 20>  H        0.8499430000     1.0150940000    -0.9372420000
| 21>  H        0.2305920000     0.0067230000     0.3766910000
| 22>  H        3.0947830000     0.0010330000    -0.6798090000
| 23>  H        3.2028150000    -2.1131420000     0.3644380000
| 24>  H        1.6630930000    -1.8507120000     1.1699130000
| 25>  H        3.9061580000    -2.8638550000     2.9738140000
| 26>  H        4.3475770000    -1.3946240000     4.0078950000
| 27>  H        3.5922970000     1.0431510000     3.1393260000
| 28>  H        2.5888090000     2.0421160000     0.9695840000
| 29> *
| 30>
| 31>                          ****END OF INPUT****
 Total Charge           Charge          ....    0
 Multiplicity           Mult            ....    1
 Number of Electrons    NEL             ....   52
 Basis Dimension        Dim             ....  148

MULLIKEN ATOMIC CHARGES
-----------------------
   0 C :    0.009682
   1 C :   -0.116906
   2 C :    0.156804
   3 C :   -0.131213
   4 C :   -0.053819
   5 C :    0.044604
   6 C :   -0.025552
   7 H :    0.025727
   8 H :    0.019232
   9 H :    0.023164
  10 H :    0.028438
  11 H :    0.019456
  12 H :    0.021138
  13 H :    0.007658
  14 H :    0.003064
  15 H :   -0.020849
  16 H :   -0.010629
Sum of atomic charges:    0.0000000

LOEWDIN ATOMIC CHARGES
----------------------
   0 C :   -0.060047
   1 C :   -0.041899
   2 C :   -0.022079
   3 C :   -0.029681
   4 C :   -0.083889
   5 C :   -0.027164
   6 C :   -0.014643
   7 H :    0.027543
   8 H :    0.026139
   9 H :    0.025898
  10 H :    0.035641
  11 H :    0.034134
  12 H :    0.039021
  13 H :    0.021499
  14 H :    0.021806
  15 H :    0.025958
  16 H :    0.021760

  Mayer bond orders larger than 0.1
B(  0-C ,  1-C ) :   1.0806 B(  0-C ,  7-H ) :   0.9606 B(  0-C ,  8-H ) :   0.9611
B(  0-C ,  9-H ) :   0.9601 B(  1-C ,  2-C ) :   1.0517 B(  1-C ,  6-C ) :   1.0366
B(  1-C , 10-H ) :   0.8829 B(  2-C ,  3-C ) :   1.0326 B(  2-C , 11-H ) :   0.9109
B(  2-C , 12-H ) :   0.9037 B(  3-C ,  4-C ) :   1.9210 B(  3-C ,  5-C ) :   1.0908
B(  4-C ,  6-C ) :   0.1316 B(  4-C , 13-H ) :   0.9358 B(  4-C , 14-H ) :   0.9251
B(  5-C ,  6-C ) :   1.7191 B(  5-C , 15-H ) :   0.9923 B(  6-C , 16-H ) :   0.9850

FINAL SINGLE POINT ENERGY      -272.158501971526

DIPOLE MOMENT
-------------
                                X             Y             Z
Electronic contribution:      2.49008       0.93416       2.44389
Nuclear contribution   :     -2.62001      -0.83024      -2.71847
                        -----------------------------------------
Total Dipole Moment    :     -0.12994       0.10392      -0.27458
                        -----------------------------------------
Magnitude (a.u.)       :      0.32105
Magnitude (Debye)      :      0.81605

                             ****ORCA TERMINATED NORMALLY****
TOTAL RUN TIME: 0 days 0 hours 0 minutes 7 seconds 886 msec
