                         Program Version 3.0.3 - RELEASE   -
|  1> ! RI PBE def2-SVP def2-SVP/J NBO PAL2
|  2> % maxcore 2000
|  3> % output
|  4>     # printlevel mini
|  5>     print[ P_Basis ] 0
|  6>     print[ P_SCFInfo ] 1
|  7>     print[ P_SCFIterInfo ] 1
|  8>     print[ P_OrbEn ] 0
|  9>     print[ P_Cartesian ] 0
| 10> end
| 11> *xyz 0 1
| 12>  C        0.8720910000     0.0683600000    -0.0657310000
| 13>  C        2.3965050000     0.0319530000     0.0170800000
| 14>  C        2.9457100000    -1.2422680000     0.6887390000
| 15>  C        3.2752360000    -0.8650590000     2.1454980000
| 16>  C        4.5139440000    -1.5577530000     2.6927860000
| 17>  C        3.3845610000     0.6331830000     2.0673460000
| 18>  C        2.9306550000     1.1141870000     0.9164870000
| 19>  H        0.4964250000    -0.7229920000    -0.7199250000
| 20>  H        0.5186120000     1.0247120000    -0.4601690000
| 21>  H        0.4272060000    -0.0672200000     0.9239640000
| 22>  H        2.7926150000     0.1347880000    -0.9997220000
| 23>  H        3.8730360000    -1.5436540000     0.1916850000
| 24>  H        2.2524550000    -2.0840150000     0.6166560000
| 25>  H        2.4315410000    -1.1195860000     2.8034840000
| 26>  H        5.3904160000    -1.3182710000     2.0838650000
| 27>  H        4.3897060000    -2.6439840000     2.6922610000
| 28>  H        4.7233840000    -1.2480540000     3.7201640000
| 29>  H        3.7651180000     1.2330950000     2.8876920000
| 30>  H        2.8816730000     2.1662780000     0.6558590000
| 31> *
| 32>
| 33>                          ****END OF INPUT****
 Total Charge           Charge          ....    0
 Multiplicity           Mult            ....    1
 Number of Electrons    NEL             ....   54
 Basis Dimension        Dim             ....  158

MULLIKEN ATOMIC CHARGES
-----------------------
   0 C :    0.040950
   1 C :   -0.101221
   2 C :    0.089521
   3 C :   -0.109070
   4 C :    0.022761
   5 C :   -0.015315
   6 C :   -0.026212
   7 H :    0.019084
   8 H :    0.013272
   9 H :    0.014027
  10 H :    0.005076
  11 H :   -0.000557
  12 H :   -0.001556
  13 H :    0.019703
  14 H :    0.016430
  15 H :    0.023994
  16 H :    0.016287
  17 H :   -0.014610
  18 H :   -0.012565
Sum of atomic charges:   -0.0000000

LOEWDIN ATOMIC CHARGES
----------------------
   0 C :   -0.055985
   1 C :   -0.042640
   2 C :   -0.022490
   3 C :   -0.045018
   4 C :   -0.060615
   5 C :   -0.031350
   6 C :   -0.031982
   7 H :    0.024591
   8 H :    0.024791
   9 H :    0.024491
  10 H :    0.024510
  11 H :    0.025746
  12 H :    0.021238
  13 H :    0.029694
  14 H :    0.023779
  15 H :    0.026928
  16 H :    0.025202
  17 H :    0.019676
  18 H :    0.019435

  Mayer bond orders larger than 0.1
B(  0-C ,  1-C ) :   1.0639 B(  0-C ,  7-H ) :   0.9584 B(  0-C ,  8-H ) :   0.9606
B(  0-C ,  9-H ) :   0.9618 B(  1-C ,  2-C ) :   1.0647 B(  1-C ,  6-C ) :   1.0071
B(  1-C , 10-H ) :   0.9103 B(  2-C ,  3-C ) :   1.0637 B(  2-C , 11-H ) :   0.9216
B(  2-C , 12-H ) :   0.9292 B(  3-C ,  4-C ) :   1.0935 B(  3-C ,  5-C ) :   1.0102
B(  3-C , 13-H ) :   0.8899 B(  4-C , 14-H ) :   0.9578 B(  4-C , 15-H ) :   0.9599
B(  4-C , 16-H ) :   0.9581 B(  5-C ,  6-C ) :   1.8589 B(  5-C , 17-H ) :   0.9861
B(  6-C , 18-H ) :   0.9846

FINAL SINGLE POINT ENERGY      -273.369197150560

DIPOLE MOMENT
-------------
                                X             Y             Z
Electronic contribution:      0.68094       2.46458       0.08963
Nuclear contribution   :     -0.72986      -2.52071      -0.09089
                        -----------------------------------------
Total Dipole Moment    :     -0.04891      -0.05613      -0.00126
                        -----------------------------------------
Magnitude (a.u.)       :      0.07446
Magnitude (Debye)      :      0.18927

                             ****ORCA TERMINATED NORMALLY****
TOTAL RUN TIME: 0 days 0 hours 0 minutes 8 seconds 764 msec
