                         Program Version 3.0.3 - RELEASE   -
|  1> ! RI PBE def2-SVP def2-SVP/J NBO PAL2
|  2> % maxcore 2000
|  3> % output
|  4>     # printlevel mini
|  5>     print[ P_Basis ] 0
|  6>     print[ P_SCFInfo ] 1
|  7>     print[ P_SCFIterInfo ] 1
|  8>     print[ P_OrbEn ] 0
|  9>     print[ P_Cartesian ] 0
| 10> end
| 11> *xyz 0 1
| 12>  C        0.8772890000     0.0323660000    -0.4717460000
| 13>  C        2.2826050000    -0.0269600000     0.1145030000
| 14>  C        3.1189820000     1.1909720000    -0.2776890000
| 15>  C        3.3560360000     1.2645840000    -1.7813290000
| 16>  C        3.7322630000    -0.0651050000    -2.3530810000
| 17>  C        3.5859270000    -1.2089300000    -1.6920730000
| 18>  C        3.0133440000    -1.3023080000    -0.3112600000
| 19>  H        0.3763340000     0.9664870000    -0.2024530000
| 20>  H        0.2649900000    -0.7932730000    -0.0998630000
| 21>  H        0.8948900000    -0.0382020000    -1.5622490000
| 22>  H        2.1890140000    -0.0358620000     1.2062710000
| 23>  H        4.0877370000     1.1278940000     0.2302600000
| 24>  H        2.6379230000     2.1087440000     0.0745740000
| 25>  H        4.1420380000     1.9955340000    -2.0001580000
| 26>  H        2.4624270000     1.6428390000    -2.2960250000
| 27>  H        4.1409710000    -0.0799550000    -3.3600070000
| 28>  H        3.8955840000    -2.1377900000    -2.1639230000
| 29>  H        3.8216930000    -1.5262410000     0.3976360000
| 30>  H        2.3317520000    -2.1590940000    -0.2546750000
| 31> *
| 32>
| 33>                          ****END OF INPUT****
 Total Charge           Charge          ....    0
 Multiplicity           Mult            ....    1
 Number of Electrons    NEL             ....   54
 Basis Dimension        Dim             ....  158

MULLIKEN ATOMIC CHARGES
-----------------------
   0 C :    0.014401
   1 C :   -0.154708
   2 C :    0.041315
   3 C :    0.043327
   4 C :   -0.066054
   5 C :   -0.093132
   6 C :    0.110889
   7 H :    0.015710
   8 H :    0.013936
   9 H :    0.029361
  10 H :    0.003296
  11 H :    0.005925
  12 H :   -0.001266
  13 H :    0.016019
  14 H :    0.021076
  15 H :   -0.011743
  16 H :   -0.012903
  17 H :    0.018721
  18 H :    0.005831
Sum of atomic charges:   -0.0000000

LOEWDIN ATOMIC CHARGES
----------------------
   0 C :   -0.061938
   1 C :   -0.044157
   2 C :   -0.032257
   3 C :   -0.047789
   4 C :   -0.048527
   5 C :   -0.047499
   6 C :   -0.039668
   7 H :    0.024556
   8 H :    0.025427
   9 H :    0.027134
  10 H :    0.025239
  11 H :    0.024666
  12 H :    0.021875
  13 H :    0.033274
  14 H :    0.031374
  15 H :    0.022546
  16 H :    0.022091
  17 H :    0.034084
  18 H :    0.029570

  Mayer bond orders larger than 0.1
B(  0-C ,  1-C ) :   1.0737 B(  0-C ,  7-H ) :   0.9618 B(  0-C ,  8-H ) :   0.9548
B(  0-C ,  9-H ) :   0.9616 B(  1-C ,  2-C ) :   1.0679 B(  1-C ,  6-C ) :   1.0614
B(  1-C , 10-H ) :   0.9058 B(  2-C ,  3-C ) :   1.0959 B(  2-C , 11-H ) :   0.9313
B(  2-C , 12-H ) :   0.9258 B(  3-C ,  4-C ) :   1.0450 B(  3-C , 13-H ) :   0.9170
B(  3-C , 14-H ) :   0.9051 B(  4-C ,  5-C ) :   1.9248 B(  4-C , 15-H ) :   0.9545
B(  5-C ,  6-C ) :   1.0372 B(  5-C , 16-H ) :   0.9554 B(  6-C , 17-H ) :   0.9037
B(  6-C , 18-H ) :   0.9170

FINAL SINGLE POINT ENERGY      -273.375298221095

DIPOLE MOMENT
-------------
                                X             Y             Z
Electronic contribution:      2.41965      -0.99360      -1.19966
Nuclear contribution   :     -2.44646       1.04071       1.29563
                        -----------------------------------------
Total Dipole Moment    :     -0.02681       0.04711       0.09596
                        -----------------------------------------
Magnitude (a.u.)       :      0.11021
Magnitude (Debye)      :      0.28014

                             ****ORCA TERMINATED NORMALLY****
TOTAL RUN TIME: 0 days 0 hours 0 minutes 8 seconds 946 msec
