                         Program Version 3.0.3 - RELEASE   -
|  1> ! RI PBE def2-SVP def2-SVP/J NBO PAL2
|  2> % maxcore 2000
|  3> % output
|  4>     # printlevel mini
|  5>     print[ P_Basis ] 0
|  6>     print[ P_SCFInfo ] 1
|  7>     print[ P_SCFIterInfo ] 1
|  8>     print[ P_OrbEn ] 0
|  9>     print[ P_Cartesian ] 0
| 10> end
| 11> *xyz 0 1
| 12>  C        0.9659520000    -0.0327210000    -0.2360590000
| 13>  C        2.4612600000    -0.0594630000     0.0053710000
| 14>  C        2.9929610000     1.0921500000     0.8599060000
| 15>  C        4.3933430000     0.6337990000     1.2618630000
| 16>  C        4.2869910000    -0.8732240000     1.3573240000
| 17>  C        5.2024810000    -1.6859050000     1.8674430000
| 18>  C        2.9616740000    -1.2897510000     0.7667290000
| 19>  H        0.6631450000     0.8735000000    -0.7672360000
| 20>  H        0.4213780000    -0.0607920000     0.7130510000
| 21>  H        0.6408100000    -0.8900070000    -0.8313980000
| 22>  H        2.9785050000    -0.0248730000    -0.9628900000
| 23>  H        2.3603110000     1.1982670000     1.7493010000
| 24>  H        2.9843820000     2.0515100000     0.3374850000
| 25>  H        4.7557440000     1.0874540000     2.1867880000
| 26>  H        5.1117050000     0.8956150000     0.4764290000
| 27>  H        6.1263170000    -1.3059040000     2.2907470000
| 28>  H        5.0620160000    -2.7614890000     1.8811370000
| 29>  H        2.2566470000    -1.5160200000     1.5781490000
| 30>  H        3.0352790000    -2.1878460000     0.1490710000
| 31> *
| 32>
| 33>                          ****END OF INPUT****
 Total Charge           Charge          ....    0
 Multiplicity           Mult            ....    1
 Number of Electrons    NEL             ....   54
 Basis Dimension        Dim             ....  158

MULLIKEN ATOMIC CHARGES
-----------------------
   0 C :    0.055057
   1 C :   -0.201282
   2 C :    0.010150
   3 C :    0.111424
   4 C :   -0.213253
   5 C :   -0.051388
   6 C :    0.145688
   7 H :    0.016777
   8 H :    0.009012
   9 H :    0.019132
  10 H :    0.011315
  11 H :    0.008171
  12 H :    0.006201
  13 H :    0.012939
  14 H :    0.023111
  15 H :    0.001047
  16 H :    0.006338
  17 H :    0.015873
  18 H :    0.013688
Sum of atomic charges:   -0.0000000

LOEWDIN ATOMIC CHARGES
----------------------
   0 C :   -0.060375
   1 C :   -0.045189
   2 C :   -0.035935
   3 C :   -0.035243
   4 C :   -0.027159
   5 C :   -0.087365
   6 C :   -0.031294
   7 H :    0.026730
   8 H :    0.023410
   9 H :    0.026997
  10 H :    0.025056
  11 H :    0.022441
  12 H :    0.022105
  13 H :    0.031633
  14 H :    0.037355
  15 H :    0.020122
  16 H :    0.020718
  17 H :    0.035210
  18 H :    0.030783

  Mayer bond orders larger than 0.1
B(  0-C ,  1-C ) :   1.0957 B(  0-C ,  7-H ) :   0.9581 B(  0-C ,  8-H ) :   0.9519
B(  0-C ,  9-H ) :   0.9594 B(  1-C ,  2-C ) :   1.0540 B(  1-C ,  6-C ) :   1.0403
B(  1-C , 10-H ) :   0.9143 B(  2-C ,  3-C ) :   1.0984 B(  2-C , 11-H ) :   0.9304
B(  2-C , 12-H ) :   0.9318 B(  3-C ,  4-C ) :   1.0399 B(  3-C , 13-H ) :   0.9224
B(  3-C , 14-H ) :   0.9037 B(  4-C ,  5-C ) :   2.0256 B(  4-C ,  6-C ) :   1.0498
B(  5-C , 15-H ) :   0.9272 B(  5-C , 16-H ) :   0.9343 B(  6-C , 17-H ) :   0.8998
B(  6-C , 18-H ) :   0.9194

FINAL SINGLE POINT ENERGY      -273.369827476447

DIPOLE MOMENT
-------------
                                X             Y             Z
Electronic contribution:      2.69571      -0.79687       0.92598
Nuclear contribution   :     -2.85918       0.94875      -1.05293
                        -----------------------------------------
Total Dipole Moment    :     -0.16347       0.15188      -0.12695
                        -----------------------------------------
Magnitude (a.u.)       :      0.25672
Magnitude (Debye)      :      0.65253

                             ****ORCA TERMINATED NORMALLY****
TOTAL RUN TIME: 0 days 0 hours 0 minutes 8 seconds 237 msec
