                         Program Version 3.0.3 - RELEASE   -
|  1> ! RI PBE def2-SVP def2-SVP/J NBO PAL2
|  2> % maxcore 2000
|  3> % output
|  4>     # printlevel mini
|  5>     print[ P_Basis ] 0
|  6>     print[ P_SCFInfo ] 1
|  7>     print[ P_SCFIterInfo ] 1
|  8>     print[ P_OrbEn ] 0
|  9>     print[ P_Cartesian ] 0
| 10> end
| 11> *xyz 0 1
| 12>  C        0.9002220000     0.0490650000    -0.0186220000
| 13>  C        2.4245450000     0.0044230000     0.0588660000
| 14>  C        2.9669040000    -1.2730570000     0.7337150000
| 15>  C        3.3358530000    -0.8679520000     2.1670670000
| 16>  C        3.4506350000     0.6317210000     2.0990510000
| 17>  C        3.9950080000     1.4364140000     3.2376310000
| 18>  C        2.9726470000     1.0889140000     0.9438130000
| 19>  H        0.5158330000    -0.7430900000    -0.6672530000
| 20>  H        0.5512630000     1.0059520000    -0.4160650000
| 21>  H        0.4589060000    -0.0785160000     0.9740240000
| 22>  H        2.8153830000     0.0921250000    -0.9617680000
| 23>  H        3.8663630000    -1.6064730000     0.2105310000
| 24>  H        2.2491820000    -2.0958110000     0.6954540000
| 25>  H        4.2649450000    -1.3369320000     2.5078570000
| 26>  H        2.5682830000    -1.1541480000     2.8986100000
| 27>  H        4.3029650000     0.7955030000     4.0658950000
| 28>  H        3.2538820000     2.1412190000     3.6237730000
| 29>  H        4.8676270000     2.0199220000     2.9323220000
| 30>  H        2.9132640000     2.1396090000     0.6752990000
| 31> *
| 32>
| 33>                          ****END OF INPUT****
 Total Charge           Charge          ....    0
 Multiplicity           Mult            ....    1
 Number of Electrons    NEL             ....   54
 Basis Dimension        Dim             ....  158

MULLIKEN ATOMIC CHARGES
-----------------------
   0 C :    0.046093
   1 C :   -0.091899
   2 C :    0.020993
   3 C :    0.082135
   4 C :   -0.196584
   5 C :    0.071691
   6 C :   -0.054651
   7 H :    0.016701
   8 H :    0.010645
   9 H :    0.010748
  10 H :    0.001813
  11 H :    0.012578
  12 H :   -0.000173
  13 H :    0.007109
  14 H :    0.018026
  15 H :    0.009671
  16 H :    0.035338
  17 H :    0.033911
  18 H :   -0.034145
Sum of atomic charges:   -0.0000000

LOEWDIN ATOMIC CHARGES
----------------------
   0 C :   -0.057914
   1 C :   -0.041874
   2 C :   -0.030143
   3 C :   -0.034907
   4 C :   -0.042934
   5 C :   -0.064219
   6 C :   -0.049484
   7 H :    0.023321
   8 H :    0.024054
   9 H :    0.023388
  10 H :    0.022848
  11 H :    0.027924
  12 H :    0.020881
  13 H :    0.025256
  14 H :    0.028672
  15 H :    0.029688
  16 H :    0.039485
  17 H :    0.040871
  18 H :    0.015087

  Mayer bond orders larger than 0.1
B(  0-C ,  1-C ) :   1.0653 B(  0-C ,  7-H ) :   0.9576 B(  0-C ,  8-H ) :   0.9604
B(  0-C ,  9-H ) :   0.9603 B(  1-C ,  2-C ) :   1.0740 B(  1-C ,  6-C ) :   0.9967
B(  1-C , 10-H ) :   0.9077 B(  2-C ,  3-C ) :   1.1009 B(  2-C , 11-H ) :   0.9290
B(  2-C , 12-H ) :   0.9348 B(  3-C ,  4-C ) :   1.0507 B(  3-C , 13-H ) :   0.9195
B(  3-C , 14-H ) :   0.9053 B(  4-C ,  5-C ) :   1.0849 B(  4-C ,  6-C ) :   1.8621
B(  5-C , 15-H ) :   0.9507 B(  5-C , 16-H ) :   0.9507 B(  5-C , 17-H ) :   0.9472
B(  6-C , 18-H ) :   0.9916

FINAL SINGLE POINT ENERGY      -273.372028837934

DIPOLE MOMENT
-------------
                                X             Y             Z
Electronic contribution:      1.47238       0.55239      -0.47455
Nuclear contribution   :     -1.42412      -0.53649       0.59902
                        -----------------------------------------
Total Dipole Moment    :      0.04825       0.01590       0.12448
                        -----------------------------------------
Magnitude (a.u.)       :      0.13445
Magnitude (Debye)      :      0.34173

                             ****ORCA TERMINATED NORMALLY****
TOTAL RUN TIME: 0 days 0 hours 0 minutes 8 seconds 751 msec
