                         Program Version 3.0.3 - RELEASE   -
|  1> ! RI PBE def2-SVP def2-SVP/J NBO PAL2
|  2> % maxcore 2000
|  3> % output
|  4>     # printlevel mini
|  5>     print[ P_Basis ] 0
|  6>     print[ P_SCFInfo ] 1
|  7>     print[ P_SCFIterInfo ] 1
|  8>     print[ P_OrbEn ] 0
|  9>     print[ P_Cartesian ] 0
| 10> end
| 11> *xyz 0 1
| 12>  C        0.9458190000     0.0009600000    -0.0297020000
| 13>  C        2.4596110000    -0.0891740000     0.1619060000
| 14>  C        3.1884190000     1.1728010000    -0.3066540000
| 15>  C        3.4202270000     1.1685390000    -1.8110920000
| 16>  C        4.2856540000    -0.0153940000    -2.2173640000
| 17>  C        3.8389940000    -1.2804170000    -1.5542210000
| 18>  C        3.0173250000    -1.3102110000    -0.5095850000
| 19>  H        0.5272190000     0.8208340000     0.5602310000
| 20>  H        0.4533980000    -0.9237540000     0.2820490000
| 21>  H        0.6903290000     0.1697320000    -1.0788090000
| 22>  H        2.6377650000    -0.2009740000     1.2396170000
| 23>  H        4.1594530000     1.2317380000     0.1981310000
| 24>  H        2.6229100000     2.0599120000    -0.0049170000
| 25>  H        3.8841020000     2.1064800000    -2.1286560000
| 26>  H        2.4580960000     1.1050890000    -2.3308890000
| 27>  H        5.3366920000     0.1781080000    -1.9619040000
| 28>  H        4.2691490000    -0.1447980000    -3.3049120000
| 29>  H        4.2126390000    -2.2159810000    -1.9623200000
| 30>  H        2.7149760000    -2.2712810000    -0.0995990000
| 31> *
| 32>
| 33>                          ****END OF INPUT****
 Total Charge           Charge          ....    0
 Multiplicity           Mult            ....    1
 Number of Electrons    NEL             ....   54
 Basis Dimension        Dim             ....  158

MULLIKEN ATOMIC CHARGES
-----------------------
   0 C :    0.035783
   1 C :   -0.077816
   2 C :    0.033692
   3 C :    0.003810
   4 C :    0.042922
   5 C :   -0.081683
   6 C :   -0.032940
   7 H :    0.014675
   8 H :    0.012692
   9 H :    0.013592
  10 H :    0.011557
  11 H :    0.002128
  12 H :   -0.003525
  13 H :   -0.000271
  14 H :    0.011516
  15 H :    0.022556
  16 H :    0.020430
  17 H :   -0.013689
  18 H :   -0.015430
Sum of atomic charges:    0.0000000

LOEWDIN ATOMIC CHARGES
----------------------
   0 C :   -0.053339
   1 C :   -0.048219
   2 C :   -0.033054
   3 C :   -0.038506
   4 C :   -0.047578
   5 C :   -0.046625
   6 C :   -0.040381
   7 H :    0.023627
   8 H :    0.025335
   9 H :    0.022410
  10 H :    0.033180
  11 H :    0.024173
  12 H :    0.021848
  13 H :    0.023702
  14 H :    0.023175
  15 H :    0.033829
  16 H :    0.033113
  17 H :    0.021960
  18 H :    0.021350

  Mayer bond orders larger than 0.1
B(  0-C ,  1-C ) :   1.0713 B(  0-C ,  7-H ) :   0.9559 B(  0-C ,  8-H ) :   0.9583
B(  0-C ,  9-H ) :   0.9608 B(  1-C ,  2-C ) :   1.0698 B(  1-C ,  6-C ) :   1.0074
B(  1-C , 10-H ) :   0.8948 B(  2-C ,  3-C ) :   1.0923 B(  2-C , 11-H ) :   0.9261
B(  2-C , 12-H ) :   0.9283 B(  3-C ,  4-C ) :   1.1020 B(  3-C , 13-H ) :   0.9246
B(  3-C , 14-H ) :   0.9333 B(  4-C ,  5-C ) :   1.0425 B(  4-C , 15-H ) :   0.9090
B(  4-C , 16-H ) :   0.9197 B(  5-C ,  6-C ) :   1.9294 B(  5-C , 17-H ) :   0.9550
B(  6-C , 18-H ) :   0.9552

FINAL SINGLE POINT ENERGY      -273.375390600691

DIPOLE MOMENT
-------------
                                X             Y             Z
Electronic contribution:      1.90082      -1.96764      -0.12035
Nuclear contribution   :     -1.88705       2.06691       0.12381
                        -----------------------------------------
Total Dipole Moment    :      0.01377       0.09927       0.00346
                        -----------------------------------------
Magnitude (a.u.)       :      0.10028
Magnitude (Debye)      :      0.25489

                             ****ORCA TERMINATED NORMALLY****
TOTAL RUN TIME: 0 days 0 hours 0 minutes 8 seconds 325 msec
