                         Program Version 3.0.3 - RELEASE   -
|  1> ! RI PBE def2-SVP def2-SVP/J NBO PAL2
|  2> % maxcore 2000
|  3> % output
|  4>     # printlevel mini
|  5>     print[ P_Basis ] 0
|  6>     print[ P_SCFInfo ] 1
|  7>     print[ P_SCFIterInfo ] 1
|  8>     print[ P_OrbEn ] 0
|  9>     print[ P_Cartesian ] 0
| 10> end
| 11> *xyz 0 1
| 12>  C        2.5568360000     0.8050590000    -0.7477870000
| 13>  C        2.3930680000    -0.1661720000     0.1409910000
| 14>  C        3.2564820000    -0.4534690000     1.3036420000
| 15>  C        4.4875500000    -1.3126240000     1.1541560000
| 16>  C        4.6299970000     0.1411500000     1.4681710000
| 17>  C        5.0626630000     0.6294900000     2.7934680000
| 18>  C        5.6592250000    -0.0869110000     3.7371950000
| 19>  H        1.8771330000     0.9197130000    -1.5837120000
| 20>  H        3.3680390000     1.5216210000    -0.6750380000
| 21>  H        1.5478830000    -0.8425350000     0.0217900000
| 22>  H        2.7192130000    -0.6174320000     2.2338530000
| 23>  H        4.7472750000    -1.6321450000     0.1525020000
| 24>  H        4.6927810000    -2.0374260000     1.9318760000
| 25>  H        4.9511840000     0.7661330000     0.6400720000
| 26>  H        4.8506130000     1.6792860000     2.9891440000
| 27>  H        5.9098780000    -1.1322970000     3.5915590000
| 28>  H        5.9231610000     0.3520600000     4.6920080000
| 29> *
| 30>
| 31>                          ****END OF INPUT****
 Total Charge           Charge          ....    0
 Multiplicity           Mult            ....    1
 Number of Electrons    NEL             ....   52
 Basis Dimension        Dim             ....  148

MULLIKEN ATOMIC CHARGES
-----------------------
   0 C :   -0.039292
   1 C :   -0.003928
   2 C :   -0.074946
   3 C :    0.036209
   4 C :   -0.074835
   5 C :   -0.022050
   6 C :   -0.033812
   7 H :    0.024082
   8 H :    0.015643
   9 H :    0.005896
  10 H :    0.033355
  11 H :    0.026248
  12 H :    0.033401
  13 H :    0.029690
  14 H :    0.006928
  15 H :    0.015618
  16 H :    0.021794
Sum of atomic charges:   -0.0000000

LOEWDIN ATOMIC CHARGES
----------------------
   0 C :   -0.067815
   1 C :   -0.023746
   2 C :   -0.033345
   3 C :   -0.022065
   4 C :   -0.038593
   5 C :   -0.024451
   6 C :   -0.066985
   7 H :    0.025552
   8 H :    0.019645
   9 H :    0.030056
  10 H :    0.035873
  11 H :    0.029479
  12 H :    0.027073
  13 H :    0.034420
  14 H :    0.029760
  15 H :    0.020241
  16 H :    0.024902

  Mayer bond orders larger than 0.1
B(  0-C ,  1-C ) :   2.0021 B(  0-C ,  7-H ) :   0.9416 B(  0-C ,  8-H ) :   0.9366
B(  1-C ,  2-C ) :   1.0613 B(  1-C ,  9-H ) :   0.9526 B(  2-C ,  3-C ) :   0.9794
B(  2-C ,  4-C ) :   0.9234 B(  2-C , 10-H ) :   0.9276 B(  3-C ,  4-C ) :   1.0214
B(  3-C , 11-H ) :   0.9330 B(  3-C , 12-H ) :   0.9315 B(  4-C ,  5-C ) :   1.0549
B(  4-C , 13-H ) :   0.9156 B(  5-C ,  6-C ) :   2.0061 B(  5-C , 14-H ) :   0.9565
B(  6-C , 15-H ) :   0.9353 B(  6-C , 16-H ) :   0.9417

FINAL SINGLE POINT ENERGY      -272.110463063136

DIPOLE MOMENT
-------------
                                X             Y             Z
Electronic contribution:     -0.48436       0.24891       0.03953
Nuclear contribution   :      0.43705      -0.32629      -0.06462
                        -----------------------------------------
Total Dipole Moment    :     -0.04731      -0.07738      -0.02510
                        -----------------------------------------
Magnitude (a.u.)       :      0.09410
Magnitude (Debye)      :      0.23920

                             ****ORCA TERMINATED NORMALLY****
TOTAL RUN TIME: 0 days 0 hours 0 minutes 7 seconds 694 msec
