                         Program Version 3.0.3 - RELEASE   -
|  1> ! RI PBE def2-SVP def2-SVP/J NBO PAL2
|  2> % maxcore 2000
|  3> % output
|  4>     # printlevel mini
|  5>     print[ P_Basis ] 0
|  6>     print[ P_SCFInfo ] 1
|  7>     print[ P_SCFIterInfo ] 1
|  8>     print[ P_OrbEn ] 0
|  9>     print[ P_Cartesian ] 0
| 10> end
| 11> *xyz 0 1
| 12>  C        2.4774650000    -0.8089300000    -0.5826810000
| 13>  C        2.1177710000     0.1116600000     0.3021520000
| 14>  C        3.0243800000     1.0440700000     1.0003720000
| 15>  C        4.4081510000     1.3254010000     0.5329270000
| 16>  C        3.3496000000     2.3859740000     0.3569490000
| 17>  C        3.3724910000     3.5737620000     1.1518000000
| 18>  C        3.3891320000     4.5697090000     1.8247610000
| 19>  H        1.7415270000    -1.4417640000    -1.0641280000
| 20>  H        3.5153800000    -0.9699490000    -0.8539470000
| 21>  H        1.0640710000     0.2187610000     0.5521510000
| 22>  H        2.8655600000     1.1152440000     2.0718530000
| 23>  H        4.7603220000     0.8408510000    -0.3685500000
| 24>  H        5.1678850000     1.5089490000     1.2810070000
| 25>  H        2.9760120000     2.5117360000    -0.6538220000
| 26>  H        3.4041640000     5.4527260000     2.4181550000
| 27> *
| 28>
| 29>                          ****END OF INPUT****
 Total Charge           Charge          ....    0
 Multiplicity           Mult            ....    1
 Number of Electrons    NEL             ....   50
 Basis Dimension        Dim             ....  138

MULLIKEN ATOMIC CHARGES
-----------------------
   0 C :   -0.032414
   1 C :   -0.017118
   2 C :   -0.060309
   3 C :    0.051998
   4 C :   -0.144628
   5 C :    0.447779
   6 C :   -0.466231
   7 H :    0.028945
   8 H :    0.016088
   9 H :    0.010428
  10 H :    0.040165
  11 H :    0.034920
  12 H :    0.040280
  13 H :    0.051324
  14 H :   -0.001228
Sum of atomic charges:    0.0000000

LOEWDIN ATOMIC CHARGES
----------------------
   0 C :   -0.060559
   1 C :   -0.025751
   2 C :   -0.023953
   3 C :   -0.015083
   4 C :   -0.037045
   5 C :   -0.017940
   6 C :   -0.088658
   7 H :    0.027266
   8 H :    0.020925
   9 H :    0.031674
  10 H :    0.041345
  11 H :    0.031003
  12 H :    0.036590
  13 H :    0.046443
  14 H :    0.033743

  Mayer bond orders larger than 0.1
B(  0-C ,  1-C ) :   1.9923 B(  0-C ,  7-H ) :   0.9435 B(  0-C ,  8-H ) :   0.9381
B(  1-C ,  2-C ) :   1.0649 B(  1-C ,  9-H ) :   0.9568 B(  2-C ,  3-C ) :   1.0127
B(  2-C ,  4-C ) :   0.8955 B(  2-C , 10-H ) :   0.9246 B(  3-C ,  4-C ) :   0.9733
B(  3-C , 11-H ) :   0.9274 B(  3-C , 12-H ) :   0.9311 B(  4-C ,  5-C ) :   1.0332
B(  4-C , 13-H ) :   0.9186 B(  5-C ,  6-C ) :   2.2755 B(  5-C , 14-H ) :  -0.1052
B(  6-C , 14-H ) :   1.0959

FINAL SINGLE POINT ENERGY      -270.869109889165

DIPOLE MOMENT
-------------
                                X             Y             Z
Electronic contribution:     -0.14269       3.80057       1.53840
Nuclear contribution   :      0.16541      -4.03053      -1.59121
                        -----------------------------------------
Total Dipole Moment    :      0.02272      -0.22996      -0.05282
                        -----------------------------------------
Magnitude (a.u.)       :      0.23704
Magnitude (Debye)      :      0.60251

                             ****ORCA TERMINATED NORMALLY****
TOTAL RUN TIME: 0 days 0 hours 0 minutes 6 seconds 434 msec
