                         Program Version 3.0.3 - RELEASE   -
|  1> ! RI PBE def2-SVP def2-SVP/J NBO PAL2
|  2> % maxcore 2000
|  3> % output
|  4>     # printlevel mini
|  5>     print[ P_Basis ] 0
|  6>     print[ P_SCFInfo ] 1
|  7>     print[ P_SCFIterInfo ] 1
|  8>     print[ P_OrbEn ] 0
|  9>     print[ P_Cartesian ] 0
| 10> end
| 11> *xyz 0 1
| 12>  C        1.0073200000     0.1404270000    -0.0186870000
| 13>  C        2.2082620000     0.1068870000    -0.0090070000
| 14>  C        3.6374500000     0.0662540000    -0.0026170000
| 15>  C        4.3802080000    -0.6562400000    -1.0887930000
| 16>  C        4.4051500000     0.8445240000    -1.0651660000
| 17>  C        5.5962790000     1.5411400000    -0.6906810000
| 18>  C        6.5985620000     2.1226850000    -0.3733240000
| 19>  H       -0.0563630000     0.1708560000    -0.0239220000
| 20>  H        4.0989790000     0.0588440000     0.9783290000
| 21>  H        3.7907840000    -1.1282340000    -1.8634340000
| 22>  H        5.2885780000    -1.1718920000    -0.8073070000
| 23>  H        3.7845130000     1.3445450000    -1.8000840000
| 24>  H        7.4850770000     2.6408030000    -0.0940090000
| 25> *
| 26>
| 27>                          ****END OF INPUT****
 Total Charge           Charge          ....    0
 Multiplicity           Mult            ....    1
 Number of Electrons    NEL             ....   48
 Basis Dimension        Dim             ....  128

MULLIKEN ATOMIC CHARGES
-----------------------
   0 C :   -0.460025
   1 C :    0.449702
   2 C :   -0.135251
   3 C :    0.070847
   4 C :   -0.133521
   5 C :    0.446417
   6 C :   -0.459840
   7 H :    0.001462
   8 H :    0.062629
   9 H :    0.045858
  10 H :    0.046920
  11 H :    0.062199
  12 H :    0.002603
Sum of atomic charges:   -0.0000000

LOEWDIN ATOMIC CHARGES
----------------------
   0 C :   -0.078446
   1 C :   -0.017554
   2 C :   -0.030107
   3 C :    0.001111
   4 C :   -0.029756
   5 C :   -0.018169
   6 C :   -0.079085
   7 H :    0.035114
   8 H :    0.052272
   9 H :    0.038167
  10 H :    0.038446
  11 H :    0.052257
  12 H :    0.035752

  Mayer bond orders larger than 0.1
B(  0-C ,  1-C ) :   2.2782 B(  0-C ,  7-H ) :   1.0994 B(  1-C ,  2-C ) :   1.0282
B(  1-C ,  7-H ) :  -0.1083 B(  2-C ,  3-C ) :   0.9713 B(  2-C ,  4-C ) :   0.8822
B(  2-C ,  8-H ) :   0.9230 B(  3-C ,  4-C ) :   0.9746 B(  3-C ,  9-H ) :   0.9373
B(  3-C , 10-H ) :   0.9369 B(  4-C ,  5-C ) :   1.0269 B(  4-C , 11-H ) :   0.9227
B(  5-C ,  6-C ) :   2.2778 B(  5-C , 12-H ) :  -0.1049 B(  6-C , 12-H ) :   1.0954

FINAL SINGLE POINT ENERGY      -269.625848426942

DIPOLE MOMENT
-------------
                                X             Y             Z
Electronic contribution:     -0.40307       1.25573       0.62906
Nuclear contribution   :      0.46782      -1.44906      -0.72310
                        -----------------------------------------
Total Dipole Moment    :      0.06474      -0.19333      -0.09403
                        -----------------------------------------
Magnitude (a.u.)       :      0.22453
Magnitude (Debye)      :      0.57070

                             ****ORCA TERMINATED NORMALLY****
TOTAL RUN TIME: 0 days 0 hours 0 minutes 5 seconds 793 msec
