                         Program Version 3.0.3 - RELEASE   -
|  1> ! RI PBE def2-SVP def2-SVP/J NBO PAL2
|  2> % maxcore 2000
|  3> % output
|  4>     # printlevel mini
|  5>     print[ P_Basis ] 0
|  6>     print[ P_SCFInfo ] 1
|  7>     print[ P_SCFIterInfo ] 1
|  8>     print[ P_OrbEn ] 0
|  9>     print[ P_Cartesian ] 0
| 10> end
| 11> *xyz 0 1
| 12>  C        1.5555730000     0.4640370000    -0.4024480000
| 13>  C        2.9268390000    -0.1104080000    -0.0826690000
| 14>  C        3.2840350000     0.0071660000     1.3745190000
| 15>  C        4.7145470000     0.0156240000     1.8137040000
| 16>  C        3.8824240000     1.2749140000     1.8964890000
| 17>  C        3.5386970000     1.8526280000     3.2116270000
| 18>  C        2.4942220000     1.5346260000     3.9657100000
| 19>  H        1.3215040000     0.3722780000    -1.4656090000
| 20>  H        1.5023680000     1.5223380000    -0.1345990000
| 21>  H        0.7722960000    -0.0560710000     0.1558300000
| 22>  H        3.6913240000     0.4020450000    -0.6780880000
| 23>  H        2.9659480000    -1.1641650000    -0.3816390000
| 24>  H        2.5984130000    -0.5002450000     2.0470460000
| 25>  H        5.4840440000    -0.0343620000     1.0516050000
| 26>  H        4.9630030000    -0.4719320000     2.7483660000
| 27>  H        4.1282380000     2.0164010000     1.1394480000
| 28>  H        4.2342270000     2.6057670000     3.5794610000
| 29>  H        1.7584340000     0.8029250000     3.6492390000
| 30>  H        2.3377550000     2.0008450000     4.9313100000
| 31> *
| 32>
| 33>                          ****END OF INPUT****
 Total Charge           Charge          ....    0
 Multiplicity           Mult            ....    1
 Number of Electrons    NEL             ....   54
 Basis Dimension        Dim             ....  158

MULLIKEN ATOMIC CHARGES
-----------------------
   0 C :   -0.019301
   1 C :    0.053125
   2 C :   -0.150694
   3 C :    0.033095
   4 C :   -0.064969
   5 C :   -0.013160
   6 C :   -0.033777
   7 H :    0.021482
   8 H :    0.025035
   9 H :    0.014824
  10 H :   -0.006374
  11 H :    0.012986
  12 H :    0.019778
  13 H :    0.021733
  14 H :    0.027371
  15 H :    0.021781
  16 H :    0.002086
  17 H :    0.014717
  18 H :    0.020263
Sum of atomic charges:   -0.0000000

LOEWDIN ATOMIC CHARGES
----------------------
   0 C :   -0.066901
   1 C :   -0.036063
   2 C :   -0.037245
   3 C :   -0.029012
   4 C :   -0.045798
   5 C :   -0.024891
   6 C :   -0.068562
   7 H :    0.026155
   8 H :    0.027176
   9 H :    0.025097
  10 H :    0.023490
  11 H :    0.026453
  12 H :    0.025994
  13 H :    0.024270
  14 H :    0.027340
  15 H :    0.031521
  16 H :    0.027775
  17 H :    0.019083
  18 H :    0.024122

  Mayer bond orders larger than 0.1
B(  0-C ,  1-C ) :   1.1205 B(  0-C ,  7-H ) :   0.9608 B(  0-C ,  8-H ) :   0.9674
B(  0-C ,  9-H ) :   0.9617 B(  1-C ,  2-C ) :   1.0813 B(  1-C , 10-H ) :   0.9170
B(  1-C , 11-H ) :   0.9302 B(  2-C ,  3-C ) :   1.0006 B(  2-C ,  4-C ) :   0.9461
B(  2-C , 12-H ) :   0.9327 B(  3-C ,  4-C ) :   0.9811 B(  3-C , 13-H ) :   0.9349
B(  3-C , 14-H ) :   0.9390 B(  4-C ,  5-C ) :   1.0599 B(  4-C , 15-H ) :   0.9227
B(  5-C ,  6-C ) :   2.0026 B(  5-C , 16-H ) :   0.9549 B(  6-C , 17-H ) :   0.9367
B(  6-C , 18-H ) :   0.9403

FINAL SINGLE POINT ENERGY      -273.334590219906

DIPOLE MOMENT
-------------
                                X             Y             Z
Electronic contribution:      2.22621       0.88362       2.75082
Nuclear contribution   :     -2.16213      -0.93644      -2.90889
                        -----------------------------------------
Total Dipole Moment    :      0.06408      -0.05282      -0.15807
                        -----------------------------------------
Magnitude (a.u.)       :      0.17856
Magnitude (Debye)      :      0.45385

                             ****ORCA TERMINATED NORMALLY****
TOTAL RUN TIME: 0 days 0 hours 0 minutes 8 seconds 586 msec
