                         Program Version 3.0.3 - RELEASE   -
|  1> ! RI PBE def2-SVP def2-SVP/J NBO PAL2
|  2> % maxcore 2000
|  3> % output
|  4>     # printlevel mini
|  5>     print[ P_Basis ] 0
|  6>     print[ P_SCFInfo ] 1
|  7>     print[ P_SCFIterInfo ] 1
|  8>     print[ P_OrbEn ] 0
|  9>     print[ P_Cartesian ] 0
| 10> end
| 11> *xyz 0 1
| 12>  C        1.0378490000    -0.2143500000     0.1456440000
| 13>  C        2.5538570000    -0.0987210000     0.1303520000
| 14>  C        3.1084430000     0.5255570000     1.3806370000
| 15>  C        4.4220100000     1.2265910000     1.3705970000
| 16>  C        3.1489770000     2.0322360000     1.5007690000
| 17>  C        2.8291560000     2.6704330000     2.7399980000
| 18>  C        2.5609220000     3.2025090000     3.7841750000
| 19>  H        0.6646130000    -0.6686600000    -0.7748950000
| 20>  H        0.5700800000     0.7677430000     0.2509830000
| 21>  H        0.6987210000    -0.8312580000     0.9820910000
| 22>  H        2.8734710000     0.4936290000    -0.7348600000
| 23>  H        3.0011810000    -1.0907020000    -0.0003580000
| 24>  H        2.8568080000     0.0120060000     2.3036570000
| 25>  H        4.9523460000     1.3021560000     0.4284970000
| 26>  H        5.0524680000     1.1619260000     2.2476690000
| 27>  H        2.8433700000     2.5802130000     0.6145260000
| 28>  H        2.3228170000     3.6744710000     4.7074290000
| 29> *
| 30>
| 31>                          ****END OF INPUT****
 Total Charge           Charge          ....    0
 Multiplicity           Mult            ....    1
 Number of Electrons    NEL             ....   52
 Basis Dimension        Dim             ....  148

MULLIKEN ATOMIC CHARGES
-----------------------
   0 C :   -0.009824
   1 C :    0.051383
   2 C :   -0.130812
   3 C :    0.053008
   4 C :   -0.144928
   5 C :    0.457180
   6 C :   -0.486032
   7 H :    0.020512
   8 H :    0.022867
   9 H :    0.020743
  10 H :   -0.003272
  11 H :    0.016939
  12 H :    0.029191
  13 H :    0.026243
  14 H :    0.038022
  15 H :    0.042635
  16 H :   -0.003856
Sum of atomic charges:   -0.0000000

LOEWDIN ATOMIC CHARGES
----------------------
   0 C :   -0.064056
   1 C :   -0.036871
   2 C :   -0.021393
   3 C :   -0.020189
   4 C :   -0.051273
   5 C :   -0.015921
   6 C :   -0.096083
   7 H :    0.027136
   8 H :    0.027147
   9 H :    0.026902
  10 H :    0.024546
  11 H :    0.029385
  12 H :    0.032434
  13 H :    0.028960
  14 H :    0.033880
  15 H :    0.042616
  16 H :    0.032780

  Mayer bond orders larger than 0.1
B(  0-C ,  1-C ) :   1.1142 B(  0-C ,  7-H ) :   0.9603 B(  0-C ,  8-H ) :   0.9671
B(  0-C ,  9-H ) :   0.9656 B(  1-C ,  2-C ) :   1.0733 B(  1-C , 10-H ) :   0.9196
B(  1-C , 11-H ) :   0.9276 B(  2-C ,  3-C ) :   0.9946 B(  2-C ,  4-C ) :   0.9105
B(  2-C , 12-H ) :   0.9438 B(  3-C ,  4-C ) :   0.9818 B(  3-C , 13-H ) :   0.9300
B(  3-C , 14-H ) :   0.9374 B(  4-C ,  5-C ) :   1.0288 B(  4-C , 15-H ) :   0.9168
B(  5-C ,  6-C ) :   2.2642 B(  5-C , 16-H ) :  -0.1067 B(  6-C , 16-H ) :   1.0972

FINAL SINGLE POINT ENERGY      -272.093467818785

DIPOLE MOMENT
-------------
                                X             Y             Z
Electronic contribution:      1.94596       4.66714       4.52372
Nuclear contribution   :     -1.88623      -4.98238      -4.82880
                        -----------------------------------------
Total Dipole Moment    :      0.05973      -0.31524      -0.30508
                        -----------------------------------------
Magnitude (a.u.)       :      0.44274
Magnitude (Debye)      :      1.12535

                             ****ORCA TERMINATED NORMALLY****
TOTAL RUN TIME: 0 days 0 hours 0 minutes 7 seconds 315 msec
