                         Program Version 3.0.3 - RELEASE   -
|  1> ! RI PBE def2-SVP def2-SVP/J NBO PAL2
|  2> % maxcore 2000
|  3> % output
|  4>     # printlevel mini
|  5>     print[ P_Basis ] 0
|  6>     print[ P_SCFInfo ] 1
|  7>     print[ P_SCFIterInfo ] 1
|  8>     print[ P_OrbEn ] 0
|  9>     print[ P_Cartesian ] 0
| 10> end
| 11> *xyz 0 1
| 12>  C        1.2571580000    -0.7268220000    -0.5912190000
| 13>  C        2.1219360000     0.1140590000    -0.0401810000
| 14>  C        2.9735870000     1.0886610000    -0.7753520000
| 15>  C        2.7658110000     2.5468370000    -0.3533660000
| 16>  C        3.9885620000     3.2867780000    -0.9062210000
| 17>  C        5.1042490000     2.2229780000    -1.0217970000
| 18>  C        4.4771660000     0.9095560000    -0.5406930000
| 19>  H        0.6679240000    -1.4114020000     0.0078970000
| 20>  H        1.1077170000    -0.7598930000    -1.6663340000
| 21>  H        2.2409740000     0.1142780000     1.0439080000
| 22>  H        2.7706490000     0.9999530000    -1.8504170000
| 23>  H        2.7515470000     2.5964410000     0.7414470000
| 24>  H        1.8168100000     2.9561440000    -0.7057180000
| 25>  H        4.2775850000     4.1242350000    -0.2681440000
| 26>  H        3.7628520000     3.7080200000    -1.8889500000
| 27>  H        5.9892740000     2.4851460000    -0.4386830000
| 28>  H        5.4327310000     2.1284280000    -2.0596710000
| 29>  H        4.6505500000     0.7739920000     0.5329550000
| 30>  H        4.8796260000     0.0283020000    -1.0443520000
| 31> *
| 32>
| 33>                          ****END OF INPUT****
 Total Charge           Charge          ....    0
 Multiplicity           Mult            ....    1
 Number of Electrons    NEL             ....   54
 Basis Dimension        Dim             ....  158

MULLIKEN ATOMIC CHARGES
-----------------------
   0 C :   -0.039031
   1 C :    0.003341
   2 C :   -0.132379
   3 C :    0.033740
   4 C :    0.009108
   5 C :    0.007103
   6 C :    0.040319
   7 H :    0.019675
   8 H :    0.015110
   9 H :   -0.005013
  10 H :   -0.002095
  11 H :    0.007190
  12 H :    0.006607
  13 H :    0.008019
  14 H :    0.005142
  15 H :    0.007029
  16 H :    0.004854
  17 H :    0.002518
  18 H :    0.008764
Sum of atomic charges:   -0.0000000

LOEWDIN ATOMIC CHARGES
----------------------
   0 C :   -0.070342
   1 C :   -0.021602
   2 C :   -0.045436
   3 C :   -0.030441
   4 C :   -0.043270
   5 C :   -0.043299
   6 C :   -0.029579
   7 H :    0.023553
   8 H :    0.021004
   9 H :    0.023650
  10 H :    0.026158
  11 H :    0.022355
  12 H :    0.023431
  13 H :    0.024491
  14 H :    0.024648
  15 H :    0.024365
  16 H :    0.024593
  17 H :    0.021836
  18 H :    0.023885

  Mayer bond orders larger than 0.1
B(  0-C ,  1-C ) :   2.0086 B(  0-C ,  7-H ) :   0.9379 B(  0-C ,  8-H ) :   0.9480
B(  1-C ,  2-C ) :   1.0457 B(  1-C ,  9-H ) :   0.9440 B(  2-C ,  3-C ) :   1.0367
B(  2-C ,  6-C ) :   1.0361 B(  2-C , 10-H ) :   0.9160 B(  3-C ,  4-C ) :   1.1236
B(  3-C , 11-H ) :   0.9263 B(  3-C , 12-H ) :   0.9351 B(  4-C ,  5-C ) :   1.1112
B(  4-C , 13-H ) :   0.9333 B(  4-C , 14-H ) :   0.9263 B(  5-C ,  6-C ) :   1.1253
B(  5-C , 15-H ) :   0.9333 B(  5-C , 16-H ) :   0.9264 B(  6-C , 17-H ) :   0.9256
B(  6-C , 18-H ) :   0.9345

FINAL SINGLE POINT ENERGY      -273.362815490756

DIPOLE MOMENT
-------------
                                X             Y             Z
Electronic contribution:     -1.06158      -1.14392       0.27149
Nuclear contribution   :      1.19231       1.27725      -0.28431
                        -----------------------------------------
Total Dipole Moment    :      0.13073       0.13332      -0.01281
                        -----------------------------------------
Magnitude (a.u.)       :      0.18716
Magnitude (Debye)      :      0.47573

                             ****ORCA TERMINATED NORMALLY****
TOTAL RUN TIME: 0 days 0 hours 0 minutes 8 seconds 178 msec
