                         Program Version 3.0.3 - RELEASE   -
|  1> ! RI PBE def2-SVP def2-SVP/J NBO PAL2
|  2> % maxcore 2000
|  3> % output
|  4>     # printlevel mini
|  5>     print[ P_Basis ] 0
|  6>     print[ P_SCFInfo ] 1
|  7>     print[ P_SCFIterInfo ] 1
|  8>     print[ P_OrbEn ] 0
|  9>     print[ P_Cartesian ] 0
| 10> end
| 11> *xyz 0 1
| 12>  C        1.3688350000     0.8529120000     0.6197940000
| 13>  C        2.0178960000    -0.0152960000    -0.1569800000
| 14>  C        2.8072620000     0.3356260000    -1.3183260000
| 15>  C        3.5091230000    -0.5261950000    -2.0651040000
| 16>  C        4.2749430000     0.1504540000    -3.1568290000
| 17>  C        3.6576060000     1.5583350000    -3.1879840000
| 18>  C        2.9991350000     1.7459550000    -1.8125000000
| 19>  H        0.7993160000     0.5226720000     1.4799570000
| 20>  H        1.3881800000     1.9191630000     0.4230550000
| 21>  H        1.9715650000    -1.0753970000     0.0826030000
| 22>  H        3.5604440000    -1.5933150000    -1.8759920000
| 23>  H        4.1985940000    -0.3654860000    -4.1186560000
| 24>  H        5.3450500000     0.1787900000    -2.9101300000
| 25>  H        2.8883390000     1.5949290000    -3.9635230000
| 26>  H        4.3861410000     2.3369940000    -3.4196490000
| 27>  H        2.0595560000     2.3023040000    -1.8725060000
| 28>  H        3.6451130000     2.2988350000    -1.1189210000
| 29> *
| 30>
| 31>                          ****END OF INPUT****
 Total Charge           Charge          ....    0
 Multiplicity           Mult            ....    1
 Number of Electrons    NEL             ....   52
 Basis Dimension        Dim             ....  148

MULLIKEN ATOMIC CHARGES
-----------------------
   0 C :   -0.042662
   1 C :    0.008633
   2 C :   -0.078254
   3 C :   -0.110406
   4 C :    0.038088
   5 C :   -0.021374
   6 C :    0.068002
   7 H :    0.021587
   8 H :    0.021803
   9 H :   -0.018751
  10 H :   -0.017606
  11 H :    0.021349
  12 H :    0.033043
  13 H :    0.023739
  14 H :    0.007887
  15 H :    0.019360
  16 H :    0.025563
Sum of atomic charges:   -0.0000000

LOEWDIN ATOMIC CHARGES
----------------------
   0 C :   -0.059538
   1 C :   -0.030528
   2 C :   -0.042809
   3 C :   -0.027386
   4 C :   -0.043689
   5 C :   -0.032741
   6 C :   -0.034416
   7 H :    0.024566
   8 H :    0.021536
   9 H :    0.029091
  10 H :    0.020235
  11 H :    0.028882
  12 H :    0.034053
  13 H :    0.029061
  14 H :    0.023379
  15 H :    0.027851
  16 H :    0.032451

  Mayer bond orders larger than 0.1
B(  0-C ,  1-C ) :   1.8821 B(  0-C ,  3-C ) :   0.1351 B(  0-C ,  7-H ) :   0.9383
B(  0-C ,  8-H ) :   0.9395 B(  1-C ,  2-C ) :   1.1533 B(  1-C ,  9-H ) :   0.9565
B(  2-C ,  3-C ) :   1.7464 B(  2-C ,  6-C ) :   1.0493 B(  3-C ,  4-C ) :   1.0217
B(  3-C , 10-H ) :   0.9819 B(  4-C ,  5-C ) :   1.1094 B(  4-C , 11-H ) :   0.9282
B(  4-C , 12-H ) :   0.9102 B(  5-C ,  6-C ) :   1.0984 B(  5-C , 13-H ) :   0.9397
B(  5-C , 14-H ) :   0.9337 B(  6-C , 15-H ) :   0.9157 B(  6-C , 16-H ) :   0.9033

FINAL SINGLE POINT ENERGY      -272.157813974677

DIPOLE MOMENT
-------------
                                X             Y             Z
Electronic contribution:     -0.49842      -1.87122       1.09019
Nuclear contribution   :      0.64004       1.89311      -1.22993
                        -----------------------------------------
Total Dipole Moment    :      0.14163       0.02189      -0.13974
                        -----------------------------------------
Magnitude (a.u.)       :      0.20016
Magnitude (Debye)      :      0.50876

                             ****ORCA TERMINATED NORMALLY****
TOTAL RUN TIME: 0 days 0 hours 0 minutes 7 seconds 833 msec
