                         Program Version 3.0.3 - RELEASE   -
|  1> ! RI PBE def2-SVP def2-SVP/J NBO PAL2
|  2> % maxcore 2000
|  3> % output
|  4>     # printlevel mini
|  5>     print[ P_Basis ] 0
|  6>     print[ P_SCFInfo ] 1
|  7>     print[ P_SCFIterInfo ] 1
|  8>     print[ P_OrbEn ] 0
|  9>     print[ P_Cartesian ] 0
| 10> end
| 11> *xyz 0 1
| 12>  C        1.1968160000    -0.0202440000    -0.4290010000
| 13>  C        2.2616670000     0.3402320000     0.2909960000
| 14>  C        2.9957240000    -0.5047510000     1.1999730000
| 15>  C        4.0762220000    -0.1445070000     1.9326350000
| 16>  C        4.5338950000    -1.2713030000     2.7257780000
| 17>  C        3.7407970000    -2.3290600000     2.4873740000
| 18>  C        2.6911940000    -1.9427560000     1.4978190000
| 19>  H        0.7027940000     0.6802690000    -1.0904970000
| 20>  H        0.7856800000    -1.0230120000    -0.3810980000
| 21>  H        2.6306500000     1.3599940000     0.2027920000
| 22>  H        4.5333000000     0.8376050000     1.9294560000
| 23>  H        5.3814960000    -1.2481950000     3.3984420000
| 24>  H        3.8252500000    -3.3135640000     2.9267870000
| 25>  H        1.6809040000    -2.0694480000     1.9059130000
| 26>  H        2.7348120000    -2.5641710000     0.5949240000
| 27> *
| 28>
| 29>                          ****END OF INPUT****
 Total Charge           Charge          ....    0
 Multiplicity           Mult            ....    1
 Number of Electrons    NEL             ....   50
 Basis Dimension        Dim             ....  138

MULLIKEN ATOMIC CHARGES
-----------------------
   0 C :   -0.051771
   1 C :    0.026756
   2 C :   -0.110423
   3 C :   -0.027741
   4 C :    0.035721
   5 C :   -0.083782
   6 C :    0.142584
   7 H :    0.025492
   8 H :    0.014191
   9 H :   -0.022168
  10 H :   -0.024774
  11 H :   -0.016673
  12 H :   -0.009347
  13 H :    0.048399
  14 H :    0.053537
Sum of atomic charges:   -0.0000000

LOEWDIN ATOMIC CHARGES
----------------------
   0 C :   -0.065606
   1 C :   -0.030909
   2 C :   -0.040030
   3 C :   -0.027904
   4 C :   -0.037995
   5 C :   -0.027588
   6 C :   -0.029775
   7 H :    0.025160
   8 H :    0.019419
   9 H :    0.030235
  10 H :    0.022327
  11 H :    0.024014
  12 H :    0.021892
  13 H :    0.057868
  14 H :    0.058891

  Mayer bond orders larger than 0.1
B(  0-C ,  1-C ) :   1.8625 B(  0-C ,  3-C ) :   0.1173 B(  0-C ,  7-H ) :   0.9397
B(  0-C ,  8-H ) :   0.9413 B(  1-C ,  2-C ) :   1.1743 B(  1-C ,  9-H ) :   0.9504
B(  2-C ,  3-C ) :   1.6167 B(  2-C ,  6-C ) :   1.0609 B(  3-C ,  4-C ) :   1.0843
B(  3-C , 10-H ) :   0.9958 B(  4-C ,  5-C ) :   1.7047 B(  4-C , 11-H ) :   0.9993
B(  5-C ,  6-C ) :   1.0466 B(  5-C , 12-H ) :   0.9896 B(  6-C , 13-H ) :   0.8748
B(  6-C , 14-H ) :   0.8750

FINAL SINGLE POINT ENERGY      -270.947430651093

DIPOLE MOMENT
-------------
                                X             Y             Z
Electronic contribution:      1.93942       0.36286       1.41911
Nuclear contribution   :     -1.96239      -0.53866      -1.37430
                        -----------------------------------------
Total Dipole Moment    :     -0.02297      -0.17579       0.04481
                        -----------------------------------------
Magnitude (a.u.)       :      0.18286
Magnitude (Debye)      :      0.46480

                             ****ORCA TERMINATED NORMALLY****
TOTAL RUN TIME: 0 days 0 hours 0 minutes 7 seconds 45 msec
