                         Program Version 3.0.3 - RELEASE   -
|  1> ! RI PBE def2-SVP def2-SVP/J NBO PAL2
|  2> % maxcore 2000
|  3> % output
|  4>     # printlevel mini
|  5>     print[ P_Basis ] 0
|  6>     print[ P_SCFInfo ] 1
|  7>     print[ P_SCFIterInfo ] 1
|  8>     print[ P_OrbEn ] 0
|  9>     print[ P_Cartesian ] 0
| 10> end
| 11> *xyz 0 1
| 12>  C        1.7872760000     1.1228380000    -0.3314080000
| 13>  C        1.9000180000    -0.1981540000    -0.1999440000
| 14>  C        2.7038310000    -1.0685050000    -1.0364430000
| 15>  C        2.8162490000    -2.4081150000    -0.9007890000
| 16>  C        3.7301700000    -2.9485810000    -1.9450820000
| 17>  C        4.1320740000    -1.7286930000    -2.7066380000
| 18>  C        3.5349690000    -0.6548960000    -2.1738850000
| 19>  H        1.1631040000     1.7015770000     0.3382900000
| 20>  H        2.3105450000     1.6704620000    -1.1071660000
| 21>  H        1.3515910000    -0.6949170000     0.5970920000
| 22>  H        2.3228560000    -3.0127810000    -0.1510640000
| 23>  H        3.2336150000    -3.6891860000    -2.5865810000
| 24>  H        4.5959670000    -3.4658680000    -1.5098930000
| 25>  H        4.8036280000    -1.7380040000    -3.5544110000
| 26>  H        3.6415990000     0.3646240000    -2.5202870000
| 27> *
| 28>
| 29>                          ****END OF INPUT****
 Total Charge           Charge          ....    0
 Multiplicity           Mult            ....    1
 Number of Electrons    NEL             ....   50
 Basis Dimension        Dim             ....  138

MULLIKEN ATOMIC CHARGES
-----------------------
   0 C :   -0.031622
   1 C :    0.002481
   2 C :    0.044267
   3 C :   -0.141367
   4 C :    0.111291
   5 C :   -0.090618
   6 C :    0.026286
   7 H :    0.024392
   8 H :    0.017669
   9 H :   -0.018367
  10 H :   -0.015126
  11 H :    0.052341
  12 H :    0.050994
  13 H :   -0.008426
  14 H :   -0.024196
Sum of atomic charges:   -0.0000000

LOEWDIN ATOMIC CHARGES
----------------------
   0 C :   -0.054040
   1 C :   -0.028789
   2 C :   -0.043772
   3 C :   -0.030499
   4 C :   -0.037098
   5 C :   -0.033397
   6 C :   -0.027976
   7 H :    0.025871
   8 H :    0.021305
   9 H :    0.030055
  10 H :    0.020546
  11 H :    0.056803
  12 H :    0.056874
  13 H :    0.021850
  14 H :    0.022267

  Mayer bond orders larger than 0.1
B(  0-C ,  1-C ) :   1.9021 B(  0-C ,  3-C ) :   0.1288 B(  0-C ,  7-H ) :   0.9374
B(  0-C ,  8-H ) :   0.9405 B(  1-C ,  2-C ) :   1.1294 B(  1-C ,  9-H ) :   0.9559
B(  2-C ,  3-C ) :   1.6537 B(  2-C ,  6-C ) :   1.0768 B(  3-C ,  4-C ) :   1.0347
B(  3-C , 10-H ) :   0.9905 B(  4-C ,  5-C ) :   1.0649 B(  4-C , 11-H ) :   0.8879
B(  4-C , 12-H ) :   0.8856 B(  5-C ,  6-C ) :   1.7405 B(  5-C , 13-H ) :   0.9869
B(  6-C , 14-H ) :   0.9972

FINAL SINGLE POINT ENERGY      -270.944133734405

DIPOLE MOMENT
-------------
                                X             Y             Z
Electronic contribution:      0.21616      -0.41805      -0.18775
Nuclear contribution   :     -0.10718       0.12525       0.10950
                        -----------------------------------------
Total Dipole Moment    :      0.10898      -0.29280      -0.07825
                        -----------------------------------------
Magnitude (a.u.)       :      0.32207
Magnitude (Debye)      :      0.81865

                             ****ORCA TERMINATED NORMALLY****
TOTAL RUN TIME: 0 days 0 hours 0 minutes 7 seconds 487 msec
