                         Program Version 3.0.3 - RELEASE   -
|  1> ! RI PBE def2-SVP def2-SVP/J NBO PAL2
|  2> % maxcore 2000
|  3> % output
|  4>     # printlevel mini
|  5>     print[ P_Basis ] 0
|  6>     print[ P_SCFInfo ] 1
|  7>     print[ P_SCFIterInfo ] 1
|  8>     print[ P_OrbEn ] 0
|  9>     print[ P_Cartesian ] 0
| 10> end
| 11> *xyz 0 1
| 12>  C        1.0004580000    -0.6427410000     0.3491760000
| 13>  C        2.0517120000     0.1259630000     0.1045000000
| 14>  C        2.8286380000     0.1791850000    -1.1780050000
| 15>  C        2.7826810000     1.5249120000    -1.8489420000
| 16>  C        2.4351040000     1.3673660000    -3.1334740000
| 17>  C        2.2183530000    -0.0519750000    -3.4008670000
| 18>  C        2.4237010000    -0.7520730000    -2.2758070000
| 19>  H        0.4951460000    -0.6057990000     1.3073310000
| 20>  H        0.6051560000    -1.3263990000    -0.3933650000
| 21>  H        2.4066200000     0.7993260000     0.8821170000
| 22>  H        3.8863480000    -0.0281670000    -0.9340830000
| 23>  H        3.0027370000     2.4536540000    -1.3403350000
| 24>  H        2.3291630000     2.1557400000    -3.8676690000
| 25>  H        1.9430990000    -0.4604460000    -4.3649360000
| 26>  H        2.3502950000    -1.8244470000    -2.1577120000
| 27> *
| 28>
| 29>                          ****END OF INPUT****
 Total Charge           Charge          ....    0
 Multiplicity           Mult            ....    1
 Number of Electrons    NEL             ....   50
 Basis Dimension        Dim             ....  138

MULLIKEN ATOMIC CHARGES
-----------------------
   0 C :   -0.027559
   1 C :   -0.043236
   2 C :    0.036688
   3 C :   -0.024490
   4 C :    0.018595
   5 C :    0.005925
   6 C :   -0.040591
   7 H :    0.023212
   8 H :    0.023906
   9 H :    0.001567
  10 H :    0.058977
  11 H :   -0.006446
  12 H :   -0.012063
  13 H :   -0.015546
  14 H :    0.001062
Sum of atomic charges:    0.0000000

LOEWDIN ATOMIC CHARGES
----------------------
   0 C :   -0.064516
   1 C :   -0.012691
   2 C :   -0.039667
   3 C :   -0.022069
   4 C :   -0.037294
   5 C :   -0.031346
   6 C :   -0.030556
   7 H :    0.025998
   8 H :    0.023281
   9 H :    0.026080
  10 H :    0.070469
  11 H :    0.022004
  12 H :    0.023953
  13 H :    0.022991
  14 H :    0.023362

  Mayer bond orders larger than 0.1
B(  0-C ,  1-C ) :   2.0331 B(  0-C ,  7-H ) :   0.9411 B(  0-C ,  8-H ) :   0.9308
B(  1-C ,  2-C ) :   0.9887 B(  1-C ,  9-H ) :   0.9535 B(  2-C ,  3-C ) :   1.0126
B(  2-C ,  6-C ) :   1.0286 B(  2-C , 10-H ) :   0.8367 B(  3-C ,  4-C ) :   1.7315
B(  3-C , 11-H ) :   0.9889 B(  4-C ,  5-C ) :   1.0921 B(  4-C , 12-H ) :   0.9980
B(  5-C ,  6-C ) :   1.7190 B(  5-C , 13-H ) :   0.9974 B(  6-C , 14-H ) :   0.9872

FINAL SINGLE POINT ENERGY      -270.929166227484

DIPOLE MOMENT
-------------
                                X             Y             Z
Electronic contribution:      0.97735       0.73456      -1.76785
Nuclear contribution   :     -0.83103      -0.71676       1.83282
                        -----------------------------------------
Total Dipole Moment    :      0.14632       0.01781       0.06496
                        -----------------------------------------
Magnitude (a.u.)       :      0.16108
Magnitude (Debye)      :      0.40943

                             ****ORCA TERMINATED NORMALLY****
TOTAL RUN TIME: 0 days 0 hours 0 minutes 7 seconds 82 msec
