                         Program Version 3.0.3 - RELEASE   -
|  1> ! RI PBE def2-SVP def2-SVP/J NBO PAL2
|  2> % maxcore 2000
|  3> % output
|  4>     # printlevel mini
|  5>     print[ P_Basis ] 0
|  6>     print[ P_SCFInfo ] 1
|  7>     print[ P_SCFIterInfo ] 1
|  8>     print[ P_OrbEn ] 0
|  9>     print[ P_Cartesian ] 0
| 10> end
| 11> *xyz 0 1
| 12>  C        1.1081550000     0.6400540000     0.1351850000
| 13>  C        2.1310310000    -0.1455480000    -0.1713940000
| 14>  C        2.9883430000    -0.8699700000     0.8147130000
| 15>  C        2.9654300000    -2.3962600000     0.5458870000
| 16>  C        4.2471410000    -2.6477550000    -0.1890120000
| 17>  C        5.0655430000    -1.6037920000    -0.1336010000
| 18>  C        4.4762540000    -0.4690410000     0.6481830000
| 19>  H        0.5241240000     1.1385140000    -0.6298910000
| 20>  H        0.8176280000     0.8130280000     1.1672680000
| 21>  H        2.3937010000    -0.2958710000    -1.2186970000
| 22>  H        2.6292510000    -0.6418730000     1.8209160000
| 23>  H        2.0787940000    -2.6943800000    -0.0223250000
| 24>  H        2.9364470000    -2.9664590000     1.4826590000
| 25>  H        4.4744840000    -3.5906530000    -0.6732580000
| 26>  H        6.0590740000    -1.5693320000    -0.5659710000
| 27>  H        4.5816470000     0.4982810000     0.1471400000
| 28>  H        4.9738430000    -0.3675410000     1.6206080000
| 29> *
| 30>
| 31>                          ****END OF INPUT****
 Total Charge           Charge          ....    0
 Multiplicity           Mult            ....    1
 Number of Electrons    NEL             ....   52
 Basis Dimension        Dim             ....  148

MULLIKEN ATOMIC CHARGES
-----------------------
   0 C :   -0.035304
   1 C :   -0.023493
   2 C :   -0.125697
   3 C :    0.107182
   4 C :   -0.068332
   5 C :   -0.062553
   6 C :    0.111696
   7 H :    0.023263
   8 H :    0.013283
   9 H :    0.005820
  10 H :   -0.013458
  11 H :    0.020479
  12 H :    0.024779
  13 H :   -0.008615
  14 H :   -0.010176
  15 H :    0.015810
  16 H :    0.025316
Sum of atomic charges:   -0.0000000

LOEWDIN ATOMIC CHARGES
----------------------
   0 C :   -0.070166
   1 C :   -0.020088
   2 C :   -0.030141
   3 C :   -0.030160
   4 C :   -0.041189
   5 C :   -0.039615
   6 C :   -0.029611
   7 H :    0.023992
   8 H :    0.020177
   9 H :    0.026766
  10 H :    0.024772
  11 H :    0.028459
  12 H :    0.033269
  13 H :    0.021429
  14 H :    0.021423
  15 H :    0.027533
  16 H :    0.033147

  Mayer bond orders larger than 0.1
B(  0-C ,  1-C ) :   2.0108 B(  0-C ,  7-H ) :   0.9427 B(  0-C ,  8-H ) :   0.9474
B(  1-C ,  2-C ) :   1.0183 B(  1-C ,  9-H ) :   0.9537 B(  2-C ,  3-C ) :   1.0505
B(  2-C ,  6-C ) :   1.0475 B(  2-C , 10-H ) :   0.9088 B(  3-C ,  4-C ) :   1.0237
B(  3-C , 11-H ) :   0.9313 B(  3-C , 12-H ) :   0.9085 B(  4-C ,  5-C ) :   1.8693
B(  4-C , 13-H ) :   0.9812 B(  5-C ,  6-C ) :   1.0239 B(  5-C , 14-H ) :   0.9807
B(  6-C , 15-H ) :   0.9306 B(  6-C , 16-H ) :   0.9099

FINAL SINGLE POINT ENERGY      -272.143847632067

DIPOLE MOMENT
-------------
                                X             Y             Z
Electronic contribution:      1.24170      -0.94614      -0.56021
Nuclear contribution   :     -1.14124       0.86037       0.64620
                        -----------------------------------------
Total Dipole Moment    :      0.10046      -0.08577       0.08599
                        -----------------------------------------
Magnitude (a.u.)       :      0.15761
Magnitude (Debye)      :      0.40062

                             ****ORCA TERMINATED NORMALLY****
TOTAL RUN TIME: 0 days 0 hours 0 minutes 7 seconds 388 msec
