                         Program Version 3.0.3 - RELEASE   -
|  1> ! RI PBE def2-SVP def2-SVP/J NBO PAL2
|  2> % maxcore 2000
|  3> % output
|  4>     # printlevel mini
|  5>     print[ P_Basis ] 0
|  6>     print[ P_SCFInfo ] 1
|  7>     print[ P_SCFIterInfo ] 1
|  8>     print[ P_OrbEn ] 0
|  9>     print[ P_Cartesian ] 0
| 10> end
| 11> *xyz 0 1
| 12>  C        0.7630380000     0.3336780000     0.4178110000
| 13>  C        1.9961130000     0.0299780000     0.0367720000
| 14>  C        3.1614810000     0.9768880000    -0.0458140000
| 15>  C        4.2051140000     0.7307800000     1.0741660000
| 16>  C        3.9347280000     1.8121240000     2.1314350000
| 17>  C        3.2052520000     2.8667810000     1.3525440000
| 18>  C        2.7948790000     2.4186080000     0.1721840000
| 19>  H       -0.0130510000    -0.4216180000     0.4628360000
| 20>  H        0.4894340000     1.3443810000     0.7020640000
| 21>  H        2.2240250000    -1.0004400000    -0.2326610000
| 22>  H        3.6290370000     0.8295000000    -1.0273160000
| 23>  H        5.2080340000     0.8711080000     0.6639670000
| 24>  H        4.1522140000    -0.2826730000     1.4761160000
| 25>  H        4.8566460000     2.1818400000     2.5891420000
| 26>  H        3.3080520000     1.4418180000     2.9520080000
| 27>  H        3.0159150000     3.8623410000     1.7383530000
| 28>  H        2.2171790000     2.9889960000    -0.5461160000
| 29> *
| 30>
| 31>                          ****END OF INPUT****
 Total Charge           Charge          ....    0
 Multiplicity           Mult            ....    1
 Number of Electrons    NEL             ....   52
 Basis Dimension        Dim             ....  148

MULLIKEN ATOMIC CHARGES
-----------------------
   0 C :   -0.021559
   1 C :   -0.054895
   2 C :   -0.016177
   3 C :    0.027745
   4 C :    0.069553
   5 C :   -0.077272
   6 C :   -0.025251
   7 H :    0.021257
   8 H :    0.017571
   9 H :   -0.001033
  10 H :    0.010942
  11 H :    0.013975
  12 H :    0.005657
  13 H :    0.016744
  14 H :    0.027650
  15 H :   -0.009664
  16 H :   -0.005246
Sum of atomic charges:   -0.0000000

LOEWDIN ATOMIC CHARGES
----------------------
   0 C :   -0.069873
   1 C :   -0.024720
   2 C :   -0.042616
   3 C :   -0.018224
   4 C :   -0.039783
   5 C :   -0.031045
   6 C :   -0.031555
   7 H :    0.024574
   8 H :    0.021443
   9 H :    0.023377
  10 H :    0.033876
  11 H :    0.027011
  12 H :    0.022930
  13 H :    0.028124
  14 H :    0.033261
  15 H :    0.020974
  16 H :    0.022248

  Mayer bond orders larger than 0.1
B(  0-C ,  1-C ) :   2.0251 B(  0-C ,  7-H ) :   0.9432 B(  0-C ,  8-H ) :   0.9234
B(  1-C ,  2-C ) :   1.0086 B(  1-C ,  9-H ) :   0.9509 B(  2-C ,  3-C ) :   1.0547
B(  2-C ,  6-C ) :   1.0086 B(  2-C , 10-H ) :   0.8892 B(  3-C ,  4-C ) :   1.0938
B(  3-C , 11-H ) :   0.9324 B(  3-C , 12-H ) :   0.9369 B(  4-C ,  5-C ) :   1.0370
B(  4-C , 13-H ) :   0.9324 B(  4-C , 14-H ) :   0.9118 B(  5-C ,  6-C ) :   1.8456
B(  5-C , 15-H ) :   0.9856 B(  6-C , 16-H ) :   0.9859

FINAL SINGLE POINT ENERGY      -272.143024710415

DIPOLE MOMENT
-------------
                                X             Y             Z
Electronic contribution:     -0.19881       1.06472      -1.14127
Nuclear contribution   :      0.35979      -1.07489       1.20368
                        -----------------------------------------
Total Dipole Moment    :      0.16098      -0.01017       0.06241
                        -----------------------------------------
Magnitude (a.u.)       :      0.17296
Magnitude (Debye)      :      0.43962

                             ****ORCA TERMINATED NORMALLY****
TOTAL RUN TIME: 0 days 0 hours 0 minutes 7 seconds 981 msec
