                         Program Version 3.0.3 - RELEASE   -
|  1> ! RI PBE def2-SVP def2-SVP/J NBO PAL2
|  2> % maxcore 2000
|  3> % output
|  4>     # printlevel mini
|  5>     print[ P_Basis ] 0
|  6>     print[ P_SCFInfo ] 1
|  7>     print[ P_SCFIterInfo ] 1
|  8>     print[ P_OrbEn ] 0
|  9>     print[ P_Cartesian ] 0
| 10> end
| 11> *xyz 0 1
| 12>  C        1.0713500000    -0.0400300000    -0.2029430000
| 13>  C        2.2650090000    -0.0622740000    -0.0684660000
| 14>  C        3.7044200000    -0.0894130000     0.1119970000
| 15>  C        4.2683050000     1.0813210000     0.9276080000
| 16>  C        5.6871900000     0.6307940000     1.2884960000
| 17>  C        5.6610540000    -0.9154490000     1.2630610000
| 18>  C        4.2283910000    -1.3057840000     0.8864510000
| 19>  H        0.0144460000    -0.0202850000    -0.3246430000
| 20>  H        4.1756490000    -0.0801380000    -0.8799770000
| 21>  H        3.6569100000     1.2027600000     1.8263710000
| 22>  H        4.2376480000     2.0258640000     0.3820360000
| 23>  H        5.9966570000     1.0237400000     2.2585400000
| 24>  H        6.4036440000     1.0096870000     0.5556800000
| 25>  H        5.9550130000    -1.3501670000     2.2200210000
| 26>  H        6.3659000000    -1.2941500000     0.5189920000
| 27>  H        3.6121740000    -1.4381350000     1.7803560000
| 28>  H        4.1671400000    -2.2292400000     0.3083320000
| 29> *
| 30>
| 31>                          ****END OF INPUT****
 Total Charge           Charge          ....    0
 Multiplicity           Mult            ....    1
 Number of Electrons    NEL             ....   52
 Basis Dimension        Dim             ....  148

MULLIKEN ATOMIC CHARGES
-----------------------
   0 C :   -0.546499
   1 C :    0.475903
   2 C :   -0.128919
   3 C :    0.021833
   4 C :    0.011427
   5 C :    0.011472
   6 C :    0.020352
   7 H :   -0.006583
   8 H :    0.032235
   9 H :    0.017475
  10 H :    0.018838
  11 H :    0.007968
  12 H :    0.009314
  13 H :    0.008730
  14 H :    0.009487
  15 H :    0.017820
  16 H :    0.019148
Sum of atomic charges:   -0.0000000

LOEWDIN ATOMIC CHARGES
----------------------
   0 C :   -0.094980
   1 C :   -0.012137
   2 C :   -0.052451
   3 C :   -0.023053
   4 C :   -0.043108
   5 C :   -0.043134
   6 C :   -0.023359
   7 H :    0.032475
   8 H :    0.045317
   9 H :    0.027805
  10 H :    0.026976
  11 H :    0.026339
  12 H :    0.025929
  13 H :    0.026518
  14 H :    0.025950
  15 H :    0.027869
  16 H :    0.027044

  Mayer bond orders larger than 0.1
B(  0-C ,  1-C ) :   2.2524 B(  0-C ,  7-H ) :   1.1119 B(  1-C ,  2-C ) :   1.0132
B(  1-C ,  7-H ) :  -0.1220 B(  2-C ,  3-C ) :   1.0424 B(  2-C ,  6-C ) :   1.0424
B(  2-C ,  8-H ) :   0.8716 B(  3-C ,  4-C ) :   1.1308 B(  3-C ,  9-H ) :   0.9260
B(  3-C , 10-H ) :   0.9356 B(  4-C ,  5-C ) :   1.1098 B(  4-C , 11-H ) :   0.9322
B(  4-C , 12-H ) :   0.9254 B(  5-C ,  6-C ) :   1.1305 B(  5-C , 13-H ) :   0.9321
B(  5-C , 14-H ) :   0.9256 B(  6-C , 15-H ) :   0.9260 B(  6-C , 16-H ) :   0.9356

FINAL SINGLE POINT ENERGY      -272.119786309528

DIPOLE MOMENT
-------------
                                X             Y             Z
Electronic contribution:     -4.82726       0.11791      -2.12643
Nuclear contribution   :      5.17473      -0.12472       2.20899
                        -----------------------------------------
Total Dipole Moment    :      0.34746      -0.00680       0.08256
                        -----------------------------------------
Magnitude (a.u.)       :      0.35720
Magnitude (Debye)      :      0.90794

                             ****ORCA TERMINATED NORMALLY****
TOTAL RUN TIME: 0 days 0 hours 0 minutes 7 seconds 434 msec
