                         Program Version 3.0.3 - RELEASE   -
|  1> ! RI PBE def2-SVP def2-SVP/J NBO PAL2
|  2> % maxcore 2000
|  3> % output
|  4>     # printlevel mini
|  5>     print[ P_Basis ] 0
|  6>     print[ P_SCFInfo ] 1
|  7>     print[ P_SCFIterInfo ] 1
|  8>     print[ P_OrbEn ] 0
|  9>     print[ P_Cartesian ] 0
| 10> end
| 11> *xyz 0 1
| 12>  C        1.0292270000     0.0693650000     0.1098400000
| 13>  C        2.2313220000     0.0095280000     0.0768030000
| 14>  C        3.6455330000    -0.0060260000     0.0372480000
| 15>  C        4.4262680000    -1.0901510000    -0.0318430000
| 16>  C        5.8796630000    -0.7371180000     0.0036430000
| 17>  C        5.8778360000     0.7784460000    -0.2525030000
| 18>  C        4.4709810000     1.2567320000     0.1317400000
| 19>  H       -0.0337110000     0.1092230000     0.1383640000
| 20>  H        4.0546610000    -2.1071980000    -0.0642630000
| 21>  H        6.4698090000    -1.2895460000    -0.7331130000
| 22>  H        6.3038450000    -0.9874040000     0.9854350000
| 23>  H        6.0406360000     0.9610990000    -1.3175570000
| 24>  H        6.6656150000     1.3019510000     0.2912700000
| 25>  H        4.0952490000     2.0478130000    -0.5210500000
| 26>  H        4.4293550000     1.6466980000     1.1556960000
| 27> *
| 28>
| 29>                          ****END OF INPUT****
 Total Charge           Charge          ....    0
 Multiplicity           Mult            ....    1
 Number of Electrons    NEL             ....   50
 Basis Dimension        Dim             ....  138

MULLIKEN ATOMIC CHARGES
-----------------------
   0 C :   -0.464739
   1 C :    0.430500
   2 C :   -0.157234
   3 C :   -0.048535
   4 C :    0.038462
   5 C :   -0.018351
   6 C :    0.087941
   7 H :    0.002448
   8 H :   -0.012369
   9 H :    0.025891
  10 H :    0.029331
  11 H :    0.022455
  12 H :    0.011235
  13 H :    0.025696
  14 H :    0.027269
Sum of atomic charges:   -0.0000000

LOEWDIN ATOMIC CHARGES
----------------------
   0 C :   -0.071149
   1 C :   -0.013588
   2 C :   -0.060961
   3 C :   -0.006523
   4 C :   -0.040806
   5 C :   -0.032459
   6 C :   -0.021019
   7 H :    0.034431
   8 H :    0.025945
   9 H :    0.031244
  10 H :    0.034192
  11 H :    0.029461
  12 H :    0.025161
  13 H :    0.031981
  14 H :    0.034092

  Mayer bond orders larger than 0.1
B(  0-C ,  1-C ) :   2.2390 B(  0-C ,  3-C ) :   0.1237 B(  0-C ,  7-H ) :   1.0956
B(  1-C ,  2-C ) :   1.0274 B(  1-C ,  7-H ) :  -0.1054 B(  2-C ,  3-C ) :   1.7705
B(  2-C ,  6-C ) :   1.0309 B(  3-C ,  4-C ) :   1.0142 B(  3-C ,  8-H ) :   0.9893
B(  4-C ,  5-C ) :   1.1039 B(  4-C ,  9-H ) :   0.9277 B(  4-C , 10-H ) :   0.9109
B(  5-C ,  6-C ) :   1.0893 B(  5-C , 11-H ) :   0.9407 B(  5-C , 12-H ) :   0.9344
B(  6-C , 13-H ) :   0.9303 B(  6-C , 14-H ) :   0.9115

FINAL SINGLE POINT ENERGY      -270.911989719323

DIPOLE MOMENT
-------------
                                X             Y             Z
Electronic contribution:     -5.24618      -1.14439       0.15007
Nuclear contribution   :      5.58788       1.16575      -0.12914
                        -----------------------------------------
Total Dipole Moment    :      0.34170       0.02136       0.02094
                        -----------------------------------------
Magnitude (a.u.)       :      0.34300
Magnitude (Debye)      :      0.87184

                             ****ORCA TERMINATED NORMALLY****
TOTAL RUN TIME: 0 days 0 hours 0 minutes 7 seconds 9 msec
