                         Program Version 3.0.3 - RELEASE   -
|  1> ! RI PBE def2-SVP def2-SVP/J NBO PAL2
|  2> % maxcore 2000
|  3> % output
|  4>     # printlevel mini
|  5>     print[ P_Basis ] 0
|  6>     print[ P_SCFInfo ] 1
|  7>     print[ P_SCFIterInfo ] 1
|  8>     print[ P_OrbEn ] 0
|  9>     print[ P_Cartesian ] 0
| 10> end
| 11> *xyz 0 1
| 12>  C        0.9936690000    -0.0843170000    -0.0836060000
| 13>  C        2.1980520000    -0.0425840000    -0.0827330000
| 14>  C        3.6061600000    -0.0313740000    -0.0818080000
| 15>  C        4.4266430000     1.0456500000    -0.0784910000
| 16>  C        5.8073840000     0.6005450000    -0.0787680000
| 17>  C        5.8428450000    -0.7430330000    -0.0822320000
| 18>  C        4.4510980000    -1.2730200000    -0.0844930000
| 19>  H       -0.0699720000    -0.1108680000    -0.0843490000
| 20>  H        4.1013730000     2.0773070000    -0.0760210000
| 21>  H        6.6637740000     1.2619820000    -0.0765070000
| 22>  H        6.7262880000    -1.3665750000    -0.0832890000
| 23>  H        4.2422850000    -1.9012860000     0.7901210000
| 24>  H        4.2434010000    -1.8967370000    -0.9626230000
| 25> *
| 26>
| 27>                          ****END OF INPUT****
 Total Charge           Charge          ....    0
 Multiplicity           Mult            ....    1
 Number of Electrons    NEL             ....   48
 Basis Dimension        Dim             ....  128

MULLIKEN ATOMIC CHARGES
-----------------------
   0 C :   -0.471418
   1 C :    0.433676
   2 C :   -0.165527
   3 C :    0.025943
   4 C :    0.028124
   5 C :   -0.077625
   6 C :    0.136617
   7 H :    0.002635
   8 H :   -0.016328
   9 H :   -0.012961
  10 H :   -0.003619
  11 H :    0.060278
  12 H :    0.060204
Sum of atomic charges:    0.0000000

LOEWDIN ATOMIC CHARGES
----------------------
   0 C :   -0.073007
   1 C :   -0.017887
   2 C :   -0.057555
   3 C :   -0.009363
   4 C :   -0.035445
   5 C :   -0.027948
   6 C :   -0.018790
   7 H :    0.034388
   8 H :    0.028465
   9 H :    0.026205
  10 H :    0.024441
  11 H :    0.063252
  12 H :    0.063242

  Mayer bond orders larger than 0.1
B(  0-C ,  1-C ) :   2.2101 B(  0-C ,  3-C ) :   0.1094 B(  0-C ,  7-H ) :   1.0965
B(  1-C ,  2-C ) :   1.0269 B(  1-C ,  7-H ) :  -0.1064 B(  2-C ,  3-C ) :   1.6339
B(  2-C ,  5-C ) :   0.1045 B(  2-C ,  6-C ) :   1.0550 B(  3-C ,  4-C ) :   1.0888
B(  3-C ,  8-H ) :   1.0045 B(  4-C ,  5-C ) :   1.6982 B(  4-C ,  9-H ) :   0.9955
B(  5-C ,  6-C ) :   1.0459 B(  5-C , 10-H ) :   0.9888 B(  6-C , 11-H ) :   0.8839
B(  6-C , 12-H ) :   0.8839

FINAL SINGLE POINT ENERGY      -269.702679785052

DIPOLE MOMENT
-------------
                                X             Y             Z
Electronic contribution:     -1.92196       1.08083       0.00163
Nuclear contribution   :      2.17491      -1.29838      -0.00199
                        -----------------------------------------
Total Dipole Moment    :      0.25294      -0.21755      -0.00035
                        -----------------------------------------
Magnitude (a.u.)       :      0.33363
Magnitude (Debye)      :      0.84802

                             ****ORCA TERMINATED NORMALLY****
TOTAL RUN TIME: 0 days 0 hours 0 minutes 6 seconds 255 msec
