                         Program Version 3.0.3 - RELEASE   -
|  1> ! RI PBE def2-SVP def2-SVP/J NBO PAL2
|  2> % maxcore 2000
|  3> % output
|  4>     # printlevel mini
|  5>     print[ P_Basis ] 0
|  6>     print[ P_SCFInfo ] 1
|  7>     print[ P_SCFIterInfo ] 1
|  8>     print[ P_OrbEn ] 0
|  9>     print[ P_Cartesian ] 0
| 10> end
| 11> *xyz 0 1
| 12>  C        0.9172030000    -0.0159350000    -0.0742150000
| 13>  C        2.1194740000    -0.0614970000    -0.0733640000
| 14>  C        3.5356470000    -0.0790510000    -0.0723080000
| 15>  C        4.3361050000    -1.1672040000    -0.0711360000
| 16>  C        5.7586890000    -0.7293350000    -0.0703210000
| 17>  C        5.6657990000     0.7601350000    -0.0711850000
| 18>  C        4.3775930000     1.1249710000    -0.0723270000
| 19>  H       -0.1464580000     0.0151900000    -0.0749180000
| 20>  H        4.0073130000    -2.1966680000    -0.0708290000
| 21>  H        6.3040160000    -1.1093630000    -0.9447920000
| 22>  H        6.3027260000    -1.1084290000     0.8053570000
| 23>  H        6.5219800000     1.4204070000    -0.0709070000
| 24>  H        3.9846130000     2.1326690000    -0.0731540000
| 25> *
| 26>
| 27>                          ****END OF INPUT****
 Total Charge           Charge          ....    0
 Multiplicity           Mult            ....    1
 Number of Electrons    NEL             ....   48
 Basis Dimension        Dim             ....  128

MULLIKEN ATOMIC CHARGES
-----------------------
   0 C :   -0.462532
   1 C :    0.427587
   2 C :   -0.038441
   3 C :   -0.088289
   4 C :    0.087909
   5 C :   -0.076759
   6 C :    0.056416
   7 H :    0.003931
   8 H :   -0.007172
   9 H :    0.058844
  10 H :    0.058813
  11 H :   -0.003310
  12 H :   -0.016997
Sum of atomic charges:   -0.0000000

LOEWDIN ATOMIC CHARGES
----------------------
   0 C :   -0.066657
   1 C :   -0.012274
   2 C :   -0.059029
   3 C :   -0.010348
   4 C :   -0.036233
   5 C :   -0.034091
   6 C :   -0.016557
   7 H :    0.035028
   8 H :    0.026560
   9 H :    0.060649
  10 H :    0.060641
  11 H :    0.024453
  12 H :    0.027859

  Mayer bond orders larger than 0.1
B(  0-C ,  1-C ) :   2.2582 B(  0-C ,  3-C ) :   0.1187 B(  0-C ,  7-H ) :   1.0945
B(  1-C ,  2-C ) :   0.9794 B(  1-C ,  7-H ) :  -0.1047 B(  2-C ,  3-C ) :   1.6663
B(  2-C ,  6-C ) :   1.0815 B(  3-C ,  4-C ) :   1.0319 B(  3-C ,  8-H ) :   1.0004
B(  4-C ,  5-C ) :   1.0667 B(  4-C ,  9-H ) :   0.8867 B(  4-C , 10-H ) :   0.8867
B(  5-C ,  6-C ) :   1.7204 B(  5-C , 11-H ) :   0.9852 B(  6-C , 12-H ) :   1.0065

FINAL SINGLE POINT ENERGY      -269.698898708327

DIPOLE MOMENT
-------------
                                X             Y             Z
Electronic contribution:     -3.12926       0.47945      -0.00264
Nuclear contribution   :      3.57042      -0.61464       0.00306
                        -----------------------------------------
Total Dipole Moment    :      0.44116      -0.13518       0.00042
                        -----------------------------------------
Magnitude (a.u.)       :      0.46141
Magnitude (Debye)      :      1.17281

                             ****ORCA TERMINATED NORMALLY****
TOTAL RUN TIME: 0 days 0 hours 0 minutes 6 seconds 464 msec
