                         Program Version 3.0.3 - RELEASE   -
|  1> ! RI PBE def2-SVP def2-SVP/J NBO PAL2
|  2> % maxcore 2000
|  3> % output
|  4>     # printlevel mini
|  5>     print[ P_Basis ] 0
|  6>     print[ P_SCFInfo ] 1
|  7>     print[ P_SCFIterInfo ] 1
|  8>     print[ P_OrbEn ] 0
|  9>     print[ P_Cartesian ] 0
| 10> end
| 11> *xyz 0 1
| 12>  C        0.9679140000     0.0807970000     0.1549500000
| 13>  C        2.1640510000     0.0804660000     0.0580120000
| 14>  C        3.6145910000     0.0799620000    -0.0520380000
| 15>  C        4.1950450000     1.2569310000    -0.7903860000
| 16>  C        5.0154860000     0.8096300000    -1.7488130000
| 17>  C        5.0150420000    -0.6518130000    -1.7482680000
| 18>  C        4.1943300000    -1.0979040000    -0.7895080000
| 19>  H       -0.0932600000     0.0811250000     0.2342200000
| 20>  H        4.0345910000     0.0802070000     0.9682370000
| 21>  H        3.9658290000     2.2822030000    -0.5384060000
| 22>  H        5.5951310000     1.4236840000    -2.4258380000
| 23>  H        5.5943300000    -1.2667260000    -2.4248190000
| 24>  H        3.9645200000    -2.1228530000    -0.5367540000
| 25> *
| 26>
| 27>                          ****END OF INPUT****
 Total Charge           Charge          ....    0
 Multiplicity           Mult            ....    1
 Number of Electrons    NEL             ....   48
 Basis Dimension        Dim             ....  128

MULLIKEN ATOMIC CHARGES
-----------------------
   0 C :   -0.495103
   1 C :    0.413407
   2 C :   -0.001504
   3 C :   -0.005747
   4 C :    0.012704
   5 C :    0.012713
   6 C :   -0.005706
   7 H :   -0.002811
   8 H :    0.075463
   9 H :    0.003788
  10 H :   -0.005484
  11 H :   -0.005488
  12 H :    0.003768
Sum of atomic charges:   -0.0000000

LOEWDIN ATOMIC CHARGES
----------------------
   0 C :   -0.083105
   1 C :   -0.007307
   2 C :   -0.043560
   3 C :   -0.014148
   4 C :   -0.031235
   5 C :   -0.031230
   6 C :   -0.014141
   7 H :    0.034520
   8 H :    0.081921
   9 H :    0.027358
  10 H :    0.026786
  11 H :    0.026786
  12 H :    0.027356

  Mayer bond orders larger than 0.1
B(  0-C ,  1-C ) :   2.3368 B(  0-C ,  7-H ) :   1.1087 B(  1-C ,  2-C ) :   0.9730
B(  1-C ,  7-H ) :  -0.1176 B(  2-C ,  3-C ) :   1.0107 B(  2-C ,  6-C ) :   1.0107
B(  2-C ,  8-H ) :   0.8296 B(  3-C ,  4-C ) :   1.7268 B(  3-C ,  9-H ) :   0.9944
B(  4-C ,  5-C ) :   1.0929 B(  4-C , 10-H ) :   0.9957 B(  5-C ,  6-C ) :   1.7268
B(  5-C , 11-H ) :   0.9957 B(  6-C , 12-H ) :   0.9944

FINAL SINGLE POINT ENERGY      -269.684518382519

DIPOLE MOMENT
-------------
                                X             Y             Z
Electronic contribution:     -1.07910       0.00054       0.49948
Nuclear contribution   :      1.30398      -0.00062      -0.44601
                        -----------------------------------------
Total Dipole Moment    :      0.22488      -0.00008       0.05346
                        -----------------------------------------
Magnitude (a.u.)       :      0.23115
Magnitude (Debye)      :      0.58754

                             ****ORCA TERMINATED NORMALLY****
TOTAL RUN TIME: 0 days 0 hours 0 minutes 6 seconds 322 msec
