                         Program Version 3.0.3 - RELEASE   -
|  1> ! RI PBE def2-SVP def2-SVP/J NBO PAL2
|  2> % maxcore 2000
|  3> % output
|  4>     # printlevel mini
|  5>     print[ P_Basis ] 0
|  6>     print[ P_SCFInfo ] 1
|  7>     print[ P_SCFIterInfo ] 1
|  8>     print[ P_OrbEn ] 0
|  9>     print[ P_Cartesian ] 0
| 10> end
| 11> *xyz 0 1
| 12>  C        0.9674130000     0.0933970000     0.1395740000
| 13>  C        2.1671940000     0.0940420000     0.0789580000
| 14>  C        3.6194740000     0.0950130000    -0.0029470000
| 15>  C        4.1466940000    -1.1389390000    -0.7861240000
| 16>  C        4.5517020000    -0.5682020000    -2.1102280000
| 17>  C        4.5509690000     0.7583920000    -2.1104720000
| 18>  C        4.1453380000     1.3291820000    -0.7865790000
| 19>  H       -0.0952090000     0.0927520000     0.1952360000
| 20>  H        4.0096090000     0.0954330000     1.0183310000
| 21>  H        3.3835520000    -1.9163200000    -0.8693420000
| 22>  H        5.0049860000    -1.5912400000    -0.2756120000
| 23>  H        4.8367380000    -1.1895570000    -2.9512130000
| 24>  H        4.8353240000     1.3797420000    -2.9516880000
| 25>  H        3.3814300000     2.1057870000    -0.8700550000
| 26>  H        5.0031760000     1.7825290000    -0.2762280000
| 27> *
| 28>
| 29>                          ****END OF INPUT****
 Total Charge           Charge          ....    0
 Multiplicity           Mult            ....    1
 Number of Electrons    NEL             ....   50
 Basis Dimension        Dim             ....  138

MULLIKEN ATOMIC CHARGES
-----------------------
   0 C :   -0.513356
   1 C :    0.438487
   2 C :   -0.152886
   3 C :    0.105688
   4 C :   -0.058736
   5 C :   -0.058755
   6 C :    0.105759
   7 H :   -0.006898
   8 H :    0.032345
   9 H :    0.034059
  10 H :    0.025092
  11 H :   -0.004967
  12 H :   -0.004974
  13 H :    0.034053
  14 H :    0.025092
Sum of atomic charges:   -0.0000000

LOEWDIN ATOMIC CHARGES
----------------------
   0 C :   -0.094839
   1 C :   -0.012035
   2 C :   -0.037089
   3 C :   -0.023731
   4 C :   -0.036707
   5 C :   -0.036708
   6 C :   -0.023736
   7 H :    0.032701
   8 H :    0.046776
   9 H :    0.035764
  10 H :    0.033194
  11 H :    0.023726
  12 H :    0.023723
  13 H :    0.035764
  14 H :    0.033197

  Mayer bond orders larger than 0.1
B(  0-C ,  1-C ) :   2.2932 B(  0-C ,  7-H ) :   1.1106 B(  1-C ,  2-C ) :   0.9887
B(  1-C ,  7-H ) :  -0.1197 B(  2-C ,  3-C ) :   1.0624 B(  2-C ,  6-C ) :   1.0624
B(  2-C ,  8-H ) :   0.8783 B(  3-C ,  4-C ) :   1.0270 B(  3-C ,  9-H ) :   0.9303
B(  3-C , 10-H ) :   0.9093 B(  4-C ,  5-C ) :   1.8733 B(  4-C , 11-H ) :   0.9823
B(  5-C ,  6-C ) :   1.0270 B(  5-C , 12-H ) :   0.9823 B(  6-C , 13-H ) :   0.9303
B(  6-C , 14-H ) :   0.9093

FINAL SINGLE POINT ENERGY      -270.899967870491

DIPOLE MOMENT
-------------
                                X             Y             Z
Electronic contribution:     -2.06073      -0.00115       0.51015
Nuclear contribution   :      2.36360       0.00132      -0.51871
                        -----------------------------------------
Total Dipole Moment    :      0.30287       0.00017      -0.00856
                        -----------------------------------------
Magnitude (a.u.)       :      0.30299
Magnitude (Debye)      :      0.77014

                             ****ORCA TERMINATED NORMALLY****
TOTAL RUN TIME: 0 days 0 hours 0 minutes 6 seconds 608 msec
