                         Program Version 3.0.3 - RELEASE   -
|  1> ! RI PBE def2-SVP def2-SVP/J NBO PAL2
|  2> % maxcore 2000
|  3> % output
|  4>     # printlevel mini
|  5>     print[ P_Basis ] 0
|  6>     print[ P_SCFInfo ] 1
|  7>     print[ P_SCFIterInfo ] 1
|  8>     print[ P_OrbEn ] 0
|  9>     print[ P_Cartesian ] 0
| 10> end
| 11> *xyz 0 1
| 12>  C        0.9787450000     0.0656700000    -0.1800560000
| 13>  C        2.1788480000     0.0479450000    -0.1290640000
| 14>  C        3.6361050000     0.0285390000    -0.0581720000
| 15>  C        4.2136540000    -1.2542220000     0.5937260000
| 16>  C        4.5710700000    -0.8660730000     2.0359400000
| 17>  C        4.6595110000     0.6292730000     1.9756560000
| 18>  C        4.1595390000     1.1200540000     0.8498640000
| 19>  H       -0.0842680000     0.0817460000    -0.2255530000
| 20>  H        4.0162680000     0.1444430000    -1.0795400000
| 21>  H        5.1222270000    -1.5325330000     0.0555530000
| 22>  H        3.5198140000    -2.0919100000     0.5307420000
| 23>  H        5.5016560000    -1.3334230000     2.3695970000
| 24>  H        3.7966890000    -1.1712460000     2.7500070000
| 25>  H        5.0513460000     1.2302980000     2.7883170000
| 26>  H        4.0656960000     2.1694300000     0.5993840000
| 27> *
| 28>
| 29>                          ****END OF INPUT****
 Total Charge           Charge          ....    0
 Multiplicity           Mult            ....    1
 Number of Electrons    NEL             ....   50
 Basis Dimension        Dim             ....  138

MULLIKEN ATOMIC CHARGES
-----------------------
   0 C :   -0.517634
   1 C :    0.438124
   2 C :   -0.068434
   3 C :    0.028278
   4 C :    0.060665
   5 C :   -0.065451
   6 C :   -0.003516
   7 H :   -0.006737
   8 H :    0.035693
   9 H :    0.021054
  10 H :    0.022617
  11 H :    0.020757
  12 H :    0.035397
  13 H :   -0.001437
  14 H :    0.000624
Sum of atomic charges:    0.0000000

LOEWDIN ATOMIC CHARGES
----------------------
   0 C :   -0.093318
   1 C :   -0.012989
   2 C :   -0.046475
   3 C :   -0.015794
   4 C :   -0.039352
   5 C :   -0.027869
   6 C :   -0.023202
   7 H :    0.032736
   8 H :    0.048148
   9 H :    0.031253
  10 H :    0.030404
  11 H :    0.029869
  12 H :    0.036416
  13 H :    0.024495
  14 H :    0.025678

  Mayer bond orders larger than 0.1
B(  0-C ,  1-C ) :   2.3026 B(  0-C ,  7-H ) :   1.1113 B(  1-C ,  2-C ) :   0.9684
B(  1-C ,  7-H ) :  -0.1207 B(  2-C ,  3-C ) :   1.0674 B(  2-C ,  6-C ) :   1.0010
B(  2-C ,  8-H ) :   0.8752 B(  3-C ,  4-C ) :   1.0902 B(  3-C ,  9-H ) :   0.9295
B(  3-C , 10-H ) :   0.9387 B(  4-C ,  5-C ) :   1.0377 B(  4-C , 11-H ) :   0.9323
B(  4-C , 12-H ) :   0.9142 B(  5-C ,  6-C ) :   1.8674 B(  5-C , 13-H ) :   0.9817
B(  6-C , 14-H ) :   0.9886

FINAL SINGLE POINT ENERGY      -270.899534120113

DIPOLE MOMENT
-------------
                                X             Y             Z
Electronic contribution:     -2.38286       1.82494      -1.57182
Nuclear contribution   :      2.65947      -1.91904       1.68968
                        -----------------------------------------
Total Dipole Moment    :      0.27661      -0.09411       0.11786
                        -----------------------------------------
Magnitude (a.u.)       :      0.31506
Magnitude (Debye)      :      0.80081

                             ****ORCA TERMINATED NORMALLY****
TOTAL RUN TIME: 0 days 0 hours 0 minutes 7 seconds 61 msec
