                         Program Version 3.0.3 - RELEASE   -
|  1> ! RI PBE def2-SVP def2-SVP/J NBO PAL2
|  2> % maxcore 2000
|  3> % output
|  4>     # printlevel mini
|  5>     print[ P_Basis ] 0
|  6>     print[ P_SCFInfo ] 1
|  7>     print[ P_SCFIterInfo ] 1
|  8>     print[ P_OrbEn ] 0
|  9>     print[ P_Cartesian ] 0
| 10> end
| 11> *xyz 0 1
| 12>  C        0.8317910000    -0.1050540000    -0.0722080000
| 13>  C        2.3203640000    -0.0645150000     0.0178880000
| 14>  C        3.0299860000     0.5589220000     0.9720850000
| 15>  C        4.4906500000     0.5962510000     1.0571160000
| 16>  C        4.8267330000     1.3146040000     2.1470030000
| 17>  C        3.6027130000     1.7678720000     2.8066350000
| 18>  C        2.5334930000     1.3222160000     2.1136620000
| 19>  H        0.4983240000    -0.6741120000    -0.9396430000
| 20>  H        0.4125740000     0.9021720000    -0.1496870000
| 21>  H        0.3939330000    -0.5636630000     0.8189930000
| 22>  H        2.8786420000    -0.5852620000    -0.7565900000
| 23>  H        5.1564390000     0.1195630000     0.3512700000
| 24>  H        5.8292450000     1.5299190000     2.4913110000
| 25>  H        3.5748420000     2.3659340000     3.7080220000
| 26>  H        1.4922900000     1.4908520000     2.3476510000
| 27> *
| 28>
| 29>                          ****END OF INPUT****
 Total Charge           Charge          ....    0
 Multiplicity           Mult            ....    1
 Number of Electrons    NEL             ....   50
 Basis Dimension        Dim             ....  138

MULLIKEN ATOMIC CHARGES
-----------------------
   0 C :    0.035440
   1 C :   -0.132087
   2 C :    0.040302
   3 C :    0.008285
   4 C :    0.008542
   5 C :    0.010034
   6 C :   -0.008336
   7 H :    0.027872
   8 H :    0.053451
   9 H :    0.054584
  10 H :    0.002645
  11 H :   -0.026999
  12 H :   -0.023319
  13 H :   -0.020040
  14 H :   -0.030374
Sum of atomic charges:   -0.0000000

LOEWDIN ATOMIC CHARGES
----------------------
   0 C :   -0.068599
   1 C :    0.023686
   2 C :   -0.034900
   3 C :   -0.044863
   4 C :   -0.037700
   5 C :   -0.022757
   6 C :   -0.058504
   7 H :    0.034891
   8 H :    0.048313
   9 H :    0.048632
  10 H :    0.030287
  11 H :    0.021058
  12 H :    0.020477
  13 H :    0.021093
  14 H :    0.018885

  Mayer bond orders larger than 0.1
B(  0-C ,  1-C ) :   1.0827 B(  0-C ,  7-H ) :   0.9550 B(  0-C ,  8-H ) :   0.9444
B(  0-C ,  9-H ) :   0.9442 B(  1-C ,  2-C ) :   1.7268 B(  1-C , 10-H ) :   0.9392
B(  2-C ,  3-C ) :   1.0683 B(  2-C ,  6-C ) :   1.0937 B(  3-C ,  4-C ) :   1.6365
B(  3-C , 11-H ) :   1.0007 B(  4-C ,  5-C ) :   1.0860 B(  4-C , 12-H ) :   0.9979
B(  5-C ,  6-C ) :   1.6315 B(  5-C , 13-H ) :   0.9937 B(  6-C , 14-H ) :   0.9969

FINAL SINGLE POINT ENERGY      -270.948726560723

DIPOLE MOMENT
-------------
                                X             Y             Z
Electronic contribution:      3.42123       1.14449       1.79107
Nuclear contribution   :     -3.84397      -1.34825      -2.10815
                        -----------------------------------------
Total Dipole Moment    :     -0.42275      -0.20376      -0.31708
                        -----------------------------------------
Magnitude (a.u.)       :      0.56637
Magnitude (Debye)      :      1.43959

                             ****ORCA TERMINATED NORMALLY****
TOTAL RUN TIME: 0 days 0 hours 0 minutes 7 seconds 9 msec
