                         Program Version 3.0.3 - RELEASE   -
|  1> ! RI PBE def2-SVP def2-SVP/J NBO PAL2
|  2> % maxcore 2000
|  3> % output
|  4>     # printlevel mini
|  5>     print[ P_Basis ] 0
|  6>     print[ P_SCFInfo ] 1
|  7>     print[ P_SCFIterInfo ] 1
|  8>     print[ P_OrbEn ] 0
|  9>     print[ P_Cartesian ] 0
| 10> end
| 11> *xyz 0 1
| 12>  C        0.9508400000     0.0258680000    -0.1239150000
| 13>  C        2.4448300000     0.0060850000    -0.0259570000
| 14>  C        3.1527630000     0.8342420000     0.7337790000
| 15>  C        2.5714920000     1.9188840000     1.6129170000
| 16>  C        3.7827090000     2.5434050000     2.2380140000
| 17>  C        4.9093190000     1.9676560000     1.8342180000
| 18>  C        4.6620070000     0.8516640000     0.8645980000
| 19>  H        0.5829350000    -0.7415800000    -0.8057210000
| 20>  H        0.5823520000     0.9919550000    -0.4854820000
| 21>  H        0.4797260000    -0.1453260000     0.8500360000
| 22>  H        2.9743180000    -0.7366970000    -0.6178950000
| 23>  H        1.8807250000     1.5120100000     2.3639710000
| 24>  H        1.9829750000     2.6442180000     1.0347060000
| 25>  H        3.7236270000     3.3694580000     2.9370950000
| 26>  H        5.9031160000     2.2560850000     2.1563070000
| 27>  H        5.0539450000    -0.1038500000     1.2342050000
| 28>  H        5.1563200000     1.0310150000    -0.0980660000
| 29> *
| 30>
| 31>                          ****END OF INPUT****
 Total Charge           Charge          ....    0
 Multiplicity           Mult            ....    1
 Number of Electrons    NEL             ....   52
 Basis Dimension        Dim             ....  148

MULLIKEN ATOMIC CHARGES
-----------------------
   0 C :    0.046099
   1 C :   -0.135601
   2 C :   -0.220220
   3 C :    0.157781
   4 C :   -0.079112
   5 C :   -0.062619
   6 C :    0.156976
   7 H :    0.018783
   8 H :    0.029795
   9 H :    0.029919
  10 H :   -0.027133
  11 H :    0.028564
  12 H :    0.027593
  13 H :   -0.014993
  14 H :   -0.018569
  15 H :    0.030229
  16 H :    0.032508
Sum of atomic charges:   -0.0000000

LOEWDIN ATOMIC CHARGES
----------------------
   0 C :   -0.069686
   1 C :   -0.063871
   2 C :   -0.033228
   3 C :   -0.037538
   4 C :   -0.039939
   5 C :   -0.035775
   6 C :   -0.034603
   7 H :    0.030618
   8 H :    0.034381
   9 H :    0.034478
  10 H :    0.020374
  11 H :    0.037677
  12 H :    0.037416
  13 H :    0.021117
  14 H :    0.020530
  15 H :    0.038753
  16 H :    0.039296

  Mayer bond orders larger than 0.1
B(  0-C ,  1-C ) :   1.0840 B(  0-C ,  7-H ) :   0.9542 B(  0-C ,  8-H ) :   0.9476
B(  0-C ,  9-H ) :   0.9483 B(  1-C ,  2-C ) :   1.9316 B(  1-C , 10-H ) :   0.9441
B(  2-C ,  3-C ) :   1.0602 B(  2-C ,  6-C ) :   1.0449 B(  3-C ,  4-C ) :   1.0197
B(  3-C , 11-H ) :   0.8903 B(  3-C , 12-H ) :   0.8895 B(  4-C ,  5-C ) :   1.8618
B(  4-C , 13-H ) :   0.9879 B(  5-C ,  6-C ) :   1.0241 B(  5-C , 14-H ) :   0.9865
B(  6-C , 15-H ) :   0.9014 B(  6-C , 16-H ) :   0.9013

FINAL SINGLE POINT ENERGY      -272.152472583376

DIPOLE MOMENT
-------------
                                X             Y             Z
Electronic contribution:      3.12339       1.31770       1.36261
Nuclear contribution   :     -3.17136      -1.30891      -1.35863
                        -----------------------------------------
Total Dipole Moment    :     -0.04797       0.00879       0.00399
                        -----------------------------------------
Magnitude (a.u.)       :      0.04893
Magnitude (Debye)      :      0.12438

                             ****ORCA TERMINATED NORMALLY****
TOTAL RUN TIME: 0 days 0 hours 0 minutes 7 seconds 309 msec
