                         Program Version 3.0.3 - RELEASE   -
|  1> ! RI PBE def2-SVP def2-SVP/J NBO PAL2
|  2> % maxcore 2000
|  3> % output
|  4>     # printlevel mini
|  5>     print[ P_Basis ] 0
|  6>     print[ P_SCFInfo ] 1
|  7>     print[ P_SCFIterInfo ] 1
|  8>     print[ P_OrbEn ] 0
|  9>     print[ P_Cartesian ] 0
| 10> end
| 11> *xyz 0 1
| 12>  C        0.9355820000     0.1998510000     0.1746260000
| 13>  C        2.4280990000     0.0718500000     0.1248240000
| 14>  C        3.1091600000    -1.0553450000     0.3492770000
| 15>  C        4.6173480000    -1.2146350000     0.3059910000
| 16>  C        4.8850930000    -2.6975870000     0.6334580000
| 17>  C        3.5180680000    -3.2728890000     0.8397020000
| 18>  C        2.5556700000    -2.3598690000     0.6803300000
| 19>  H        0.6213820000     1.2209700000    -0.0448980000
| 20>  H        0.5347760000    -0.0578840000     1.1601850000
| 21>  H        0.4436490000    -0.4541260000    -0.5525020000
| 22>  H        2.9923630000     0.9700940000    -0.1129310000
| 23>  H        5.0993450000    -0.5525750000     1.0290170000
| 24>  H        5.0090620000    -0.9455320000    -0.6776400000
| 25>  H        5.5070080000    -2.8208080000     1.5268370000
| 26>  H        5.4151900000    -3.2130950000    -0.1748500000
| 27>  H        3.3509860000    -4.3143850000     1.0892050000
| 28>  H        1.4947390000    -2.5527440000     0.7816480000
| 29> *
| 30>
| 31>                          ****END OF INPUT****
 Total Charge           Charge          ....    0
 Multiplicity           Mult            ....    1
 Number of Electrons    NEL             ....   52
 Basis Dimension        Dim             ....  148

MULLIKEN ATOMIC CHARGES
-----------------------
   0 C :    0.041740
   1 C :   -0.155306
   2 C :   -0.091736
   3 C :    0.090845
   4 C :    0.037128
   5 C :   -0.081291
   6 C :    0.032839
   7 H :    0.013900
   8 H :    0.032316
   9 H :    0.036314
  10 H :   -0.024118
  11 H :    0.026440
  12 H :    0.020062
  13 H :    0.027229
  14 H :    0.028768
  15 H :   -0.010657
  16 H :   -0.024474
Sum of atomic charges:   -0.0000000

LOEWDIN ATOMIC CHARGES
----------------------
   0 C :   -0.070948
   1 C :   -0.065519
   2 C :   -0.044922
   3 C :   -0.025892
   4 C :   -0.041215
   5 C :   -0.018761
   6 C :   -0.035204
   7 H :    0.030277
   8 H :    0.034578
   9 H :    0.035333
  10 H :    0.020056
  11 H :    0.035900
  12 H :    0.034596
  13 H :    0.033080
  14 H :    0.033506
  15 H :    0.021256
  16 H :    0.023876

  Mayer bond orders larger than 0.1
B(  0-C ,  1-C ) :   1.0778 B(  0-C ,  7-H ) :   0.9555 B(  0-C ,  8-H ) :   0.9503
B(  0-C ,  9-H ) :   0.9508 B(  1-C ,  2-C ) :   1.8406 B(  1-C ,  5-C ) :   0.1186
B(  1-C , 10-H ) :   0.9423 B(  2-C ,  3-C ) :   1.0557 B(  2-C ,  6-C ) :   1.1045
B(  3-C ,  4-C ) :   1.1046 B(  3-C , 11-H ) :   0.9163 B(  3-C , 12-H ) :   0.9169
B(  4-C ,  5-C ) :   1.0662 B(  4-C , 13-H ) :   0.9152 B(  4-C , 14-H ) :   0.9150
B(  5-C ,  6-C ) :   1.7257 B(  5-C , 15-H ) :   0.9782 B(  6-C , 16-H ) :   0.9901

FINAL SINGLE POINT ENERGY      -272.159437522469

DIPOLE MOMENT
-------------
                                X             Y             Z
Electronic contribution:      0.98026      -1.81484       0.36874
Nuclear contribution   :     -0.86296       1.70488      -0.34869
                        -----------------------------------------
Total Dipole Moment    :      0.11731      -0.10996       0.02005
                        -----------------------------------------
Magnitude (a.u.)       :      0.16203
Magnitude (Debye)      :      0.41185

                             ****ORCA TERMINATED NORMALLY****
TOTAL RUN TIME: 0 days 0 hours 0 minutes 7 seconds 775 msec
