                         Program Version 3.0.3 - RELEASE   -
|  1> ! RI PBE def2-SVP def2-SVP/J NBO PAL2
|  2> % maxcore 2000
|  3> % output
|  4>     # printlevel mini
|  5>     print[ P_Basis ] 0
|  6>     print[ P_SCFInfo ] 1
|  7>     print[ P_SCFIterInfo ] 1
|  8>     print[ P_OrbEn ] 0
|  9>     print[ P_Cartesian ] 0
| 10> end
| 11> *xyz 0 1
| 12>  C        3.6884440000     0.4731380000     0.6231030000
| 13>  C        2.4831890000    -0.2366700000     0.0122510000
| 14>  C        2.8330870000    -1.1102450000    -1.1453770000
| 15>  C        2.6843200000    -2.4313000000    -1.2264320000
| 16>  C        3.1903900000    -2.9912270000    -2.5223230000
| 17>  C        3.3577320000    -1.7344460000    -3.3917380000
| 18>  C        3.4764560000    -0.5702120000    -2.3979780000
| 19>  H        3.3859720000     1.1012850000     1.4640460000
| 20>  H        4.1865890000     1.1151880000    -0.1072040000
| 21>  H        4.4228090000    -0.2494380000     0.9873730000
| 22>  H        1.7589680000     0.5197880000    -0.3169360000
| 23>  H        1.9809280000    -0.8361490000     0.7770480000
| 24>  H        2.2802940000    -3.0503120000    -0.4318870000
| 25>  H        2.5107550000    -3.7220350000    -2.9705840000
| 26>  H        4.1453640000    -3.5120960000    -2.3711340000
| 27>  H        2.4582960000    -1.5973600000    -3.9978190000
| 28>  H        4.2038080000    -1.7987370000    -4.0783860000
| 29>  H        2.9933050000     0.3441540000    -2.7582860000
| 30>  H        4.5244040000    -0.3075350000    -2.2031460000
| 31> *
| 32>
| 33>                          ****END OF INPUT****
 Total Charge           Charge          ....    0
 Multiplicity           Mult            ....    1
 Number of Electrons    NEL             ....   54
 Basis Dimension        Dim             ....  158

MULLIKEN ATOMIC CHARGES
-----------------------
   0 C :   -0.041960
   1 C :    0.060244
   2 C :   -0.161916
   3 C :   -0.099884
   4 C :    0.039067
   5 C :   -0.019803
   6 C :    0.075007
   7 H :    0.022592
   8 H :    0.026900
   9 H :    0.025088
  10 H :    0.016770
  11 H :    0.001388
  12 H :   -0.029772
  13 H :    0.016766
  14 H :    0.021182
  15 H :    0.019125
  16 H :    0.007021
  17 H :    0.003997
  18 H :    0.018188
Sum of atomic charges:   -0.0000000

LOEWDIN ATOMIC CHARGES
----------------------
   0 C :   -0.063568
   1 C :   -0.041230
   2 C :   -0.039805
   3 C :   -0.053542
   4 C :   -0.043751
   5 C :   -0.032918
   6 C :   -0.036389
   7 H :    0.027057
   8 H :    0.024707
   9 H :    0.027172
  10 H :    0.031926
  11 H :    0.028798
  12 H :    0.016624
  13 H :    0.025505
  14 H :    0.028247
  15 H :    0.027474
  16 H :    0.021740
  17 H :    0.023817
  18 H :    0.028138

  Mayer bond orders larger than 0.1
B(  0-C ,  1-C ) :   1.1050 B(  0-C ,  7-H ) :   0.9598 B(  0-C ,  8-H ) :   0.9660
B(  0-C ,  9-H ) :   0.9669 B(  1-C ,  2-C ) :   1.0899 B(  1-C , 10-H ) :   0.9122
B(  1-C , 11-H ) :   0.9209 B(  2-C ,  3-C ) :   1.8638 B(  2-C ,  6-C ) :   1.0419
B(  3-C ,  4-C ) :   1.0195 B(  3-C , 12-H ) :   0.9801 B(  4-C ,  5-C ) :   1.1072
B(  4-C , 13-H ) :   0.9318 B(  4-C , 14-H ) :   0.9120 B(  5-C ,  6-C ) :   1.0979
B(  5-C , 15-H ) :   0.9401 B(  5-C , 16-H ) :   0.9366 B(  6-C , 17-H ) :   0.9237
B(  6-C , 18-H ) :   0.9033

FINAL SINGLE POINT ENERGY      -273.373119360436

DIPOLE MOMENT
-------------
                                X             Y             Z
Electronic contribution:     -1.29660      -2.15841      -0.97295
Nuclear contribution   :      1.33537       2.25652       0.99986
                        -----------------------------------------
Total Dipole Moment    :      0.03877       0.09811       0.02691
                        -----------------------------------------
Magnitude (a.u.)       :      0.10887
Magnitude (Debye)      :      0.27673

                             ****ORCA TERMINATED NORMALLY****
TOTAL RUN TIME: 0 days 0 hours 0 minutes 8 seconds 101 msec
