                         Program Version 3.0.3 - RELEASE   -
|  1> ! RI PBE def2-SVP def2-SVP/J NBO PAL2
|  2> % maxcore 2000
|  3> % output
|  4>     # printlevel mini
|  5>     print[ P_Basis ] 0
|  6>     print[ P_SCFInfo ] 1
|  7>     print[ P_SCFIterInfo ] 1
|  8>     print[ P_OrbEn ] 0
|  9>     print[ P_Cartesian ] 0
| 10> end
| 11> *xyz 0 1
| 12>  C        1.2814780000    -0.7236810000    -0.4968110000
| 13>  C        2.4471690000     0.1169990000     0.0186000000
| 14>  C        2.9198240000     1.1482610000    -0.9480280000
| 15>  C        2.9192480000     2.4852320000    -0.7955160000
| 16>  C        3.4761930000     3.1208320000    -1.9842210000
| 17>  C        3.8226140000     2.1751080000    -2.8703240000
| 18>  C        3.4990810000     0.8344030000    -2.2965940000
| 19>  H        0.9648770000    -1.4523250000     0.2532000000
| 20>  H        1.5559240000    -1.2760630000    -1.3986630000
| 21>  H        0.4237680000    -0.0923780000    -0.7404120000
| 22>  H        3.2778400000    -0.5528650000     0.2749610000
| 23>  H        2.1567570000     0.6140560000     0.9487630000
| 24>  H        2.5642210000     3.0172780000     0.0791550000
| 25>  H        3.5867670000     4.1897660000    -2.1162280000
| 26>  H        4.2601700000     2.3286990000    -3.8471870000
| 27>  H        4.3884540000     0.1955230000    -2.2145090000
| 28>  H        2.7912050000     0.2832550000    -2.9290950000
| 29> *
| 30>
| 31>                          ****END OF INPUT****
 Total Charge           Charge          ....    0
 Multiplicity           Mult            ....    1
 Number of Electrons    NEL             ....   52
 Basis Dimension        Dim             ....  148

MULLIKEN ATOMIC CHARGES
-----------------------
   0 C :   -0.039375
   1 C :    0.078312
   2 C :   -0.189244
   3 C :   -0.014563
   4 C :    0.018744
   5 C :   -0.082852
   6 C :    0.120636
   7 H :    0.023000
   8 H :    0.022491
   9 H :    0.025302
  10 H :    0.015740
  11 H :   -0.001093
  12 H :   -0.032445
  13 H :   -0.019909
  14 H :   -0.015239
  15 H :    0.043790
  16 H :    0.046705
Sum of atomic charges:    0.0000000

LOEWDIN ATOMIC CHARGES
----------------------
   0 C :   -0.063520
   1 C :   -0.041061
   2 C :   -0.034603
   3 C :   -0.052401
   4 C :   -0.040073
   5 C :   -0.043538
   6 C :   -0.034251
   7 H :    0.026971
   8 H :    0.022887
   9 H :    0.027341
  10 H :    0.032319
  11 H :    0.030502
  12 H :    0.019157
  13 H :    0.021547
  14 H :    0.019213
  15 H :    0.055318
  16 H :    0.054191

  Mayer bond orders larger than 0.1
B(  0-C ,  1-C ) :   1.1063 B(  0-C ,  7-H ) :   0.9594 B(  0-C ,  8-H ) :   0.9659
B(  0-C ,  9-H ) :   0.9668 B(  1-C ,  2-C ) :   1.0920 B(  1-C , 10-H ) :   0.9120
B(  1-C , 11-H ) :   0.9151 B(  2-C ,  3-C ) :   1.7395 B(  2-C ,  5-C ) :   0.1042
B(  2-C ,  6-C ) :   1.0646 B(  3-C ,  4-C ) :   1.0714 B(  3-C , 12-H ) :   0.9947
B(  4-C ,  5-C ) :   1.7336 B(  4-C , 13-H ) :   0.9964 B(  5-C ,  6-C ) :   1.0443
B(  5-C , 14-H ) :   0.9883 B(  6-C , 15-H ) :   0.8815 B(  6-C , 16-H ) :   0.8845

FINAL SINGLE POINT ENERGY      -272.161274625170

DIPOLE MOMENT
-------------
                                X             Y             Z
Electronic contribution:      2.59427       4.56488      -1.41984
Nuclear contribution   :     -2.61688      -4.88126       1.42402
                        -----------------------------------------
Total Dipole Moment    :     -0.02261      -0.31638       0.00418
                        -----------------------------------------
Magnitude (a.u.)       :      0.31721
Magnitude (Debye)      :      0.80629

                             ****ORCA TERMINATED NORMALLY****
TOTAL RUN TIME: 0 days 0 hours 0 minutes 7 seconds 594 msec
