                         Program Version 3.0.3 - RELEASE   -
|  1> ! RI PBE def2-SVP def2-SVP/J NBO PAL2
|  2> % maxcore 2000
|  3> % output
|  4>     # printlevel mini
|  5>     print[ P_Basis ] 0
|  6>     print[ P_SCFInfo ] 1
|  7>     print[ P_SCFIterInfo ] 1
|  8>     print[ P_OrbEn ] 0
|  9>     print[ P_Cartesian ] 0
| 10> end
| 11> *xyz 0 1
| 12>  C        1.4312080000    -0.4306480000     0.8671970000
| 13>  C        2.5931300000    -0.0495580000    -0.0455770000
| 14>  C        3.1091820000     1.3274850000     0.2087180000
| 15>  C        4.3199890000     1.6811430000     0.6755140000
| 16>  C        4.4060470000     3.1664470000     0.7886180000
| 17>  C        3.0651690000     3.6225180000     0.3168950000
| 18>  C        2.3299090000     2.5508330000    -0.0119870000
| 19>  H        1.0666350000    -1.4348350000     0.6386830000
| 20>  H        0.5932320000     0.2616390000     0.7551150000
| 21>  H        1.7381920000    -0.4099640000     1.9153290000
| 22>  H        2.2665520000    -0.1240400000    -1.0899130000
| 23>  H        3.4095320000    -0.7668290000     0.0760170000
| 24>  H        5.1253770000     1.0056760000     0.9338000000
| 25>  H        5.2163230000     3.5829650000     0.1753720000
| 26>  H        4.6108900000     3.4931250000     1.8168760000
| 27>  H        2.7632490000     4.6593040000     0.2551360000
| 28>  H        1.3151730000     2.5683290000    -0.3915930000
| 29> *
| 30>
| 31>                          ****END OF INPUT****
 Total Charge           Charge          ....    0
 Multiplicity           Mult            ....    1
 Number of Electrons    NEL             ....   52
 Basis Dimension        Dim             ....  148

MULLIKEN ATOMIC CHARGES
-----------------------
   0 C :   -0.031870
   1 C :    0.074282
   2 C :   -0.061771
   3 C :   -0.131422
   4 C :    0.102933
   5 C :   -0.089293
   6 C :    0.024862
   7 H :    0.018514
   8 H :    0.025860
   9 H :    0.025845
  10 H :    0.012449
  11 H :    0.002382
  12 H :   -0.025377
  13 H :    0.046862
  14 H :    0.044887
  15 H :   -0.011630
  16 H :   -0.027513
Sum of atomic charges:   -0.0000000

LOEWDIN ATOMIC CHARGES
----------------------
   0 C :   -0.061359
   1 C :   -0.040920
   2 C :   -0.039999
   3 C :   -0.053424
   4 C :   -0.036517
   5 C :   -0.039860
   6 C :   -0.034672
   7 H :    0.025909
   8 H :    0.025312
   9 H :    0.027399
  10 H :    0.032136
  11 H :    0.029784
  12 H :    0.017207
  13 H :    0.054975
  14 H :    0.054515
  15 H :    0.019716
  16 H :    0.019797

  Mayer bond orders larger than 0.1
B(  0-C ,  1-C ) :   1.1049 B(  0-C ,  7-H ) :   0.9602 B(  0-C ,  8-H ) :   0.9689
B(  0-C ,  9-H ) :   0.9664 B(  1-C ,  2-C ) :   1.0804 B(  1-C , 10-H ) :   0.9108
B(  1-C , 11-H ) :   0.9202 B(  2-C ,  3-C ) :   1.7486 B(  2-C ,  6-C ) :   1.0941
B(  3-C ,  4-C ) :   1.0379 B(  3-C , 12-H ) :   0.9854 B(  4-C ,  5-C ) :   1.0654
B(  4-C , 13-H ) :   0.8884 B(  4-C , 14-H ) :   0.8897 B(  5-C ,  6-C ) :   1.7256
B(  5-C , 15-H ) :   0.9897 B(  6-C , 16-H ) :   0.9962

FINAL SINGLE POINT ENERGY      -272.161240722419

DIPOLE MOMENT
-------------
                                X             Y             Z
Electronic contribution:      1.97189       3.47635      -0.86953
Nuclear contribution   :     -1.89213      -3.45084       0.90954
                        -----------------------------------------
Total Dipole Moment    :      0.07976       0.02551       0.04001
                        -----------------------------------------
Magnitude (a.u.)       :      0.09281
Magnitude (Debye)      :      0.23590

                             ****ORCA TERMINATED NORMALLY****
TOTAL RUN TIME: 0 days 0 hours 0 minutes 7 seconds 292 msec
