                         Program Version 3.0.3 - RELEASE   -
|  1> ! RI PBE def2-SVP def2-SVP/J NBO PAL2
|  2> % maxcore 2000
|  3> % output
|  4>     # printlevel mini
|  5>     print[ P_Basis ] 0
|  6>     print[ P_SCFInfo ] 1
|  7>     print[ P_SCFIterInfo ] 1
|  8>     print[ P_OrbEn ] 0
|  9>     print[ P_Cartesian ] 0
| 10> end
| 11> *xyz 0 1
| 12>  C        0.9963460000     0.4440150000     0.3859360000
| 13>  C        2.4282430000     0.1161260000    -0.0014210000
| 14>  C        3.0473780000    -1.0151120000     0.8271980000
| 15>  C        4.4874960000    -1.2793200000     0.5136580000
| 16>  C        4.6541520000    -2.5745040000     0.2087260000
| 17>  C        3.3628630000    -3.2520030000     0.2905230000
| 18>  C        2.4207690000    -2.3638860000     0.6417850000
| 19>  H        0.6110730000     1.2747100000    -0.2097700000
| 20>  H        0.9270740000     0.7311800000     1.4390860000
| 21>  H        0.3309550000    -0.4080250000     0.2292890000
| 22>  H        3.0507450000     1.0090450000     0.1169580000
| 23>  H        2.4795020000    -0.1605460000    -1.0591390000
| 24>  H        2.9646190000    -0.7358310000     1.8910390000
| 25>  H        5.2532030000    -0.5148450000     0.5356010000
| 26>  H        5.5870340000    -3.0555190000    -0.0566180000
| 27>  H        3.2069650000    -4.3058150000     0.0968900000
| 28>  H        1.3691740000    -2.5689710000     0.7886500000
| 29> *
| 30>
| 31>                          ****END OF INPUT****
 Total Charge           Charge          ....    0
 Multiplicity           Mult            ....    1
 Number of Electrons    NEL             ....   52
 Basis Dimension        Dim             ....  148

MULLIKEN ATOMIC CHARGES
-----------------------
   0 C :   -0.014077
   1 C :   -0.011001
   2 C :   -0.035860
   3 C :   -0.015731
   4 C :    0.007020
   5 C :    0.007578
   6 C :   -0.028887
   7 H :    0.023405
   8 H :    0.015717
   9 H :    0.026125
  10 H :    0.014488
  11 H :    0.026120
  12 H :    0.041329
  13 H :   -0.012590
  14 H :   -0.018852
  15 H :   -0.015982
  16 H :   -0.008802
Sum of atomic charges:    0.0000000

LOEWDIN ATOMIC CHARGES
----------------------
   0 C :   -0.068889
   1 C :   -0.025692
   2 C :   -0.037820
   3 C :   -0.031865
   4 C :   -0.038197
   5 C :   -0.037429
   6 C :   -0.034820
   7 H :    0.029324
   8 H :    0.025125
   9 H :    0.025677
  10 H :    0.025485
  11 H :    0.030654
  12 H :    0.055708
  13 H :    0.020132
  14 H :    0.021455
  15 H :    0.021821
  16 H :    0.019332

  Mayer bond orders larger than 0.1
B(  0-C ,  1-C ) :   1.1180 B(  0-C ,  7-H ) :   0.9578 B(  0-C ,  8-H ) :   0.9616
B(  0-C ,  9-H ) :   0.9637 B(  1-C ,  2-C ) :   1.0334 B(  1-C , 10-H ) :   0.9348
B(  1-C , 11-H ) :   0.9396 B(  2-C ,  3-C ) :   1.0269 B(  2-C ,  6-C ) :   1.0228
B(  2-C , 12-H ) :   0.8590 B(  3-C ,  4-C ) :   1.7257 B(  3-C , 13-H ) :   0.9910
B(  4-C ,  5-C ) :   1.0885 B(  4-C , 14-H ) :   0.9966 B(  5-C ,  6-C ) :   1.7317
B(  5-C , 15-H ) :   0.9960 B(  6-C , 16-H ) :   0.9894

FINAL SINGLE POINT ENERGY      -272.155103791800

DIPOLE MOMENT
-------------
                                X             Y             Z
Electronic contribution:      3.90177      -4.35103       0.30407
Nuclear contribution   :     -4.01039       4.56024      -0.27049
                        -----------------------------------------
Total Dipole Moment    :     -0.10862       0.20921       0.03358
                        -----------------------------------------
Magnitude (a.u.)       :      0.23811
Magnitude (Debye)      :      0.60522

                             ****ORCA TERMINATED NORMALLY****
TOTAL RUN TIME: 0 days 0 hours 0 minutes 7 seconds 573 msec
