                         Program Version 3.0.3 - RELEASE   -
|  1> ! RI PBE def2-SVP def2-SVP/J NBO PAL2
|  2> % maxcore 2000
|  3> % output
|  4>     # printlevel mini
|  5>     print[ P_Basis ] 0
|  6>     print[ P_SCFInfo ] 1
|  7>     print[ P_SCFIterInfo ] 1
|  8>     print[ P_OrbEn ] 0
|  9>     print[ P_Cartesian ] 0
| 10> end
| 11> *xyz 0 1
| 12>  C        1.0389030000    -0.0056990000    -0.0132040000
| 13>  C        2.5545100000     0.1058950000     0.0026330000
| 14>  C        3.1165780000     0.8023880000     1.2399030000
| 15>  C        4.6602600000     0.7268090000     1.2727400000
| 16>  C        5.1010110000     2.1014720000     0.8716100000
| 17>  C        4.0906720000     2.9618210000     0.8591640000
| 18>  C        2.7958330000     2.3154070000     1.2490090000
| 19>  H        0.6892910000    -0.5119590000    -0.9159970000
| 20>  H        0.5545940000     0.9734780000     0.0192920000
| 21>  H        0.6808870000    -0.5776850000     0.8477830000
| 22>  H        2.9028090000     0.6389760000    -0.8906870000
| 23>  H        2.9844090000    -0.9002030000    -0.0561050000
| 24>  H        2.6915180000     0.3159230000     2.1231850000
| 25>  H        5.0417570000    -0.0504650000     0.6014310000
| 26>  H        5.0375060000     0.4779520000     2.2725200000
| 27>  H        6.1325490000     2.3503400000     0.6490660000
| 28>  H        4.1753880000     4.0167490000     0.6233510000
| 29>  H        1.9814280000     2.5678580000     0.5620440000
| 30>  H        2.4741080000     2.6623110000     2.2386510000
| 31> *
| 32>
| 33>                          ****END OF INPUT****
 Total Charge           Charge          ....    0
 Multiplicity           Mult            ....    1
 Number of Electrons    NEL             ....   54
 Basis Dimension        Dim             ....  158

MULLIKEN ATOMIC CHARGES
-----------------------
   0 C :    0.003112
   1 C :   -0.001449
   2 C :   -0.182218
   3 C :    0.130501
   4 C :   -0.076535
   5 C :   -0.072198
   6 C :    0.111660
   7 H :    0.019019
   8 H :    0.015589
   9 H :    0.014788
  10 H :    0.006558
  11 H :    0.008246
  12 H :   -0.006412
  13 H :    0.008490
  14 H :    0.015545
  15 H :   -0.011969
  16 H :   -0.010345
  17 H :    0.011393
  18 H :    0.016224
Sum of atomic charges:   -0.0000000

LOEWDIN ATOMIC CHARGES
----------------------
   0 C :   -0.067034
   1 C :   -0.041133
   2 C :   -0.031740
   3 C :   -0.034396
   4 C :   -0.040683
   5 C :   -0.040376
   6 C :   -0.035717
   7 H :    0.027295
   8 H :    0.021849
   9 H :    0.024011
  10 H :    0.023635
  11 H :    0.022670
  12 H :    0.020275
  13 H :    0.025923
  14 H :    0.030171
  15 H :    0.020006
  16 H :    0.020209
  17 H :    0.024683
  18 H :    0.030351

  Mayer bond orders larger than 0.1
B(  0-C ,  1-C ) :   1.1192 B(  0-C ,  7-H ) :   0.9597 B(  0-C ,  8-H ) :   0.9607
B(  0-C ,  9-H ) :   0.9621 B(  1-C ,  2-C ) :   1.0555 B(  1-C , 10-H ) :   0.9339
B(  1-C , 11-H ) :   0.9308 B(  2-C ,  3-C ) :   1.0656 B(  2-C ,  6-C ) :   1.0606
B(  2-C , 12-H ) :   0.9118 B(  3-C ,  4-C ) :   1.0327 B(  3-C , 13-H ) :   0.9199
B(  3-C , 14-H ) :   0.9090 B(  4-C ,  5-C ) :   1.8632 B(  4-C , 15-H ) :   0.9857
B(  5-C ,  6-C ) :   1.0304 B(  5-C , 16-H ) :   0.9840 B(  6-C , 17-H ) :   0.9217
B(  6-C , 18-H ) :   0.9089

FINAL SINGLE POINT ENERGY      -273.367444308349

DIPOLE MOMENT
-------------
                                X             Y             Z
Electronic contribution:      3.80792       2.78905       1.12160
Nuclear contribution   :     -3.85127      -2.85354      -1.08504
                        -----------------------------------------
Total Dipole Moment    :     -0.04335      -0.06449       0.03656
                        -----------------------------------------
Magnitude (a.u.)       :      0.08587
Magnitude (Debye)      :      0.21827

                             ****ORCA TERMINATED NORMALLY****
TOTAL RUN TIME: 0 days 0 hours 0 minutes 8 seconds 674 msec
