                         Program Version 3.0.3 - RELEASE   -
|  1> ! RI PBE def2-SVP def2-SVP/J NBO PAL2
|  2> % maxcore 2000
|  3> % output
|  4>     # printlevel mini
|  5>     print[ P_Basis ] 0
|  6>     print[ P_SCFInfo ] 1
|  7>     print[ P_SCFIterInfo ] 1
|  8>     print[ P_OrbEn ] 0
|  9>     print[ P_Cartesian ] 0
| 10> end
| 11> *xyz 0 1
| 12>  C        2.8938150000     1.4706740000     0.0475290000
| 13>  C        2.3982270000     0.0385940000    -0.0603690000
| 14>  C        2.9765670000    -0.7334190000    -1.2503820000
| 15>  C        2.4737950000    -2.1907730000    -1.3247560000
| 16>  C        3.6093090000    -3.0659730000    -0.7666530000
| 17>  C        4.8070230000    -2.1698330000    -0.8759740000
| 18>  C        4.4683480000    -0.9160690000    -1.1538240000
| 19>  H        2.4171680000     1.9929450000     0.8802780000
| 20>  H        2.6741200000     2.0330060000    -0.8649840000
| 21>  H        3.9735620000     1.5114390000     0.2099710000
| 22>  H        1.3059460000     0.0375130000    -0.1489810000
| 23>  H        2.6353160000    -0.5061290000     0.8610850000
| 24>  H        2.7077660000    -0.1842930000    -2.1616370000
| 25>  H        2.2929050000    -2.4596720000    -2.3681930000
| 26>  H        1.5316500000    -2.3272780000    -0.7888410000
| 27>  H        3.7276070000    -3.9988200000    -1.3257110000
| 28>  H        3.4391610000    -3.3561550000     0.2777130000
| 29>  H        5.8214420000    -2.5169180000    -0.7131010000
| 30>  H        5.1709630000    -0.0969710000    -1.2565610000
| 31> *
| 32>
| 33>                          ****END OF INPUT****
 Total Charge           Charge          ....    0
 Multiplicity           Mult            ....    1
 Number of Electrons    NEL             ....   54
 Basis Dimension        Dim             ....  158

MULLIKEN ATOMIC CHARGES
-----------------------
   0 C :   -0.015396
   1 C :    0.011623
   2 C :   -0.110980
   3 C :    0.051129
   4 C :    0.056106
   5 C :   -0.078552
   6 C :   -0.013469
   7 H :    0.018614
   8 H :    0.016291
   9 H :    0.022413
  10 H :    0.013358
  11 H :    0.001427
  12 H :    0.003177
  13 H :    0.010254
  14 H :   -0.004727
  15 H :    0.016061
  16 H :    0.022021
  17 H :   -0.011576
  18 H :   -0.007773
Sum of atomic charges:   -0.0000000

LOEWDIN ATOMIC CHARGES
----------------------
   0 C :   -0.069454
   1 C :   -0.039224
   2 C :   -0.041644
   3 C :   -0.026291
   4 C :   -0.041388
   5 C :   -0.035913
   6 C :   -0.035863
   7 H :    0.027326
   8 H :    0.024193
   9 H :    0.024549
  10 H :    0.023202
  11 H :    0.022007
  12 H :    0.023023
  13 H :    0.027685
  14 H :    0.020954
  15 H :    0.027569
  16 H :    0.029921
  17 H :    0.019648
  18 H :    0.019700

  Mayer bond orders larger than 0.1
B(  0-C ,  1-C ) :   1.1219 B(  0-C ,  7-H ) :   0.9579 B(  0-C ,  8-H ) :   0.9628
B(  0-C ,  9-H ) :   0.9623 B(  1-C ,  2-C ) :   1.0443 B(  1-C , 10-H ) :   0.9318
B(  1-C , 11-H ) :   0.9314 B(  2-C ,  3-C ) :   1.0711 B(  2-C ,  6-C ) :   1.0076
B(  2-C , 12-H ) :   0.9074 B(  3-C ,  4-C ) :   1.1002 B(  3-C , 13-H ) :   0.9297
B(  3-C , 14-H ) :   0.9300 B(  4-C ,  5-C ) :   1.0347 B(  4-C , 15-H ) :   0.9311
B(  4-C , 16-H ) :   0.9134 B(  5-C ,  6-C ) :   1.8620 B(  5-C , 17-H ) :   0.9863
B(  6-C , 18-H ) :   0.9863

FINAL SINGLE POINT ENERGY      -273.367420349493

DIPOLE MOMENT
-------------
                                X             Y             Z
Electronic contribution:      2.23316      -2.57180      -1.47234
Nuclear contribution   :     -2.30139       2.54282       1.50215
                        -----------------------------------------
Total Dipole Moment    :     -0.06824      -0.02899       0.02981
                        -----------------------------------------
Magnitude (a.u.)       :      0.07990
Magnitude (Debye)      :      0.20310

                             ****ORCA TERMINATED NORMALLY****
TOTAL RUN TIME: 0 days 0 hours 0 minutes 8 seconds 183 msec
