                         Program Version 3.0.3 - RELEASE   -
|  1> ! RI PBE def2-SVP def2-SVP/J NBO PAL2
|  2> % maxcore 2000
|  3> % output
|  4>     # printlevel mini
|  5>     print[ P_Basis ] 0
|  6>     print[ P_SCFInfo ] 1
|  7>     print[ P_SCFIterInfo ] 1
|  8>     print[ P_OrbEn ] 0
|  9>     print[ P_Cartesian ] 0
| 10> end
| 11> *xyz 0 1
| 12>  C        0.9228050000    -1.7453350000     0.9065670000
| 13>  C        2.4058670000    -1.8785620000     0.8407620000
| 14>  C        3.2492420000    -0.8783360000     0.6092650000
| 15>  C        4.7198670000    -0.9766710000     0.5123310000
| 16>  C        5.4281930000    -2.2745730000     0.2700270000
| 17>  C        5.3940710000    -1.2381460000    -0.8112940000
| 18>  C        6.6383790000    -0.4929810000    -1.1973610000
| 19>  H        0.5395430000    -2.0754390000     1.8775990000
| 20>  H        0.4335670000    -2.3687230000     0.1508150000
| 21>  H        0.6068230000    -0.7119940000     0.7495430000
| 22>  H        2.8086330000    -2.8767880000     1.0016450000
| 23>  H        2.8386490000     0.1218540000     0.4676630000
| 24>  H        5.2539140000    -0.2667880000     1.1404400000
| 25>  H        4.8327930000    -3.1692080000     0.1382200000
| 26>  H        6.3688840000    -2.4368590000     0.7836170000
| 27>  H        4.7097490000    -1.4521180000    -1.6270530000
| 28>  H        7.2672240000    -0.3059870000    -0.3224550000
| 29>  H        6.4023840000     0.4742530000    -1.6500890000
| 30>  H        7.2347120000    -1.0616690000    -1.9167420000
| 31> *
| 32>
| 33>                          ****END OF INPUT****
 Total Charge           Charge          ....    0
 Multiplicity           Mult            ....    1
 Number of Electrons    NEL             ....   54
 Basis Dimension        Dim             ....  158

MULLIKEN ATOMIC CHARGES
-----------------------
   0 C :    0.050432
   1 C :   -0.103678
   2 C :   -0.000337
   3 C :   -0.063617
   4 C :    0.013993
   5 C :   -0.151406
   6 C :    0.066804
   7 H :    0.027218
   8 H :    0.030841
   9 H :    0.014612
  10 H :   -0.010191
  11 H :   -0.016772
  12 H :    0.019362
  13 H :    0.026927
  14 H :    0.019038
  15 H :    0.019889
  16 H :    0.007575
  17 H :    0.023907
  18 H :    0.025401
Sum of atomic charges:   -0.0000000

LOEWDIN ATOMIC CHARGES
----------------------
   0 C :   -0.064042
   1 C :   -0.047831
   2 C :   -0.042779
   3 C :   -0.043786
   4 C :   -0.040499
   5 C :   -0.034949
   6 C :   -0.058796
   7 H :    0.034771
   8 H :    0.035203
   9 H :    0.028910
  10 H :    0.019831
  11 H :    0.022114
  12 H :    0.030281
  13 H :    0.024970
  14 H :    0.025401
  15 H :    0.025862
  16 H :    0.026661
  17 H :    0.029182
  18 H :    0.029496

  Mayer bond orders larger than 0.1
B(  0-C ,  1-C ) :   1.0789 B(  0-C ,  7-H ) :   0.9465 B(  0-C ,  8-H ) :   0.9479
B(  0-C ,  9-H ) :   0.9612 B(  1-C ,  2-C ) :   1.9191 B(  1-C , 10-H ) :   0.9424
B(  2-C ,  3-C ) :   1.0564 B(  2-C , 11-H ) :   0.9554 B(  3-C ,  4-C ) :   1.0056
B(  3-C ,  5-C ) :   0.9296 B(  3-C , 12-H ) :   0.9243 B(  4-C ,  5-C ) :   1.0102
B(  4-C , 13-H ) :   0.9332 B(  4-C , 14-H ) :   0.9334 B(  5-C ,  6-C ) :   1.1002
B(  5-C , 15-H ) :   0.9418 B(  6-C , 16-H ) :   0.9472 B(  6-C , 17-H ) :   0.9590
B(  6-C , 18-H ) :   0.9574

FINAL SINGLE POINT ENERGY      -273.340372944044

DIPOLE MOMENT
-------------
                                X             Y             Z
Electronic contribution:      0.01876      -0.10383       0.87951
Nuclear contribution   :     -0.00269       0.10650      -0.93865
                        -----------------------------------------
Total Dipole Moment    :      0.01607       0.00267      -0.05914
                        -----------------------------------------
Magnitude (a.u.)       :      0.06134
Magnitude (Debye)      :      0.15592

                             ****ORCA TERMINATED NORMALLY****
TOTAL RUN TIME: 0 days 0 hours 0 minutes 8 seconds 394 msec
