                         Program Version 3.0.3 - RELEASE   -
|  1> ! RI PBE def2-SVP def2-SVP/J NBO PAL2
|  2> % maxcore 2000
|  3> % output
|  4>     # printlevel mini
|  5>     print[ P_Basis ] 0
|  6>     print[ P_SCFInfo ] 1
|  7>     print[ P_SCFIterInfo ] 1
|  8>     print[ P_OrbEn ] 0
|  9>     print[ P_Cartesian ] 0
| 10> end
| 11> *xyz 0 1
| 12>  C        0.9252910000     0.0925290000     0.0371910000
| 13>  C        2.3763040000     0.0771720000     0.0276250000
| 14>  C        3.5802220000     0.0644710000     0.0218000000
| 15>  C        5.0124950000     0.0521000000     0.0127430000
| 16>  C        5.7615160000    -0.6692950000    -1.0844280000
| 17>  C        5.7812940000     0.8209920000    -1.0358110000
| 18>  C        7.0310730000     1.5576570000    -0.6518190000
| 19>  H        0.5296830000    -0.6026610000     0.7823480000
| 20>  H        0.5243620000    -0.2013320000    -0.9364160000
| 21>  H        0.5393350000     1.0884930000     0.2703090000
| 22>  H        5.4754390000     0.0203950000     0.9947410000
| 23>  H        5.1661990000    -1.1559880000    -1.8458970000
| 24>  H        6.6625710000    -1.1994080000    -0.7981360000
| 25>  H        5.1549860000     1.3186480000    -1.7686960000
| 26>  H        7.5942010000     1.0045200000     0.1048750000
| 27>  H        6.8019630000     2.5449550000    -0.2422500000
| 28>  H        7.6869660000     1.6960650000    -1.5158880000
| 29> *
| 30>
| 31>                          ****END OF INPUT****
 Total Charge           Charge          ....    0
 Multiplicity           Mult            ....    1
 Number of Electrons    NEL             ....   52
 Basis Dimension        Dim             ....  148

MULLIKEN ATOMIC CHARGES
-----------------------
   0 C :    0.056668
   1 C :   -0.223673
   2 C :    0.048575
   3 C :   -0.164069
   4 C :    0.038276
   5 C :   -0.144567
   6 C :    0.061098
   7 H :    0.045763
   8 H :    0.042327
   9 H :    0.042810
  10 H :    0.037580
  11 H :    0.034355
  12 H :    0.026541
  13 H :    0.029871
  14 H :    0.010121
  15 H :    0.029368
  16 H :    0.028954
Sum of atomic charges:   -0.0000000

LOEWDIN ATOMIC CHARGES
----------------------
   0 C :   -0.068519
   1 C :   -0.075544
   2 C :   -0.059237
   3 C :   -0.051076
   4 C :   -0.026007
   5 C :   -0.028409
   6 C :   -0.056583
   7 H :    0.049057
   8 H :    0.048991
   9 H :    0.047239
  10 H :    0.039689
  11 H :    0.031558
  12 H :    0.027058
  13 H :    0.031441
  14 H :    0.027256
  15 H :    0.031746
  16 H :    0.031339

  Mayer bond orders larger than 0.1
B(  0-C ,  1-C ) :   1.1328 B(  0-C ,  7-H ) :   0.9344 B(  0-C ,  8-H ) :   0.9316
B(  0-C ,  9-H ) :   0.9340 B(  1-C ,  2-C ) :   2.4773 B(  2-C ,  3-C ) :   1.0310
B(  3-C ,  4-C ) :   0.9634 B(  3-C ,  5-C ) :   0.9147 B(  3-C , 10-H ) :   0.9257
B(  4-C ,  5-C ) :   1.0042 B(  4-C , 11-H ) :   0.9417 B(  4-C , 12-H ) :   0.9372
B(  5-C ,  6-C ) :   1.1025 B(  5-C , 13-H ) :   0.9453 B(  6-C , 14-H ) :   0.9484
B(  6-C , 15-H ) :   0.9586 B(  6-C , 16-H ) :   0.9569

FINAL SINGLE POINT ENERGY      -272.104791505393

DIPOLE MOMENT
-------------
                                X             Y             Z
Electronic contribution:     -2.14555      -1.32661       0.87033
Nuclear contribution   :      2.18626       1.39299      -0.95240
                        -----------------------------------------
Total Dipole Moment    :      0.04071       0.06638      -0.08207
                        -----------------------------------------
Magnitude (a.u.)       :      0.11313
Magnitude (Debye)      :      0.28755

                             ****ORCA TERMINATED NORMALLY****
TOTAL RUN TIME: 0 days 0 hours 0 minutes 7 seconds 181 msec
