                         Program Version 3.0.3 - RELEASE   -
|  1> ! RI PBE def2-SVP def2-SVP/J NBO PAL2
|  2> % maxcore 2000
|  3> % output
|  4>     # printlevel mini
|  5>     print[ P_Basis ] 0
|  6>     print[ P_SCFInfo ] 1
|  7>     print[ P_SCFIterInfo ] 1
|  8>     print[ P_OrbEn ] 0
|  9>     print[ P_Cartesian ] 0
| 10> end
| 11> *xyz 0 1
| 12>  C        2.1589660000    -2.7986890000    -1.1200460000
| 13>  C        2.8016630000    -1.6602750000    -1.3414100000
| 14>  C        3.2785910000    -0.7198060000    -0.2852390000
| 15>  C        4.7843140000    -0.5268900000    -0.3026100000
| 16>  C        5.4387070000     0.3343570000     0.7967430000
| 17>  C        6.6190650000    -0.6549440000     0.8090380000
| 18>  C        5.7007280000    -1.6894740000     0.1311440000
| 19>  H        1.8468100000    -3.4435270000    -1.9335260000
| 20>  H        1.9175860000    -3.1249720000    -0.1127980000
| 21>  H        3.0244500000    -1.3744510000    -2.3689270000
| 22>  H        2.9690410000    -1.0837950000     0.7008880000
| 23>  H        2.8005680000     0.2589150000    -0.4267300000
| 24>  H        5.0985610000    -0.1629610000    -1.2875710000
| 25>  H        4.8638620000     0.2782520000     1.7257400000
| 26>  H        5.6428440000     1.3837420000     0.5759090000
| 27>  H        7.0571880000    -0.9150130000     1.7736900000
| 28>  H        7.4195630000    -0.3304920000     0.1403930000
| 29>  H        5.1987600000    -2.3220240000     0.8689670000
| 30>  H        6.1234240000    -2.3305730000    -0.6436560000
| 31> *
| 32>
| 33>                          ****END OF INPUT****
 Total Charge           Charge          ....    0
 Multiplicity           Mult            ....    1
 Number of Electrons    NEL             ....   54
 Basis Dimension        Dim             ....  158

MULLIKEN ATOMIC CHARGES
-----------------------
   0 C :   -0.031416
   1 C :   -0.088515
   2 C :    0.170873
   3 C :   -0.238106
   4 C :    0.053490
   5 C :   -0.012239
   6 C :    0.052296
   7 H :    0.023588
   8 H :    0.012462
   9 H :   -0.000012
  10 H :   -0.015436
  11 H :    0.014295
  12 H :    0.004298
  13 H :    0.002516
  14 H :    0.012672
  15 H :    0.006192
  16 H :    0.014791
  17 H :    0.005072
  18 H :    0.013181
Sum of atomic charges:   -0.0000000

LOEWDIN ATOMIC CHARGES
----------------------
   0 C :   -0.068210
   1 C :   -0.028287
   2 C :   -0.039413
   3 C :   -0.034010
   4 C :   -0.031680
   5 C :   -0.033525
   6 C :   -0.030621
   7 H :    0.023960
   8 H :    0.019985
   9 H :    0.024091
  10 H :    0.023747
  11 H :    0.035485
  12 H :    0.022768
  13 H :    0.022044
  14 H :    0.015519
  15 H :    0.015368
  16 H :    0.023426
  17 H :    0.022841
  18 H :    0.016514

  Mayer bond orders larger than 0.1
B(  0-C ,  1-C ) :   2.0161 B(  0-C ,  7-H ) :   0.9422 B(  0-C ,  8-H ) :   0.9476
B(  1-C ,  2-C ) :   1.0607 B(  1-C ,  9-H ) :   0.9541 B(  2-C ,  3-C ) :   1.0556
B(  2-C , 10-H ) :   0.9104 B(  2-C , 11-H ) :   0.9020 B(  3-C ,  4-C ) :   1.0736
B(  3-C ,  6-C ) :   1.0699 B(  3-C , 12-H ) :   0.9121 B(  4-C ,  5-C ) :   1.1178
B(  4-C , 13-H ) :   0.9183 B(  4-C , 14-H ) :   0.9340 B(  5-C ,  6-C ) :   1.1176
B(  5-C , 15-H ) :   0.9346 B(  5-C , 16-H ) :   0.9358 B(  6-C , 17-H ) :   0.9224
B(  6-C , 18-H ) :   0.9342

FINAL SINGLE POINT ENERGY      -273.334722396451

DIPOLE MOMENT
-------------
                                X             Y             Z
Electronic contribution:     -0.90388       0.07208      -1.03384
Nuclear contribution   :      0.97885       0.04925       1.03521
                        -----------------------------------------
Total Dipole Moment    :      0.07496       0.12133       0.00137
                        -----------------------------------------
Magnitude (a.u.)       :      0.14263
Magnitude (Debye)      :      0.36253

                             ****ORCA TERMINATED NORMALLY****
TOTAL RUN TIME: 0 days 0 hours 0 minutes 8 seconds 623 msec
