                         Program Version 3.0.3 - RELEASE   -
|  1> ! RI PBE def2-SVP def2-SVP/J NBO PAL2
|  2> % maxcore 2000
|  3> % output
|  4>     # printlevel mini
|  5>     print[ P_Basis ] 0
|  6>     print[ P_SCFInfo ] 1
|  7>     print[ P_SCFIterInfo ] 1
|  8>     print[ P_OrbEn ] 0
|  9>     print[ P_Cartesian ] 0
| 10> end
| 11> *xyz 0 1
| 12>  C        4.8948390000    -1.3573970000    -1.9839690000
| 13>  C        4.3360570000    -0.7301750000    -1.1257710000
| 14>  C        3.6771560000     0.0153040000    -0.0658280000
| 15>  C        4.1798850000    -0.3503180000     1.3216360000
| 16>  C        3.4739160000     0.2685650000     2.5440030000
| 17>  C        3.6646300000    -1.0743110000     3.2740090000
| 18>  C        3.8591270000    -1.7423300000     1.8993730000
| 19>  H        5.3864550000    -1.9110970000    -2.7481680000
| 20>  H        2.5968020000    -0.1651010000    -0.1179270000
| 21>  H        3.8206240000     1.0883760000    -0.2390150000
| 22>  H        5.2568700000    -0.1663930000     1.3778650000
| 23>  H        2.4175230000     0.4563160000     2.3299310000
| 24>  H        3.9057710000     1.1677470000     2.9867730000
| 25>  H        2.8497780000    -1.4316540000     3.9048470000
| 26>  H        4.5871900000    -1.0840490000     3.8583500000
| 27>  H        2.9119820000    -2.1189200000     1.5025010000
| 28>  H        4.6129940000    -2.5239640000     1.8016920000
| 29> *
| 30>
| 31>                          ****END OF INPUT****
 Total Charge           Charge          ....    0
 Multiplicity           Mult            ....    1
 Number of Electrons    NEL             ....   52
 Basis Dimension        Dim             ....  148

MULLIKEN ATOMIC CHARGES
-----------------------
   0 C :   -0.495572
   1 C :    0.334501
   2 C :    0.156065
   3 C :   -0.252122
   4 C :    0.076581
   5 C :   -0.028768
   6 C :    0.062660
   7 H :   -0.004710
   8 H :    0.024177
   9 H :    0.036020
  10 H :    0.020138
  11 H :    0.000180
  12 H :    0.010733
  13 H :    0.013482
  14 H :    0.021314
  15 H :    0.001645
  16 H :    0.023673
Sum of atomic charges:    0.0000000

LOEWDIN ATOMIC CHARGES
----------------------
   0 C :   -0.093719
   1 C :   -0.020217
   2 C :   -0.048865
   3 C :   -0.028589
   4 C :   -0.029362
   5 C :   -0.034403
   6 C :   -0.027990
   7 H :    0.033036
   8 H :    0.045113
   9 H :    0.050390
  10 H :    0.029706
  11 H :    0.022240
  12 H :    0.015969
  13 H :    0.017284
  14 H :    0.025623
  15 H :    0.023582
  16 H :    0.020202

  Mayer bond orders larger than 0.1
B(  0-C ,  1-C ) :   2.3306 B(  0-C ,  7-H ) :   1.1027 B(  1-C ,  2-C ) :   1.0676
B(  1-C ,  7-H ) :  -0.1118 B(  2-C ,  3-C ) :   1.0486 B(  2-C ,  8-H ) :   0.8792
B(  2-C ,  9-H ) :   0.8888 B(  3-C ,  4-C ) :   1.0685 B(  3-C ,  6-C ) :   1.0682
B(  3-C , 10-H ) :   0.9127 B(  4-C ,  5-C ) :   1.1190 B(  4-C , 11-H ) :   0.9138
B(  4-C , 12-H ) :   0.9329 B(  5-C ,  6-C ) :   1.1179 B(  5-C , 13-H ) :   0.9351
B(  5-C , 14-H ) :   0.9351 B(  6-C , 15-H ) :   0.9188 B(  6-C , 16-H ) :   0.9362

FINAL SINGLE POINT ENERGY      -272.092132483924

DIPOLE MOMENT
-------------
                                X             Y             Z
Electronic contribution:      1.40062      -0.22763      -4.99714
Nuclear contribution   :     -1.48809       0.34532       5.26141
                        -----------------------------------------
Total Dipole Moment    :     -0.08747       0.11769       0.26427
                        -----------------------------------------
Magnitude (a.u.)       :      0.30222
Magnitude (Debye)      :      0.76819

                             ****ORCA TERMINATED NORMALLY****
TOTAL RUN TIME: 0 days 0 hours 0 minutes 7 seconds 780 msec
