                         Program Version 3.0.3 - RELEASE   -
|  1> ! RI PBE def2-SVP def2-SVP/J NBO PAL2
|  2> % maxcore 2000
|  3> % output
|  4>     # printlevel mini
|  5>     print[ P_Basis ] 0
|  6>     print[ P_SCFInfo ] 1
|  7>     print[ P_SCFIterInfo ] 1
|  8>     print[ P_OrbEn ] 0
|  9>     print[ P_Cartesian ] 0
| 10> end
| 11> *xyz 0 1
| 12>  C        0.8133200000    -0.9667230000    -1.6126750000
| 13>  C        2.2962010000    -1.1015400000    -1.5554500000
| 14>  C        3.0798820000    -0.5697980000    -0.6231780000
| 15>  C        4.5550120000    -0.7012000000    -0.5623420000
| 16>  C        5.4240270000     0.5750650000    -0.4351290000
| 17>  C        6.3671150000    -0.2020970000     0.4999270000
| 18>  C        5.2176560000    -1.1944500000     0.7483550000
| 19>  H        0.3248200000    -1.9460010000    -1.5769290000
| 20>  H        0.4943230000    -0.4935160000    -2.5471380000
| 21>  H        0.4349780000    -0.3676540000    -0.7819350000
| 22>  H        2.7604910000    -1.6863460000    -2.3492320000
| 23>  H        2.6210590000     0.0170450000     0.1747090000
| 24>  H        4.9110920000    -1.3050990000    -1.4031620000
| 25>  H        4.8823010000     1.3558530000     0.1058080000
| 26>  H        5.8306640000     1.0043570000    -1.3524300000
| 27>  H        6.7853470000     0.3238470000     1.3592100000
| 28>  H        7.1848540000    -0.6682660000    -0.0544640000
| 29>  H        4.6191000000    -0.9007870000     1.6150740000
| 30>  H        5.4502480000    -2.2576680000     0.8292610000
| 31> *
| 32>
| 33>                          ****END OF INPUT****
 Total Charge           Charge          ....    0
 Multiplicity           Mult            ....    1
 Number of Electrons    NEL             ....   54
 Basis Dimension        Dim             ....  158

MULLIKEN ATOMIC CHARGES
-----------------------
   0 C :    0.039083
   1 C :   -0.116814
   2 C :    0.060496
   3 C :   -0.187503
   4 C :    0.070343
   5 C :   -0.016360
   6 C :    0.058231
   7 H :    0.030245
   8 H :    0.030172
   9 H :    0.019726
  10 H :   -0.009927
  11 H :   -0.028003
  12 H :    0.000409
  13 H :    0.002240
  14 H :    0.010379
  15 H :    0.007417
  16 H :    0.011980
  17 H :    0.002947
  18 H :    0.014939
Sum of atomic charges:   -0.0000000

LOEWDIN ATOMIC CHARGES
----------------------
   0 C :   -0.065657
   1 C :   -0.046622
   2 C :   -0.046398
   3 C :   -0.037781
   4 C :   -0.023907
   5 C :   -0.036290
   6 C :   -0.025778
   7 H :    0.035701
   8 H :    0.035553
   9 H :    0.030324
  10 H :    0.020708
  11 H :    0.017590
  12 H :    0.028033
  13 H :    0.021992
  14 H :    0.015489
  15 H :    0.015278
  16 H :    0.023195
  17 H :    0.022330
  18 H :    0.016241

  Mayer bond orders larger than 0.1
B(  0-C ,  1-C ) :   1.0788 B(  0-C ,  7-H ) :   0.9464 B(  0-C ,  8-H ) :   0.9472
B(  0-C ,  9-H ) :   0.9619 B(  1-C ,  2-C ) :   1.9012 B(  1-C , 10-H ) :   0.9575
B(  2-C ,  3-C ) :   1.0480 B(  2-C , 11-H ) :   0.9415 B(  3-C ,  4-C ) :   1.0488
B(  3-C ,  6-C ) :   1.0515 B(  3-C , 12-H ) :   0.9177 B(  4-C ,  5-C ) :   1.1144
B(  4-C , 13-H ) :   0.9223 B(  4-C , 14-H ) :   0.9338 B(  5-C ,  6-C ) :   1.1135
B(  5-C , 15-H ) :   0.9341 B(  5-C , 16-H ) :   0.9325 B(  6-C , 17-H ) :   0.9208
B(  6-C , 18-H ) :   0.9343

FINAL SINGLE POINT ENERGY      -273.341032697346

DIPOLE MOMENT
-------------
                                X             Y             Z
Electronic contribution:      0.99162      -0.19714      -0.11894
Nuclear contribution   :     -1.04791       0.17098       0.07233
                        -----------------------------------------
Total Dipole Moment    :     -0.05628      -0.02616      -0.04661
                        -----------------------------------------
Magnitude (a.u.)       :      0.07762
Magnitude (Debye)      :      0.19729

                             ****ORCA TERMINATED NORMALLY****
TOTAL RUN TIME: 0 days 0 hours 0 minutes 8 seconds 367 msec
