                         Program Version 3.0.3 - RELEASE   -
|  1> ! RI PBE def2-SVP def2-SVP/J NBO PAL2
|  2> % maxcore 2000
|  3> % output
|  4>     # printlevel mini
|  5>     print[ P_Basis ] 0
|  6>     print[ P_SCFInfo ] 1
|  7>     print[ P_SCFIterInfo ] 1
|  8>     print[ P_OrbEn ] 0
|  9>     print[ P_Cartesian ] 0
| 10> end
| 11> *xyz 0 1
| 12>  C        3.4856170000     2.1861600000    -0.4579200000
| 13>  C        3.3418880000     0.7457650000    -0.0745900000
| 14>  C        3.0194760000     0.3719790000     1.1600160000
| 15>  C        3.5815340000    -0.2291640000    -1.1798270000
| 16>  C        4.9842320000    -0.2911850000    -1.8394890000
| 17>  C        4.7718050000    -1.8046980000    -2.0203580000
| 18>  C        3.6928370000    -1.7428390000    -0.9233510000
| 19>  H        3.3038580000     2.8491520000     0.3888200000
| 20>  H        2.7838630000     2.4475280000    -1.2571890000
| 21>  H        4.4893870000     2.3892280000    -0.8451360000
| 22>  H        2.8469850000     1.1030540000     1.9424360000
| 23>  H        2.9106960000    -0.6717800000     1.4307310000
| 24>  H        2.8416270000    -0.0497480000    -1.9711040000
| 25>  H        5.7639220000    -0.0839600000    -1.1017870000
| 26>  H        5.1649120000     0.3163080000    -2.7277240000
| 27>  H        5.6269370000    -2.4617480000    -1.8574630000
| 28>  H        4.3379340000    -2.0316660000    -2.9967130000
| 29>  H        4.1249250000    -1.9407050000     0.0604080000
| 30>  H        2.7949670000    -2.3509810000    -1.0430570000
| 31> *
| 32>
| 33>                          ****END OF INPUT****
 Total Charge           Charge          ....    0
 Multiplicity           Mult            ....    1
 Number of Electrons    NEL             ....   54
 Basis Dimension        Dim             ....  158

MULLIKEN ATOMIC CHARGES
-----------------------
   0 C :    0.072346
   1 C :   -0.107150
   2 C :   -0.046764
   3 C :   -0.158498
   4 C :    0.035338
   5 C :   -0.010741
   6 C :    0.053894
   7 H :    0.012012
   8 H :    0.025776
   9 H :    0.025404
  10 H :    0.002742
  11 H :    0.007249
  12 H :    0.018129
  13 H :    0.009919
  14 H :    0.012979
  15 H :    0.012093
  16 H :    0.010557
  17 H :    0.009847
  18 H :    0.014868
Sum of atomic charges:    0.0000000

LOEWDIN ATOMIC CHARGES
----------------------
   0 C :   -0.054577
   1 C :   -0.032622
   2 C :   -0.082549
   3 C :   -0.032594
   4 C :   -0.027304
   5 C :   -0.032415
   6 C :   -0.028802
   7 H :    0.030079
   8 H :    0.035146
   9 H :    0.034458
  10 H :    0.018804
  11 H :    0.018133
  12 H :    0.033887
  13 H :    0.024391
  14 H :    0.014597
  15 H :    0.017140
  16 H :    0.023290
  17 H :    0.023808
  18 H :    0.017130

  Mayer bond orders larger than 0.1
B(  0-C ,  1-C ) :   1.0821 B(  0-C ,  7-H ) :   0.9462 B(  0-C ,  8-H ) :   0.9449
B(  0-C ,  9-H ) :   0.9437 B(  1-C ,  2-C ) :   1.9890 B(  1-C ,  3-C ) :   1.0154
B(  2-C , 10-H ) :   0.9269 B(  2-C , 11-H ) :   0.9286 B(  3-C ,  4-C ) :   1.0766
B(  3-C ,  6-C ) :   1.0898 B(  3-C , 12-H ) :   0.8837 B(  4-C ,  5-C ) :   1.1187
B(  4-C , 13-H ) :   0.9219 B(  4-C , 14-H ) :   0.9322 B(  5-C ,  6-C ) :   1.1123
B(  5-C , 15-H ) :   0.9355 B(  5-C , 16-H ) :   0.9335 B(  6-C , 17-H ) :   0.9119
B(  6-C , 18-H ) :   0.9316

FINAL SINGLE POINT ENERGY      -273.339757185515

DIPOLE MOMENT
-------------
                                X             Y             Z
Electronic contribution:     -0.69912      -0.61478       0.46323
Nuclear contribution   :      0.75004       0.67613      -0.68171
                        -----------------------------------------
Total Dipole Moment    :      0.05092       0.06134      -0.21849
                        -----------------------------------------
Magnitude (a.u.)       :      0.23258
Magnitude (Debye)      :      0.59116

                             ****ORCA TERMINATED NORMALLY****
TOTAL RUN TIME: 0 days 0 hours 0 minutes 8 seconds 697 msec
