                         Program Version 3.0.3 - RELEASE   -
|  1> ! RI PBE def2-SVP def2-SVP/J NBO PAL2
|  2> % maxcore 2000
|  3> % output
|  4>     # printlevel mini
|  5>     print[ P_Basis ] 0
|  6>     print[ P_SCFInfo ] 1
|  7>     print[ P_SCFIterInfo ] 1
|  8>     print[ P_OrbEn ] 0
|  9>     print[ P_Cartesian ] 0
| 10> end
| 11> *xyz 0 1
| 12>  C        0.9394080000    -0.0982640000    -0.0394220000
| 13>  C        2.3900470000    -0.1007000000    -0.0017740000
| 14>  C        3.5936420000    -0.1027280000     0.0249070000
| 15>  C        5.0382230000    -0.1048740000     0.0847480000
| 16>  C        5.7715950000     0.9763540000     0.9194170000
| 17>  C        6.8031360000    -0.0941920000     1.3172880000
| 18>  C        5.7673520000    -1.1695130000     0.9440830000
| 19>  H        0.5715780000    -0.1739350000    -1.0659790000
| 20>  H        0.5363640000     0.8212540000     0.3930240000
| 21>  H        0.5297150000    -0.9397620000     0.5253760000
| 22>  H        5.4503670000    -0.1173540000    -0.9297660000
| 23>  H        5.1580770000     1.2781640000     1.7701300000
| 24>  H        6.1163980000     1.8675570000     0.3936190000
| 25>  H        7.1785680000    -0.0831710000     2.3408470000
| 26>  H        7.6548270000    -0.1037430000     0.6332860000
| 27>  H        5.1527100000    -1.4492860000     1.8014930000
| 28>  H        6.1085930000    -2.0739160000     0.4389040000
| 29> *
| 30>
| 31>                          ****END OF INPUT****
 Total Charge           Charge          ....    0
 Multiplicity           Mult            ....    1
 Number of Electrons    NEL             ....   52
 Basis Dimension        Dim             ....  148

MULLIKEN ATOMIC CHARGES
-----------------------
   0 C :    0.055164
   1 C :   -0.273534
   2 C :    0.082159
   3 C :   -0.229617
   4 C :    0.072482
   5 C :   -0.026822
   6 C :    0.073559
   7 H :    0.042982
   8 H :    0.043858
   9 H :    0.044938
  10 H :    0.028777
  11 H :    0.012325
  12 H :    0.016599
  13 H :    0.012432
  14 H :    0.016369
  15 H :    0.012193
  16 H :    0.016135
Sum of atomic charges:   -0.0000000

LOEWDIN ATOMIC CHARGES
----------------------
   0 C :   -0.068387
   1 C :   -0.072774
   2 C :   -0.065736
   3 C :   -0.046121
   4 C :   -0.016296
   5 C :   -0.037753
   6 C :   -0.016161
   7 H :    0.048282
   8 H :    0.049009
   9 H :    0.049129
  10 H :    0.043316
  11 H :    0.027628
  12 H :    0.017634
  13 H :    0.017929
  14 H :    0.025171
  15 H :    0.027564
  16 H :    0.017566

  Mayer bond orders larger than 0.1
B(  0-C ,  1-C ) :   1.1364 B(  0-C ,  7-H ) :   0.9350 B(  0-C ,  8-H ) :   0.9321
B(  0-C ,  9-H ) :   0.9324 B(  1-C ,  2-C ) :   2.4925 B(  2-C ,  3-C ) :   0.9903
B(  3-C ,  4-C ) :   1.0707 B(  3-C ,  6-C ) :   1.0704 B(  3-C , 10-H ) :   0.8629
B(  4-C ,  5-C ) :   1.1241 B(  4-C , 11-H ) :   0.9190 B(  4-C , 12-H ) :   0.9308
B(  5-C ,  6-C ) :   1.1242 B(  5-C , 13-H ) :   0.9374 B(  5-C , 14-H ) :   0.9277
B(  6-C , 15-H ) :   0.9192 B(  6-C , 16-H ) :   0.9308

FINAL SINGLE POINT ENERGY      -272.104171198300

DIPOLE MOMENT
-------------
                                X             Y             Z
Electronic contribution:     -1.03118      -0.01384      -1.35727
Nuclear contribution   :      0.97732       0.01434       1.38994
                        -----------------------------------------
Total Dipole Moment    :     -0.05386       0.00050       0.03267
                        -----------------------------------------
Magnitude (a.u.)       :      0.06299
Magnitude (Debye)      :      0.16012

                             ****ORCA TERMINATED NORMALLY****
TOTAL RUN TIME: 0 days 0 hours 0 minutes 7 seconds 17 msec
