                         Program Version 3.0.3 - RELEASE   -
|  1> ! RI PBE def2-SVP def2-SVP/J NBO PAL2
|  2> % maxcore 2000
|  3> % output
|  4>     # printlevel mini
|  5>     print[ P_Basis ] 0
|  6>     print[ P_SCFInfo ] 1
|  7>     print[ P_SCFIterInfo ] 1
|  8>     print[ P_OrbEn ] 0
|  9>     print[ P_Cartesian ] 0
| 10> end
| 11> *xyz 0 1
| 12>  C        1.4653950000     0.2916100000     0.7927800000
| 13>  C        2.4388710000    -0.0309940000    -0.0474430000
| 14>  C        3.1606580000     0.9219130000    -0.9399840000
| 15>  C        4.6625300000     0.9745050000    -0.6612290000
| 16>  C        5.4006520000     1.8875700000    -1.6007130000
| 17>  C        6.8557010000     1.6731710000    -1.8763600000
| 18>  C        5.8398490000     1.3856540000    -2.9423460000
| 19>  H        0.9854090000    -0.4508740000     1.4198910000
| 20>  H        1.1102330000     1.3141460000     0.8808930000
| 21>  H        2.7637640000    -1.0698350000    -0.0994440000
| 22>  H        2.7293240000     1.9230230000    -0.8356490000
| 23>  H        3.0145620000     0.6240010000    -1.9860100000
| 24>  H        5.0826550000    -0.0356330000    -0.7405710000
| 25>  H        4.8249590000     1.2924380000     0.3748070000
| 26>  H        5.0750860000     2.9238750000    -1.5711100000
| 27>  H        7.3364290000     0.8280480000    -1.3973420000
| 28>  H        7.4934210000     2.5400330000    -1.9968290000
| 29>  H        5.6387320000     0.3465640000    -3.1780550000
| 30>  H        5.7848690000     2.0541740000    -3.7924650000
| 31> *
| 32>
| 33>                          ****END OF INPUT****
 Total Charge           Charge          ....    0
 Multiplicity           Mult            ....    1
 Number of Electrons    NEL             ....   54
 Basis Dimension        Dim             ....  158

MULLIKEN ATOMIC CHARGES
-----------------------
   0 C :   -0.039223
   1 C :   -0.074266
   2 C :    0.063054
   3 C :    0.062618
   4 C :   -0.146738
   5 C :   -0.022377
   6 C :   -0.045248
   7 H :    0.022812
   8 H :    0.014269
   9 H :    0.001744
  10 H :    0.000700
  11 H :    0.014847
  12 H :   -0.009612
  13 H :    0.015105
  14 H :    0.017571
  15 H :    0.028629
  16 H :    0.033001
  17 H :    0.028894
  18 H :    0.034219
Sum of atomic charges:   -0.0000000

LOEWDIN ATOMIC CHARGES
----------------------
   0 C :   -0.070419
   1 C :   -0.027673
   2 C :   -0.040007
   3 C :   -0.028452
   4 C :   -0.044359
   5 C :   -0.046775
   6 C :   -0.049571
   7 H :    0.023647
   8 H :    0.020493
   9 H :    0.023802
  10 H :    0.026805
  11 H :    0.033616
  12 H :    0.022925
  13 H :    0.027994
  14 H :    0.025360
  15 H :    0.025090
  16 H :    0.026859
  17 H :    0.023967
  18 H :    0.026697

  Mayer bond orders larger than 0.1
B(  0-C ,  1-C ) :   2.0165 B(  0-C ,  7-H ) :   0.9436 B(  0-C ,  8-H ) :   0.9475
B(  1-C ,  2-C ) :   1.0594 B(  1-C ,  9-H ) :   0.9515 B(  2-C ,  3-C ) :   1.0749
B(  2-C , 10-H ) :   0.9296 B(  2-C , 11-H ) :   0.9128 B(  3-C ,  4-C ) :   1.0850
B(  3-C , 12-H ) :   0.9166 B(  3-C , 13-H ) :   0.9299 B(  4-C ,  5-C ) :   0.9908
B(  4-C ,  6-C ) :   0.9973 B(  4-C , 14-H ) :   0.9396 B(  5-C ,  6-C ) :   1.0501
B(  5-C , 15-H ) :   0.9454 B(  5-C , 16-H ) :   0.9441 B(  6-C , 17-H ) :   0.9478
B(  6-C , 18-H ) :   0.9483

FINAL SINGLE POINT ENERGY      -273.330872609534

DIPOLE MOMENT
-------------
                                X             Y             Z
Electronic contribution:     -0.47544      -0.04303       0.27740
Nuclear contribution   :      0.58493       0.09240      -0.36904
                        -----------------------------------------
Total Dipole Moment    :      0.10949       0.04937      -0.09164
                        -----------------------------------------
Magnitude (a.u.)       :      0.15107
Magnitude (Debye)      :      0.38399

                             ****ORCA TERMINATED NORMALLY****
TOTAL RUN TIME: 0 days 0 hours 0 minutes 8 seconds 404 msec
