                         Program Version 3.0.3 - RELEASE   -
|  1> ! RI PBE def2-SVP def2-SVP/J NBO PAL2
|  2> % maxcore 2000
|  3> % output
|  4>     # printlevel mini
|  5>     print[ P_Basis ] 0
|  6>     print[ P_SCFInfo ] 1
|  7>     print[ P_SCFIterInfo ] 1
|  8>     print[ P_OrbEn ] 0
|  9>     print[ P_Cartesian ] 0
| 10> end
| 11> *xyz 0 1
| 12>  C        2.4499010000    -0.9156470000    -0.7292820000
| 13>  C        2.0045520000     0.2202500000    -0.1859580000
| 14>  C        0.6087080000     0.4214140000     0.0363310000
| 15>  C       -0.5578850000     0.6265190000     0.2469860000
| 16>  C        2.8805660000     1.3503180000     0.2278040000
| 17>  C        4.2685820000     1.5176010000    -0.2977740000
| 18>  C        3.1890030000     2.4546640000    -0.7452450000
| 19>  H        1.7644400000    -1.6974300000    -1.0303830000
| 20>  H        3.5088070000    -1.0860780000    -0.8778720000
| 21>  H       -1.5928490000     0.7968940000     0.4268760000
| 22>  H        2.7092930000     1.6771120000     1.2487100000
| 23>  H        4.6350160000     0.8010720000    -1.0215070000
| 24>  H        5.0227060000     1.8865470000     0.3858510000
| 25>  H        2.8163200000     2.3373950000    -1.7552800000
| 26>  H        3.1923200000     3.4722590000    -0.3756670000
| 27> *
| 28>
| 29>                          ****END OF INPUT****
 Total Charge           Charge          ....    0
 Multiplicity           Mult            ....    1
 Number of Electrons    NEL             ....   50
 Basis Dimension        Dim             ....  138

MULLIKEN ATOMIC CHARGES
-----------------------
   0 C :    0.003903
   1 C :   -0.086906
   2 C :    0.450924
   3 C :   -0.473195
   4 C :   -0.078984
   5 C :   -0.035124
   6 C :   -0.010012
   7 H :    0.023371
   8 H :    0.016797
   9 H :    0.003618
  10 H :    0.036302
  11 H :    0.036506
  12 H :    0.036405
  13 H :    0.038691
  14 H :    0.037703
Sum of atomic charges:   -0.0000000

LOEWDIN ATOMIC CHARGES
----------------------
   0 C :   -0.030799
   1 C :   -0.043044
   2 C :   -0.004665
   3 C :   -0.068650
   4 C :   -0.029314
   5 C :   -0.040517
   6 C :   -0.028862
   7 H :    0.030259
   8 H :    0.023710
   9 H :    0.035740
  10 H :    0.038266
  11 H :    0.027724
  12 H :    0.030633
  13 H :    0.030869
  14 H :    0.028649

  Mayer bond orders larger than 0.1
B(  0-C ,  1-C ) :   1.9135 B(  0-C ,  3-C ) :   0.1233 B(  0-C ,  7-H ) :   0.9339
B(  0-C ,  8-H ) :   0.9270 B(  1-C ,  2-C ) :   0.9761 B(  1-C ,  4-C ) :   1.0523
B(  2-C ,  3-C ) :   2.2570 B(  2-C ,  9-H ) :  -0.1064 B(  3-C ,  9-H ) :   1.0963
B(  4-C ,  5-C ) :   0.9952 B(  4-C ,  6-C ) :   0.9857 B(  4-C , 10-H ) :   0.9255
B(  5-C ,  6-C ) :   1.0551 B(  5-C , 11-H ) :   0.9417 B(  5-C , 12-H ) :   0.9367
B(  6-C , 13-H ) :   0.9406 B(  6-C , 14-H ) :   0.9490

FINAL SINGLE POINT ENERGY      -270.871422208710

DIPOLE MOMENT
-------------
                                X             Y             Z
Electronic contribution:     -4.16359      -1.31361       1.15307
Nuclear contribution   :      4.35922       1.45696      -1.15176
                        -----------------------------------------
Total Dipole Moment    :      0.19563       0.14335       0.00131
                        -----------------------------------------
Magnitude (a.u.)       :      0.24254
Magnitude (Debye)      :      0.61648

                             ****ORCA TERMINATED NORMALLY****
TOTAL RUN TIME: 0 days 0 hours 0 minutes 6 seconds 932 msec
