                         Program Version 3.0.3 - RELEASE   -
|  1> ! RI PBE def2-SVP def2-SVP/J NBO PAL2
|  2> % maxcore 2000
|  3> % output
|  4>     # printlevel mini
|  5>     print[ P_Basis ] 0
|  6>     print[ P_SCFInfo ] 1
|  7>     print[ P_SCFIterInfo ] 1
|  8>     print[ P_OrbEn ] 0
|  9>     print[ P_Cartesian ] 0
| 10> end
| 11> *xyz 0 1
| 12>  C        2.3172360000     1.2314300000    -0.6073190000
| 13>  C        3.0932190000     0.1659940000    -0.4065540000
| 14>  C        3.4688720000    -0.3403920000     0.8958930000
| 15>  C        4.2474970000    -1.4106720000     1.0790660000
| 16>  C        4.6917840000    -1.9619680000     2.3712350000
| 17>  C        5.9489860000    -1.4418540000     3.0268830000
| 18>  C        4.6116740000    -1.1893240000     3.6487810000
| 19>  H        2.0625810000     1.5683830000    -1.6045640000
| 20>  H        1.9125010000     1.7993270000     0.2244130000
| 21>  H        3.4814760000    -0.3776620000    -1.2657490000
| 22>  H        3.0774610000     0.1947880000     1.7583580000
| 23>  H        4.6080100000    -1.9393530000     0.1970030000
| 24>  H        4.5583510000    -3.0367050000     2.4614890000
| 25>  H        6.4422940000    -0.6061210000     2.5462360000
| 26>  H        6.6136200000    -2.1578740000     3.4943360000
| 27>  H        4.2276600000    -0.1778780000     3.6117640000
| 28>  H        4.3539760000    -1.7307180000     4.5503190000
| 29> *
| 30>
| 31>                          ****END OF INPUT****
 Total Charge           Charge          ....    0
 Multiplicity           Mult            ....    1
 Number of Electrons    NEL             ....   52
 Basis Dimension        Dim             ....  148

MULLIKEN ATOMIC CHARGES
-----------------------
   0 C :   -0.028796
   1 C :   -0.007532
   2 C :    0.012778
   3 C :   -0.000143
   4 C :   -0.105797
   5 C :   -0.024721
   6 C :   -0.022934
   7 H :    0.021755
   8 H :    0.015532
   9 H :   -0.012115
  10 H :   -0.020329
  11 H :   -0.008977
  12 H :    0.036151
  13 H :    0.037712
  14 H :    0.037971
  15 H :    0.037721
  16 H :    0.031722
Sum of atomic charges:   -0.0000000

LOEWDIN ATOMIC CHARGES
----------------------
   0 C :   -0.058137
   1 C :   -0.031612
   2 C :   -0.043258
   3 C :   -0.019772
   4 C :   -0.047909
   5 C :   -0.031767
   6 C :   -0.039400
   7 H :    0.024281
   8 H :    0.021655
   9 H :    0.027798
  10 H :    0.024977
  11 H :    0.026195
  12 H :    0.036028
  13 H :    0.028258
  14 H :    0.026833
  15 H :    0.026973
  16 H :    0.028857

  Mayer bond orders larger than 0.1
B(  0-C ,  1-C ) :   1.8848 B(  0-C ,  3-C ) :   0.1344 B(  0-C ,  7-H ) :   0.9417
B(  0-C ,  8-H ) :   0.9455 B(  1-C ,  2-C ) :   1.1334 B(  1-C ,  9-H ) :   0.9626
B(  2-C ,  3-C ) :   1.7773 B(  2-C , 10-H ) :   0.9508 B(  3-C ,  4-C ) :   1.0606
B(  3-C , 11-H ) :   0.9618 B(  4-C ,  5-C ) :   0.9668 B(  4-C ,  6-C ) :   1.0103
B(  4-C , 12-H ) :   0.9244 B(  5-C ,  6-C ) :   1.0458 B(  5-C , 13-H ) :   0.9505
B(  5-C , 14-H ) :   0.9479 B(  6-C , 15-H ) :   0.9406 B(  6-C , 16-H ) :   0.9401

FINAL SINGLE POINT ENERGY      -272.121218869466

DIPOLE MOMENT
-------------
                                X             Y             Z
Electronic contribution:     -0.50836      -0.67417      -1.22926
Nuclear contribution   :      0.66694       0.50518       1.40446
                        -----------------------------------------
Total Dipole Moment    :      0.15858      -0.16899       0.17519
                        -----------------------------------------
Magnitude (a.u.)       :      0.29051
Magnitude (Debye)      :      0.73843

                             ****ORCA TERMINATED NORMALLY****
TOTAL RUN TIME: 0 days 0 hours 0 minutes 7 seconds 524 msec
