                         Program Version 3.0.3 - RELEASE   -
|  1> ! RI PBE def2-SVP def2-SVP/J NBO PAL2
|  2> % maxcore 2000
|  3> % output
|  4>     # printlevel mini
|  5>     print[ P_Basis ] 0
|  6>     print[ P_SCFInfo ] 1
|  7>     print[ P_SCFIterInfo ] 1
|  8>     print[ P_OrbEn ] 0
|  9>     print[ P_Cartesian ] 0
| 10> end
| 11> *xyz 0 1
| 12>  C        1.7343370000    -0.9305660000    -0.1716350000
| 13>  C        2.9234340000    -0.3618110000    -0.3441540000
| 14>  C        3.4456130000     0.7758960000     0.4277200000
| 15>  C        2.6653700000     1.7863830000     0.8132280000
| 16>  C        4.9042100000     0.7158990000     0.7101190000
| 17>  C        5.8813990000     1.2883560000    -0.2842180000
| 18>  C        5.7117270000     1.9211510000     1.0625980000
| 19>  H        1.4148530000    -1.7637910000    -0.7864160000
| 20>  H        1.0489730000    -0.5890270000     0.5969370000
| 21>  H        3.6020900000    -0.7739700000    -1.0890810000
| 22>  H        1.6219420000     1.8287560000     0.5240490000
| 23>  H        3.0479710000     2.6008390000     1.4162860000
| 24>  H        5.2230480000    -0.2169330000     1.1674480000
| 25>  H        5.4657310000     1.8142950000    -1.1351600000
| 26>  H        6.7891290000     0.7344250000    -0.4891730000
| 27>  H        5.2109100000     2.8799000000     1.1022510000
| 28>  H        6.5049730000     1.8014880000     1.7897010000
| 29> *
| 30>
| 31>                          ****END OF INPUT****
 Total Charge           Charge          ....    0
 Multiplicity           Mult            ....    1
 Number of Electrons    NEL             ....   52
 Basis Dimension        Dim             ....  148

MULLIKEN ATOMIC CHARGES
-----------------------
   0 C :   -0.028896
   1 C :   -0.013841
   2 C :   -0.011861
   3 C :   -0.043880
   4 C :   -0.106065
   5 C :   -0.023855
   6 C :   -0.024175
   7 H :    0.026019
   8 H :    0.025103
   9 H :    0.003778
  10 H :    0.017798
  11 H :    0.013616
  12 H :    0.028831
  13 H :    0.037411
  14 H :    0.033775
  15 H :    0.030888
  16 H :    0.035355
Sum of atomic charges:   -0.0000000

LOEWDIN ATOMIC CHARGES
----------------------
   0 C :   -0.044710
   1 C :   -0.025832
   2 C :   -0.028645
   3 C :   -0.057381
   4 C :   -0.038437
   5 C :   -0.033099
   6 C :   -0.039744
   7 H :    0.025516
   8 H :    0.024163
   9 H :    0.029271
  10 H :    0.023095
  11 H :    0.020724
  12 H :    0.033678
  13 H :    0.028652
  14 H :    0.026251
  15 H :    0.026788
  16 H :    0.029709

  Mayer bond orders larger than 0.1
B(  0-C ,  1-C ) :   1.9591 B(  0-C ,  7-H ) :   0.9424 B(  0-C ,  8-H ) :   0.9486
B(  1-C ,  2-C ) :   1.0404 B(  1-C ,  9-H ) :   0.9487 B(  2-C ,  3-C ) :   1.9431
B(  2-C ,  4-C ) :   1.0339 B(  3-C , 10-H ) :   0.9307 B(  3-C , 11-H ) :   0.9253
B(  4-C ,  5-C ) :   0.9751 B(  4-C ,  6-C ) :   0.9994 B(  4-C , 12-H ) :   0.9293
B(  5-C ,  6-C ) :   1.0558 B(  5-C , 13-H ) :   0.9479 B(  5-C , 14-H ) :   0.9485
B(  6-C , 15-H ) :   0.9385 B(  6-C , 16-H ) :   0.9388

FINAL SINGLE POINT ENERGY      -272.113228602506

DIPOLE MOMENT
-------------
                                X             Y             Z
Electronic contribution:     -0.61767      -0.79636       0.02770
Nuclear contribution   :      0.81936       0.74903      -0.05489
                        -----------------------------------------
Total Dipole Moment    :      0.20169      -0.04733      -0.02720
                        -----------------------------------------
Magnitude (a.u.)       :      0.20894
Magnitude (Debye)      :      0.53109

                             ****ORCA TERMINATED NORMALLY****
TOTAL RUN TIME: 0 days 0 hours 0 minutes 7 seconds 720 msec
