                         Program Version 3.0.3 - RELEASE   -
|  1> ! RI PBE def2-SVP def2-SVP/J NBO PAL2
|  2> % maxcore 2000
|  3> % output
|  4>     # printlevel mini
|  5>     print[ P_Basis ] 0
|  6>     print[ P_SCFInfo ] 1
|  7>     print[ P_SCFIterInfo ] 1
|  8>     print[ P_OrbEn ] 0
|  9>     print[ P_Cartesian ] 0
| 10> end
| 11> *xyz 0 1
| 12>  C        1.0182600000     0.0254340000     0.1714790000
| 13>  C        2.3243480000     0.1569070000    -0.0650870000
| 14>  C        3.0249320000    -0.4603970000    -1.1287640000
| 15>  C        3.6579230000    -0.9690560000    -2.0229380000
| 16>  C        4.3949330000    -1.5766950000    -3.0849500000
| 17>  C        4.0200590000    -2.9587480000    -3.5678790000
| 18>  C        3.7442840000    -1.7799310000    -4.4337460000
| 19>  H        0.5543220000     0.5317180000     1.0086760000
| 20>  H        0.3861450000    -0.5865090000    -0.4608170000
| 21>  H        2.9227860000     0.7812520000     0.5948330000
| 22>  H        5.4535590000    -1.3401130000    -3.0999770000
| 23>  H        3.1835280000    -3.4354590000    -3.0745550000
| 24>  H        4.8326570000    -3.6214390000    -3.8373650000
| 25>  H        2.7189180000    -1.4495490000    -4.5331330000
| 26>  H        4.3646470000    -1.6211030000    -5.3066760000
| 27> *
| 28>
| 29>                          ****END OF INPUT****
 Total Charge           Charge          ....    0
 Multiplicity           Mult            ....    1
 Number of Electrons    NEL             ....   50
 Basis Dimension        Dim             ....  138

MULLIKEN ATOMIC CHARGES
-----------------------
   0 C :   -0.017976
   1 C :   -0.092086
   2 C :   -0.055038
   3 C :    0.055682
   4 C :   -0.188061
   5 C :   -0.015609
   6 C :   -0.000350
   7 H :    0.028330
   8 H :    0.027246
   9 H :    0.029770
  10 H :    0.050689
  11 H :    0.047019
  12 H :    0.045469
  13 H :    0.045630
  14 H :    0.039284
Sum of atomic charges:   -0.0000000

LOEWDIN ATOMIC CHARGES
----------------------
   0 C :   -0.038795
   1 C :   -0.047876
   2 C :   -0.058168
   3 C :   -0.030620
   4 C :   -0.052012
   5 C :   -0.024455
   6 C :   -0.020919
   7 H :    0.026307
   8 H :    0.027093
   9 H :    0.043674
  10 H :    0.044839
  11 H :    0.034167
  12 H :    0.031965
  13 H :    0.033759
  14 H :    0.031040

  Mayer bond orders larger than 0.1
B(  0-C ,  1-C ) :   1.9086 B(  0-C ,  3-C ) :   0.1240 B(  0-C ,  7-H ) :   0.9422
B(  0-C ,  8-H ) :   0.9533 B(  1-C ,  2-C ) :   1.0583 B(  1-C ,  9-H ) :   0.9477
B(  2-C ,  3-C ) :   2.3503 B(  3-C ,  4-C ) :   1.0525 B(  4-C ,  5-C ) :   0.9564
B(  4-C ,  6-C ) :   0.9593 B(  4-C , 10-H ) :   0.9227 B(  5-C ,  6-C ) :   1.0454
B(  5-C , 11-H ) :   0.9514 B(  5-C , 12-H ) :   0.9430 B(  6-C , 13-H ) :   0.9522
B(  6-C , 14-H ) :   0.9432

FINAL SINGLE POINT ENERGY      -270.881632821925

DIPOLE MOMENT
-------------
                                X             Y             Z
Electronic contribution:      0.95477       1.60999       1.88108
Nuclear contribution   :     -0.80250      -1.79634      -2.19007
                        -----------------------------------------
Total Dipole Moment    :      0.15227      -0.18635      -0.30900
                        -----------------------------------------
Magnitude (a.u.)       :      0.39165
Magnitude (Debye)      :      0.99550

                             ****ORCA TERMINATED NORMALLY****
TOTAL RUN TIME: 0 days 0 hours 0 minutes 7 seconds 43 msec
