                         Program Version 3.0.3 - RELEASE   -
|  1> ! RI PBE def2-SVP def2-SVP/J NBO PAL2
|  2> % maxcore 2000
|  3> % output
|  4>     # printlevel mini
|  5>     print[ P_Basis ] 0
|  6>     print[ P_SCFInfo ] 1
|  7>     print[ P_SCFIterInfo ] 1
|  8>     print[ P_OrbEn ] 0
|  9>     print[ P_Cartesian ] 0
| 10> end
| 11> *xyz 0 1
| 12>  C        0.8959840000    -0.1987050000    -0.0280790000
| 13>  C        2.0808830000    -0.0047860000    -0.0505360000
| 14>  C        3.5185380000     0.2010330000    -0.0866980000
| 15>  C        4.2897820000    -1.0289100000    -0.5734170000
| 16>  C        5.7742040000    -0.7965970000    -0.5945730000
| 17>  C        6.5766940000    -0.9761660000     0.6588510000
| 18>  C        6.7166220000    -1.9520180000    -0.4711780000
| 19>  H       -0.1548370000    -0.3646720000    -0.0063500000
| 20>  H        3.8694720000     0.4787920000     0.9131170000
| 21>  H        3.7414100000     1.0543390000    -0.7371230000
| 22>  H        3.9335210000    -1.3025930000    -1.5715930000
| 23>  H        4.0603130000    -1.8763180000     0.0805760000
| 24>  H        6.0977190000     0.0079160000    -1.2495500000
| 25>  H        6.0504750000    -1.3078050000     1.5468920000
| 26>  H        7.3963390000    -0.2958880000     0.8535600000
| 27>  H        6.2854940000    -2.9380030000    -0.3426970000
| 28>  H        7.6308870000    -1.9366270000    -1.0510910000
| 29> *
| 30>
| 31>                          ****END OF INPUT****
 Total Charge           Charge          ....    0
 Multiplicity           Mult            ....    1
 Number of Electrons    NEL             ....   52
 Basis Dimension        Dim             ....  148

MULLIKEN ATOMIC CHARGES
-----------------------
   0 C :   -0.511557
   1 C :    0.356151
   2 C :    0.069609
   3 C :    0.063349
   4 C :   -0.159514
   5 C :   -0.037036
   6 C :   -0.022831
   7 H :   -0.005113
   8 H :    0.031471
   9 H :    0.032806
  10 H :    0.022914
  11 H :    0.004920
  12 H :    0.021780
  13 H :    0.031967
  14 H :    0.035059
  15 H :    0.032567
  16 H :    0.033455
Sum of atomic charges:   -0.0000000

LOEWDIN ATOMIC CHARGES
----------------------
   0 C :   -0.095569
   1 C :   -0.020849
   2 C :   -0.045754
   3 C :   -0.020201
   4 C :   -0.047935
   5 C :   -0.048204
   6 C :   -0.044224
   7 H :    0.032563
   8 H :    0.047801
   9 H :    0.047770
  10 H :    0.031777
  11 H :    0.029410
  12 H :    0.026325
  13 H :    0.025137
  14 H :    0.027505
  15 H :    0.026665
  16 H :    0.027784

  Mayer bond orders larger than 0.1
B(  0-C ,  1-C ) :   2.3219 B(  0-C ,  7-H ) :   1.1046 B(  1-C ,  2-C ) :   1.0603
B(  1-C ,  7-H ) :  -0.1136 B(  2-C ,  3-C ) :   1.0795 B(  2-C ,  8-H ) :   0.8955
B(  2-C ,  9-H ) :   0.8943 B(  3-C ,  4-C ) :   1.0859 B(  3-C , 10-H ) :   0.9291
B(  3-C , 11-H ) :   0.9195 B(  4-C ,  5-C ) :   0.9959 B(  4-C ,  6-C ) :   0.9947
B(  4-C , 12-H ) :   0.9375 B(  5-C ,  6-C ) :   1.0464 B(  5-C , 13-H ) :   0.9485
B(  5-C , 14-H ) :   0.9481 B(  6-C , 15-H ) :   0.9483 B(  6-C , 16-H ) :   0.9434

FINAL SINGLE POINT ENERGY      -272.088592183082

DIPOLE MOMENT
-------------
                                X             Y             Z
Electronic contribution:     -4.89521       1.41546      -0.09856
Nuclear contribution   :      5.24766      -1.41273       0.06061
                        -----------------------------------------
Total Dipole Moment    :      0.35245       0.00273      -0.03795
                        -----------------------------------------
Magnitude (a.u.)       :      0.35450
Magnitude (Debye)      :      0.90107

                             ****ORCA TERMINATED NORMALLY****
TOTAL RUN TIME: 0 days 0 hours 0 minutes 7 seconds 714 msec
