                         Program Version 3.0.3 - RELEASE   -
|  1> ! RI PBE def2-SVP def2-SVP/J NBO PAL2
|  2> % maxcore 2000
|  3> % output
|  4>     # printlevel mini
|  5>     print[ P_Basis ] 0
|  6>     print[ P_SCFInfo ] 1
|  7>     print[ P_SCFIterInfo ] 1
|  8>     print[ P_OrbEn ] 0
|  9>     print[ P_Cartesian ] 0
| 10> end
| 11> *xyz 0 1
| 12>  C        1.0508040000     0.3459960000     0.4629800000
| 13>  C        2.2435000000     0.3501350000     0.6270500000
| 14>  C        3.6451460000     0.3967440000     0.8259560000
| 15>  C        4.4446920000    -0.6716120000     0.7464000000
| 16>  C        5.8975510000    -0.6797550000     0.9809600000
| 17>  C        6.6188810000     0.4492890000     1.6441410000
| 18>  C        6.4338670000    -0.8366410000     2.3852040000
| 19>  H       -0.0028790000     0.3333690000     0.3156950000
| 20>  H        4.0654070000     1.3738950000     1.0489960000
| 21>  H        3.9977200000    -1.6314090000     0.4978290000
| 22>  H        6.4601380000    -1.2246490000     0.2281890000
| 23>  H        6.0435580000     1.3038760000     1.9765540000
| 24>  H        7.6083950000     0.6947050000     1.2797720000
| 25>  H        5.7067970000    -0.8504840000     3.1875260000
| 26>  H        7.2905240000    -1.4824600000     2.5322480000
| 27> *
| 28>
| 29>                          ****END OF INPUT****
 Total Charge           Charge          ....    0
 Multiplicity           Mult            ....    1
 Number of Electrons    NEL             ....   50
 Basis Dimension        Dim             ....  138

MULLIKEN ATOMIC CHARGES
-----------------------
   0 C :   -0.422096
   1 C :    0.400749
   2 C :   -0.075550
   3 C :    0.027254
   4 C :   -0.103625
   5 C :   -0.020516
   6 C :   -0.030626
   7 H :    0.002680
   8 H :    0.021235
   9 H :    0.006558
  10 H :    0.036047
  11 H :    0.038627
  12 H :    0.035390
  13 H :    0.042954
  14 H :    0.040919
Sum of atomic charges:   -0.0000000

LOEWDIN ATOMIC CHARGES
----------------------
   0 C :   -0.074240
   1 C :   -0.018412
   2 C :   -0.063245
   3 C :    0.006703
   4 C :   -0.046346
   5 C :   -0.037990
   6 C :   -0.029174
   7 H :    0.034283
   8 H :    0.039692
   9 H :    0.034178
  10 H :    0.037585
  11 H :    0.027670
  12 H :    0.030633
  13 H :    0.030170
  14 H :    0.028493

  Mayer bond orders larger than 0.1
B(  0-C ,  1-C ) :   2.2671 B(  0-C ,  3-C ) :   0.1275 B(  0-C ,  7-H ) :   1.0894
B(  1-C ,  2-C ) :   1.0299 B(  2-C ,  3-C ) :   1.8016 B(  2-C ,  8-H ) :   0.9345
B(  3-C ,  4-C ) :   1.0776 B(  3-C ,  9-H ) :   0.9633 B(  4-C ,  5-C ) :   1.0036
B(  4-C ,  6-C ) :   0.9649 B(  4-C , 10-H ) :   0.9248 B(  5-C ,  6-C ) :   1.0466
B(  5-C , 11-H ) :   0.9397 B(  5-C , 12-H ) :   0.9408 B(  6-C , 13-H ) :   0.9493
B(  6-C , 14-H ) :   0.9488

FINAL SINGLE POINT ENERGY      -270.874776768626

DIPOLE MOMENT
-------------
                                X             Y             Z
Electronic contribution:     -5.10433       0.51007      -1.87971
Nuclear contribution   :      5.56593      -0.63781       1.96726
                        -----------------------------------------
Total Dipole Moment    :      0.46160      -0.12774       0.08755
                        -----------------------------------------
Magnitude (a.u.)       :      0.48688
Magnitude (Debye)      :      1.23755

                             ****ORCA TERMINATED NORMALLY****
TOTAL RUN TIME: 0 days 0 hours 0 minutes 6 seconds 588 msec
