                         Program Version 3.0.3 - RELEASE   -
|  1> ! RI PBE def2-SVP def2-SVP/J NBO PAL2
|  2> % maxcore 2000
|  3> % output
|  4>     # printlevel mini
|  5>     print[ P_Basis ] 0
|  6>     print[ P_SCFInfo ] 1
|  7>     print[ P_SCFIterInfo ] 1
|  8>     print[ P_OrbEn ] 0
|  9>     print[ P_Cartesian ] 0
| 10> end
| 11> *xyz 0 1
| 12>  C        0.9335960000     0.0966380000    -0.0112280000
| 13>  C        2.1399510000     0.0983760000    -0.0197270000
| 14>  C        3.5019480000     0.1003860000    -0.0299980000
| 15>  C        4.7118840000     0.1016770000    -0.0392770000
| 16>  C        6.1366560000     0.1033310000    -0.0540130000
| 17>  C        6.8782410000    -0.6505670000    -1.1345390000
| 18>  C        6.8761880000     0.8368580000    -1.1499190000
| 19>  H       -0.1303190000     0.0951610000    -0.0027940000
| 20>  H        6.6018920000     0.1142250000     0.9261840000
| 21>  H        6.2750360000    -1.1687190000    -1.8680940000
| 22>  H        7.7821270000    -1.1660640000    -0.8360720000
| 23>  H        6.2713760000     1.3379990000    -1.8938810000
| 24>  H        7.7786230000     1.3608880000    -0.8621430000
| 25> *
| 26>
| 27>                          ****END OF INPUT****
 Total Charge           Charge          ....    0
 Multiplicity           Mult            ....    1
 Number of Electrons    NEL             ....   48
 Basis Dimension        Dim             ....  128

MULLIKEN ATOMIC CHARGES
-----------------------
   0 C :   -0.433433
   1 C :    0.354901
   2 C :   -0.002802
   3 C :    0.035963
   4 C :   -0.204867
   5 C :   -0.007081
   6 C :   -0.008068
   7 H :    0.008858
   8 H :    0.057716
   9 H :    0.054602
  10 H :    0.044720
  11 H :    0.054497
  12 H :    0.044995
Sum of atomic charges:   -0.0000000

LOEWDIN ATOMIC CHARGES
----------------------
   0 C :   -0.039849
   1 C :   -0.031239
   2 C :   -0.071242
   3 C :    0.006813
   4 C :   -0.052689
   5 C :   -0.018947
   6 C :   -0.019047
   7 H :    0.037783
   8 H :    0.048712
   9 H :    0.036568
  10 H :    0.033282
  11 H :    0.036530
  12 H :    0.033324

  Mayer bond orders larger than 0.1
B(  0-C ,  1-C ) :   2.1363 B(  0-C ,  3-C ) :   0.2574 B(  0-C ,  7-H ) :   1.0979
B(  1-C ,  2-C ) :   0.9462 B(  1-C ,  7-H ) :  -0.1085 B(  2-C ,  3-C ) :   2.2306
B(  3-C ,  4-C ) :   1.0576 B(  4-C ,  5-C ) :   0.9563 B(  4-C ,  6-C ) :   0.9561
B(  4-C ,  8-H ) :   0.9211 B(  5-C ,  6-C ) :   1.0408 B(  5-C ,  9-H ) :   0.9532
B(  5-C , 10-H ) :   0.9439 B(  6-C , 11-H ) :   0.9532 B(  6-C , 12-H ) :   0.9439

FINAL SINGLE POINT ENERGY      -269.643919161987

DIPOLE MOMENT
-------------
                                X             Y             Z
Electronic contribution:     -6.24266       0.01263       2.00804
Nuclear contribution   :      6.87426      -0.01322      -2.14121
                        -----------------------------------------
Total Dipole Moment    :      0.63161      -0.00059      -0.13317
                        -----------------------------------------
Magnitude (a.u.)       :      0.64549
Magnitude (Debye)      :      1.64071

                             ****ORCA TERMINATED NORMALLY****
TOTAL RUN TIME: 0 days 0 hours 0 minutes 5 seconds 950 msec
