                         Program Version 3.0.3 - RELEASE   -
|  1> ! RI PBE def2-SVP def2-SVP/J NBO PAL2
|  2> % maxcore 2000
|  3> % output
|  4>     # printlevel mini
|  5>     print[ P_Basis ] 0
|  6>     print[ P_SCFInfo ] 1
|  7>     print[ P_SCFIterInfo ] 1
|  8>     print[ P_OrbEn ] 0
|  9>     print[ P_Cartesian ] 0
| 10> end
| 11> *xyz 0 1
| 12>  C        0.6909300000     0.2079100000     0.3970400000
| 13>  C        2.0513380000    -0.0992430000     0.9229810000
| 14>  C        3.1189560000     0.6780690000     0.7863650000
| 15>  C        4.4796280000     0.3717690000     1.3229130000
| 16>  C        4.9853210000     1.4302480000     2.2722910000
| 17>  C        6.4560150000     1.6229210000     2.4714530000
| 18>  C        5.6566960000     2.6575530000     1.7362360000
| 19>  H       -0.0482470000     0.2384600000     1.2041280000
| 20>  H        0.3543570000    -0.5619180000    -0.3050330000
| 21>  H        0.6707530000     1.1700570000    -0.1188010000
| 22>  H        2.1619700000    -1.0423240000     1.4581110000
| 23>  H        3.0150630000     1.6258430000     0.2579740000
| 24>  H        5.1933020000     0.2895400000     0.4920200000
| 25>  H        4.4673990000    -0.6039460000     1.8207440000
| 26>  H        4.3620850000     1.5779740000     3.1490380000
| 27>  H        7.1261520000     0.9979610000     1.8924080000
| 28>  H        6.8158770000     1.8636250000     3.4639880000
| 29>  H        5.7907680000     2.7269770000     0.6625840000
| 30>  H        5.4719280000     3.6061130000     2.2247600000
| 31> *
| 32>
| 33>                          ****END OF INPUT****
 Total Charge           Charge          ....    0
 Multiplicity           Mult            ....    1
 Number of Electrons    NEL             ....   54
 Basis Dimension        Dim             ....  158

MULLIKEN ATOMIC CHARGES
-----------------------
   0 C :    0.032202
   1 C :   -0.106562
   2 C :   -0.056901
   3 C :    0.155680
   4 C :   -0.160280
   5 C :   -0.019681
   6 C :   -0.039838
   7 H :    0.034685
   8 H :    0.032798
   9 H :    0.016334
  10 H :   -0.011069
  11 H :   -0.015348
  12 H :   -0.001184
  13 H :    0.002088
  14 H :    0.019401
  15 H :    0.026701
  16 H :    0.029509
  17 H :    0.031006
  18 H :    0.030459
Sum of atomic charges:   -0.0000000

LOEWDIN ATOMIC CHARGES
----------------------
   0 C :   -0.067782
   1 C :   -0.049627
   2 C :   -0.043610
   3 C :   -0.032538
   4 C :   -0.040855
   5 C :   -0.046740
   6 C :   -0.049549
   7 H :    0.036264
   8 H :    0.035525
   9 H :    0.029949
  10 H :    0.020013
  11 H :    0.020032
  12 H :    0.032205
  13 H :    0.029261
  14 H :    0.026509
  15 H :    0.024429
  16 H :    0.026056
  17 H :    0.024261
  18 H :    0.026198

  Mayer bond orders larger than 0.1
B(  0-C ,  1-C ) :   1.0863 B(  0-C ,  7-H ) :   0.9472 B(  0-C ,  8-H ) :   0.9480
B(  0-C ,  9-H ) :   0.9587 B(  1-C ,  2-C ) :   1.9297 B(  1-C , 10-H ) :   0.9503
B(  2-C ,  3-C ) :   1.0580 B(  2-C , 11-H ) :   0.9489 B(  3-C ,  4-C ) :   1.0667
B(  3-C , 12-H ) :   0.8915 B(  3-C , 13-H ) :   0.9211 B(  4-C ,  5-C ) :   0.9832
B(  4-C ,  6-C ) :   0.9895 B(  4-C , 14-H ) :   0.9475 B(  5-C ,  6-C ) :   1.0478
B(  5-C , 15-H ) :   0.9451 B(  5-C , 16-H ) :   0.9468 B(  6-C , 17-H ) :   0.9487
B(  6-C , 18-H ) :   0.9494

FINAL SINGLE POINT ENERGY      -273.336492988328

DIPOLE MOMENT
-------------
                                X             Y             Z
Electronic contribution:      1.29739      -0.10621       0.66422
Nuclear contribution   :     -1.35877       0.09231      -0.64418
                        -----------------------------------------
Total Dipole Moment    :     -0.06138      -0.01390       0.02004
                        -----------------------------------------
Magnitude (a.u.)       :      0.06605
Magnitude (Debye)      :      0.16789

                             ****ORCA TERMINATED NORMALLY****
TOTAL RUN TIME: 0 days 0 hours 0 minutes 8 seconds 318 msec
