                         Program Version 3.0.3 - RELEASE   -
|  1> ! RI PBE def2-SVP def2-SVP/J NBO PAL2
|  2> % maxcore 2000
|  3> % output
|  4>     # printlevel mini
|  5>     print[ P_Basis ] 0
|  6>     print[ P_SCFInfo ] 1
|  7>     print[ P_SCFIterInfo ] 1
|  8>     print[ P_OrbEn ] 0
|  9>     print[ P_Cartesian ] 0
| 10> end
| 11> *xyz 0 1
| 12>  C        0.6685610000     0.2425820000     0.6192510000
| 13>  C        2.1074560000     0.1768300000     0.2346890000
| 14>  C        3.0405890000     1.1284390000     0.3364260000
| 15>  C        2.7810690000     2.4934510000     0.8952280000
| 16>  C        4.4234640000     0.8230440000    -0.1079290000
| 17>  C        5.2460670000     1.7924860000    -0.9170970000
| 18>  C        5.6341000000     1.4868770000     0.4918210000
| 19>  H        0.0250670000     0.0206020000    -0.2387260000
| 20>  H        0.3716660000     1.2135950000     1.0152300000
| 21>  H        0.4359140000    -0.5084590000     1.3819560000
| 22>  H        2.4260090000    -0.7797010000    -0.1770060000
| 23>  H        1.7178180000     2.7018640000     0.9989900000
| 24>  H        3.2071670000     3.2744300000     0.2592010000
| 25>  H        3.2381460000     2.6050350000     1.8837090000
| 26>  H        4.5630480000    -0.2176250000    -0.3813110000
| 27>  H        4.8270990000     2.7685030000    -1.1272850000
| 28>  H        5.8456880000     1.3840990000    -1.7209890000
| 29>  H        5.4736920000     2.2587630000     1.2338790000
| 30>  H        6.5089810000     0.8737060000     0.6686650000
| 31> *
| 32>
| 33>                          ****END OF INPUT****
 Total Charge           Charge          ....    0
 Multiplicity           Mult            ....    1
 Number of Electrons    NEL             ....   54
 Basis Dimension        Dim             ....  158

MULLIKEN ATOMIC CHARGES
-----------------------
   0 C :    0.053710
   1 C :   -0.167033
   2 C :   -0.000316
   3 C :    0.042183
   4 C :   -0.104767
   5 C :   -0.035628
   6 C :   -0.033799
   7 H :    0.028999
   8 H :    0.006595
   9 H :    0.028784
  10 H :   -0.025081
  11 H :    0.012007
  12 H :    0.017410
  13 H :    0.032932
  14 H :    0.005804
  15 H :    0.035377
  16 H :    0.033907
  17 H :    0.034876
  18 H :    0.034039
Sum of atomic charges:   -0.0000000

LOEWDIN ATOMIC CHARGES
----------------------
   0 C :   -0.068385
   1 C :   -0.065487
   2 C :   -0.035673
   3 C :   -0.059201
   4 C :   -0.034162
   5 C :   -0.039768
   6 C :   -0.043583
   7 H :    0.035528
   8 H :    0.025243
   9 H :    0.035776
  10 H :    0.018807
  11 H :    0.029765
  12 H :    0.031237
  13 H :    0.037538
  14 H :    0.029256
  15 H :    0.023041
  16 H :    0.027568
  17 H :    0.025182
  18 H :    0.027319

  Mayer bond orders larger than 0.1
B(  0-C ,  1-C ) :   1.0883 B(  0-C ,  7-H ) :   0.9433 B(  0-C ,  8-H ) :   0.9508
B(  0-C ,  9-H ) :   0.9424 B(  1-C ,  2-C ) :   1.8702 B(  1-C , 10-H ) :   0.9414
B(  2-C ,  3-C ) :   1.1051 B(  2-C ,  4-C ) :   1.0755 B(  3-C , 11-H ) :   0.9384
B(  3-C , 12-H ) :   0.9368 B(  3-C , 13-H ) :   0.9309 B(  4-C ,  5-C ) :   0.9504
B(  4-C ,  6-C ) :   0.9616 B(  4-C , 14-H ) :   0.9385 B(  5-C ,  6-C ) :   1.0444
B(  5-C , 15-H ) :   0.9496 B(  5-C , 16-H ) :   0.9460 B(  6-C , 17-H ) :   0.9431
B(  6-C , 18-H ) :   0.9460

FINAL SINGLE POINT ENERGY      -273.339531907958

DIPOLE MOMENT
-------------
                                X             Y             Z
Electronic contribution:      1.91984      -1.26837      -0.89827
Nuclear contribution   :     -1.91378       1.34031       0.93096
                        -----------------------------------------
Total Dipole Moment    :      0.00606       0.07194       0.03269
                        -----------------------------------------
Magnitude (a.u.)       :      0.07925
Magnitude (Debye)      :      0.20144

                             ****ORCA TERMINATED NORMALLY****
TOTAL RUN TIME: 0 days 0 hours 0 minutes 7 seconds 999 msec
