                         Program Version 3.0.3 - RELEASE   -
|  1> ! RI PBE def2-SVP def2-SVP/J NBO PAL2
|  2> % maxcore 2000
|  3> % output
|  4>     # printlevel mini
|  5>     print[ P_Basis ] 0
|  6>     print[ P_SCFInfo ] 1
|  7>     print[ P_SCFIterInfo ] 1
|  8>     print[ P_OrbEn ] 0
|  9>     print[ P_Cartesian ] 0
| 10> end
| 11> *xyz 0 1
| 12>  C        3.7581460000     2.1890390000    -0.3727200000
| 13>  C        3.1896040000     0.8059460000    -0.3161480000
| 14>  C        2.5149160000     0.2811250000    -1.3344720000
| 15>  C        3.4116620000     0.0378210000     0.9570340000
| 16>  C        4.8660020000    -0.1857860000     1.2989030000
| 17>  C        5.2656990000    -1.4054990000     2.0693520000
| 18>  C        5.6266270000    -1.2801540000     0.6186430000
| 19>  H        3.4955850000     2.6918180000    -1.3041920000
| 20>  H        4.8494710000     2.1699500000    -0.2931130000
| 21>  H        3.3924030000     2.7957860000     0.4628130000
| 22>  H        2.3473470000     0.8366670000    -2.2511120000
| 23>  H        2.1037960000    -0.7215130000    -1.2838330000
| 24>  H        2.9107830000    -0.9323220000     0.8833600000
| 25>  H        2.9341630000     0.5759690000     1.7872820000
| 26>  H        5.4297430000     0.7141080000     1.5234730000
| 27>  H        4.4843920000    -2.1076740000     2.3366140000
| 28>  H        6.0563760000    -1.3172020000     2.8041690000
| 29>  H        5.0852940000    -1.8923620000    -0.0934310000
| 30>  H        6.6645910000    -1.1096160000     0.3612880000
| 31> *
| 32>
| 33>                          ****END OF INPUT****
 Total Charge           Charge          ....    0
 Multiplicity           Mult            ....    1
 Number of Electrons    NEL             ....   54
 Basis Dimension        Dim             ....  158

MULLIKEN ATOMIC CHARGES
-----------------------
   0 C :    0.054450
   1 C :   -0.186047
   2 C :   -0.033059
   3 C :    0.171731
   4 C :   -0.174070
   5 C :   -0.037228
   6 C :   -0.022418
   7 H :    0.013147
   8 H :    0.039985
   9 H :    0.023790
  10 H :    0.004275
  11 H :    0.003770
  12 H :   -0.023591
  13 H :    0.018721
  14 H :    0.019602
  15 H :    0.029466
  16 H :    0.034165
  17 H :    0.032848
  18 H :    0.030464
Sum of atomic charges:   -0.0000000

LOEWDIN ATOMIC CHARGES
----------------------
   0 C :   -0.058769
   1 C :   -0.027029
   2 C :   -0.081365
   3 C :   -0.024824
   4 C :   -0.042738
   5 C :   -0.047092
   6 C :   -0.045822
   7 H :    0.031007
   8 H :    0.036598
   9 H :    0.034479
  10 H :    0.018276
  11 H :    0.017495
  12 H :    0.027924
  13 H :    0.034312
  14 H :    0.022981
  15 H :    0.024704
  16 H :    0.026712
  17 H :    0.026628
  18 H :    0.026524

  Mayer bond orders larger than 0.1
B(  0-C ,  1-C ) :   1.0787 B(  0-C ,  7-H ) :   0.9474 B(  0-C ,  8-H ) :   0.9425
B(  0-C ,  9-H ) :   0.9427 B(  1-C ,  2-C ) :   1.9980 B(  1-C ,  3-C ) :   1.0565
B(  2-C , 10-H ) :   0.9302 B(  2-C , 11-H ) :   0.9323 B(  3-C ,  4-C ) :   1.0761
B(  3-C , 12-H ) :   0.8958 B(  3-C , 13-H ) :   0.9036 B(  4-C ,  5-C ) :   0.9959
B(  4-C ,  6-C ) :   0.9937 B(  4-C , 14-H ) :   0.9403 B(  5-C ,  6-C ) :   1.0508
B(  5-C , 15-H ) :   0.9450 B(  5-C , 16-H ) :   0.9455 B(  6-C , 17-H ) :   0.9479
B(  6-C , 18-H ) :   0.9475

FINAL SINGLE POINT ENERGY      -273.335210336330

DIPOLE MOMENT
-------------
                                X             Y             Z
Electronic contribution:     -0.42718      -0.65159       0.21496
Nuclear contribution   :      0.54902       0.77511      -0.06021
                        -----------------------------------------
Total Dipole Moment    :      0.12184       0.12352       0.15475
                        -----------------------------------------
Magnitude (a.u.)       :      0.23249
Magnitude (Debye)      :      0.59093

                             ****ORCA TERMINATED NORMALLY****
TOTAL RUN TIME: 0 days 0 hours 0 minutes 8 seconds 565 msec
