                         Program Version 3.0.3 - RELEASE   -
|  1> ! RI PBE def2-SVP def2-SVP/J NBO PAL2
|  2> % maxcore 2000
|  3> % output
|  4>     # printlevel mini
|  5>     print[ P_Basis ] 0
|  6>     print[ P_SCFInfo ] 1
|  7>     print[ P_SCFIterInfo ] 1
|  8>     print[ P_OrbEn ] 0
|  9>     print[ P_Cartesian ] 0
| 10> end
| 11> *xyz 0 1
| 12>  C        0.7985070000    -0.2778120000     0.4347910000
| 13>  C        2.2411830000    -0.1000350000    -0.0338200000
| 14>  C        3.0507590000    -1.3279270000     0.2480520000
| 15>  C        4.1057090000    -1.3854470000     1.0482660000
| 16>  C        2.2879130000     0.2452670000    -1.5067060000
| 17>  C        2.1239940000     1.6673640000    -1.9463530000
| 18>  C        3.4559150000     0.9874810000    -2.0700540000
| 19>  H        0.7536510000    -0.4741990000     1.5080320000
| 20>  H        0.3253670000    -1.1197810000    -0.0793010000
| 21>  H        0.2104310000     0.6175040000     0.2192360000
| 22>  H        2.6893160000     0.7352450000     0.5193230000
| 23>  H        2.7220070000    -2.2341780000    -0.2610270000
| 24>  H        4.4643610000    -0.5063160000     1.5755950000
| 25>  H        4.6498430000    -2.3092500000     1.2081570000
| 26>  H        1.8421200000    -0.5065520000    -2.1532800000
| 27>  H        2.0130530000     2.4212340000    -1.1749120000
| 28>  H        1.5636590000     1.8703740000    -2.8507080000
| 29>  H        4.2388140000     1.2794390000    -1.3794190000
| 30>  H        3.8095890000     0.7253870000    -3.0593840000
| 31> *
| 32>
| 33>                          ****END OF INPUT****
 Total Charge           Charge          ....    0
 Multiplicity           Mult            ....    1
 Number of Electrons    NEL             ....   54
 Basis Dimension        Dim             ....  158

MULLIKEN ATOMIC CHARGES
-----------------------
   0 C :    0.040148
   1 C :   -0.015876
   2 C :   -0.012979
   3 C :   -0.038513
   4 C :   -0.122867
   5 C :   -0.032718
   6 C :   -0.003935
   7 H :    0.024490
   8 H :    0.011459
   9 H :    0.018217
  10 H :   -0.024331
  11 H :   -0.006392
  12 H :    0.013435
  13 H :    0.022169
  14 H :    0.013449
  15 H :    0.029198
  16 H :    0.030830
  17 H :    0.028360
  18 H :    0.025854
Sum of atomic charges:   -0.0000000

LOEWDIN ATOMIC CHARGES
----------------------
   0 C :   -0.052394
   1 C :   -0.038332
   2 C :   -0.014208
   3 C :   -0.070452
   4 C :   -0.034912
   5 C :   -0.047578
   6 C :   -0.042458
   7 H :    0.027525
   8 H :    0.024575
   9 H :    0.027028
  10 H :    0.026432
  11 H :    0.023511
  12 H :    0.019932
  13 H :    0.023721
  14 H :    0.024377
  15 H :    0.024791
  16 H :    0.026291
  17 H :    0.026037
  18 H :    0.026114

  Mayer bond orders larger than 0.1
B(  0-C ,  1-C ) :   1.0624 B(  0-C ,  7-H ) :   0.9597 B(  0-C ,  8-H ) :   0.9580
B(  0-C ,  9-H ) :   0.9566 B(  1-C ,  2-C ) :   1.0157 B(  1-C ,  4-C ) :   1.0440
B(  1-C , 10-H ) :   0.8924 B(  2-C ,  3-C ) :   2.0167 B(  2-C , 11-H ) :   0.9493
B(  3-C , 12-H ) :   0.9460 B(  3-C , 13-H ) :   0.9412 B(  4-C ,  5-C ) :   0.9942
B(  4-C ,  6-C ) :   0.9948 B(  4-C , 14-H ) :   0.9377 B(  5-C ,  6-C ) :   1.0556
B(  5-C , 15-H ) :   0.9410 B(  5-C , 16-H ) :   0.9447 B(  6-C , 17-H ) :   0.9414
B(  6-C , 18-H ) :   0.9448

FINAL SINGLE POINT ENERGY      -273.331071371268

DIPOLE MOMENT
-------------
                                X             Y             Z
Electronic contribution:      1.26992      -0.64257      -0.59686
Nuclear contribution   :     -1.38168       0.67790       0.51742
                        -----------------------------------------
Total Dipole Moment    :     -0.11176       0.03532      -0.07943
                        -----------------------------------------
Magnitude (a.u.)       :      0.14159
Magnitude (Debye)      :      0.35990

                             ****ORCA TERMINATED NORMALLY****
TOTAL RUN TIME: 0 days 0 hours 0 minutes 8 seconds 647 msec
