                         Program Version 3.0.3 - RELEASE   -
|  1> ! RI PBE def2-SVP def2-SVP/J NBO PAL2
|  2> % maxcore 2000
|  3> % output
|  4>     # printlevel mini
|  5>     print[ P_Basis ] 0
|  6>     print[ P_SCFInfo ] 1
|  7>     print[ P_SCFIterInfo ] 1
|  8>     print[ P_OrbEn ] 0
|  9>     print[ P_Cartesian ] 0
| 10> end
| 11> *xyz 0 1
| 12>  C        0.8948280000     0.0353960000    -0.1790780000
| 13>  C        2.3742720000    -0.0580330000     0.0337290000
| 14>  C        2.7933500000    -0.1494200000     1.4674680000
| 15>  C        3.2154760000    -0.0564260000    -1.0029130000
| 16>  C        4.6825670000    -0.1396100000    -0.9852000000
| 17>  C        5.3886530000    -0.8748180000    -2.0958400000
| 18>  C        5.4721940000     0.6127020000    -2.0258190000
| 19>  H        0.3812510000    -0.8355810000     0.2436670000
| 20>  H        0.6408500000     0.0995110000    -1.2383170000
| 21>  H        0.4799740000     0.9151200000     0.3259670000
| 22>  H        2.3410530000    -1.0261710000     1.9441440000
| 23>  H        2.4389950000     0.7233250000     2.0271300000
| 24>  H        3.8724140000    -0.2160350000     1.5984710000
| 25>  H        2.7798640000     0.0150980000    -1.9997100000
| 26>  H        5.1514070000    -0.2116040000    -0.0115180000
| 27>  H        4.7697240000    -1.3143870000    -2.8688930000
| 28>  H        6.2669030000    -1.4546500000    -1.8404410000
| 29>  H        4.9107020000     1.1892910000    -2.7511740000
| 30>  H        6.4084420000     1.0639720000    -1.7215620000
| 31> *
| 32>
| 33>                          ****END OF INPUT****
 Total Charge           Charge          ....    0
 Multiplicity           Mult            ....    1
 Number of Electrons    NEL             ....   54
 Basis Dimension        Dim             ....  158

MULLIKEN ATOMIC CHARGES
-----------------------
   0 C :    0.049670
   1 C :   -0.208636
   2 C :    0.059440
   3 C :    0.056222
   4 C :   -0.099942
   5 C :   -0.035861
   6 C :   -0.031027
   7 H :    0.022381
   8 H :    0.011172
   9 H :    0.020805
  10 H :    0.021169
  11 H :    0.023760
  12 H :    0.009934
  13 H :   -0.042103
  14 H :    0.006174
  15 H :    0.034578
  16 H :    0.034653
  17 H :    0.035541
  18 H :    0.032071
Sum of atomic charges:   -0.0000000

LOEWDIN ATOMIC CHARGES
----------------------
   0 C :   -0.054972
   1 C :   -0.054569
   2 C :   -0.058555
   3 C :   -0.049221
   4 C :   -0.042075
   5 C :   -0.039433
   6 C :   -0.038862
   7 H :    0.031116
   8 H :    0.027556
   9 H :    0.030868
  10 H :    0.034036
  11 H :    0.034414
  12 H :    0.025888
  13 H :    0.020213
  14 H :    0.026556
  15 H :    0.025868
  16 H :    0.027774
  17 H :    0.026070
  18 H :    0.027328

  Mayer bond orders larger than 0.1
B(  0-C ,  1-C ) :   1.0787 B(  0-C ,  7-H ) :   0.9462 B(  0-C ,  8-H ) :   0.9544
B(  0-C ,  9-H ) :   0.9459 B(  1-C ,  2-C ) :   1.1120 B(  1-C ,  3-C ) :   1.8555
B(  2-C , 10-H ) :   0.9410 B(  2-C , 11-H ) :   0.9419 B(  2-C , 12-H ) :   0.9448
B(  3-C ,  4-C ) :   1.0882 B(  3-C , 13-H ) :   0.9263 B(  4-C ,  5-C ) :   0.9519
B(  4-C ,  6-C ) :   0.9523 B(  4-C , 14-H ) :   0.9432 B(  5-C ,  6-C ) :   1.0434
B(  5-C , 15-H ) :   0.9544 B(  5-C , 16-H ) :   0.9459 B(  6-C , 17-H ) :   0.9547
B(  6-C , 18-H ) :   0.9457

FINAL SINGLE POINT ENERGY      -273.342197681644

DIPOLE MOMENT
-------------
                                X             Y             Z
Electronic contribution:      1.76055      -0.02865      -1.46374
Nuclear contribution   :     -1.72999       0.02317       1.57078
                        -----------------------------------------
Total Dipole Moment    :      0.03055      -0.00548       0.10704
                        -----------------------------------------
Magnitude (a.u.)       :      0.11145
Magnitude (Debye)      :      0.28328

                             ****ORCA TERMINATED NORMALLY****
TOTAL RUN TIME: 0 days 0 hours 0 minutes 8 seconds 283 msec
