                         Program Version 3.0.3 - RELEASE   -
|  1> ! RI PBE def2-SVP def2-SVP/J NBO PAL2
|  2> % maxcore 2000
|  3> % output
|  4>     # printlevel mini
|  5>     print[ P_Basis ] 0
|  6>     print[ P_SCFInfo ] 1
|  7>     print[ P_SCFIterInfo ] 1
|  8>     print[ P_OrbEn ] 0
|  9>     print[ P_Cartesian ] 0
| 10> end
| 11> *xyz 0 1
| 12>  C        1.0813290000     0.1141740000    -0.0289530000
| 13>  C        2.6085980000     0.0275050000     0.0292630000
| 14>  C        3.0850170000    -1.1501440000    -0.6859050000
| 15>  C        3.4605390000    -2.1247610000    -1.2791140000
| 16>  C        3.2444450000     1.3146050000    -0.4693240000
| 17>  C        4.6503660000     1.3711890000    -0.9720250000
| 18>  C        3.5045970000     1.5520690000    -1.9233710000
| 19>  H        0.6213950000    -0.7902010000     0.3722120000
| 20>  H        0.7466920000     0.2424000000    -1.0600190000
| 21>  H        0.7323090000     0.9691330000     0.5548150000
| 22>  H        2.9030880000    -0.0983020000     1.0798460000
| 23>  H        3.7930420000    -2.9920780000    -1.7985870000
| 24>  H        2.9096220000     2.1783530000     0.0972130000
| 25>  H        5.1965080000     0.4374910000    -1.0331500000
| 26>  H        5.2501360000     2.2347040000    -0.7127880000
| 27>  H        3.3017440000     0.7360660000    -2.6069430000
| 28>  H        3.3128630000     2.5397080000    -2.3236720000
| 29> *
| 30>
| 31>                          ****END OF INPUT****
 Total Charge           Charge          ....    0
 Multiplicity           Mult            ....    1
 Number of Electrons    NEL             ....   52
 Basis Dimension        Dim             ....  148

MULLIKEN ATOMIC CHARGES
-----------------------
   0 C :    0.038515
   1 C :    0.082613
   2 C :    0.337420
   3 C :   -0.508632
   4 C :   -0.171825
   5 C :   -0.019738
   6 C :   -0.025104
   7 H :    0.029430
   8 H :    0.024488
   9 H :    0.016430
  10 H :    0.032823
  11 H :   -0.004801
  12 H :    0.020073
  13 H :    0.042220
  14 H :    0.031779
  15 H :    0.045873
  16 H :    0.028437
Sum of atomic charges:   -0.0000000

LOEWDIN ATOMIC CHARGES
----------------------
   0 C :   -0.041423
   1 C :   -0.043082
   2 C :   -0.008164
   3 C :   -0.092505
   4 C :   -0.036761
   5 C :   -0.045734
   6 C :   -0.044865
   7 H :    0.030523
   8 H :    0.030179
   9 H :    0.026704
  10 H :    0.050448
  11 H :    0.034360
  12 H :    0.027505
  13 H :    0.030495
  14 H :    0.026660
  15 H :    0.029961
  16 H :    0.025699

  Mayer bond orders larger than 0.1
B(  0-C ,  1-C ) :   1.0766 B(  0-C ,  7-H ) :   0.9605 B(  0-C ,  8-H ) :   0.9629
B(  0-C ,  9-H ) :   0.9556 B(  1-C ,  2-C ) :   0.9935 B(  1-C ,  4-C ) :   0.9959
B(  1-C , 10-H ) :   0.8692 B(  2-C ,  3-C ) :   2.3071 B(  2-C , 11-H ) :  -0.1181
B(  3-C , 11-H ) :   1.1080 B(  4-C ,  5-C ) :   1.0028 B(  4-C ,  6-C ) :   0.9969
B(  4-C , 12-H ) :   0.9377 B(  5-C ,  6-C ) :   1.0470 B(  5-C , 13-H ) :   0.9337
B(  5-C , 14-H ) :   0.9456 B(  6-C , 15-H ) :   0.9409 B(  6-C , 16-H ) :   0.9486

FINAL SINGLE POINT ENERGY      -272.087804361970

DIPOLE MOMENT
-------------
                                X             Y             Z
Electronic contribution:      1.67639      -3.07717      -0.01785
Nuclear contribution   :     -1.79242       3.24978       0.15280
                        -----------------------------------------
Total Dipole Moment    :     -0.11602       0.17261       0.13495
                        -----------------------------------------
Magnitude (a.u.)       :      0.24792
Magnitude (Debye)      :      0.63017

                             ****ORCA TERMINATED NORMALLY****
TOTAL RUN TIME: 0 days 0 hours 0 minutes 7 seconds 318 msec
