                         Program Version 3.0.3 - RELEASE   -
|  1> ! RI PBE def2-SVP def2-SVP/J NBO PAL2
|  2> % maxcore 2000
|  3> % output
|  4>     # printlevel mini
|  5>     print[ P_Basis ] 0
|  6>     print[ P_SCFInfo ] 1
|  7>     print[ P_SCFIterInfo ] 1
|  8>     print[ P_OrbEn ] 0
|  9>     print[ P_Cartesian ] 0
| 10> end
| 11> *xyz 0 1
| 12>  C        0.8583720000    -0.0171800000     0.0225750000
| 13>  C        2.3082560000    -0.0321420000    -0.0415360000
| 14>  C        3.5096690000    -0.0463290000    -0.0924270000
| 15>  C        4.9642580000    -0.0603690000    -0.1719170000
| 16>  C        5.4860190000    -0.2589910000    -1.5761970000
| 17>  C        6.8508310000    -0.8376870000    -1.7783590000
| 18>  C        5.6315590000    -1.6406520000    -2.1261370000
| 19>  H        0.4204310000    -0.1440920000    -0.9708310000
| 20>  H        0.4914060000     0.9277880000     0.4313890000
| 21>  H        0.4841920000    -0.8242140000     0.6577750000
| 22>  H        5.3545340000    -0.8592400000     0.4700210000
| 23>  H        5.3575040000     0.8773880000     0.2380690000
| 24>  H        5.1747950000     0.5067560000    -2.2787620000
| 25>  H        7.4106240000    -1.1263600000    -0.8960050000
| 26>  H        7.4606460000    -0.4515810000    -2.5855990000
| 27>  H        5.3674330000    -2.4669130000    -1.4764310000
| 28>  H        5.4065700000    -1.8058730000    -3.1722180000
| 29> *
| 30>
| 31>                          ****END OF INPUT****
 Total Charge           Charge          ....    0
 Multiplicity           Mult            ....    1
 Number of Electrons    NEL             ....   52
 Basis Dimension        Dim             ....  148

MULLIKEN ATOMIC CHARGES
-----------------------
   0 C :    0.053752
   1 C :   -0.242458
   2 C :   -0.080304
   3 C :    0.156898
   4 C :   -0.165355
   5 C :   -0.033534
   6 C :   -0.015502
   7 H :    0.043789
   8 H :    0.043114
   9 H :    0.045329
  10 H :    0.011606
  11 H :    0.029168
  12 H :    0.028606
  13 H :    0.027461
  14 H :    0.035247
  15 H :    0.029970
  16 H :    0.032212
Sum of atomic charges:   -0.0000000

LOEWDIN ATOMIC CHARGES
----------------------
   0 C :   -0.068561
   1 C :   -0.073423
   2 C :   -0.065767
   3 C :   -0.037689
   4 C :   -0.035730
   5 C :   -0.049051
   6 C :   -0.042209
   7 H :    0.049016
   8 H :    0.048231
   9 H :    0.048831
  10 H :    0.044231
  11 H :    0.046543
  12 H :    0.029326
  13 H :    0.024640
  14 H :    0.027485
  15 H :    0.026496
  16 H :    0.027631

  Mayer bond orders larger than 0.1
B(  0-C ,  1-C ) :   1.1356 B(  0-C ,  7-H ) :   0.9320 B(  0-C ,  8-H ) :   0.9341
B(  0-C ,  9-H ) :   0.9341 B(  1-C ,  2-C ) :   2.5928 B(  2-C ,  3-C ) :   1.0590
B(  3-C ,  4-C ) :   1.0686 B(  3-C , 10-H ) :   0.8836 B(  3-C , 11-H ) :   0.8907
B(  4-C ,  5-C ) :   0.9865 B(  4-C ,  6-C ) :   0.9984 B(  4-C , 12-H ) :   0.9465
B(  5-C ,  6-C ) :   1.0507 B(  5-C , 13-H ) :   0.9434 B(  5-C , 14-H ) :   0.9447
B(  6-C , 15-H ) :   0.9460 B(  6-C , 16-H ) :   0.9487

FINAL SINGLE POINT ENERGY      -272.099042634799

DIPOLE MOMENT
-------------
                                X             Y             Z
Electronic contribution:     -0.60037       1.04154       1.09635
Nuclear contribution   :      0.52745      -1.03292      -1.12953
                        -----------------------------------------
Total Dipole Moment    :     -0.07292       0.00862      -0.03318
                        -----------------------------------------
Magnitude (a.u.)       :      0.08057
Magnitude (Debye)      :      0.20480

                             ****ORCA TERMINATED NORMALLY****
TOTAL RUN TIME: 0 days 0 hours 0 minutes 7 seconds 376 msec
