                         Program Version 3.0.3 - RELEASE   -
|  1> ! RI PBE def2-SVP def2-SVP/J NBO PAL2
|  2> % maxcore 2000
|  3> % output
|  4>     # printlevel mini
|  5>     print[ P_Basis ] 0
|  6>     print[ P_SCFInfo ] 1
|  7>     print[ P_SCFIterInfo ] 1
|  8>     print[ P_OrbEn ] 0
|  9>     print[ P_Cartesian ] 0
| 10> end
| 11> *xyz 0 1
| 12>  C        1.9032710000     1.2397370000     0.3516620000
| 13>  C        2.5742350000    -0.0800150000    -0.0142680000
| 14>  C        3.0576930000    -0.8340680000     1.1803990000
| 15>  C        4.3209550000    -1.1775990000     1.4064340000
| 16>  C        4.8345230000    -1.8977540000     2.5907020000
| 17>  C        5.3719160000    -1.1312790000     3.7710600000
| 18>  C        4.1039390000    -1.9198810000     3.8948850000
| 19>  H        1.5276340000     1.7519170000    -0.5373410000
| 20>  H        2.6047090000     1.9074830000     0.8575270000
| 21>  H        1.0569520000     1.0774340000     1.0246880000
| 22>  H        3.4115800000     0.1017770000    -0.6950650000
| 23>  H        1.8547930000    -0.7003740000    -0.5634270000
| 24>  H        2.2988730000    -1.1067950000     1.9129600000
| 25>  H        5.0707920000    -0.9130230000     0.6603030000
| 26>  H        5.3947330000    -2.7984750000     2.3526580000
| 27>  H        5.2852110000    -0.0521150000     3.7364390000
| 28>  H        6.2638110000    -1.5016700000     4.2614280000
| 29>  H        3.1775810000    -1.3648180000     3.9710150000
| 30>  H        4.1234970000    -2.8354940000     4.4726410000
| 31> *
| 32>
| 33>                          ****END OF INPUT****
 Total Charge           Charge          ....    0
 Multiplicity           Mult            ....    1
 Number of Electrons    NEL             ....   54
 Basis Dimension        Dim             ....  158

MULLIKEN ATOMIC CHARGES
-----------------------
   0 C :   -0.041636
   1 C :    0.029246
   2 C :   -0.071545
   3 C :   -0.009293
   4 C :   -0.090211
   5 C :   -0.029306
   6 C :   -0.033831
   7 H :    0.021020
   8 H :    0.027409
   9 H :    0.023502
  10 H :    0.009251
  11 H :    0.022691
  12 H :   -0.009284
  13 H :   -0.011538
  14 H :    0.028351
  15 H :    0.039777
  16 H :    0.029590
  17 H :    0.033577
  18 H :    0.032231
Sum of atomic charges:   -0.0000000

LOEWDIN ATOMIC CHARGES
----------------------
   0 C :   -0.065381
   1 C :   -0.046925
   2 C :   -0.040522
   3 C :   -0.040755
   4 C :   -0.045527
   5 C :   -0.038087
   6 C :   -0.043204
   7 H :    0.026323
   8 H :    0.026364
   9 H :    0.025087
  10 H :    0.027333
  11 H :    0.033258
  12 H :    0.020110
  13 H :    0.023314
  14 H :    0.033064
  15 H :    0.027609
  16 H :    0.024616
  17 H :    0.025431
  18 H :    0.027895

  Mayer bond orders larger than 0.1
B(  0-C ,  1-C ) :   1.1022 B(  0-C ,  7-H ) :   0.9587 B(  0-C ,  8-H ) :   0.9683
B(  0-C ,  9-H ) :   0.9685 B(  1-C ,  2-C ) :   1.0627 B(  1-C , 10-H ) :   0.9336
B(  1-C , 11-H ) :   0.9168 B(  2-C ,  3-C ) :   1.9093 B(  2-C , 12-H ) :   0.9417
B(  3-C ,  4-C ) :   1.0617 B(  3-C , 13-H ) :   0.9525 B(  4-C ,  5-C ) :   0.9749
B(  4-C ,  6-C ) :   1.0118 B(  4-C , 14-H ) :   0.9258 B(  5-C ,  6-C ) :   1.0494
B(  5-C , 15-H ) :   0.9504 B(  5-C , 16-H ) :   0.9469 B(  6-C , 17-H ) :   0.9416
B(  6-C , 18-H ) :   0.9402

FINAL SINGLE POINT ENERGY      -273.335929383868

DIPOLE MOMENT
-------------
                                X             Y             Z
Electronic contribution:      2.28311      -2.88424       0.92821
Nuclear contribution   :     -2.28563       2.87897      -0.93661
                        -----------------------------------------
Total Dipole Moment    :     -0.00252      -0.00527      -0.00840
                        -----------------------------------------
Magnitude (a.u.)       :      0.01023
Magnitude (Debye)      :      0.02601

                             ****ORCA TERMINATED NORMALLY****
TOTAL RUN TIME: 0 days 0 hours 0 minutes 8 seconds 398 msec
