                         Program Version 3.0.3 - RELEASE   -
|  1> ! RI PBE def2-SVP def2-SVP/J NBO PAL2
|  2> % maxcore 2000
|  3> % output
|  4>     # printlevel mini
|  5>     print[ P_Basis ] 0
|  6>     print[ P_SCFInfo ] 1
|  7>     print[ P_SCFIterInfo ] 1
|  8>     print[ P_OrbEn ] 0
|  9>     print[ P_Cartesian ] 0
| 10> end
| 11> *xyz 0 1
| 12>  C        2.3041690000    -0.2665990000    -1.0999630000
| 13>  C        2.3454640000     0.1772230000     0.3587280000
| 14>  C        3.1091920000    -0.7547810000     1.2594580000
| 15>  C        2.5084780000    -1.3975310000     2.2576360000
| 16>  C        4.5550430000    -0.8935170000     0.9488800000
| 17>  C        5.4400570000    -1.9138100000     1.5897420000
| 18>  C        5.0612480000    -2.0722900000     0.1526890000
| 19>  H        1.7413560000     0.4477860000    -1.7053390000
| 20>  H        1.8233440000    -1.2431740000    -1.1959040000
| 21>  H        3.3073970000    -0.3466660000    -1.5230540000
| 22>  H        1.3271530000     0.2878410000     0.7405730000
| 23>  H        2.8080110000     1.1711590000     0.4129350000
| 24>  H        1.4443330000    -1.2842910000     2.4332930000
| 25>  H        3.0485670000    -2.0492420000     2.9339830000
| 26>  H        5.0358400000     0.0497530000     0.7012990000
| 27>  H        5.0020580000    -2.5995110000     2.3032170000
| 28>  H        6.4553480000    -1.6183340000     1.8228750000
| 29>  H        4.3387890000    -2.8419190000    -0.0893470000
| 30>  H        5.8117740000    -1.8947960000    -0.6081810000
| 31> *
| 32>
| 33>                          ****END OF INPUT****
 Total Charge           Charge          ....    0
 Multiplicity           Mult            ....    1
 Number of Electrons    NEL             ....   54
 Basis Dimension        Dim             ....  158

MULLIKEN ATOMIC CHARGES
-----------------------
   0 C :   -0.031197
   1 C :    0.043766
   2 C :   -0.062624
   3 C :   -0.056912
   4 C :   -0.111263
   5 C :   -0.016650
   6 C :   -0.018552
   7 H :    0.024506
   8 H :    0.021632
   9 H :    0.027367
  10 H :   -0.002043
  11 H :    0.016756
  12 H :    0.006171
  13 H :    0.003929
  14 H :    0.017870
  15 H :    0.036899
  16 H :    0.030087
  17 H :    0.033191
  18 H :    0.037068
Sum of atomic charges:    0.0000000

LOEWDIN ATOMIC CHARGES
----------------------
   0 C :   -0.062910
   1 C :   -0.034728
   2 C :   -0.020628
   3 C :   -0.081885
   4 C :   -0.040194
   5 C :   -0.038798
   6 C :   -0.033787
   7 H :    0.027362
   8 H :    0.026681
   9 H :    0.025465
  10 H :    0.026455
  11 H :    0.031259
  12 H :    0.019431
  13 H :    0.016937
  14 H :    0.030148
  15 H :    0.027407
  16 H :    0.028797
  17 H :    0.027204
  18 H :    0.025785

  Mayer bond orders larger than 0.1
B(  0-C ,  1-C ) :   1.1067 B(  0-C ,  7-H ) :   0.9601 B(  0-C ,  8-H ) :   0.9647
B(  0-C ,  9-H ) :   0.9646 B(  1-C ,  2-C ) :   1.0712 B(  1-C , 10-H ) :   0.9185
B(  1-C , 11-H ) :   0.9163 B(  2-C ,  3-C ) :   1.9752 B(  2-C ,  4-C ) :   1.0406
B(  3-C , 12-H ) :   0.9284 B(  3-C , 13-H ) :   0.9286 B(  4-C ,  5-C ) :   0.9970
B(  4-C ,  6-C ) :   0.9689 B(  4-C , 14-H ) :   0.9283 B(  5-C ,  6-C ) :   1.0614
B(  5-C , 15-H ) :   0.9385 B(  5-C , 16-H ) :   0.9373 B(  6-C , 17-H ) :   0.9456
B(  6-C , 18-H ) :   0.9470

FINAL SINGLE POINT ENERGY      -273.334903220433

DIPOLE MOMENT
-------------
                                X             Y             Z
Electronic contribution:      1.16980      -0.14315       2.38994
Nuclear contribution   :     -1.03999       0.23503      -2.58023
                        -----------------------------------------
Total Dipole Moment    :      0.12981       0.09188      -0.19029
                        -----------------------------------------
Magnitude (a.u.)       :      0.24800
Magnitude (Debye)      :      0.63036

                             ****ORCA TERMINATED NORMALLY****
TOTAL RUN TIME: 0 days 0 hours 0 minutes 8 seconds 225 msec
