                         Program Version 3.0.3 - RELEASE   -
|  1> ! RI PBE def2-SVP def2-SVP/J NBO PAL2
|  2> % maxcore 2000
|  3> % output
|  4>     # printlevel mini
|  5>     print[ P_Basis ] 0
|  6>     print[ P_SCFInfo ] 1
|  7>     print[ P_SCFIterInfo ] 1
|  8>     print[ P_OrbEn ] 0
|  9>     print[ P_Cartesian ] 0
| 10> end
| 11> *xyz 0 1
| 12>  C        1.1690350000    -0.2427960000    -0.1971280000
| 13>  C        2.4958370000     0.4127990000     0.1779430000
| 14>  C        3.1029540000    -0.1565180000     1.3713050000
| 15>  C        3.5905020000    -0.6382230000     2.3618850000
| 16>  C        4.1749440000    -1.2065070000     3.5403160000
| 17>  C        4.0221820000    -2.6804860000     3.8243980000
| 18>  C        5.3532140000    -2.1418040000     3.4239470000
| 19>  H        0.7538700000     0.2189670000    -1.0957630000
| 20>  H        0.4426840000    -0.1379550000     0.6106590000
| 21>  H        1.3038750000    -1.3085510000    -0.3901100000
| 22>  H        2.3453270000     1.4863790000     0.3362900000
| 23>  H        3.1993190000     0.3283810000    -0.6578300000
| 24>  H        4.1728670000    -0.5563620000     4.4091200000
| 25>  H        3.4698330000    -3.2618780000     3.0980610000
| 26>  H        3.8715990000    -2.9732590000     4.8558690000
| 27>  H        5.7080770000    -2.3557020000     2.4244260000
| 28>  H        6.1267820000    -2.0609850000     4.1772110000
| 29> *
| 30>
| 31>                          ****END OF INPUT****
 Total Charge           Charge          ....    0
 Multiplicity           Mult            ....    1
 Number of Electrons    NEL             ....   52
 Basis Dimension        Dim             ....  148

MULLIKEN ATOMIC CHARGES
-----------------------
   0 C :   -0.036063
   1 C :    0.019351
   2 C :   -0.137943
   3 C :    0.004026
   4 C :   -0.198057
   5 C :   -0.009933
   6 C :   -0.011521
   7 H :    0.018613
   8 H :    0.037937
   9 H :    0.032783
  10 H :    0.038657
  11 H :    0.036551
  12 H :    0.046343
  13 H :    0.044740
  14 H :    0.034136
  15 H :    0.039959
  16 H :    0.040420
Sum of atomic charges:   -0.0000000

LOEWDIN ATOMIC CHARGES
----------------------
   0 C :   -0.057547
   1 C :   -0.054084
   2 C :   -0.064928
   3 C :   -0.059782
   4 C :   -0.052869
   5 C :   -0.027465
   6 C :   -0.027921
   7 H :    0.026312
   8 H :    0.030579
   9 H :    0.029587
  10 H :    0.047670
  11 H :    0.045610
  12 H :    0.042259
  13 H :    0.032445
  14 H :    0.028621
  15 H :    0.031793
  16 H :    0.029720

  Mayer bond orders larger than 0.1
B(  0-C ,  1-C ) :   1.1077 B(  0-C ,  7-H ) :   0.9575 B(  0-C ,  8-H ) :   0.9709
B(  0-C ,  9-H ) :   0.9681 B(  1-C ,  2-C ) :   1.0937 B(  1-C , 10-H ) :   0.9025
B(  1-C , 11-H ) :   0.9024 B(  2-C ,  3-C ) :   2.4710 B(  3-C ,  4-C ) :   1.0417
B(  4-C ,  5-C ) :   0.9653 B(  4-C ,  6-C ) :   0.9681 B(  4-C , 12-H ) :   0.9239
B(  5-C ,  6-C ) :   1.0434 B(  5-C , 13-H ) :   0.9522 B(  5-C , 14-H ) :   0.9440
B(  6-C , 15-H ) :   0.9516 B(  6-C , 16-H ) :   0.9444

FINAL SINGLE POINT ENERGY      -272.099965665672

DIPOLE MOMENT
-------------
                                X             Y             Z
Electronic contribution:      2.32307       0.86717       2.46712
Nuclear contribution   :     -2.31301      -0.93485      -2.47147
                        -----------------------------------------
Total Dipole Moment    :      0.01006      -0.06768      -0.00435
                        -----------------------------------------
Magnitude (a.u.)       :      0.06856
Magnitude (Debye)      :      0.17426

                             ****ORCA TERMINATED NORMALLY****
TOTAL RUN TIME: 0 days 0 hours 0 minutes 7 seconds 245 msec
