                         Program Version 3.0.3 - RELEASE   -
|  1> ! RI PBE def2-SVP def2-SVP/J NBO PAL2
|  2> % maxcore 2000
|  3> % output
|  4>     # printlevel mini
|  5>     print[ P_Basis ] 0
|  6>     print[ P_SCFInfo ] 1
|  7>     print[ P_SCFIterInfo ] 1
|  8>     print[ P_OrbEn ] 0
|  9>     print[ P_Cartesian ] 0
| 10> end
| 11> *xyz 0 1
| 12>  C        0.9930290000     0.2573480000     0.1422510000
| 13>  C        2.3074730000     0.0767590000     0.0105350000
| 14>  C        3.0725480000    -0.8875160000     0.8937220000
| 15>  C        3.6698590000    -1.9918360000     0.1589790000
| 16>  C        4.1554020000    -2.9061080000    -0.4470650000
| 17>  C        3.0675560000     0.7962360000    -0.9541660000
| 18>  C        3.7441080000     1.3933430000    -1.7490230000
| 19>  H        0.4267940000    -0.2972260000     0.8813960000
| 20>  H        0.4569630000     0.9583470000    -0.4846570000
| 21>  H        2.3954190000    -1.2799420000     1.6573890000
| 22>  H        3.8647440000    -0.3402180000     1.4170290000
| 23>  H        4.5875530000    -3.7142750000    -0.9879360000
| 24>  H        4.3345820000     1.9213680000    -2.4598430000
| 25> *
| 26>
| 27>                          ****END OF INPUT****
 Total Charge           Charge          ....    0
 Multiplicity           Mult            ....    1
 Number of Electrons    NEL             ....   48
 Basis Dimension        Dim             ....  128

MULLIKEN ATOMIC CHARGES
-----------------------
   0 C :    0.013075
   1 C :   -0.174231
   2 C :    0.184766
   3 C :    0.314587
   4 C :   -0.471035
   5 C :    0.448583
   6 C :   -0.457871
   7 H :    0.022789
   8 H :    0.031565
   9 H :    0.028991
  10 H :    0.052432
  11 H :   -0.000434
  12 H :    0.006782
Sum of atomic charges:   -0.0000000

LOEWDIN ATOMIC CHARGES
----------------------
   0 C :   -0.022558
   1 C :   -0.039319
   2 C :   -0.025664
   3 C :   -0.020045
   4 C :   -0.076262
   5 C :   -0.008582
   6 C :   -0.054233
   7 H :    0.026933
   8 H :    0.033353
   9 H :    0.052873
  10 H :    0.060776
  11 H :    0.035179
  12 H :    0.037549

  Mayer bond orders larger than 0.1
B(  0-C ,  1-C ) :   1.9282 B(  0-C ,  6-C ) :   0.1258 B(  0-C ,  7-H ) :   0.9283
B(  0-C ,  8-H ) :   0.9394 B(  1-C ,  2-C ) :   1.0359 B(  1-C ,  5-C ) :   0.9969
B(  2-C ,  3-C ) :   1.0581 B(  2-C ,  9-H ) :   0.8790 B(  2-C , 10-H ) :   0.8858
B(  3-C ,  4-C ) :   2.3666 B(  3-C , 11-H ) :  -0.1078 B(  4-C , 11-H ) :   1.0990
B(  5-C ,  6-C ) :   2.2536 B(  5-C , 12-H ) :  -0.1058 B(  6-C , 12-H ) :   1.0960

FINAL SINGLE POINT ENERGY      -269.628193529853

DIPOLE MOMENT
-------------
                                X             Y             Z
Electronic contribution:      1.60459       0.05781      -1.30793
Nuclear contribution   :     -1.70011       0.03839       1.47940
                        -----------------------------------------
Total Dipole Moment    :     -0.09551       0.09620       0.17147
                        -----------------------------------------
Magnitude (a.u.)       :      0.21858
Magnitude (Debye)      :      0.55559

                             ****ORCA TERMINATED NORMALLY****
TOTAL RUN TIME: 0 days 0 hours 0 minutes 6 seconds 486 msec
