                         Program Version 3.0.3 - RELEASE   -
|  1> ! RI PBE def2-SVP def2-SVP/J NBO PAL2
|  2> % maxcore 2000
|  3> % output
|  4>     # printlevel mini
|  5>     print[ P_Basis ] 0
|  6>     print[ P_SCFInfo ] 1
|  7>     print[ P_SCFIterInfo ] 1
|  8>     print[ P_OrbEn ] 0
|  9>     print[ P_Cartesian ] 0
| 10> end
| 11> *xyz 0 1
| 12>  C        1.2054210000    -0.4311070000     0.2509260000
| 13>  C        2.5159910000    -0.1975070000     0.1926200000
| 14>  C        3.1164030000     0.8904350000    -0.5505230000
| 15>  C        4.4278530000     1.1236850000    -0.6023600000
| 16>  C        5.0531960000     2.2590750000    -1.3552940000
| 17>  C        6.0701520000     1.8167520000    -2.2999180000
| 18>  C        6.9092310000     1.4370180000    -3.0693790000
| 19>  H        0.8013550000    -1.2593310000     0.8197730000
| 20>  H        0.4955410000     0.2018840000    -0.2719390000
| 21>  H        3.1995370000    -0.8524790000     0.7286580000
| 22>  H        2.4364020000     1.5453510000    -1.0934060000
| 23>  H        5.1125720000     0.4656580000    -0.0725210000
| 24>  H        5.5209040000     2.9569240000    -0.6481710000
| 25>  H        4.2813550000     2.8253980000    -1.8856720000
| 26>  H        7.6508890000     1.1028530000    -3.7554950000
| 27> *
| 28>
| 29>                          ****END OF INPUT****
 Total Charge           Charge          ....    0
 Multiplicity           Mult            ....    1
 Number of Electrons    NEL             ....   50
 Basis Dimension        Dim             ....  138

MULLIKEN ATOMIC CHARGES
-----------------------
   0 C :   -0.032072
   1 C :   -0.009501
   2 C :    0.018324
   3 C :   -0.075450
   4 C :    0.139052
   5 C :    0.300596
   6 C :   -0.468007
   7 H :    0.027261
   8 H :    0.018654
   9 H :   -0.003095
  10 H :   -0.012913
  11 H :    0.007925
  12 H :    0.053518
  13 H :    0.036627
  14 H :   -0.000919
Sum of atomic charges:    0.0000000

LOEWDIN ATOMIC CHARGES
----------------------
   0 C :   -0.051136
   1 C :   -0.031028
   2 C :   -0.037436
   3 C :   -0.014665
   4 C :   -0.044572
   5 C :   -0.021018
   6 C :   -0.085191
   7 H :    0.026473
   8 H :    0.023443
   9 H :    0.030843
  10 H :    0.027548
  11 H :    0.029186
  12 H :    0.060206
  13 H :    0.052824
  14 H :    0.034522

  Mayer bond orders larger than 0.1
B(  0-C ,  1-C ) :   1.8937 B(  0-C ,  3-C ) :   0.1376 B(  0-C ,  7-H ) :   0.9423
B(  0-C ,  8-H ) :   0.9469 B(  1-C ,  2-C ) :   1.1369 B(  1-C ,  9-H ) :   0.9612
B(  2-C ,  3-C ) :   1.8005 B(  2-C , 10-H ) :   0.9562 B(  3-C ,  4-C ) :   1.0303
B(  3-C , 11-H ) :   0.9588 B(  4-C ,  5-C ) :   1.0455 B(  4-C , 12-H ) :   0.8838
B(  4-C , 13-H ) :   0.8980 B(  5-C ,  6-C ) :   2.3816 B(  5-C , 14-H ) :  -0.1088
B(  6-C , 14-H ) :   1.1002

FINAL SINGLE POINT ENERGY      -270.878259850631

DIPOLE MOMENT
-------------
                                X             Y             Z
Electronic contribution:      3.32403       0.87796      -1.83426
Nuclear contribution   :     -3.41157      -0.76838       1.98364
                        -----------------------------------------
Total Dipole Moment    :     -0.08754       0.10958       0.14938
                        -----------------------------------------
Magnitude (a.u.)       :      0.20490
Magnitude (Debye)      :      0.52083

                             ****ORCA TERMINATED NORMALLY****
TOTAL RUN TIME: 0 days 0 hours 0 minutes 6 seconds 615 msec
