                         Program Version 3.0.3 - RELEASE   -
|  1> ! RI PBE def2-SVP def2-SVP/J NBO PAL2
|  2> % maxcore 2000
|  3> % output
|  4>     # printlevel mini
|  5>     print[ P_Basis ] 0
|  6>     print[ P_SCFInfo ] 1
|  7>     print[ P_SCFIterInfo ] 1
|  8>     print[ P_OrbEn ] 0
|  9>     print[ P_Cartesian ] 0
| 10> end
| 11> *xyz 0 1
| 12>  C        1.1770670000     0.8565760000    -0.0370880000
| 13>  C        2.2768280000     0.3852870000    -0.6161940000
| 14>  C        2.7393370000    -1.0051810000    -0.5458130000
| 15>  C        1.9117160000    -2.0478000000    -0.5518810000
| 16>  C        4.2384120000    -1.2059600000    -0.4708820000
| 17>  C        4.9483130000    -0.6621750000    -1.6195840000
| 18>  C        5.5256540000    -0.2111610000    -2.5703830000
| 19>  H        0.8910840000     1.8965790000    -0.1401380000
| 20>  H        0.5353620000     0.2233750000     0.5664820000
| 21>  H        2.9190930000     1.0670250000    -1.1698560000
| 22>  H        0.8402030000    -1.9137860000    -0.6417120000
| 23>  H        2.2823240000    -3.0643980000    -0.4842770000
| 24>  H        4.4592280000    -2.2729430000    -0.3809620000
| 25>  H        4.6245190000    -0.7243790000     0.4360840000
| 26>  H        6.0397610000     0.1841230000    -3.4142060000
| 27> *
| 28>
| 29>                          ****END OF INPUT****
 Total Charge           Charge          ....    0
 Multiplicity           Mult            ....    1
 Number of Electrons    NEL             ....   50
 Basis Dimension        Dim             ....  138

MULLIKEN ATOMIC CHARGES
-----------------------
   0 C :   -0.033523
   1 C :   -0.007358
   2 C :   -0.104114
   3 C :   -0.036090
   4 C :    0.167029
   5 C :    0.297194
   6 C :   -0.472364
   7 H :    0.029346
   8 H :    0.025125
   9 H :    0.018651
  10 H :    0.024752
  11 H :    0.015286
  12 H :    0.029729
  13 H :    0.047085
  14 H :   -0.000747
Sum of atomic charges:   -0.0000000

LOEWDIN ATOMIC CHARGES
----------------------
   0 C :   -0.040964
   1 C :   -0.026342
   2 C :   -0.024331
   3 C :   -0.049162
   4 C :   -0.033113
   5 C :   -0.020675
   6 C :   -0.085124
   7 H :    0.027080
   8 H :    0.023882
   9 H :    0.034824
  10 H :    0.025776
  11 H :    0.022937
  12 H :    0.052916
  13 H :    0.057226
  14 H :    0.035070

  Mayer bond orders larger than 0.1
B(  0-C ,  1-C ) :   1.9601 B(  0-C ,  7-H ) :   0.9429 B(  0-C ,  8-H ) :   0.9480
B(  1-C ,  2-C ) :   1.0527 B(  1-C ,  9-H ) :   0.9441 B(  2-C ,  3-C ) :   1.9541
B(  2-C ,  4-C ) :   1.0248 B(  3-C , 10-H ) :   0.9375 B(  3-C , 11-H ) :   0.9312
B(  4-C ,  5-C ) :   1.0579 B(  4-C , 12-H ) :   0.8840 B(  4-C , 13-H ) :   0.8843
B(  5-C ,  6-C ) :   2.3638 B(  5-C , 14-H ) :  -0.1085 B(  6-C , 14-H ) :   1.0997

FINAL SINGLE POINT ENERGY      -270.871030284590

DIPOLE MOMENT
-------------
                                X             Y             Z
Electronic contribution:      2.95376       0.10344      -1.62872
Nuclear contribution   :     -2.98372      -0.13544       1.79707
                        -----------------------------------------
Total Dipole Moment    :     -0.02996      -0.03200       0.16836
                        -----------------------------------------
Magnitude (a.u.)       :      0.17397
Magnitude (Debye)      :      0.44220

                             ****ORCA TERMINATED NORMALLY****
TOTAL RUN TIME: 0 days 0 hours 0 minutes 6 seconds 845 msec
