                         Program Version 3.0.3 - RELEASE   -
|  1> ! RI PBE def2-SVP def2-SVP/J NBO PAL2
|  2> % maxcore 2000
|  3> % output
|  4>     # printlevel mini
|  5>     print[ P_Basis ] 0
|  6>     print[ P_SCFInfo ] 1
|  7>     print[ P_SCFIterInfo ] 1
|  8>     print[ P_OrbEn ] 0
|  9>     print[ P_Cartesian ] 0
| 10> end
| 11> *xyz 0 1
| 12>  C        1.2983100000    -0.1756940000    -0.7046320000
| 13>  C        2.2651910000    -0.6602000000     0.0601320000
| 14>  C        3.1053340000     0.1566040000     1.0068710000
| 15>  C        2.8211230000    -0.2723050000     2.4262950000
| 16>  C        3.7239830000    -0.5677250000     3.3504010000
| 17>  C        4.5538450000     0.0450630000     0.6375860000
| 18>  C        5.3384550000     1.0664250000     0.3285060000
| 19>  H        0.7206190000    -0.8159120000    -1.3612250000
| 20>  H        1.0510310000     0.8815670000    -0.7046230000
| 21>  H        2.4888460000    -1.7253870000     0.0363060000
| 22>  H        2.7964230000     1.2052580000     0.9064740000
| 23>  H        1.7633650000    -0.3323900000     2.6739680000
| 24>  H        4.7884620000    -0.5135760000     3.1493000000
| 25>  H        3.4237350000    -0.8623660000     4.3492590000
| 26>  H        4.9595580000    -0.9651050000     0.6214810000
| 27>  H        4.9697160000     2.0875480000     0.3336950000
| 28>  H        6.3775950000     0.9205030000     0.0568860000
| 29> *
| 30>
| 31>                          ****END OF INPUT****
 Total Charge           Charge          ....    0
 Multiplicity           Mult            ....    1
 Number of Electrons    NEL             ....   52
 Basis Dimension        Dim             ....  148

MULLIKEN ATOMIC CHARGES
-----------------------
   0 C :   -0.037585
   1 C :   -0.041969
   2 C :    0.061769
   3 C :   -0.062078
   4 C :   -0.013534
   5 C :   -0.050526
   6 C :   -0.025990
   7 H :    0.028275
   8 H :    0.018815
   9 H :    0.007199
  10 H :    0.010468
  11 H :    0.003654
  12 H :    0.026864
  13 H :    0.021527
  14 H :    0.006356
  15 H :    0.019376
  16 H :    0.027379
Sum of atomic charges:   -0.0000000

LOEWDIN ATOMIC CHARGES
----------------------
   0 C :   -0.062884
   1 C :   -0.012380
   2 C :   -0.042806
   3 C :   -0.020309
   4 C :   -0.061777
   5 C :   -0.013247
   6 C :   -0.057926
   7 H :    0.026834
   8 H :    0.022588
   9 H :    0.027141
  10 H :    0.041972
  11 H :    0.026920
  12 H :    0.023709
  13 H :    0.026599
  14 H :    0.026310
  15 H :    0.022892
  16 H :    0.026363

  Mayer bond orders larger than 0.1
B(  0-C ,  1-C ) :   2.0101 B(  0-C ,  7-H ) :   0.9433 B(  0-C ,  8-H ) :   0.9473
B(  1-C ,  2-C ) :   0.9930 B(  1-C ,  9-H ) :   0.9543 B(  2-C ,  3-C ) :   0.9827
B(  2-C ,  5-C ) :   1.0072 B(  2-C , 10-H ) :   0.8912 B(  3-C ,  4-C ) :   2.0160
B(  3-C , 11-H ) :   0.9591 B(  4-C , 12-H ) :   0.9248 B(  4-C , 13-H ) :   0.9388
B(  5-C ,  6-C ) :   2.0098 B(  5-C , 14-H ) :   0.9480 B(  6-C , 15-H ) :   0.9471
B(  6-C , 16-H ) :   0.9411

FINAL SINGLE POINT ENERGY      -272.106622145714

DIPOLE MOMENT
-------------
                                X             Y             Z
Electronic contribution:     -0.30444      -0.39081       0.05834
Nuclear contribution   :      0.27682       0.38767      -0.07431
                        -----------------------------------------
Total Dipole Moment    :     -0.02762      -0.00314      -0.01597
                        -----------------------------------------
Magnitude (a.u.)       :      0.03206
Magnitude (Debye)      :      0.08149

                             ****ORCA TERMINATED NORMALLY****
TOTAL RUN TIME: 0 days 0 hours 0 minutes 7 seconds 704 msec
