                         Program Version 3.0.3 - RELEASE   -
|  1> ! RI PBE def2-SVP def2-SVP/J NBO PAL2
|  2> % maxcore 2000
|  3> % output
|  4>     # printlevel mini
|  5>     print[ P_Basis ] 0
|  6>     print[ P_SCFInfo ] 1
|  7>     print[ P_SCFIterInfo ] 1
|  8>     print[ P_OrbEn ] 0
|  9>     print[ P_Cartesian ] 0
| 10> end
| 11> *xyz 0 1
| 12>  C        1.4238000000     0.5859550000     0.7755450000
| 13>  C        2.2869250000    -0.0141410000    -0.0279040000
| 14>  C        3.0477830000    -1.2675360000     0.3313320000
| 15>  C        2.6609310000    -2.4059820000    -0.5814830000
| 16>  C        2.0640090000    -3.5141590000    -0.1736960000
| 17>  C        4.4877510000    -1.0250910000     0.2564130000
| 18>  C        5.6674160000    -0.8206130000     0.1692510000
| 19>  H        0.8941090000     1.4795290000     0.4671560000
| 20>  H        1.2152220000     0.2079280000     1.7714480000
| 21>  H        2.4860490000     0.3858030000    -1.0189190000
| 22>  H        2.7934900000    -1.5454230000     1.3601340000
| 23>  H        2.9013870000    -2.2651390000    -1.6322250000
| 24>  H        1.8212440000    -3.6786220000     0.8714160000
| 25>  H        1.7969240000    -4.2996400000    -0.8707140000
| 26>  H        6.7142620000    -0.6413790000     0.1014270000
| 27> *
| 28>
| 29>                          ****END OF INPUT****
 Total Charge           Charge          ....    0
 Multiplicity           Mult            ....    1
 Number of Electrons    NEL             ....   50
 Basis Dimension        Dim             ....  138

MULLIKEN ATOMIC CHARGES
-----------------------
   0 C :   -0.023934
   1 C :   -0.018316
   2 C :    0.028877
   3 C :   -0.016803
   4 C :   -0.027639
   5 C :    0.412630
   6 C :   -0.501430
   7 H :    0.030583
   8 H :    0.020130
   9 H :    0.013239
  10 H :    0.018558
  11 H :    0.013985
  12 H :    0.020709
  13 H :    0.032088
  14 H :   -0.002677
Sum of atomic charges:   -0.0000000

LOEWDIN ATOMIC CHARGES
----------------------
   0 C :   -0.053511
   1 C :   -0.005633
   2 C :   -0.045084
   3 C :   -0.006918
   4 C :   -0.053284
   5 C :   -0.008561
   6 C :   -0.080109
   7 H :    0.028687
   8 H :    0.024013
   9 H :    0.030292
  10 H :    0.051268
  11 H :    0.030410
  12 H :    0.024108
  13 H :    0.029144
  14 H :    0.035176

  Mayer bond orders larger than 0.1
B(  0-C ,  1-C ) :   2.0226 B(  0-C ,  7-H ) :   0.9437 B(  0-C ,  8-H ) :   0.9447
B(  1-C ,  2-C ) :   0.9976 B(  1-C ,  9-H ) :   0.9517 B(  2-C ,  3-C ) :   0.9993
B(  2-C ,  5-C ) :   0.9559 B(  2-C , 10-H ) :   0.8841 B(  3-C ,  4-C ) :   2.0242
B(  3-C , 11-H ) :   0.9519 B(  4-C , 12-H ) :   0.9467 B(  4-C , 13-H ) :   0.9428
B(  5-C ,  6-C ) :   2.3341 B(  5-C , 14-H ) :  -0.1213 B(  6-C , 14-H ) :   1.1117

FINAL SINGLE POINT ENERGY      -270.861381231313

DIPOLE MOMENT
-------------
                                X             Y             Z
Electronic contribution:      3.34786       0.57165      -0.18802
Nuclear contribution   :     -3.51601      -0.58776       0.16539
                        -----------------------------------------
Total Dipole Moment    :     -0.16815      -0.01611      -0.02262
                        -----------------------------------------
Magnitude (a.u.)       :      0.17043
Magnitude (Debye)      :      0.43320

                             ****ORCA TERMINATED NORMALLY****
TOTAL RUN TIME: 0 days 0 hours 0 minutes 6 seconds 851 msec
