                         Program Version 3.0.3 - RELEASE   -
|  1> ! RI PBE def2-SVP def2-SVP/J NBO PAL2
|  2> % maxcore 2000
|  3> % output
|  4>     # printlevel mini
|  5>     print[ P_Basis ] 0
|  6>     print[ P_SCFInfo ] 1
|  7>     print[ P_SCFIterInfo ] 1
|  8>     print[ P_OrbEn ] 0
|  9>     print[ P_Cartesian ] 0
| 10> end
| 11> *xyz 0 1
| 12>  C        1.3711640000    -1.0457780000    -0.2778680000
| 13>  C        2.2110910000    -0.0737700000     0.0340330000
| 14>  C        2.9792040000     0.7278260000    -0.9955010000
| 15>  C        2.6112930000     2.1438570000    -0.9314410000
| 16>  C        2.2869150000     3.2961990000    -0.8666850000
| 17>  C        4.4222220000     0.5461260000    -0.8243780000
| 18>  C        5.5988000000     0.3743180000    -0.6712310000
| 19>  H        0.8398530000    -1.5965010000     0.4890970000
| 20>  H        1.1826350000    -1.3278690000    -1.3088360000
| 21>  H        2.3950200000     0.2032480000     1.0673470000
| 22>  H        2.7059630000     0.3515220000    -1.9896290000
| 23>  H        2.0039840000     4.3207360000    -0.8113130000
| 24>  H        6.6446550000     0.2270860000    -0.5396940000
| 25> *
| 26>
| 27>                          ****END OF INPUT****
 Total Charge           Charge          ....    0
 Multiplicity           Mult            ....    1
 Number of Electrons    NEL             ....   48
 Basis Dimension        Dim             ....  128

MULLIKEN ATOMIC CHARGES
-----------------------
   0 C :   -0.024858
   1 C :   -0.014710
   2 C :    0.067104
   3 C :    0.410838
   4 C :   -0.494697
   5 C :    0.407325
   6 C :   -0.492464
   7 H :    0.037125
   8 H :    0.025483
   9 H :    0.023681
  10 H :    0.051860
  11 H :    0.001829
  12 H :    0.001484
Sum of atomic charges:   -0.0000000

LOEWDIN ATOMIC CHARGES
----------------------
   0 C :   -0.047828
   1 C :    0.000418
   2 C :   -0.046965
   3 C :   -0.005240
   4 C :   -0.066076
   5 C :   -0.005981
   6 C :   -0.065161
   7 H :    0.031564
   8 H :    0.025717
   9 H :    0.035265
  10 H :    0.069634
  11 H :    0.037386
  12 H :    0.037266

  Mayer bond orders larger than 0.1
B(  0-C ,  1-C ) :   2.0120 B(  0-C ,  7-H ) :   0.9445 B(  0-C ,  8-H ) :   0.9470
B(  1-C ,  2-C ) :   1.0062 B(  1-C ,  9-H ) :   0.9540 B(  2-C ,  3-C ) :   0.9571
B(  2-C ,  5-C ) :   0.9596 B(  2-C , 10-H ) :   0.8593 B(  3-C ,  4-C ) :   2.3516
B(  3-C , 11-H ) :  -0.1191 B(  4-C , 11-H ) :   1.1092 B(  5-C ,  6-C ) :   2.3504
B(  5-C , 12-H ) :  -0.1203 B(  6-C , 12-H ) :   1.1106

FINAL SINGLE POINT ENERGY      -269.613256310511

DIPOLE MOMENT
-------------
                                X             Y             Z
Electronic contribution:      2.17975       2.42039      -0.68929
Nuclear contribution   :     -2.31050      -2.57128       0.69358
                        -----------------------------------------
Total Dipole Moment    :     -0.13075      -0.15089       0.00428
                        -----------------------------------------
Magnitude (a.u.)       :      0.19970
Magnitude (Debye)      :      0.50761

                             ****ORCA TERMINATED NORMALLY****
TOTAL RUN TIME: 0 days 0 hours 0 minutes 6 seconds 305 msec
