                         Program Version 3.0.3 - RELEASE   -
|  1> ! RI PBE def2-SVP def2-SVP/J NBO PAL2
|  2> % maxcore 2000
|  3> % output
|  4>     # printlevel mini
|  5>     print[ P_Basis ] 0
|  6>     print[ P_SCFInfo ] 1
|  7>     print[ P_SCFIterInfo ] 1
|  8>     print[ P_OrbEn ] 0
|  9>     print[ P_Cartesian ] 0
| 10> end
| 11> *xyz 0 1
| 12>  C        0.8913010000    -0.0569840000    -0.4250480000
| 13>  C        2.0434300000    -0.0479750000     0.2445480000
| 14>  C        2.7628120000     1.1222330000     0.5948250000
| 15>  C        3.4046300000     2.0906800000     0.9116580000
| 16>  C        4.1617360000     3.2788110000     1.2827310000
| 17>  C        5.3902280000     2.9875110000     2.0133250000
| 18>  C        6.4026800000     2.7634780000     2.6144940000
| 19>  H        0.3949900000    -0.9904390000    -0.6594400000
| 20>  H        0.4192830000     0.8613960000    -0.7530690000
| 21>  H        2.4886830000    -0.9891320000     0.5582620000
| 22>  H        3.5300610000     3.9373410000     1.8913070000
| 23>  H        4.4084880000     3.8498000000     0.3793330000
| 24>  H        7.3004770000     2.5584910000     3.1479640000
| 25> *
| 26>
| 27>                          ****END OF INPUT****
 Total Charge           Charge          ....    0
 Multiplicity           Mult            ....    1
 Number of Electrons    NEL             ....   48
 Basis Dimension        Dim             ....  128

MULLIKEN ATOMIC CHARGES
-----------------------
   0 C :   -0.011759
   1 C :   -0.090205
   2 C :   -0.053506
   3 C :   -0.089393
   4 C :    0.164544
   5 C :    0.300029
   6 C :   -0.452811
   7 H :    0.033848
   8 H :    0.031939
   9 H :    0.032396
  10 H :    0.066076
  11 H :    0.065971
  12 H :    0.002871
Sum of atomic charges:    0.0000000

LOEWDIN ATOMIC CHARGES
----------------------
   0 C :   -0.026702
   1 C :   -0.045117
   2 C :   -0.043519
   3 C :   -0.034063
   4 C :   -0.046461
   5 C :   -0.017513
   6 C :   -0.071038
   7 H :    0.028516
   8 H :    0.029168
   9 H :    0.044840
  10 H :    0.072508
  11 H :    0.072797
  12 H :    0.036584

  Mayer bond orders larger than 0.1
B(  0-C ,  1-C ) :   1.9174 B(  0-C ,  3-C ) :   0.1295 B(  0-C ,  7-H ) :   0.9433
B(  0-C ,  8-H ) :   0.9531 B(  1-C ,  2-C ) :   1.0542 B(  1-C ,  9-H ) :   0.9482
B(  2-C ,  3-C ) :   2.5323 B(  3-C ,  4-C ) :   1.0360 B(  4-C ,  5-C ) :   1.0447
B(  4-C , 10-H ) :   0.8720 B(  4-C , 11-H ) :   0.8692 B(  5-C ,  6-C ) :   2.4022
B(  5-C , 12-H ) :  -0.1063 B(  6-C , 12-H ) :   1.0974

FINAL SINGLE POINT ENERGY      -269.633072139540

DIPOLE MOMENT
-------------
                                X             Y             Z
Electronic contribution:      2.46089       1.16700       1.35933
Nuclear contribution   :     -2.56902      -1.02955      -1.43395
                        -----------------------------------------
Total Dipole Moment    :     -0.10813       0.13745      -0.07462
                        -----------------------------------------
Magnitude (a.u.)       :      0.19014
Magnitude (Debye)      :      0.48330

                             ****ORCA TERMINATED NORMALLY****
TOTAL RUN TIME: 0 days 0 hours 0 minutes 5 seconds 850 msec
