                         Program Version 3.0.3 - RELEASE   -
|  1> ! RI PBE def2-SVP def2-SVP/J NBO PAL2
|  2> % maxcore 2000
|  3> % output
|  4>     # printlevel mini
|  5>     print[ P_Basis ] 0
|  6>     print[ P_SCFInfo ] 1
|  7>     print[ P_SCFIterInfo ] 1
|  8>     print[ P_OrbEn ] 0
|  9>     print[ P_Cartesian ] 0
| 10> end
| 11> *xyz 0 1
| 12>  C        1.1534560000    -0.6296560000    -1.6382590000
| 13>  C        2.3577440000    -0.2569590000    -2.0472930000
| 14>  C        3.1396370000     0.8899220000    -1.4807650000
| 15>  C        4.4323870000     0.4448020000    -0.8753220000
| 16>  C        5.6429580000     0.8383580000    -1.2771220000
| 17>  C        6.8829930000     0.3884210000    -0.6808070000
| 18>  C        8.0936560000     0.7829750000    -1.0746670000
| 19>  H        0.6383220000    -1.4727780000    -2.0837870000
| 20>  H        0.6363450000    -0.1001330000    -0.8435570000
| 21>  H        2.8485940000    -0.8147370000    -2.8424440000
| 22>  H        2.5281360000     1.3950040000    -0.7236330000
| 23>  H        3.3470780000     1.6216370000    -2.2698690000
| 24>  H        4.3561090000    -0.2662000000    -0.0539520000
| 25>  H        5.7253580000     1.5451640000    -2.1019670000
| 26>  H        6.7945090000    -0.3192500000     0.1411510000
| 27>  H        8.2192380000     1.4872670000    -1.8909700000
| 28>  H        8.9937790000     0.4166420000    -0.5967380000
| 29> *
| 30>
| 31>                          ****END OF INPUT****
 Total Charge           Charge          ....    0
 Multiplicity           Mult            ....    1
 Number of Electrons    NEL             ....   52
 Basis Dimension        Dim             ....  148

MULLIKEN ATOMIC CHARGES
-----------------------
   0 C :   -0.032599
   1 C :   -0.091555
   2 C :    0.124251
   3 C :   -0.085590
   4 C :    0.015536
   5 C :   -0.009473
   6 C :   -0.032613
   7 H :    0.026958
   8 H :    0.018153
   9 H :    0.008604
  10 H :    0.018141
  11 H :    0.017811
  12 H :    0.001315
  13 H :   -0.016736
  14 H :   -0.005890
  15 H :    0.019502
  16 H :    0.024185
Sum of atomic charges:    0.0000000

LOEWDIN ATOMIC CHARGES
----------------------
   0 C :   -0.064329
   1 C :   -0.025613
   2 C :   -0.040652
   3 C :   -0.020677
   4 C :   -0.042741
   5 C :   -0.031697
   6 C :   -0.054731
   7 H :    0.025738
   8 H :    0.021547
   9 H :    0.027003
  10 H :    0.039125
  11 H :    0.038335
  12 H :    0.025419
  13 H :    0.025813
  14 H :    0.029364
  15 H :    0.022715
  16 H :    0.025381

  Mayer bond orders larger than 0.1
B(  0-C ,  1-C ) :   2.0022 B(  0-C ,  7-H ) :   0.9458 B(  0-C ,  8-H ) :   0.9481
B(  1-C ,  2-C ) :   1.0462 B(  1-C ,  9-H ) :   0.9595 B(  2-C ,  3-C ) :   1.0395
B(  2-C , 10-H ) :   0.9046 B(  2-C , 11-H ) :   0.9094 B(  3-C ,  4-C ) :   1.7787
B(  3-C ,  6-C ) :   0.1371 B(  3-C , 12-H ) :   0.9600 B(  4-C ,  5-C ) :   1.1336
B(  4-C , 13-H ) :   0.9620 B(  5-C ,  6-C ) :   1.8813 B(  5-C , 14-H ) :   0.9645
B(  6-C , 15-H ) :   0.9500 B(  6-C , 16-H ) :   0.9427

FINAL SINGLE POINT ENERGY      -272.123092192761

DIPOLE MOMENT
-------------
                                X             Y             Z
Electronic contribution:      0.92347       0.04796       0.24898
Nuclear contribution   :     -1.00721      -0.01560      -0.25348
                        -----------------------------------------
Total Dipole Moment    :     -0.08374       0.03236      -0.00450
                        -----------------------------------------
Magnitude (a.u.)       :      0.08989
Magnitude (Debye)      :      0.22848

                             ****ORCA TERMINATED NORMALLY****
TOTAL RUN TIME: 0 days 0 hours 0 minutes 7 seconds 108 msec
