                         Program Version 3.0.3 - RELEASE   -
|  1> ! RI PBE def2-SVP def2-SVP/J NBO PAL2
|  2> % maxcore 2000
|  3> % output
|  4>     # printlevel mini
|  5>     print[ P_Basis ] 0
|  6>     print[ P_SCFInfo ] 1
|  7>     print[ P_SCFIterInfo ] 1
|  8>     print[ P_OrbEn ] 0
|  9>     print[ P_Cartesian ] 0
| 10> end
| 11> *xyz 0 1
| 12>  C        1.3209020000     0.7514580000    -0.8159190000
| 13>  C        2.2382090000     0.2785500000     0.0152080000
| 14>  C        3.1443570000    -0.8793890000    -0.2792590000
| 15>  C        4.5837730000    -0.4786000000    -0.2765790000
| 16>  C        5.5014240000    -0.9769860000     0.5555820000
| 17>  C        6.8648910000    -0.5916250000     0.5620700000
| 18>  C        8.0289080000    -0.2870960000     0.5941790000
| 19>  H        0.6956830000     1.5955670000    -0.5492640000
| 20>  H        1.1593480000     0.3078440000    -1.7938230000
| 21>  H        2.3769850000     0.7516530000     0.9851490000
| 22>  H        2.8808740000    -1.2957650000    -1.2584750000
| 23>  H        2.9899180000    -1.6704360000     0.4631460000
| 24>  H        4.8805090000     0.2793740000    -0.9970150000
| 25>  H        5.2105660000    -1.7317910000     1.2836380000
| 26>  H        9.0563520000    -0.0110470000     0.6153520000
| 27> *
| 28>
| 29>                          ****END OF INPUT****
 Total Charge           Charge          ....    0
 Multiplicity           Mult            ....    1
 Number of Electrons    NEL             ....   50
 Basis Dimension        Dim             ....  138

MULLIKEN ATOMIC CHARGES
-----------------------
   0 C :   -0.029211
   1 C :   -0.091449
   2 C :    0.117440
   3 C :   -0.053121
   4 C :   -0.069459
   5 C :    0.392466
   6 C :   -0.413039
   7 H :    0.030061
   8 H :    0.018034
   9 H :    0.010042
  10 H :    0.019898
  11 H :    0.023284
  12 H :    0.015157
  13 H :    0.024301
  14 H :    0.005595
Sum of atomic charges:   -0.0000000

LOEWDIN ATOMIC CHARGES
----------------------
   0 C :   -0.060426
   1 C :   -0.025803
   2 C :   -0.039321
   3 C :    0.005864
   4 C :   -0.060722
   5 C :   -0.018566
   6 C :   -0.068233
   7 H :    0.026986
   8 H :    0.022241
   9 H :    0.028058
  10 H :    0.040818
  11 H :    0.039563
  12 H :    0.032833
  13 H :    0.041148
  14 H :    0.035560

  Mayer bond orders larger than 0.1
B(  0-C ,  1-C ) :   2.0092 B(  0-C ,  7-H ) :   0.9456 B(  0-C ,  8-H ) :   0.9465
B(  1-C ,  2-C ) :   1.0453 B(  1-C ,  9-H ) :   0.9554 B(  2-C ,  3-C ) :   1.0404
B(  2-C , 10-H ) :   0.9061 B(  2-C , 11-H ) :   0.9100 B(  3-C ,  4-C ) :   1.8098
B(  3-C ,  6-C ) :   0.1306 B(  3-C , 12-H ) :   0.9625 B(  4-C ,  5-C ) :   1.0380
B(  4-C , 13-H ) :   0.9422 B(  5-C ,  6-C ) :   2.2767 B(  6-C , 14-H ) :   1.0865

FINAL SINGLE POINT ENERGY      -270.876306477668

DIPOLE MOMENT
-------------
                                X             Y             Z
Electronic contribution:      5.68613      -0.66029       1.36550
Nuclear contribution   :     -5.95678       0.61726      -1.41879
                        -----------------------------------------
Total Dipole Moment    :     -0.27066      -0.04303      -0.05329
                        -----------------------------------------
Magnitude (a.u.)       :      0.27919
Magnitude (Debye)      :      0.70964

                             ****ORCA TERMINATED NORMALLY****
TOTAL RUN TIME: 0 days 0 hours 0 minutes 6 seconds 674 msec
