                         Program Version 3.0.3 - RELEASE   -
|  1> ! RI PBE def2-SVP def2-SVP/J NBO PAL2
|  2> % maxcore 2000
|  3> % output
|  4>     # printlevel mini
|  5>     print[ P_Basis ] 0
|  6>     print[ P_SCFInfo ] 1
|  7>     print[ P_SCFIterInfo ] 1
|  8>     print[ P_OrbEn ] 0
|  9>     print[ P_Cartesian ] 0
| 10> end
| 11> *xyz 0 1
| 12>  C        2.1888630000    -1.3676710000    -2.5645780000
| 13>  C        2.8814980000    -0.6147800000    -1.7225620000
| 14>  C        3.4663010000    -1.0859460000    -0.4240170000
| 15>  C        4.8936500000    -0.6525050000    -0.2068710000
| 16>  C        5.1898930000     0.3116250000     0.6701160000
| 17>  C        5.9655710000    -1.2914510000    -0.9641170000
| 18>  C        5.8232360000    -2.2680210000    -1.8582850000
| 19>  H        1.7661080000    -0.9580220000    -3.4744560000
| 20>  H        2.0161930000    -2.4229120000    -2.3733910000
| 21>  H        3.0350580000     0.4380970000    -1.9509910000
| 22>  H        3.3865130000    -2.1761260000    -0.3614730000
| 23>  H        2.8650820000    -0.6772620000     0.3954530000
| 24>  H        4.4225540000     0.8002270000     1.2599040000
| 25>  H        6.2131110000     0.6375280000     0.8226180000
| 26>  H        6.9648900000    -0.9186920000    -0.7501550000
| 27>  H        4.8532350000    -2.6691190000    -2.1257230000
| 28>  H        6.6841320000    -2.6890810000    -2.3634700000
| 29> *
| 30>
| 31>                          ****END OF INPUT****
 Total Charge           Charge          ....    0
 Multiplicity           Mult            ....    1
 Number of Electrons    NEL             ....   52
 Basis Dimension        Dim             ....  148

MULLIKEN ATOMIC CHARGES
-----------------------
   0 C :   -0.030187
   1 C :   -0.069773
   2 C :    0.116148
   3 C :   -0.096972
   4 C :   -0.038417
   5 C :   -0.000737
   6 C :   -0.023093
   7 H :    0.023588
   8 H :    0.019319
   9 H :    0.006822
  10 H :    0.015910
  11 H :    0.017779
  12 H :    0.014977
  13 H :    0.014618
  14 H :   -0.017046
  15 H :    0.021198
  16 H :    0.025867
Sum of atomic charges:    0.0000000

LOEWDIN ATOMIC CHARGES
----------------------
   0 C :   -0.067165
   1 C :   -0.020102
   2 C :   -0.033069
   3 C :   -0.028770
   4 C :   -0.050029
   5 C :   -0.027619
   6 C :   -0.048070
   7 H :    0.025546
   8 H :    0.020846
   9 H :    0.027882
  10 H :    0.035686
  11 H :    0.042662
  12 H :    0.021330
  13 H :    0.022051
  14 H :    0.028443
  15 H :    0.023458
  16 H :    0.026920

  Mayer bond orders larger than 0.1
B(  0-C ,  1-C ) :   2.0026 B(  0-C ,  7-H ) :   0.9408 B(  0-C ,  8-H ) :   0.9467
B(  1-C ,  2-C ) :   1.0496 B(  1-C ,  9-H ) :   0.9562 B(  2-C ,  3-C ) :   1.0537
B(  2-C , 10-H ) :   0.9057 B(  2-C , 11-H ) :   0.8922 B(  3-C ,  4-C ) :   1.8769
B(  3-C ,  5-C ) :   1.1172 B(  4-C ,  6-C ) :   0.1403 B(  4-C , 12-H ) :   0.9336
B(  4-C , 13-H ) :   0.9408 B(  5-C ,  6-C ) :   1.9024 B(  5-C , 14-H ) :   0.9559
B(  6-C , 15-H ) :   0.9323 B(  6-C , 16-H ) :   0.9408

FINAL SINGLE POINT ENERGY      -272.119140115531

DIPOLE MOMENT
-------------
                                X             Y             Z
Electronic contribution:      0.99916       0.58888       0.74488
Nuclear contribution   :     -1.03425      -0.56967      -0.68798
                        -----------------------------------------
Total Dipole Moment    :     -0.03509       0.01921       0.05689
                        -----------------------------------------
Magnitude (a.u.)       :      0.06955
Magnitude (Debye)      :      0.17679

                             ****ORCA TERMINATED NORMALLY****
TOTAL RUN TIME: 0 days 0 hours 0 minutes 7 seconds 808 msec
