                         Program Version 3.0.3 - RELEASE   -
|  1> ! RI PBE def2-SVP def2-SVP/J NBO PAL2
|  2> % maxcore 2000
|  3> % output
|  4>     # printlevel mini
|  5>     print[ P_Basis ] 0
|  6>     print[ P_SCFInfo ] 1
|  7>     print[ P_SCFIterInfo ] 1
|  8>     print[ P_OrbEn ] 0
|  9>     print[ P_Cartesian ] 0
| 10> end
| 11> *xyz 0 1
| 12>  C        1.2938790000     0.0121490000    -0.8659830000
| 13>  C        2.2555530000    -0.0114840000     0.0447810000
| 14>  C        3.3397910000    -1.0420220000     0.1030810000
| 15>  C        4.7266440000    -0.4427690000     0.0876010000
| 16>  C        5.5951580000    -0.6692030000    -0.8996220000
| 17>  C        5.0728200000     0.3847960000     1.1954820000
| 18>  C        5.3214670000     1.0709030000     2.1521960000
| 19>  H        0.5272540000     0.7781790000    -0.8590700000
| 20>  H        1.2364860000    -0.7349690000    -1.6518060000
| 21>  H        2.2862250000     0.7553900000     0.8153600000
| 22>  H        3.2409310000    -1.7388330000    -0.7322940000
| 23>  H        3.2311880000    -1.6201650000     1.0297740000
| 24>  H        5.3269860000    -1.2994780000    -1.7396320000
| 25>  H        6.5860450000    -0.2330000000    -0.8905110000
| 26>  H        5.5578840000     1.6807060000     2.9918430000
| 27> *
| 28>
| 29>                          ****END OF INPUT****
 Total Charge           Charge          ....    0
 Multiplicity           Mult            ....    1
 Number of Electrons    NEL             ....   50
 Basis Dimension        Dim             ....  138

MULLIKEN ATOMIC CHARGES
-----------------------
   0 C :   -0.045594
   1 C :   -0.081018
   2 C :    0.145868
   3 C :   -0.167523
   4 C :    0.015941
   5 C :    0.426162
   6 C :   -0.457896
   7 H :    0.028961
   8 H :    0.018353
   9 H :    0.021822
  10 H :    0.001052
  11 H :    0.042545
  12 H :    0.021099
  13 H :    0.024688
  14 H :    0.005540
Sum of atomic charges:   -0.0000000

LOEWDIN ATOMIC CHARGES
----------------------
   0 C :   -0.064410
   1 C :   -0.022830
   2 C :   -0.022392
   3 C :   -0.043253
   4 C :   -0.026474
   5 C :   -0.009118
   6 C :   -0.066276
   7 H :    0.026715
   8 H :    0.021644
   9 H :    0.030515
  10 H :    0.033852
  11 H :    0.048397
  12 H :    0.025999
  13 H :    0.030840
  14 H :    0.036790

  Mayer bond orders larger than 0.1
B(  0-C ,  1-C ) :   2.0241 B(  0-C ,  7-H ) :   0.9466 B(  0-C ,  8-H ) :   0.9476
B(  1-C ,  2-C ) :   1.0486 B(  1-C ,  9-H ) :   0.9537 B(  2-C ,  3-C ) :   1.0299
B(  2-C , 10-H ) :   0.9132 B(  2-C , 11-H ) :   0.8992 B(  3-C ,  4-C ) :   1.9304
B(  3-C ,  5-C ) :   1.0044 B(  4-C ,  6-C ) :   0.1261 B(  4-C , 12-H ) :   0.9276
B(  4-C , 13-H ) :   0.9360 B(  5-C ,  6-C ) :   2.2564 B(  5-C , 14-H ) :  -0.1056
B(  6-C , 14-H ) :   1.0959

FINAL SINGLE POINT ENERGY      -270.873264861557

DIPOLE MOMENT
-------------
                                X             Y             Z
Electronic contribution:      3.01884       1.27645       2.65914
Nuclear contribution   :     -3.04412      -1.38245      -2.66539
                        -----------------------------------------
Total Dipole Moment    :     -0.02528      -0.10600      -0.00625
                        -----------------------------------------
Magnitude (a.u.)       :      0.10915
Magnitude (Debye)      :      0.27744

                             ****ORCA TERMINATED NORMALLY****
TOTAL RUN TIME: 0 days 0 hours 0 minutes 6 seconds 380 msec
