                         Program Version 3.0.3 - RELEASE   -
|  1> ! RI PBE def2-SVP def2-SVP/J NBO PAL2
|  2> % maxcore 2000
|  3> % output
|  4>     # printlevel mini
|  5>     print[ P_Basis ] 0
|  6>     print[ P_SCFInfo ] 1
|  7>     print[ P_SCFIterInfo ] 1
|  8>     print[ P_OrbEn ] 0
|  9>     print[ P_Cartesian ] 0
| 10> end
| 11> *xyz 0 1
| 12>  C        1.3308240000    -0.8706340000    -0.1252360000
| 13>  C        2.2653170000     0.0661420000    -0.0931680000
| 14>  C        3.0431940000     0.4412360000     1.1367560000
| 15>  C        4.4825150000     0.3672050000     0.9345950000
| 16>  C        5.6724280000     0.2962650000     0.7525290000
| 17>  C        7.0701460000     0.2488370000     0.5194510000
| 18>  C        7.8941320000    -0.6639460000     1.0337840000
| 19>  H        0.7887200000    -1.0962670000    -1.0359900000
| 20>  H        1.0741520000    -1.4481880000     0.7574980000
| 21>  H        2.5114110000     0.6214610000    -0.9944030000
| 22>  H        2.7502740000    -0.2044390000     1.9706280000
| 23>  H        2.7841530000     1.4674260000     1.4294740000
| 24>  H        7.4725240000     1.0251990000    -0.1273080000
| 25>  H        7.5315720000    -1.4528660000     1.6818340000
| 26>  H        8.9544310000    -0.6383310000     0.8147670000
| 27> *
| 28>
| 29>                          ****END OF INPUT****
 Total Charge           Charge          ....    0
 Multiplicity           Mult            ....    1
 Number of Electrons    NEL             ....   50
 Basis Dimension        Dim             ....  138

MULLIKEN ATOMIC CHARGES
-----------------------
   0 C :   -0.036263
   1 C :   -0.081735
   2 C :    0.143585
   3 C :   -0.095534
   4 C :   -0.057125
   5 C :   -0.100510
   6 C :   -0.016513
   7 H :    0.031116
   8 H :    0.021706
   9 H :    0.017470
  10 H :    0.031211
  11 H :    0.046174
  12 H :    0.030405
  13 H :    0.032370
  14 H :    0.033642
Sum of atomic charges:    0.0000000

LOEWDIN ATOMIC CHARGES
----------------------
   0 C :   -0.060045
   1 C :   -0.016881
   2 C :   -0.043875
   3 C :   -0.035740
   4 C :   -0.056626
   5 C :   -0.046850
   6 C :   -0.030659
   7 H :    0.028006
   8 H :    0.023317
   9 H :    0.030578
  10 H :    0.050860
  11 H :    0.058243
  12 H :    0.042625
  13 H :    0.029192
  14 H :    0.027855

  Mayer bond orders larger than 0.1
B(  0-C ,  1-C ) :   2.0198 B(  0-C ,  7-H ) :   0.9457 B(  0-C ,  8-H ) :   0.9476
B(  1-C ,  2-C ) :   1.0411 B(  1-C ,  9-H ) :   0.9570 B(  2-C ,  3-C ) :   1.0455
B(  2-C , 10-H ) :   0.8967 B(  2-C , 11-H ) :   0.8837 B(  3-C ,  4-C ) :   2.4975
B(  3-C ,  6-C ) :   0.1287 B(  4-C ,  5-C ) :   1.0612 B(  5-C ,  6-C ) :   1.9174
B(  5-C , 12-H ) :   0.9467 B(  6-C , 13-H ) :   0.9532 B(  6-C , 14-H ) :   0.9424

FINAL SINGLE POINT ENERGY      -270.880107338559

DIPOLE MOMENT
-------------
                                X             Y             Z
Electronic contribution:      1.91987       1.43508       0.24757
Nuclear contribution   :     -2.07875      -1.36517      -0.21942
                        -----------------------------------------
Total Dipole Moment    :     -0.15888       0.06991       0.02815
                        -----------------------------------------
Magnitude (a.u.)       :      0.17585
Magnitude (Debye)      :      0.44698

                             ****ORCA TERMINATED NORMALLY****
TOTAL RUN TIME: 0 days 0 hours 0 minutes 6 seconds 312 msec
