                         Program Version 3.0.3 - RELEASE   -
|  1> ! RI PBE def2-SVP def2-SVP/J NBO PAL2
|  2> % maxcore 2000
|  3> % output
|  4>     # printlevel mini
|  5>     print[ P_Basis ] 0
|  6>     print[ P_SCFInfo ] 1
|  7>     print[ P_SCFIterInfo ] 1
|  8>     print[ P_OrbEn ] 0
|  9>     print[ P_Cartesian ] 0
| 10> end
| 11> *xyz 0 1
| 12>  C        1.4636000000     0.6789860000    -0.7810630000
| 13>  C        2.3762530000     0.1276730000     0.0025830000
| 14>  C        3.1699110000    -1.0957010000    -0.3631590000
| 15>  C        4.6034140000    -0.8778630000    -0.2850080000
| 16>  C        5.7924650000    -0.6795850000    -0.2091450000
| 17>  C        7.1357050000    -0.4609000000    -0.1270070000
| 18>  C        8.3235020000    -0.2672440000    -0.0535650000
| 19>  H        0.9068860000     1.5544020000    -0.4684910000
| 20>  H        1.2396040000     0.2765270000    -1.7640580000
| 21>  H        2.5906970000     0.5556670000     0.9780150000
| 22>  H        2.9029170000    -1.4251930000    -1.3726960000
| 23>  H        2.9079200000    -1.9193850000     0.3141780000
| 24>  H        9.3718260000    -0.0964730000     0.0101240000
| 25> *
| 26>
| 27>                          ****END OF INPUT****
 Total Charge           Charge          ....    0
 Multiplicity           Mult            ....    1
 Number of Electrons    NEL             ....   48
 Basis Dimension        Dim             ....  128

MULLIKEN ATOMIC CHARGES
-----------------------
   0 C :   -0.029588
   1 C :   -0.083607
   2 C :    0.143344
   3 C :   -0.121761
   4 C :   -0.012370
   5 C :    0.355487
   6 C :   -0.431410
   7 H :    0.034304
   8 H :    0.022711
   9 H :    0.020820
  10 H :    0.033981
  11 H :    0.056355
  12 H :    0.011736
Sum of atomic charges:   -0.0000000

LOEWDIN ATOMIC CHARGES
----------------------
   0 C :   -0.053747
   1 C :   -0.017555
   2 C :   -0.042341
   3 C :    0.002322
   4 C :   -0.066856
   5 C :   -0.030192
   6 C :   -0.034285
   7 H :    0.029539
   8 H :    0.024334
   9 H :    0.032095
  10 H :    0.054894
  11 H :    0.062709
  12 H :    0.039085

  Mayer bond orders larger than 0.1
B(  0-C ,  1-C ) :   2.0218 B(  0-C ,  7-H ) :   0.9473 B(  0-C ,  8-H ) :   0.9473
B(  1-C ,  2-C ) :   1.0365 B(  1-C ,  9-H ) :   0.9569 B(  2-C ,  3-C ) :   1.0559
B(  2-C , 10-H ) :   0.8899 B(  2-C , 11-H ) :   0.8838 B(  3-C ,  4-C ) :   2.3844
B(  3-C ,  6-C ) :   0.2635 B(  4-C ,  5-C ) :   0.9427 B(  5-C ,  6-C ) :   2.1451
B(  5-C , 12-H ) :  -0.1068 B(  6-C , 12-H ) :   1.0959

FINAL SINGLE POINT ENERGY      -269.642233376687

DIPOLE MOMENT
-------------
                                X             Y             Z
Electronic contribution:      6.80120      -1.07942       0.66212
Nuclear contribution   :     -7.22057       1.00858      -0.65295
                        -----------------------------------------
Total Dipole Moment    :     -0.41937      -0.07084       0.00917
                        -----------------------------------------
Magnitude (a.u.)       :      0.42541
Magnitude (Debye)      :      1.08130

                             ****ORCA TERMINATED NORMALLY****
TOTAL RUN TIME: 0 days 0 hours 0 minutes 5 seconds 906 msec
