                         Program Version 3.0.3 - RELEASE   -
|  1> ! RI PBE def2-SVP def2-SVP/J NBO PAL2
|  2> % maxcore 2000
|  3> % output
|  4>     # printlevel mini
|  5>     print[ P_Basis ] 0
|  6>     print[ P_SCFInfo ] 1
|  7>     print[ P_SCFIterInfo ] 1
|  8>     print[ P_OrbEn ] 0
|  9>     print[ P_Cartesian ] 0
| 10> end
| 11> *xyz 0 1
| 12>  C        1.5360680000    -0.9268860000    -0.5674700000
| 13>  C        2.4168740000    -0.1724820000     0.0747940000
| 14>  C        3.1013780000    -0.5400380000     1.3485610000
| 15>  C        4.6203910000    -0.5935850000     1.2100720000
| 16>  C        5.3225020000    -0.9142940000     2.5267470000
| 17>  C        6.8095350000    -0.9126460000     2.4048630000
| 18>  C        7.5998290000    -1.9486280000     2.6490410000
| 19>  H        1.0787760000    -0.6028110000    -1.4951970000
| 20>  H        1.2373900000    -1.8983620000    -0.1847170000
| 21>  H        2.6881040000     0.7941870000    -0.3484050000
| 22>  H        2.7252350000    -1.5055900000     1.7032290000
| 23>  H        2.8477630000     0.1980430000     2.1211850000
| 24>  H        4.9848240000     0.3677850000     0.8284250000
| 25>  H        4.8923880000    -1.3424680000     0.4594150000
| 26>  H        4.9850130000    -1.8863590000     2.9019240000
| 27>  H        5.0202480000    -0.1680150000     3.2735680000
| 28>  H        7.2581070000     0.0241370000     2.0757220000
| 29>  H        7.1972460000    -2.9025920000     2.9766890000
| 30>  H        8.6756480000    -1.8828850000     2.5345450000
| 31> *
| 32>
| 33>                          ****END OF INPUT****
 Total Charge           Charge          ....    0
 Multiplicity           Mult            ....    1
 Number of Electrons    NEL             ....   54
 Basis Dimension        Dim             ....  158

MULLIKEN ATOMIC CHARGES
-----------------------
   0 C :   -0.029990
   1 C :   -0.081098
   2 C :    0.081092
   3 C :   -0.071426
   4 C :    0.068781
   5 C :   -0.072245
   6 C :   -0.038826
   7 H :    0.021833
   8 H :    0.013863
   9 H :    0.001626
  10 H :   -0.002544
  11 H :    0.015414
  12 H :    0.008783
  13 H :    0.025056
  14 H :    0.000608
  15 H :    0.017769
  16 H :    0.000235
  17 H :    0.015105
  18 H :    0.025964
Sum of atomic charges:   -0.0000000

LOEWDIN ATOMIC CHARGES
----------------------
   0 C :   -0.066900
   1 C :   -0.028062
   2 C :   -0.040930
   3 C :   -0.033589
   4 C :   -0.042120
   5 C :   -0.027021
   6 C :   -0.069268
   7 H :    0.023772
   8 H :    0.020699
   9 H :    0.024153
  10 H :    0.026297
  11 H :    0.032864
  12 H :    0.022087
  13 H :    0.028010
  14 H :    0.027038
  15 H :    0.033450
  16 H :    0.023935
  17 H :    0.021035
  18 H :    0.024552

  Mayer bond orders larger than 0.1
B(  0-C ,  1-C ) :   2.0194 B(  0-C ,  7-H ) :   0.9432 B(  0-C ,  8-H ) :   0.9458
B(  1-C ,  2-C ) :   1.0584 B(  1-C ,  9-H ) :   0.9523 B(  2-C ,  3-C ) :   1.0744
B(  2-C , 10-H ) :   0.9262 B(  2-C , 11-H ) :   0.9098 B(  3-C ,  4-C ) :   1.0681
B(  3-C , 12-H ) :   0.9381 B(  3-C , 13-H ) :   0.9415 B(  4-C ,  5-C ) :   1.0667
B(  4-C , 14-H ) :   0.9280 B(  4-C , 15-H ) :   0.9090 B(  5-C ,  6-C ) :   2.0186
B(  5-C , 16-H ) :   0.9505 B(  6-C , 17-H ) :   0.9460 B(  6-C , 18-H ) :   0.9438

FINAL SINGLE POINT ENERGY      -273.333248352038

DIPOLE MOMENT
-------------
                                X             Y             Z
Electronic contribution:      0.18476       0.52247      -0.19141
Nuclear contribution   :     -0.20431      -0.41382       0.25371
                        -----------------------------------------
Total Dipole Moment    :     -0.01955       0.10865       0.06230
                        -----------------------------------------
Magnitude (a.u.)       :      0.12677
Magnitude (Debye)      :      0.32221

                             ****ORCA TERMINATED NORMALLY****
TOTAL RUN TIME: 0 days 0 hours 0 minutes 8 seconds 180 msec
