                         Program Version 3.0.3 - RELEASE   -
|  1> ! RI PBE def2-SVP def2-SVP/J NBO PAL2
|  2> % maxcore 2000
|  3> % output
|  4>     # printlevel mini
|  5>     print[ P_Basis ] 0
|  6>     print[ P_SCFInfo ] 1
|  7>     print[ P_SCFIterInfo ] 1
|  8>     print[ P_OrbEn ] 0
|  9>     print[ P_Cartesian ] 0
| 10> end
| 11> *xyz 0 1
| 12>  C        1.3393780000     0.3860770000    -1.2403960000
| 13>  C        2.1973260000    -0.1020750000    -0.3558030000
| 14>  C        3.0130850000    -1.3379670000    -0.5405370000
| 15>  C        4.5128750000    -1.0663840000    -0.4777190000
| 16>  C        5.3350560000    -2.3478700000    -0.6165540000
| 17>  C        6.7679280000    -2.1160570000    -0.5557070000
| 18>  C        7.9483970000    -1.9031070000    -0.5025600000
| 19>  H        0.7799360000     1.2942740000    -1.0484150000
| 20>  H        1.1633520000    -0.1087910000    -2.1909060000
| 21>  H        2.3444410000     0.4290510000     0.5838140000
| 22>  H        2.7578850000    -1.8073960000    -1.4966130000
| 23>  H        2.7545210000    -2.0614280000     0.2441960000
| 24>  H        4.7648710000    -0.5805200000     0.4699590000
| 25>  H        4.7952860000    -0.3668000000    -1.2692460000
| 26>  H        5.0929800000    -2.8396490000    -1.5656800000
| 27>  H        5.0532340000    -3.0534560000     0.1735040000
| 28>  H        8.9954480000    -1.7191020000    -0.4563380000
| 29> *
| 30>
| 31>                          ****END OF INPUT****
 Total Charge           Charge          ....    0
 Multiplicity           Mult            ....    1
 Number of Electrons    NEL             ....   52
 Basis Dimension        Dim             ....  148

MULLIKEN ATOMIC CHARGES
-----------------------
   0 C :   -0.033033
   1 C :   -0.074889
   2 C :    0.077755
   3 C :   -0.083014
   4 C :    0.079273
   5 C :    0.356409
   6 C :   -0.506941
   7 H :    0.025022
   8 H :    0.015204
   9 H :    0.004025
  10 H :    0.001758
  11 H :    0.017773
  12 H :    0.025779
  13 H :    0.032780
  14 H :    0.032725
  15 H :    0.033191
  16 H :   -0.003818
Sum of atomic charges:   -0.0000000

LOEWDIN ATOMIC CHARGES
----------------------
   0 C :   -0.065240
   1 C :   -0.027577
   2 C :   -0.042027
   3 C :   -0.026218
   4 C :   -0.047447
   5 C :   -0.020713
   6 C :   -0.092435
   7 H :    0.024931
   8 H :    0.021231
   9 H :    0.025340
  10 H :    0.027276
  11 H :    0.033918
  12 H :    0.028870
  13 H :    0.031817
  14 H :    0.047501
  15 H :    0.047596
  16 H :    0.033174

  Mayer bond orders larger than 0.1
B(  0-C ,  1-C ) :   2.0217 B(  0-C ,  7-H ) :   0.9435 B(  0-C ,  8-H ) :   0.9465
B(  1-C ,  2-C ) :   1.0601 B(  1-C ,  9-H ) :   0.9514 B(  2-C ,  3-C ) :   1.0734
B(  2-C , 10-H ) :   0.9270 B(  2-C , 11-H ) :   0.9077 B(  3-C ,  4-C ) :   1.0722
B(  3-C , 12-H ) :   0.9407 B(  3-C , 13-H ) :   0.9410 B(  4-C ,  5-C ) :   1.0622
B(  4-C , 14-H ) :   0.8942 B(  4-C , 15-H ) :   0.8931 B(  5-C ,  6-C ) :   2.3222
B(  5-C , 16-H ) :  -0.1132 B(  6-C , 16-H ) :   1.1041

FINAL SINGLE POINT ENERGY      -272.090656149212

DIPOLE MOMENT
-------------
                                X             Y             Z
Electronic contribution:      4.75972      -1.16256       0.40004
Nuclear contribution   :     -4.98177       1.09829      -0.35871
                        -----------------------------------------
Total Dipole Moment    :     -0.22205      -0.06427       0.04133
                        -----------------------------------------
Magnitude (a.u.)       :      0.23483
Magnitude (Debye)      :      0.59689

                             ****ORCA TERMINATED NORMALLY****
TOTAL RUN TIME: 0 days 0 hours 0 minutes 7 seconds 432 msec
