                         Program Version 3.0.3 - RELEASE   -
|  1> ! RI PBE def2-SVP def2-SVP/J NBO PAL2
|  2> % maxcore 2000
|  3> % output
|  4>     # printlevel mini
|  5>     print[ P_Basis ] 0
|  6>     print[ P_SCFInfo ] 1
|  7>     print[ P_SCFIterInfo ] 1
|  8>     print[ P_OrbEn ] 0
|  9>     print[ P_Cartesian ] 0
| 10> end
| 11> *xyz 0 1
| 12>  C        0.9771000000    -0.0636780000    -0.0763230000
| 13>  C        2.1727120000    -0.0027040000    -0.0993160000
| 14>  C        3.6385590000     0.0519560000    -0.1186940000
| 15>  C        4.1545960000     0.2478010000    -1.4779050000
| 16>  C        4.5843740000     0.3913220000    -2.5862490000
| 17>  C        4.1542890000     1.0663320000     0.8071450000
| 18>  C        4.5838280000     1.8809910000     1.5723650000
| 19>  H       -0.0860480000    -0.1134870000    -0.0590020000
| 20>  H        4.0053130000    -0.9245630000     0.2311550000
| 21>  H        4.9625910000     0.5252400000    -3.5721930000
| 22>  H        4.9621850000     2.6105900000     2.2488260000
| 23> *
| 24>
| 25>                          ****END OF INPUT****
 Total Charge           Charge          ....    0
 Multiplicity           Mult            ....    1
 Number of Electrons    NEL             ....   46
 Basis Dimension        Dim             ....  118

MULLIKEN ATOMIC CHARGES
-----------------------
   0 C :   -0.477216
   1 C :    0.395324
   2 C :    0.151121
   3 C :    0.399117
   4 C :   -0.483377
   5 C :    0.399917
   6 C :   -0.483040
   7 H :    0.005115
   8 H :    0.080337
   9 H :    0.006475
  10 H :    0.006228
Sum of atomic charges:   -0.0000000

LOEWDIN ATOMIC CHARGES
----------------------
   0 C :   -0.050405
   1 C :   -0.003457
   2 C :   -0.044980
   3 C :   -0.002733
   4 C :   -0.051974
   5 C :   -0.002667
   6 C :   -0.051698
   7 H :    0.039086
   8 H :    0.089655
   9 H :    0.039690
  10 H :    0.039482

  Mayer bond orders larger than 0.1
B(  0-C ,  1-C ) :   2.3734 B(  0-C ,  7-H ) :   1.1104 B(  1-C ,  2-C ) :   0.9646
B(  1-C ,  7-H ) :  -0.1199 B(  2-C ,  3-C ) :   0.9593 B(  2-C ,  5-C ) :   0.9596
B(  2-C ,  8-H ) :   0.8376 B(  3-C ,  4-C ) :   2.3756 B(  3-C ,  9-H ) :  -0.1164
B(  4-C ,  9-H ) :   1.1064 B(  5-C ,  6-C ) :   2.3739 B(  5-C , 10-H ) :  -0.1180
B(  6-C , 10-H ) :   1.1082

FINAL SINGLE POINT ENERGY      -268.361558826365

DIPOLE MOMENT
-------------
                                X             Y             Z
Electronic contribution:      0.05862      -0.15580       0.05586
Nuclear contribution   :     -0.01964       0.05069      -0.01824
                        -----------------------------------------
Total Dipole Moment    :      0.03898      -0.10511       0.03762
                        -----------------------------------------
Magnitude (a.u.)       :      0.11825
Magnitude (Debye)      :      0.30057

                             ****ORCA TERMINATED NORMALLY****
TOTAL RUN TIME: 0 days 0 hours 0 minutes 5 seconds 86 msec
