                         Program Version 3.0.3 - RELEASE   -
|  1> ! RI PBE def2-SVP def2-SVP/J NBO PAL2
|  2> % maxcore 2000
|  3> % output
|  4>     # printlevel mini
|  5>     print[ P_Basis ] 0
|  6>     print[ P_SCFInfo ] 1
|  7>     print[ P_SCFIterInfo ] 1
|  8>     print[ P_OrbEn ] 0
|  9>     print[ P_Cartesian ] 0
| 10> end
| 11> *xyz 0 1
| 12>  C        2.7971920000    -2.5885870000     1.1614340000
| 13>  C        3.1961430000    -1.5616140000     0.6863110000
| 14>  C        3.6803760000    -0.3063770000     0.1287190000
| 15>  C        4.2038600000     0.6254010000     1.1784390000
| 16>  C        5.4258440000     1.1580120000     1.1459920000
| 17>  C        5.9273370000     2.0555260000     2.1207290000
| 18>  C        6.3841750000     2.8196500000     2.9302100000
| 19>  H        2.4461420000    -3.5020720000     1.5797700000
| 20>  H        2.8524500000     0.1770510000    -0.4064060000
| 21>  H        4.4573760000    -0.5079220000    -0.6151930000
| 22>  H        3.5323780000     0.8659560000     1.9968760000
| 23>  H        6.1010400000     0.9045230000     0.3311800000
| 24>  H        6.7805850000     3.4932510000     3.6524510000
| 25> *
| 26>
| 27>                          ****END OF INPUT****
 Total Charge           Charge          ....    0
 Multiplicity           Mult            ....    1
 Number of Electrons    NEL             ....   48
 Basis Dimension        Dim             ....  128

MULLIKEN ATOMIC CHARGES
-----------------------
   0 C :   -0.460478
   1 C :    0.293723
   2 C :    0.135355
   3 C :   -0.042869
   4 C :   -0.061217
   5 C :    0.380555
   6 C :   -0.404355
   7 H :    0.001585
   8 H :    0.057303
   9 H :    0.040086
  10 H :    0.023967
  11 H :    0.028531
  12 H :    0.007814
Sum of atomic charges:   -0.0000000

LOEWDIN ATOMIC CHARGES
----------------------
   0 C :   -0.078596
   1 C :   -0.023269
   2 C :   -0.043570
   3 C :    0.012553
   4 C :   -0.054742
   5 C :   -0.019040
   6 C :   -0.061825
   7 H :    0.036033
   8 H :    0.062392
   9 H :    0.053823
  10 H :    0.036727
  11 H :    0.042936
  12 H :    0.036579

  Mayer bond orders larger than 0.1
B(  0-C ,  1-C ) :   2.3846 B(  0-C ,  7-H ) :   1.0974 B(  1-C ,  2-C ) :   1.0468
B(  1-C ,  7-H ) :  -0.1062 B(  2-C ,  3-C ) :   1.0355 B(  2-C ,  8-H ) :   0.8842
B(  2-C ,  9-H ) :   0.8960 B(  3-C ,  4-C ) :   1.8226 B(  3-C ,  6-C ) :   0.1316
B(  3-C , 10-H ) :   0.9635 B(  4-C ,  5-C ) :   1.0543 B(  4-C , 11-H ) :   0.9346
B(  5-C ,  6-C ) :   2.2828 B(  6-C , 12-H ) :   1.0860

FINAL SINGLE POINT ENERGY      -269.631127213556

DIPOLE MOMENT
-------------
                                X             Y             Z
Electronic contribution:      0.71976       0.43894       1.09142
Nuclear contribution   :     -0.81267      -0.39967      -1.29285
                        -----------------------------------------
Total Dipole Moment    :     -0.09291       0.03927      -0.20143
                        -----------------------------------------
Magnitude (a.u.)       :      0.22528
Magnitude (Debye)      :      0.57261

                             ****ORCA TERMINATED NORMALLY****
TOTAL RUN TIME: 0 days 0 hours 0 minutes 6 seconds 309 msec
