                         Program Version 3.0.3 - RELEASE   -
|  1> ! RI PBE def2-SVP def2-SVP/J NBO PAL2
|  2> % maxcore 2000
|  3> % output
|  4>     # printlevel mini
|  5>     print[ P_Basis ] 0
|  6>     print[ P_SCFInfo ] 1
|  7>     print[ P_SCFIterInfo ] 1
|  8>     print[ P_OrbEn ] 0
|  9>     print[ P_Cartesian ] 0
| 10> end
| 11> *xyz 0 1
| 12>  C        0.9681080000    -0.0704020000     0.1419160000
| 13>  C        2.1638910000    -0.0564410000     0.0667190000
| 14>  C        3.6203840000    -0.0420500000    -0.0101810000
| 15>  C        4.1271440000     0.2074950000    -1.3508470000
| 16>  C        4.5581850000     0.4136290000    -2.4583160000
| 17>  C        5.0447280000     0.6466910000    -3.7105720000
| 18>  C        5.4754840000     0.8526580000    -4.8172350000
| 19>  H       -0.0944630000    -0.0817120000     0.2032990000
| 20>  H        4.0122260000    -1.0007190000     0.3509630000
| 21>  H        4.0121380000     0.7225390000     0.6716870000
| 22>  H        5.8545740000     1.0346110000    -5.7948410000
| 23> *
| 24>
| 25>                          ****END OF INPUT****
 Total Charge           Charge          ....    0
 Multiplicity           Mult            ....    1
 Number of Electrons    NEL             ....   46
 Basis Dimension        Dim             ....  118

MULLIKEN ATOMIC CHARGES
-----------------------
   0 C :   -0.440620
   1 C :    0.289519
   2 C :    0.182179
   3 C :   -0.109270
   4 C :   -0.011398
   5 C :    0.355214
   6 C :   -0.425272
   7 H :    0.005236
   8 H :    0.067128
   9 H :    0.071761
  10 H :    0.015523
Sum of atomic charges:    0.0000000

LOEWDIN ATOMIC CHARGES
----------------------
   0 C :   -0.060670
   1 C :   -0.021000
   2 C :   -0.043023
   3 C :    0.007339
   4 C :   -0.054830
   5 C :   -0.029710
   6 C :   -0.027997
   7 H :    0.037781
   8 H :    0.075244
   9 H :    0.075974
  10 H :    0.040892

  Mayer bond orders larger than 0.1
B(  0-C ,  1-C ) :   2.4078 B(  0-C ,  7-H ) :   1.1000 B(  1-C ,  2-C ) :   1.0396
B(  1-C ,  7-H ) :  -0.1083 B(  2-C ,  3-C ) :   1.0388 B(  2-C ,  8-H ) :   0.8688
B(  2-C ,  9-H ) :   0.8707 B(  3-C ,  4-C ) :   2.4238 B(  3-C ,  6-C ) :   0.2622
B(  4-C ,  5-C ) :   0.9436 B(  5-C ,  6-C ) :   2.1516 B(  5-C , 10-H ) :  -0.1030
B(  6-C , 10-H ) :   1.0918

FINAL SINGLE POINT ENERGY      -268.394279372425

DIPOLE MOMENT
-------------
                                X             Y             Z
Electronic contribution:      0.98800       0.33752      -1.81135
Nuclear contribution   :     -0.93877      -0.39433       2.11940
                        -----------------------------------------
Total Dipole Moment    :      0.04922      -0.05681       0.30805
                        -----------------------------------------
Magnitude (a.u.)       :      0.31709
Magnitude (Debye)      :      0.80598

                             ****ORCA TERMINATED NORMALLY****
TOTAL RUN TIME: 0 days 0 hours 0 minutes 4 seconds 460 msec
