                         Program Version 3.0.3 - RELEASE   -
|  1> ! RI PBE def2-SVP def2-SVP/J NBO PAL2
|  2> % maxcore 2000
|  3> % output
|  4>     # printlevel mini
|  5>     print[ P_Basis ] 0
|  6>     print[ P_SCFInfo ] 1
|  7>     print[ P_SCFIterInfo ] 1
|  8>     print[ P_OrbEn ] 0
|  9>     print[ P_Cartesian ] 0
| 10> end
| 11> *xyz 0 1
| 12>  C        0.9964540000    -0.0108670000    -0.1330820000
| 13>  C        2.1964320000    -0.0262660000    -0.1046480000
| 14>  C        3.6474570000    -0.0580260000    -0.0484820000
| 15>  C        4.1799360000    -0.7806030000     1.1883200000
| 16>  C        5.7078990000    -0.7927670000     1.2111200000
| 17>  C        6.2512730000    -1.4722540000     2.3741680000
| 18>  C        6.6806840000    -2.0378180000     3.3420210000
| 19>  H       -0.0672020000     0.0053740000    -0.1619680000
| 20>  H        4.0283840000     0.9696360000    -0.0687170000
| 21>  H        4.0295090000    -0.5441990000    -0.9536210000
| 22>  H        3.8038650000    -1.8060620000     1.2053520000
| 23>  H        3.8026970000    -0.2927580000     2.0899740000
| 24>  H        6.0860210000     0.2358980000     1.1892110000
| 25>  H        6.0871750000    -1.2779150000     0.3042670000
| 26>  H        7.0656150000    -2.5390720000     4.1981950000
| 27> *
| 28>
| 29>                          ****END OF INPUT****
 Total Charge           Charge          ....    0
 Multiplicity           Mult            ....    1
 Number of Electrons    NEL             ....   50
 Basis Dimension        Dim             ....  138

MULLIKEN ATOMIC CHARGES
-----------------------
   0 C :   -0.503013
   1 C :    0.355025
   2 C :    0.088543
   3 C :   -0.089402
   4 C :    0.104592
   5 C :    0.347152
   6 C :   -0.505581
   7 H :   -0.002495
   8 H :    0.033207
   9 H :    0.032787
  10 H :    0.039968
  11 H :    0.038668
  12 H :    0.032242
  13 H :    0.029691
  14 H :   -0.001383
Sum of atomic charges:   -0.0000000

LOEWDIN ATOMIC CHARGES
----------------------
   0 C :   -0.087412
   1 C :   -0.021558
   2 C :   -0.046842
   3 C :   -0.018006
   4 C :   -0.045944
   5 C :   -0.022140
   6 C :   -0.087532
   7 H :    0.033800
   8 H :    0.048038
   9 H :    0.047870
  10 H :    0.035160
  11 H :    0.034997
  12 H :    0.047714
  13 H :    0.047415
  14 H :    0.034441

  Mayer bond orders larger than 0.1
B(  0-C ,  1-C ) :   2.3269 B(  0-C ,  7-H ) :   1.1048 B(  1-C ,  2-C ) :   1.0615
B(  1-C ,  7-H ) :  -0.1137 B(  2-C ,  3-C ) :   1.0721 B(  2-C ,  8-H ) :   0.8915
B(  2-C ,  9-H ) :   0.8937 B(  3-C ,  4-C ) :   1.0713 B(  3-C , 10-H ) :   0.9421
B(  3-C , 11-H ) :   0.9422 B(  4-C ,  5-C ) :   1.0623 B(  4-C , 12-H ) :   0.8919
B(  4-C , 13-H ) :   0.8903 B(  5-C ,  6-C ) :   2.3284 B(  5-C , 14-H ) :  -0.1099
B(  6-C , 14-H ) :   1.1006

FINAL SINGLE POINT ENERGY      -270.847670086913

DIPOLE MOMENT
-------------
                                X             Y             Z
Electronic contribution:     -0.66423      -0.47381       0.81592
Nuclear contribution   :      0.80365       0.57297      -0.98038
                        -----------------------------------------
Total Dipole Moment    :      0.13942       0.09916      -0.16446
                        -----------------------------------------
Magnitude (a.u.)       :      0.23731
Magnitude (Debye)      :      0.60320

                             ****ORCA TERMINATED NORMALLY****
TOTAL RUN TIME: 0 days 0 hours 0 minutes 6 seconds 464 msec
