                         Program Version 3.0.3 - RELEASE   -
|  1> ! RI PBE def2-SVP def2-SVP/J NBO PAL2
|  2> % maxcore 2000
|  3> % output
|  4>     # printlevel mini
|  5>     print[ P_Basis ] 0
|  6>     print[ P_SCFInfo ] 1
|  7>     print[ P_SCFIterInfo ] 1
|  8>     print[ P_OrbEn ] 0
|  9>     print[ P_Cartesian ] 0
| 10> end
| 11> *xyz 0 1
| 12>  C        1.0671110000     1.0057190000    -0.5868940000
| 13>  C        2.3691540000     0.4858280000    -0.0900750000
| 14>  C        2.6860580000    -0.7765360000     0.2524720000
| 15>  C        1.7134860000    -1.8665740000     0.2482000000
| 16>  C        2.0040790000    -3.1578450000     0.4061850000
| 17>  C        4.0563540000    -1.0901980000     0.6905630000
| 18>  C        5.1672530000    -0.6592590000     0.1024710000
| 19>  H        1.1960730000     1.4638240000    -1.5736170000
| 20>  H        0.6900840000     1.7960840000     0.0706420000
| 21>  H        0.2966150000     0.2415950000    -0.6774490000
| 22>  H        3.1575470000     1.2281570000     0.0076780000
| 23>  H        0.6731230000    -1.5916650000     0.1075580000
| 24>  H        3.0221620000    -3.5083650000     0.5332610000
| 25>  H        1.2238940000    -3.9094180000     0.4003050000
| 26>  H        4.1404210000    -1.7327080000     1.5647860000
| 27>  H        5.1350430000    -0.0589470000    -0.8007250000
| 28>  H        6.1453340000    -0.9014830000     0.5016410000
| 29> *
| 30>
| 31>                          ****END OF INPUT****
 Total Charge           Charge          ....    0
 Multiplicity           Mult            ....    1
 Number of Electrons    NEL             ....   52
 Basis Dimension        Dim             ....  148

MULLIKEN ATOMIC CHARGES
-----------------------
   0 C :    0.046051
   1 C :   -0.146796
   2 C :    0.051269
   3 C :   -0.035371
   4 C :   -0.028339
   5 C :   -0.042321
   6 C :   -0.034220
   7 H :    0.036872
   8 H :    0.039043
   9 H :    0.025015
  10 H :    0.001277
  11 H :   -0.015315
  12 H :    0.018783
  13 H :    0.024609
  14 H :    0.013246
  15 H :    0.022567
  16 H :    0.023629
Sum of atomic charges:    0.0000000

LOEWDIN ATOMIC CHARGES
----------------------
   0 C :   -0.067995
   1 C :   -0.017581
   2 C :   -0.051632
   3 C :   -0.029656
   4 C :   -0.051847
   5 C :   -0.020077
   6 C :   -0.051773
   7 H :    0.043365
   8 H :    0.041032
   9 H :    0.029775
  10 H :    0.026458
  11 H :    0.025783
  12 H :    0.021799
  13 H :    0.025680
  14 H :    0.029755
  15 H :    0.022516
  16 H :    0.024398

  Mayer bond orders larger than 0.1
B(  0-C ,  1-C ) :   1.1058 B(  0-C ,  7-H ) :   0.9345 B(  0-C ,  8-H ) :   0.9403
B(  0-C ,  9-H ) :   0.9496 B(  1-C ,  2-C ) :   1.7569 B(  1-C ,  4-C ) :   0.1219
B(  1-C , 10-H ) :   0.9426 B(  2-C ,  3-C ) :   1.1117 B(  2-C ,  5-C ) :   1.0332
B(  3-C ,  4-C ) :   1.9113 B(  3-C , 11-H ) :   0.9511 B(  4-C , 12-H ) :   0.9362
B(  4-C , 13-H ) :   0.9401 B(  5-C ,  6-C ) :   1.9647 B(  5-C , 14-H ) :   0.9382
B(  6-C , 15-H ) :   0.9492 B(  6-C , 16-H ) :   0.9437

FINAL SINGLE POINT ENERGY      -272.125467840175

DIPOLE MOMENT
-------------
                                X             Y             Z
Electronic contribution:      1.13430      -1.20356       1.04251
Nuclear contribution   :     -1.30123       1.40958      -1.11188
                        -----------------------------------------
Total Dipole Moment    :     -0.16694       0.20602      -0.06937
                        -----------------------------------------
Magnitude (a.u.)       :      0.27409
Magnitude (Debye)      :      0.69668

                             ****ORCA TERMINATED NORMALLY****
TOTAL RUN TIME: 0 days 0 hours 0 minutes 7 seconds 607 msec
