                         Program Version 3.0.3 - RELEASE   -
|  1> ! RI PBE def2-SVP def2-SVP/J NBO PAL2
|  2> % maxcore 2000
|  3> % output
|  4>     # printlevel mini
|  5>     print[ P_Basis ] 0
|  6>     print[ P_SCFInfo ] 1
|  7>     print[ P_SCFIterInfo ] 1
|  8>     print[ P_OrbEn ] 0
|  9>     print[ P_Cartesian ] 0
| 10> end
| 11> *xyz 0 1
| 12>  C        1.0621780000    -0.0756510000    -0.5182520000
| 13>  C        2.5260810000    -0.1859050000    -0.2934310000
| 14>  C        3.1625850000    -0.7081700000     0.7744790000
| 15>  C        2.4806460000    -1.2763410000     1.9369460000
| 16>  C        3.0915890000    -1.7957910000     2.9991750000
| 17>  C        4.5912380000    -0.7120400000     0.7818470000
| 18>  C        5.7936790000    -0.7244640000     0.8068590000
| 19>  H        0.7796950000     0.9720830000    -0.6666170000
| 20>  H        0.4610940000    -0.4741390000     0.2970580000
| 21>  H        0.7793400000    -0.6019180000    -1.4361840000
| 22>  H        3.1534510000     0.2034940000    -1.0901340000
| 23>  H        1.3967730000    -1.2633530000     1.9108660000
| 24>  H        4.1730330000    -1.8301220000     3.0689130000
| 25>  H        2.5213610000    -2.2001150000     3.8264390000
| 26>  H        6.8577770000    -0.7295180000     0.8178170000
| 27> *
| 28>
| 29>                          ****END OF INPUT****
 Total Charge           Charge          ....    0
 Multiplicity           Mult            ....    1
 Number of Electrons    NEL             ....   50
 Basis Dimension        Dim             ....  138

MULLIKEN ATOMIC CHARGES
-----------------------
   0 C :    0.048637
   1 C :   -0.117511
   2 C :    0.012917
   3 C :   -0.013686
   4 C :   -0.014084
   5 C :    0.393065
   6 C :   -0.463692
   7 H :    0.041197
   8 H :    0.028222
   9 H :    0.040235
  10 H :    0.007384
  11 H :   -0.016839
  12 H :    0.032176
  13 H :    0.021173
  14 H :    0.000804
Sum of atomic charges:   -0.0000000

LOEWDIN ATOMIC CHARGES
----------------------
   0 C :   -0.063908
   1 C :   -0.000388
   2 C :   -0.064235
   3 C :   -0.027254
   4 C :   -0.038302
   5 C :   -0.001221
   6 C :   -0.075728
   7 H :    0.044514
   8 H :    0.031050
   9 H :    0.044545
  10 H :    0.033365
  11 H :    0.027658
  12 H :    0.028838
  13 H :    0.026315
  14 H :    0.034753

  Mayer bond orders larger than 0.1
B(  0-C ,  1-C ) :   1.1019 B(  0-C ,  7-H ) :   0.9379 B(  0-C ,  8-H ) :   0.9521
B(  0-C ,  9-H ) :   0.9368 B(  1-C ,  2-C ) :   1.7381 B(  1-C ,  4-C ) :   0.1258
B(  1-C ,  6-C ) :   0.1037 B(  1-C , 10-H ) :   0.9443 B(  2-C ,  3-C ) :   1.1097
B(  2-C ,  5-C ) :   0.9747 B(  3-C ,  4-C ) :   1.9144 B(  3-C , 11-H ) :   0.9528
B(  4-C , 12-H ) :   0.9322 B(  4-C , 13-H ) :   0.9362 B(  5-C ,  6-C ) :   2.2792
B(  5-C , 14-H ) :  -0.1092 B(  6-C , 14-H ) :   1.0994

FINAL SINGLE POINT ENERGY      -270.885062627553

DIPOLE MOMENT
-------------
                                X             Y             Z
Electronic contribution:      4.62785      -0.19707       0.40000
Nuclear contribution   :     -4.99043       0.28884      -0.58749
                        -----------------------------------------
Total Dipole Moment    :     -0.36258       0.09176      -0.18749
                        -----------------------------------------
Magnitude (a.u.)       :      0.41837
Magnitude (Debye)      :      1.06341

                             ****ORCA TERMINATED NORMALLY****
TOTAL RUN TIME: 0 days 0 hours 0 minutes 6 seconds 723 msec
