                         Program Version 3.0.3 - RELEASE   -
|  1> ! RI PBE def2-SVP def2-SVP/J NBO PAL2
|  2> % maxcore 2000
|  3> % output
|  4>     # printlevel mini
|  5>     print[ P_Basis ] 0
|  6>     print[ P_SCFInfo ] 1
|  7>     print[ P_SCFIterInfo ] 1
|  8>     print[ P_OrbEn ] 0
|  9>     print[ P_Cartesian ] 0
| 10> end
| 11> *xyz 0 1
| 12>  C        0.8889660000    -0.2606890000     0.1200010000
| 13>  C        2.3638220000    -0.0868790000     0.2624630000
| 14>  C        3.0324770000     0.7965790000     1.0068620000
| 15>  C        2.3742580000     1.8239310000     1.8765900000
| 16>  C        4.5467150000     0.7871820000     0.9944650000
| 17>  C        5.1311480000     2.0898510000     0.4508620000
| 18>  C        5.1367240000     0.4690140000     2.3672990000
| 19>  H        0.5836900000    -0.1395980000    -0.9247150000
| 20>  H        0.3114860000     0.4442070000     0.7174470000
| 21>  H        0.5877150000    -1.2714890000     0.4146540000
| 22>  H        2.9605500000    -0.7822680000    -0.3268370000
| 23>  H        1.2878530000     1.7709360000     1.8357860000
| 24>  H        2.6670670000     2.8361510000     1.5815730000
| 25>  H        2.6719360000     1.7040050000     2.9227060000
| 26>  H        4.8466010000    -0.0171160000     0.3133540000
| 27>  H        4.9246510000     2.9319390000     1.1168950000
| 28>  H        4.7215380000     2.3282420000    -0.5334770000
| 29>  H        6.2174050000     2.0103510000     0.3563380000
| 30>  H        4.9298400000     1.2646780000     3.0880390000
| 31>  H        6.2231370000     0.3663580000     2.3010500000
| 32>  H        4.7316230000    -0.4636060000     2.7668550000
| 33> *
| 34>
| 35>                          ****END OF INPUT****
 Total Charge           Charge          ....    0
 Multiplicity           Mult            ....    1
 Number of Electrons    NEL             ....   56
 Basis Dimension        Dim             ....  168

MULLIKEN ATOMIC CHARGES
-----------------------
   0 C :    0.055662
   1 C :   -0.135213
   2 C :   -0.115789
   3 C :    0.057337
   4 C :   -0.094306
   5 C :    0.012972
   6 C :    0.008761
   7 H :    0.026396
   8 H :    0.011945
   9 H :    0.025117
  10 H :   -0.019212
  11 H :    0.010310
  12 H :    0.023633
  13 H :    0.027692
  14 H :   -0.004488
  15 H :    0.017170
  16 H :    0.017514
  17 H :    0.018588
  18 H :    0.019807
  19 H :    0.019507
  20 H :    0.016597
Sum of atomic charges:   -0.0000000

LOEWDIN ATOMIC CHARGES
----------------------
   0 C :   -0.068151
   1 C :   -0.062711
   2 C :   -0.038427
   3 C :   -0.061926
   4 C :   -0.039482
   5 C :   -0.058001
   6 C :   -0.058807
   7 H :    0.035299
   8 H :    0.026171
   9 H :    0.035206
  10 H :    0.019048
  11 H :    0.027922
  12 H :    0.034393
  13 H :    0.035061
  14 H :    0.026456
  15 H :    0.021232
  16 H :    0.026284
  17 H :    0.026290
  18 H :    0.021591
  19 H :    0.026457
  20 H :    0.026095

  Mayer bond orders larger than 0.1
B(  0-C ,  1-C ) :   1.0940 B(  0-C ,  7-H ) :   0.9438 B(  0-C ,  8-H ) :   0.9529
B(  0-C ,  9-H ) :   0.9427 B(  1-C ,  2-C ) :   1.9002 B(  1-C , 10-H ) :   0.9340
B(  2-C ,  3-C ) :   1.0930 B(  2-C ,  4-C ) :   1.0360 B(  3-C , 11-H ) :   0.9404
B(  3-C , 12-H ) :   0.9363 B(  3-C , 13-H ) :   0.9364 B(  4-C ,  5-C ) :   1.0731
B(  4-C ,  6-C ) :   1.0722 B(  4-C , 14-H ) :   0.8972 B(  5-C , 15-H ) :   0.9580
B(  5-C , 16-H ) :   0.9589 B(  5-C , 17-H ) :   0.9583 B(  6-C , 18-H ) :   0.9579
B(  6-C , 19-H ) :   0.9582 B(  6-C , 20-H ) :   0.9596

FINAL SINGLE POINT ENERGY      -274.564448504953

DIPOLE MOMENT
-------------
                                X             Y             Z
Electronic contribution:     -0.60271      -1.36291      -1.15228
Nuclear contribution   :      0.57589       1.40168       1.18298
                        -----------------------------------------
Total Dipole Moment    :     -0.02682       0.03877       0.03070
                        -----------------------------------------
Magnitude (a.u.)       :      0.05625
Magnitude (Debye)      :      0.14299

                             ****ORCA TERMINATED NORMALLY****
TOTAL RUN TIME: 0 days 0 hours 0 minutes 8 seconds 969 msec
