                         Program Version 3.0.3 - RELEASE   -
|  1> ! RI PBE def2-SVP def2-SVP/J NBO PAL2
|  2> % maxcore 2000
|  3> % output
|  4>     # printlevel mini
|  5>     print[ P_Basis ] 0
|  6>     print[ P_SCFInfo ] 1
|  7>     print[ P_SCFIterInfo ] 1
|  8>     print[ P_OrbEn ] 0
|  9>     print[ P_Cartesian ] 0
| 10> end
| 11> *xyz 0 1
| 12>  C        0.9777690000     0.1302310000    -0.2412140000
| 13>  C        2.4505160000     0.3406290000    -0.1743440000
| 14>  C        3.1668420000     0.9528080000     0.7811730000
| 15>  C        2.5425810000     1.5548790000     2.0041620000
| 16>  C        4.6330680000     1.0561330000     0.6556310000
| 17>  C        5.3053210000     0.4686440000    -0.5512010000
| 18>  C        5.3765180000     1.6597570000     1.5897770000
| 19>  H        0.7464280000    -0.9385300000    -0.3055550000
| 20>  H        0.5667860000     0.5867210000    -1.1481960000
| 21>  H        0.4356060000     0.5372570000     0.6111330000
| 22>  H        2.9916410000    -0.0649100000    -1.0238770000
| 23>  H        1.4615160000     1.4345380000     2.0164850000
| 24>  H        2.7590280000     2.6251650000     2.0673230000
| 25>  H        2.9391490000     1.0936730000     2.9132150000
| 26>  H        4.9423260000     0.9261890000    -1.4760150000
| 27>  H        5.1230480000    -0.6070530000    -0.6289560000
| 28>  H        6.3828880000     0.6250270000    -0.4980260000
| 29>  H        4.9500410000     2.1017240000     2.4807300000
| 30>  H        6.4530250000     1.7273290000     1.4825630000
| 31> *
| 32>
| 33>                          ****END OF INPUT****
 Total Charge           Charge          ....    0
 Multiplicity           Mult            ....    1
 Number of Electrons    NEL             ....   54
 Basis Dimension        Dim             ....  158

MULLIKEN ATOMIC CHARGES
-----------------------
   0 C :    0.064449
   1 C :   -0.185846
   2 C :   -0.032891
   3 C :    0.049016
   4 C :   -0.109568
   5 C :    0.063708
   6 C :   -0.071697
   7 H :    0.030657
   8 H :    0.028460
   9 H :    0.015505
  10 H :   -0.015879
  11 H :    0.006763
  12 H :    0.035734
  13 H :    0.030548
  14 H :    0.030339
  15 H :    0.035298
  16 H :    0.014473
  17 H :    0.002647
  18 H :    0.008285
Sum of atomic charges:   -0.0000000

LOEWDIN ATOMIC CHARGES
----------------------
   0 C :   -0.065034
   1 C :   -0.040785
   2 C :   -0.043047
   3 C :   -0.058839
   4 C :   -0.027076
   5 C :   -0.058198
   6 C :   -0.071036
   7 H :    0.038784
   8 H :    0.038619
   9 H :    0.026761
  10 H :    0.021867
  11 H :    0.026738
  12 H :    0.037125
  13 H :    0.036286
  14 H :    0.034591
  15 H :    0.035420
  16 H :    0.031401
  17 H :    0.016916
  18 H :    0.019508

  Mayer bond orders larger than 0.1
B(  0-C ,  1-C ) :   1.0968 B(  0-C ,  7-H ) :   0.9394 B(  0-C ,  8-H ) :   0.9385
B(  0-C ,  9-H ) :   0.9524 B(  1-C ,  2-C ) :   1.8100 B(  1-C ,  6-C ) :   0.1333
B(  1-C , 10-H ) :   0.9207 B(  2-C ,  3-C ) :   1.1272 B(  2-C ,  4-C ) :   1.0864
B(  3-C , 11-H ) :   0.9387 B(  3-C , 12-H ) :   0.9306 B(  3-C , 13-H ) :   0.9298
B(  4-C ,  5-C ) :   1.1102 B(  4-C ,  6-C ) :   1.9051 B(  5-C , 14-H ) :   0.9301
B(  5-C , 15-H ) :   0.9306 B(  5-C , 16-H ) :   0.9446 B(  6-C , 17-H ) :   0.9208
B(  6-C , 18-H ) :   0.9309

FINAL SINGLE POINT ENERGY      -273.351478012528

DIPOLE MOMENT
-------------
                                X             Y             Z
Electronic contribution:      1.55690       0.33029       0.26392
Nuclear contribution   :     -1.77756      -0.42498      -0.39041
                        -----------------------------------------
Total Dipole Moment    :     -0.22067      -0.09469      -0.12649
                        -----------------------------------------
Magnitude (a.u.)       :      0.27140
Magnitude (Debye)      :      0.68985

                             ****ORCA TERMINATED NORMALLY****
TOTAL RUN TIME: 0 days 0 hours 0 minutes 8 seconds 512 msec
