                         Program Version 3.0.3 - RELEASE   -
|  1> ! RI PBE def2-SVP def2-SVP/J NBO PAL2
|  2> % maxcore 2000
|  3> % output
|  4>     # printlevel mini
|  5>     print[ P_Basis ] 0
|  6>     print[ P_SCFInfo ] 1
|  7>     print[ P_SCFIterInfo ] 1
|  8>     print[ P_OrbEn ] 0
|  9>     print[ P_Cartesian ] 0
| 10> end
| 11> *xyz 0 1
| 12>  C        1.0183380000    -0.1512830000    -0.0331750000
| 13>  C        2.5088350000    -0.0347440000    -0.0818150000
| 14>  C        3.1951550000     1.0509560000    -0.4657480000
| 15>  C        2.5483110000     2.3307790000    -0.9106490000
| 16>  C        4.6204960000     1.0411260000    -0.4696130000
| 17>  C        5.8255600000     1.0832740000    -0.4905170000
| 18>  C        7.2748260000     1.1140730000    -0.5086980000
| 19>  H        0.7176650000    -1.1409350000     0.3116230000
| 20>  H        0.5628310000     0.0051600000    -1.0159410000
| 21>  H        0.5721470000     0.5814180000     0.6464780000
| 22>  H        3.0840170000    -0.9043450000     0.2199760000
| 23>  H        1.4607760000     2.2674700000    -0.8837430000
| 24>  H        2.8563640000     2.5806010000    -1.9296690000
| 25>  H        2.8634930000     3.1604300000    -0.2718420000
| 26>  H        7.6854230000     0.9096190000     0.4838850000
| 27>  H        7.6431610000     2.0921750000    -0.8283810000
| 28>  H        7.6760230000     0.3642450000    -1.1960610000
| 29> *
| 30>
| 31>                          ****END OF INPUT****
 Total Charge           Charge          ....    0
 Multiplicity           Mult            ....    1
 Number of Electrons    NEL             ....   52
 Basis Dimension        Dim             ....  148

MULLIKEN ATOMIC CHARGES
-----------------------
   0 C :    0.029165
   1 C :   -0.097952
   2 C :   -0.169469
   3 C :    0.075184
   4 C :    0.007527
   5 C :   -0.213192
   6 C :    0.056949
   7 H :    0.018688
   8 H :    0.039788
   9 H :    0.041814
  10 H :   -0.004166
  11 H :    0.011370
  12 H :    0.031406
  13 H :    0.034136
  14 H :    0.046307
  15 H :    0.044031
  16 H :    0.048415
Sum of atomic charges:   -0.0000000

LOEWDIN ATOMIC CHARGES
----------------------
   0 C :   -0.072371
   1 C :   -0.032761
   2 C :   -0.060889
   3 C :   -0.049820
   4 C :   -0.052060
   5 C :   -0.061601
   6 C :   -0.067685
   7 H :    0.033129
   8 H :    0.038257
   9 H :    0.038550
  10 H :    0.027742
  11 H :    0.028260
  12 H :    0.040317
  13 H :    0.040675
  14 H :    0.050180
  15 H :    0.049484
  16 H :    0.050591

  Mayer bond orders larger than 0.1
B(  0-C ,  1-C ) :   1.0744 B(  0-C ,  7-H ) :   0.9526 B(  0-C ,  8-H ) :   0.9486
B(  0-C ,  9-H ) :   0.9487 B(  1-C ,  2-C ) :   1.8326 B(  1-C ,  5-C ) :   0.1145
B(  1-C , 10-H ) :   0.9421 B(  2-C ,  3-C ) :   1.0953 B(  2-C ,  4-C ) :   1.0245
B(  3-C , 11-H ) :   0.9387 B(  3-C , 12-H ) :   0.9416 B(  3-C , 13-H ) :   0.9421
B(  4-C ,  5-C ) :   2.4837 B(  5-C ,  6-C ) :   1.1352 B(  6-C , 14-H ) :   0.9318
B(  6-C , 15-H ) :   0.9320 B(  6-C , 16-H ) :   0.9317

FINAL SINGLE POINT ENERGY      -272.114840415250

DIPOLE MOMENT
-------------
                                X             Y             Z
Electronic contribution:      2.91790      -0.54155       0.17448
Nuclear contribution   :     -2.87966       0.60665      -0.19670
                        -----------------------------------------
Total Dipole Moment    :      0.03824       0.06510      -0.02222
                        -----------------------------------------
Magnitude (a.u.)       :      0.07870
Magnitude (Debye)      :      0.20004

                             ****ORCA TERMINATED NORMALLY****
TOTAL RUN TIME: 0 days 0 hours 0 minutes 7 seconds 544 msec
