                         Program Version 3.0.3 - RELEASE   -
|  1> ! RI PBE def2-SVP def2-SVP/J NBO PAL2
|  2> % maxcore 2000
|  3> % output
|  4>     # printlevel mini
|  5>     print[ P_Basis ] 0
|  6>     print[ P_SCFInfo ] 1
|  7>     print[ P_SCFIterInfo ] 1
|  8>     print[ P_OrbEn ] 0
|  9>     print[ P_Cartesian ] 0
| 10> end
| 11> *xyz 0 1
| 12>  C        0.7738690000     0.1615860000    -0.3489710000
| 13>  C        2.2543000000     0.0305890000    -0.2366800000
| 14>  C        2.9501970000    -0.9126950000     0.3966640000
| 15>  C        2.3696160000    -2.0658090000     1.1486550000
| 16>  C        4.4621430000    -0.8682840000     0.3668360000
| 17>  C        5.0681760000    -0.7563650000     1.6871410000
| 18>  C        5.5599930000    -0.6616890000     2.7783660000
| 19>  H        0.4381010000     1.1135640000     0.0749200000
| 20>  H        0.2334980000    -0.6377400000     0.1572590000
| 21>  H        0.4639590000     0.1626890000    -1.3990130000
| 22>  H        2.8226670000     0.8125220000    -0.7379770000
| 23>  H        1.2811660000    -2.0610730000     1.1569190000
| 24>  H        2.7207530000    -2.0593400000     2.1848290000
| 25>  H        2.7012660000    -3.0145800000     0.7122070000
| 26>  H        4.7957530000    -0.0305200000    -0.2521010000
| 27>  H        4.8441110000    -1.7816350000    -0.1086780000
| 28>  H        5.9993310000    -0.5746320000     3.7436430000
| 29> *
| 30>
| 31>                          ****END OF INPUT****
 Total Charge           Charge          ....    0
 Multiplicity           Mult            ....    1
 Number of Electrons    NEL             ....   52
 Basis Dimension        Dim             ....  148

MULLIKEN ATOMIC CHARGES
-----------------------
   0 C :    0.054064
   1 C :   -0.128669
   2 C :   -0.164639
   3 C :    0.077826
   4 C :    0.141290
   5 C :    0.311844
   6 C :   -0.487246
   7 H :    0.030094
   8 H :    0.015912
   9 H :    0.028641
  10 H :   -0.015141
  11 H :    0.014555
  12 H :    0.038871
  13 H :    0.017698
  14 H :    0.030474
  15 H :    0.038839
  16 H :   -0.004414
Sum of atomic charges:    0.0000000

LOEWDIN ATOMIC CHARGES
----------------------
   0 C :   -0.065495
   1 C :   -0.054928
   2 C :   -0.038310
   3 C :   -0.058396
   4 C :   -0.036496
   5 C :   -0.018244
   6 C :   -0.094542
   7 H :    0.037922
   8 H :    0.028008
   9 H :    0.036891
  10 H :    0.021570
  11 H :    0.028241
  12 H :    0.041802
  13 H :    0.035788
  14 H :    0.050425
  15 H :    0.052375
  16 H :    0.033390

  Mayer bond orders larger than 0.1
B(  0-C ,  1-C ) :   1.0990 B(  0-C ,  7-H ) :   0.9425 B(  0-C ,  8-H ) :   0.9550
B(  0-C ,  9-H ) :   0.9434 B(  1-C ,  2-C ) :   1.9048 B(  1-C , 10-H ) :   0.9330
B(  2-C ,  3-C ) :   1.1021 B(  2-C ,  4-C ) :   1.0409 B(  3-C , 11-H ) :   0.9454
B(  3-C , 12-H ) :   0.9320 B(  3-C , 13-H ) :   0.9339 B(  4-C ,  5-C ) :   1.0463
B(  4-C , 14-H ) :   0.8902 B(  4-C , 15-H ) :   0.8876 B(  5-C ,  6-C ) :   2.3542
B(  5-C , 16-H ) :  -0.1108 B(  6-C , 16-H ) :   1.1019

FINAL SINGLE POINT ENERGY      -272.098440043551

DIPOLE MOMENT
-------------
                                X             Y             Z
Electronic contribution:      5.77397       0.62689       2.09375
Nuclear contribution   :     -6.01721      -0.69036      -2.29733
                        -----------------------------------------
Total Dipole Moment    :     -0.24324      -0.06347      -0.20358
                        -----------------------------------------
Magnitude (a.u.)       :      0.32348
Magnitude (Debye)      :      0.82221

                             ****ORCA TERMINATED NORMALLY****
TOTAL RUN TIME: 0 days 0 hours 0 minutes 7 seconds 586 msec
