                         Program Version 3.0.3 - RELEASE   -
|  1> ! RI PBE def2-SVP def2-SVP/J NBO PAL2
|  2> % maxcore 2000
|  3> % output
|  4>     # printlevel mini
|  5>     print[ P_Basis ] 0
|  6>     print[ P_SCFInfo ] 1
|  7>     print[ P_SCFIterInfo ] 1
|  8>     print[ P_OrbEn ] 0
|  9>     print[ P_Cartesian ] 0
| 10> end
| 11> *xyz 0 1
| 12>  C        1.0089020000    -0.0316570000     0.0541050000
| 13>  C        2.4930710000     0.0390710000    -0.0165030000
| 14>  C        3.1769650000     0.8547140000    -0.8425480000
| 15>  C        2.5017120000     1.7367400000    -1.7371070000
| 16>  C        1.9236110000     2.4768850000    -2.4879610000
| 17>  C        4.6033510000     0.8729870000    -0.8602250000
| 18>  C        5.8047560000     0.8992830000    -0.8861190000
| 19>  H        0.6808310000    -0.7617720000     0.7930930000
| 20>  H        0.5815300000    -0.3055440000    -0.9153670000
| 21>  H        0.5807790000     0.9408570000     0.3157790000
| 22>  H        3.0761750000    -0.6033350000     0.6349090000
| 23>  H        1.4191440000     3.1346570000    -3.1555540000
| 24>  H        6.8685020000     0.9206850000    -0.9069930000
| 25> *
| 26>
| 27>                          ****END OF INPUT****
 Total Charge           Charge          ....    0
 Multiplicity           Mult            ....    1
 Number of Electrons    NEL             ....   48
 Basis Dimension        Dim             ....  128

MULLIKEN ATOMIC CHARGES
-----------------------
   0 C :    0.063296
   1 C :   -0.082523
   2 C :   -0.076358
   3 C :    0.440839
   4 C :   -0.482280
   5 C :    0.455445
   6 C :   -0.466670
   7 H :    0.030389
   8 H :    0.050966
   9 H :    0.050962
  10 H :    0.004657
  11 H :    0.006851
  12 H :    0.004425
Sum of atomic charges:   -0.0000000

LOEWDIN ATOMIC CHARGES
----------------------
   0 C :   -0.065899
   1 C :    0.018036
   2 C :   -0.080072
   3 C :    0.001251
   4 C :   -0.056368
   5 C :   -0.001287
   6 C :   -0.059143
   7 H :    0.035784
   8 H :    0.049120
   9 H :    0.049125
  10 H :    0.034926
  11 H :    0.037971
  12 H :    0.036556

  Mayer bond orders larger than 0.1
B(  0-C ,  1-C ) :   1.0952 B(  0-C ,  7-H ) :   0.9533 B(  0-C ,  8-H ) :   0.9355
B(  0-C ,  9-H ) :   0.9356 B(  1-C ,  2-C ) :   1.7427 B(  1-C ,  4-C ) :   0.1149
B(  1-C ,  6-C ) :   0.1131 B(  1-C , 10-H ) :   0.9476 B(  2-C ,  3-C ) :   0.9895
B(  2-C ,  5-C ) :   1.0013 B(  3-C ,  4-C ) :   2.2363 B(  3-C , 11-H ) :  -0.1097
B(  4-C , 11-H ) :   1.0994 B(  5-C ,  6-C ) :   2.2527 B(  5-C , 12-H ) :  -0.1100
B(  6-C , 12-H ) :   1.1004

FINAL SINGLE POINT ENERGY      -269.636760401113

DIPOLE MOMENT
-------------
                                X             Y             Z
Electronic contribution:      4.23567       2.07574      -2.10027
Nuclear contribution   :     -4.57933      -2.22672       2.25296
                        -----------------------------------------
Total Dipole Moment    :     -0.34366      -0.15098       0.15269
                        -----------------------------------------
Magnitude (a.u.)       :      0.40523
Magnitude (Debye)      :      1.03000

                             ****ORCA TERMINATED NORMALLY****
TOTAL RUN TIME: 0 days 0 hours 0 minutes 6 seconds 63 msec
