                         Program Version 3.0.3 - RELEASE   -
|  1> ! RI PBE def2-SVP def2-SVP/J NBO PAL2
|  2> % maxcore 2000
|  3> % output
|  4>     # printlevel mini
|  5>     print[ P_Basis ] 0
|  6>     print[ P_SCFInfo ] 1
|  7>     print[ P_SCFIterInfo ] 1
|  8>     print[ P_OrbEn ] 0
|  9>     print[ P_Cartesian ] 0
| 10> end
| 11> *xyz 0 1
| 12>  C        0.7415870000    -0.8181200000    -0.6346070000
| 13>  C        2.2234070000    -0.7360520000    -0.5296830000
| 14>  C        3.0140990000    -1.7012570000    -0.0512220000
| 15>  C        4.4533810000    -1.5913950000     0.0380570000
| 16>  C        5.3170740000    -2.5070600000     0.5026300000
| 17>  C        4.9262290000    -3.8508660000     1.0285540000
| 18>  C        6.7866460000    -2.2305040000     0.5249660000
| 19>  H        0.4091820000    -0.6964560000    -1.6712450000
| 20>  H        0.2576550000    -0.0214100000    -0.0593030000
| 21>  H        0.3670250000    -1.7762450000    -0.2685780000
| 22>  H        2.6854670000     0.1886250000    -0.8734240000
| 23>  H        2.5469140000    -2.6218820000     0.2903450000
| 24>  H        4.8678910000    -0.6493030000    -0.3174400000
| 25>  H        3.8528790000    -4.0303430000     1.0027530000
| 26>  H        5.2641340000    -3.9692040000     2.0641010000
| 27>  H        5.4157110000    -4.6440230000     0.4524890000
| 28>  H        7.0200700000    -1.2399460000     0.1321700000
| 29>  H        7.3338380000    -2.9727720000    -0.0674590000
| 30>  H        7.1822900000    -2.2976880000     1.5449170000
| 31> *
| 32>
| 33>                          ****END OF INPUT****
 Total Charge           Charge          ....    0
 Multiplicity           Mult            ....    1
 Number of Electrons    NEL             ....   54
 Basis Dimension        Dim             ....  158

MULLIKEN ATOMIC CHARGES
-----------------------
   0 C :    0.051275
   1 C :   -0.124896
   2 C :    0.021608
   3 C :    0.009674
   4 C :   -0.199486
   5 C :    0.063770
   6 C :    0.051798
   7 H :    0.030159
   8 H :    0.032190
   9 H :    0.014771
  10 H :   -0.009871
  11 H :   -0.025460
  12 H :   -0.038622
  13 H :    0.013844
  14 H :    0.023418
  15 H :    0.023324
  16 H :    0.012560
  17 H :    0.026105
  18 H :    0.023839
Sum of atomic charges:   -0.0000000

LOEWDIN ATOMIC CHARGES
----------------------
   0 C :   -0.064839
   1 C :   -0.038858
   2 C :   -0.049010
   3 C :   -0.058307
   4 C :   -0.038395
   5 C :   -0.058037
   6 C :   -0.055106
   7 H :    0.036012
   8 H :    0.036697
   9 H :    0.029457
  10 H :    0.020782
  11 H :    0.021474
  12 H :    0.023644
  13 H :    0.027462
  14 H :    0.035840
  15 H :    0.035866
  16 H :    0.028869
  17 H :    0.033548
  18 H :    0.032902

  Mayer bond orders larger than 0.1
B(  0-C ,  1-C ) :   1.0828 B(  0-C ,  7-H ) :   0.9449 B(  0-C ,  8-H ) :   0.9444
B(  0-C ,  9-H ) :   0.9586 B(  1-C ,  2-C ) :   1.8066 B(  1-C ,  4-C ) :   0.1219
B(  1-C , 10-H ) :   0.9565 B(  2-C ,  3-C ) :   1.1345 B(  2-C , 11-H ) :   0.9475
B(  3-C ,  4-C ) :   1.7555 B(  3-C , 12-H ) :   0.9460 B(  4-C ,  5-C ) :   1.1073
B(  4-C ,  6-C ) :   1.0850 B(  5-C , 13-H ) :   0.9441 B(  5-C , 14-H ) :   0.9393
B(  5-C , 15-H ) :   0.9387 B(  6-C , 16-H ) :   0.9522 B(  6-C , 17-H ) :   0.9444
B(  6-C , 18-H ) :   0.9455

FINAL SINGLE POINT ENERGY      -273.358070158451

DIPOLE MOMENT
-------------
                                X             Y             Z
Electronic contribution:     -0.07724       1.29117      -0.54870
Nuclear contribution   :      0.10221      -1.39331       0.59298
                        -----------------------------------------
Total Dipole Moment    :      0.02496      -0.10213       0.04429
                        -----------------------------------------
Magnitude (a.u.)       :      0.11409
Magnitude (Debye)      :      0.28998

                             ****ORCA TERMINATED NORMALLY****
TOTAL RUN TIME: 0 days 0 hours 0 minutes 8 seconds 93 msec
