                         Program Version 3.0.3 - RELEASE   -
|  1> ! RI PBE def2-SVP def2-SVP/J NBO PAL2
|  2> % maxcore 2000
|  3> % output
|  4>     # printlevel mini
|  5>     print[ P_Basis ] 0
|  6>     print[ P_SCFInfo ] 1
|  7>     print[ P_SCFIterInfo ] 1
|  8>     print[ P_OrbEn ] 0
|  9>     print[ P_Cartesian ] 0
| 10> end
| 11> *xyz 0 1
| 12>  C        0.6922680000     1.9499660000    -0.3434740000
| 13>  C        2.0539390000     1.3646790000    -0.4563230000
| 14>  C        3.1966030000     2.0336040000    -0.2683220000
| 15>  C        4.5070980000     1.4471980000    -0.3825640000
| 16>  C        5.6585860000     2.1141590000    -0.1948490000
| 17>  C        6.9654310000     1.5169830000    -0.3117950000
| 18>  C        8.1150220000     2.1703780000    -0.1274290000
| 19>  H        0.1017250000     1.4325170000     0.4202180000
| 20>  H        0.1389850000     1.8476410000    -1.2832240000
| 21>  H        0.7314400000     3.0096300000    -0.0843810000
| 22>  H        2.1115210000     0.3077050000    -0.7126380000
| 23>  H        3.1532080000     3.0912830000    -0.0115250000
| 24>  H        4.5509900000     0.3896910000    -0.6393080000
| 25>  H        5.6209700000     3.1715620000     0.0620070000
| 26>  H        6.9918600000     0.4597370000    -0.5688580000
| 27>  H        8.1288420000     3.2246800000     0.1297960000
| 28>  H        9.0723120000     1.6741870000    -0.2274100000
| 29> *
| 30>
| 31>                          ****END OF INPUT****
 Total Charge           Charge          ....    0
 Multiplicity           Mult            ....    1
 Number of Electrons    NEL             ....   52
 Basis Dimension        Dim             ....  148

MULLIKEN ATOMIC CHARGES
-----------------------
   0 C :    0.035685
   1 C :   -0.110541
   2 C :    0.028111
   3 C :    0.008515
   4 C :    0.006367
   5 C :   -0.006204
   6 C :   -0.031240
   7 H :    0.039647
   8 H :    0.039777
   9 H :    0.020888
  10 H :   -0.002900
  11 H :   -0.021151
  12 H :   -0.019391
  13 H :   -0.020005
  14 H :   -0.008188
  15 H :    0.017378
  16 H :    0.023251
Sum of atomic charges:   -0.0000000

LOEWDIN ATOMIC CHARGES
----------------------
   0 C :   -0.066754
   1 C :   -0.027190
   2 C :   -0.046191
   3 C :   -0.026298
   4 C :   -0.035266
   5 C :   -0.033195
   6 C :   -0.055463
   7 H :    0.040138
   8 H :    0.039920
   9 H :    0.032142
  10 H :    0.023736
  11 H :    0.025574
  12 H :    0.026582
  13 H :    0.026237
  14 H :    0.028966
  15 H :    0.022482
  16 H :    0.024580

  Mayer bond orders larger than 0.1
B(  0-C ,  1-C ) :   1.0909 B(  0-C ,  7-H ) :   0.9419 B(  0-C ,  8-H ) :   0.9429
B(  0-C ,  9-H ) :   0.9568 B(  1-C ,  2-C ) :   1.7686 B(  1-C ,  4-C ) :   0.1140
B(  1-C , 10-H ) :   0.9556 B(  2-C ,  3-C ) :   1.1488 B(  2-C , 11-H ) :   0.9581
B(  3-C ,  4-C ) :   1.6523 B(  3-C ,  6-C ) :   0.1190 B(  3-C , 12-H ) :   0.9667
B(  4-C ,  5-C ) :   1.1508 B(  4-C , 13-H ) :   0.9637 B(  5-C ,  6-C ) :   1.8593
B(  5-C , 14-H ) :   0.9598 B(  6-C , 15-H ) :   0.9466 B(  6-C , 16-H ) :   0.9433

FINAL SINGLE POINT ENERGY      -272.140636577686

DIPOLE MOMENT
-------------
                                X             Y             Z
Electronic contribution:      2.94673      -0.55765      -0.07002
Nuclear contribution   :     -3.31224       0.51351       0.05269
                        -----------------------------------------
Total Dipole Moment    :     -0.36551      -0.04414      -0.01732
                        -----------------------------------------
Magnitude (a.u.)       :      0.36858
Magnitude (Debye)      :      0.93685

                             ****ORCA TERMINATED NORMALLY****
TOTAL RUN TIME: 0 days 0 hours 0 minutes 7 seconds 229 msec
