                         Program Version 3.0.3 - RELEASE   -
|  1> ! RI PBE def2-SVP def2-SVP/J NBO PAL2
|  2> % maxcore 2000
|  3> % output
|  4>     # printlevel mini
|  5>     print[ P_Basis ] 0
|  6>     print[ P_SCFInfo ] 1
|  7>     print[ P_SCFIterInfo ] 1
|  8>     print[ P_OrbEn ] 0
|  9>     print[ P_Cartesian ] 0
| 10> end
| 11> *xyz 0 1
| 12>  C        0.8034130000    -0.1719200000    -0.1754270000
| 13>  C        2.2875310000    -0.2288880000    -0.2099800000
| 14>  C        3.0963690000     0.8293120000    -0.3298450000
| 15>  C        4.5327040000     0.7385760000    -0.3601240000
| 16>  C        5.3482150000     1.8006430000    -0.4805440000
| 17>  C        6.7573910000     1.7182760000    -0.5108310000
| 18>  C        7.9612700000     1.6801460000    -0.5396490000
| 19>  H        0.4152830000    -0.5999770000     0.7549080000
| 20>  H        0.3685470000    -0.7601980000    -0.9904450000
| 21>  H        0.4373160000     0.8527890000    -0.2597300000
| 22>  H        2.7401960000    -1.2161470000    -0.1306280000
| 23>  H        2.6621070000     1.8246470000    -0.4103950000
| 24>  H        4.9714980000    -0.2527480000    -0.2800380000
| 25>  H        4.9185020000     2.7966820000    -0.5612680000
| 26>  H        9.0241570000     1.6380160000    -0.5640040000
| 27> *
| 28>
| 29>                          ****END OF INPUT****
 Total Charge           Charge          ....    0
 Multiplicity           Mult            ....    1
 Number of Electrons    NEL             ....   50
 Basis Dimension        Dim             ....  138

MULLIKEN ATOMIC CHARGES
-----------------------
   0 C :    0.047857
   1 C :   -0.109648
   2 C :    0.020237
   3 C :    0.027301
   4 C :   -0.080635
   5 C :    0.399926
   6 C :   -0.418207
   7 H :    0.038414
   8 H :    0.040537
   9 H :    0.020742
  10 H :    0.001649
  11 H :   -0.013508
  12 H :    0.000471
  13 H :    0.021482
  14 H :    0.003383
Sum of atomic charges:   -0.0000000

LOEWDIN ATOMIC CHARGES
----------------------
   0 C :   -0.062959
   1 C :   -0.019490
   2 C :   -0.047241
   3 C :   -0.002434
   4 C :   -0.056153
   5 C :   -0.018998
   6 C :   -0.069992
   7 H :    0.041071
   8 H :    0.041562
   9 H :    0.032145
  10 H :    0.025354
  11 H :    0.027132
  12 H :    0.034297
  13 H :    0.041215
  14 H :    0.034492

  Mayer bond orders larger than 0.1
B(  0-C ,  1-C ) :   1.0849 B(  0-C ,  7-H ) :   0.9424 B(  0-C ,  8-H ) :   0.9424
B(  0-C ,  9-H ) :   0.9609 B(  1-C ,  2-C ) :   1.7607 B(  1-C ,  4-C ) :   0.1194
B(  1-C , 10-H ) :   0.9582 B(  2-C ,  3-C ) :   1.1500 B(  2-C , 11-H ) :   0.9651
B(  3-C ,  4-C ) :   1.6749 B(  3-C ,  6-C ) :   0.1140 B(  3-C , 12-H ) :   0.9738
B(  4-C ,  5-C ) :   1.0377 B(  4-C , 13-H ) :   0.9493 B(  5-C ,  6-C ) :   2.2493
B(  6-C , 14-H ) :   1.0897

FINAL SINGLE POINT ENERGY      -270.893898044334

DIPOLE MOMENT
-------------
                                X             Y             Z
Electronic contribution:      7.70127       2.34463      -0.42681
Nuclear contribution   :     -8.25885      -2.56181       0.45983
                        -----------------------------------------
Total Dipole Moment    :     -0.55758      -0.21718       0.03302
                        -----------------------------------------
Magnitude (a.u.)       :      0.59929
Magnitude (Debye)      :      1.52329

                             ****ORCA TERMINATED NORMALLY****
TOTAL RUN TIME: 0 days 0 hours 0 minutes 6 seconds 741 msec
