                         Program Version 3.0.3 - RELEASE   -
|  1> ! RI PBE def2-SVP def2-SVP/J NBO PAL2
|  2> % maxcore 2000
|  3> % output
|  4>     # printlevel mini
|  5>     print[ P_Basis ] 0
|  6>     print[ P_SCFInfo ] 1
|  7>     print[ P_SCFIterInfo ] 1
|  8>     print[ P_OrbEn ] 0
|  9>     print[ P_Cartesian ] 0
| 10> end
| 11> *xyz 0 1
| 12>  C        1.0634310000     0.6448570000    -0.6815180000
| 13>  C        2.5198760000     0.6518170000    -0.3746600000
| 14>  C        3.4372400000    -0.0667360000    -1.0175680000
| 15>  C        4.8701480000    -0.0864340000    -0.6914810000
| 16>  C        5.3041750000    -0.1300890000     0.5758010000
| 17>  C        5.8397830000    -0.0822020000    -1.7867390000
| 18>  C        5.5559010000     0.0672800000    -3.0789930000
| 19>  H        0.4817030000     0.3220050000     0.1882980000
| 20>  H        0.8308470000    -0.0232630000    -1.5128390000
| 21>  H        0.7088810000     1.6486970000    -0.9366480000
| 22>  H        2.8454300000     1.3067610000     0.4315480000
| 23>  H        3.1239490000    -0.6848530000    -1.8572470000
| 24>  H        4.6146480000    -0.1826650000     1.4093010000
| 25>  H        6.3645670000    -0.1234150000     0.8028800000
| 26>  H        6.8775450000    -0.2072320000    -1.4866410000
| 27>  H        4.5409510000     0.2121830000    -3.4314070000
| 28>  H        6.3389150000     0.0596010000    -3.8274860000
| 29> *
| 30>
| 31>                          ****END OF INPUT****
 Total Charge           Charge          ....    0
 Multiplicity           Mult            ....    1
 Number of Electrons    NEL             ....   52
 Basis Dimension        Dim             ....  148

MULLIKEN ATOMIC CHARGES
-----------------------
   0 C :    0.035505
   1 C :   -0.109263
   2 C :   -0.009101
   3 C :    0.004056
   4 C :   -0.044600
   5 C :   -0.009365
   6 C :   -0.027281
   7 H :    0.038046
   8 H :    0.021416
   9 H :    0.034919
  10 H :    0.003755
  11 H :    0.000034
  12 H :    0.018034
  13 H :    0.015169
  14 H :   -0.016767
  15 H :    0.017514
  16 H :    0.027929
Sum of atomic charges:   -0.0000000

LOEWDIN ATOMIC CHARGES
----------------------
   0 C :   -0.064756
   1 C :   -0.023190
   2 C :   -0.040711
   3 C :   -0.034477
   4 C :   -0.041430
   5 C :   -0.024420
   6 C :   -0.052356
   7 H :    0.039622
   8 H :    0.031354
   9 H :    0.037966
  10 H :    0.024978
  11 H :    0.026405
  12 H :    0.022223
  13 H :    0.021650
  14 H :    0.028205
  15 H :    0.021901
  16 H :    0.027036

  Mayer bond orders larger than 0.1
B(  0-C ,  1-C ) :   1.0875 B(  0-C ,  7-H ) :   0.9442 B(  0-C ,  8-H ) :   0.9605
B(  0-C ,  9-H ) :   0.9461 B(  1-C ,  2-C ) :   1.8702 B(  1-C , 10-H ) :   0.9590
B(  2-C ,  3-C ) :   1.0374 B(  2-C , 11-H ) :   0.9330 B(  3-C ,  4-C ) :   1.8472
B(  3-C ,  5-C ) :   1.1057 B(  4-C ,  6-C ) :   0.1330 B(  4-C , 12-H ) :   0.9365
B(  4-C , 13-H ) :   0.9392 B(  5-C ,  6-C ) :   1.9070 B(  5-C , 14-H ) :   0.9561
B(  6-C , 15-H ) :   0.9330 B(  6-C , 16-H ) :   0.9417

FINAL SINGLE POINT ENERGY      -272.127893889541

DIPOLE MOMENT
-------------
                                X             Y             Z
Electronic contribution:      3.21022      -0.68685       0.14889
Nuclear contribution   :     -3.44831       0.75514      -0.11849
                        -----------------------------------------
Total Dipole Moment    :     -0.23809       0.06829       0.03039
                        -----------------------------------------
Magnitude (a.u.)       :      0.24955
Magnitude (Debye)      :      0.63431

                             ****ORCA TERMINATED NORMALLY****
TOTAL RUN TIME: 0 days 0 hours 0 minutes 7 seconds 832 msec
