                         Program Version 3.0.3 - RELEASE   -
|  1> ! RI PBE def2-SVP def2-SVP/J NBO PAL2
|  2> % maxcore 2000
|  3> % output
|  4>     # printlevel mini
|  5>     print[ P_Basis ] 0
|  6>     print[ P_SCFInfo ] 1
|  7>     print[ P_SCFIterInfo ] 1
|  8>     print[ P_OrbEn ] 0
|  9>     print[ P_Cartesian ] 0
| 10> end
| 11> *xyz 0 1
| 12>  C        0.8249420000    -0.3226260000     0.0238840000
| 13>  C        2.2818950000    -0.5241800000    -0.1925460000
| 14>  C        3.0636650000     0.2907290000    -0.8995940000
| 15>  C        4.4965270000     0.1042020000    -1.1196470000
| 16>  C        5.2143040000     0.9744410000    -1.8467310000
| 17>  C        5.1319270000    -1.0365870000    -0.5400600000
| 18>  C        5.6518710000    -2.0014500000    -0.0456670000
| 19>  H        0.5949630000    -0.2459480000     1.0916800000
| 20>  H        0.2514350000    -1.1747800000    -0.3553780000
| 21>  H        0.4631930000     0.5809770000    -0.4701760000
| 22>  H        2.7324620000    -1.4031970000     0.2634570000
| 23>  H        2.6368680000     1.1762750000    -1.3654980000
| 24>  H        4.7408540000     1.8425960000    -2.2902930000
| 25>  H        6.2747600000     0.8354940000    -2.0090590000
| 26>  H        6.1238330000    -2.8517440000     0.3867280000
| 27> *
| 28>
| 29>                          ****END OF INPUT****
 Total Charge           Charge          ....    0
 Multiplicity           Mult            ....    1
 Number of Electrons    NEL             ....   50
 Basis Dimension        Dim             ....  138

MULLIKEN ATOMIC CHARGES
-----------------------
   0 C :    0.046036
   1 C :   -0.087914
   2 C :    0.024691
   3 C :   -0.036392
   4 C :   -0.014825
   5 C :    0.406138
   6 C :   -0.466164
   7 H :    0.037994
   8 H :    0.038214
   9 H :    0.020432
  10 H :    0.010811
  11 H :   -0.030640
  12 H :    0.018157
  13 H :    0.029368
  14 H :    0.004095
Sum of atomic charges:   -0.0000000

LOEWDIN ATOMIC CHARGES
----------------------
   0 C :   -0.062469
   1 C :   -0.017942
   2 C :   -0.038221
   3 C :   -0.048396
   4 C :   -0.024930
   5 C :   -0.000570
   6 C :   -0.068313
   7 H :    0.040435
   8 H :    0.040700
   9 H :    0.031068
  10 H :    0.030043
  11 H :    0.026873
  12 H :    0.024877
  13 H :    0.030455
  14 H :    0.036390

  Mayer bond orders larger than 0.1
B(  0-C ,  1-C ) :   1.0863 B(  0-C ,  7-H ) :   0.9430 B(  0-C ,  8-H ) :   0.9430
B(  0-C ,  9-H ) :   0.9612 B(  1-C ,  2-C ) :   1.8058 B(  1-C ,  4-C ) :   0.1290
B(  1-C , 10-H ) :   0.9355 B(  2-C ,  3-C ) :   1.1076 B(  2-C , 11-H ) :   0.9603
B(  3-C ,  4-C ) :   1.8330 B(  3-C ,  5-C ) :   0.9548 B(  4-C ,  6-C ) :   0.1104
B(  4-C , 12-H ) :   0.9341 B(  4-C , 13-H ) :   0.9385 B(  5-C ,  6-C ) :   2.2791
B(  5-C , 14-H ) :  -0.1055 B(  6-C , 14-H ) :   1.0951

FINAL SINGLE POINT ENERGY      -270.886999989396

DIPOLE MOMENT
-------------
                                X             Y             Z
Electronic contribution:      5.39619      -1.40762      -0.38147
Nuclear contribution   :     -5.69805       1.39924       0.45532
                        -----------------------------------------
Total Dipole Moment    :     -0.30186      -0.00838       0.07385
                        -----------------------------------------
Magnitude (a.u.)       :      0.31088
Magnitude (Debye)      :      0.79018

                             ****ORCA TERMINATED NORMALLY****
TOTAL RUN TIME: 0 days 0 hours 0 minutes 6 seconds 557 msec
