                         Program Version 3.0.3 - RELEASE   -
|  1> ! RI PBE def2-SVP def2-SVP/J NBO PAL2
|  2> % maxcore 2000
|  3> % output
|  4>     # printlevel mini
|  5>     print[ P_Basis ] 0
|  6>     print[ P_SCFInfo ] 1
|  7>     print[ P_SCFIterInfo ] 1
|  8>     print[ P_OrbEn ] 0
|  9>     print[ P_Cartesian ] 0
| 10> end
| 11> *xyz 0 1
| 12>  C        1.0637610000    -0.6292990000     0.7204340000
| 13>  C        2.5377920000    -0.5299790000     0.5321690000
| 14>  C        3.3362020000     0.2802140000     1.2307590000
| 15>  C        4.7815970000     0.4125160000     1.0831360000
| 16>  C        5.4538830000    -0.4370730000     0.0501220000
| 17>  C        5.4270660000     1.2826950000     1.8757110000
| 18>  C        6.8803490000     1.5989300000     1.9212270000
| 19>  H        0.7654570000    -1.6479150000     0.9908650000
| 20>  H        0.5278590000    -0.3846850000    -0.2029640000
| 21>  H        0.7143910000     0.0457760000     1.5042920000
| 22>  H        2.9684400000    -1.1718280000    -0.2328560000
| 23>  H        2.8853660000     0.9152580000     1.9925990000
| 24>  H        5.0450960000    -0.2332060000    -0.9442220000
| 25>  H        5.2833070000    -1.4989680000     0.2518040000
| 26>  H        6.5289060000    -0.2728030000     0.0098530000
| 27>  H        4.8154800000     1.8380120000     2.5851710000
| 28>  H        7.4693840000     1.0302990000     1.2024160000
| 29>  H        7.2880090000     1.4012720000     2.9186100000
| 30>  H        7.0507670000     2.6632730000     1.7258760000
| 31> *
| 32>
| 33>                          ****END OF INPUT****
 Total Charge           Charge          ....    0
 Multiplicity           Mult            ....    1
 Number of Electrons    NEL             ....   54
 Basis Dimension        Dim             ....  158

MULLIKEN ATOMIC CHARGES
-----------------------
   0 C :    0.051329
   1 C :   -0.129528
   2 C :    0.014326
   3 C :   -0.067429
   4 C :    0.058525
   5 C :   -0.157230
   6 C :    0.054413
   7 H :    0.028967
   8 H :    0.030448
   9 H :    0.018747
  10 H :   -0.009379
  11 H :   -0.033649
  12 H :    0.031593
  13 H :    0.034587
  14 H :    0.008999
  15 H :   -0.013450
  16 H :    0.014625
  17 H :    0.030792
  18 H :    0.033315
Sum of atomic charges:   -0.0000000

LOEWDIN ATOMIC CHARGES
----------------------
   0 C :   -0.063685
   1 C :   -0.048510
   2 C :   -0.042294
   3 C :   -0.045253
   4 C :   -0.059547
   5 C :   -0.043807
   6 C :   -0.068336
   7 H :    0.035530
   8 H :    0.035966
   9 H :    0.029937
  10 H :    0.019600
  11 H :    0.022669
  12 H :    0.036962
  13 H :    0.037169
  14 H :    0.027510
  15 H :    0.021557
  16 H :    0.027520
  17 H :    0.038250
  18 H :    0.038763

  Mayer bond orders larger than 0.1
B(  0-C ,  1-C ) :   1.0863 B(  0-C ,  7-H ) :   0.9447 B(  0-C ,  8-H ) :   0.9450
B(  0-C ,  9-H ) :   0.9611 B(  1-C ,  2-C ) :   1.7971 B(  1-C ,  5-C ) :   0.1289
B(  1-C , 10-H ) :   0.9402 B(  2-C ,  3-C ) :   1.1255 B(  2-C , 11-H ) :   0.9595
B(  3-C ,  4-C ) :   1.1195 B(  3-C ,  5-C ) :   1.7814 B(  4-C , 12-H ) :   0.9296
B(  4-C , 13-H ) :   0.9313 B(  4-C , 14-H ) :   0.9402 B(  5-C ,  6-C ) :   1.0908
B(  5-C , 15-H ) :   0.9436 B(  6-C , 16-H ) :   0.9518 B(  6-C , 17-H ) :   0.9404
B(  6-C , 18-H ) :   0.9393

FINAL SINGLE POINT ENERGY      -273.356054645590

DIPOLE MOMENT
-------------
                                X             Y             Z
Electronic contribution:     -0.57999       0.55522       0.69902
Nuclear contribution   :      0.65959      -0.57936      -0.74432
                        -----------------------------------------
Total Dipole Moment    :      0.07961      -0.02413      -0.04530
                        -----------------------------------------
Magnitude (a.u.)       :      0.09472
Magnitude (Debye)      :      0.24076

                             ****ORCA TERMINATED NORMALLY****
TOTAL RUN TIME: 0 days 0 hours 0 minutes 8 seconds 259 msec
