                         Program Version 3.0.3 - RELEASE   -
|  1> ! RI PBE def2-SVP def2-SVP/J NBO PAL2
|  2> % maxcore 2000
|  3> % output
|  4>     # printlevel mini
|  5>     print[ P_Basis ] 0
|  6>     print[ P_SCFInfo ] 1
|  7>     print[ P_SCFIterInfo ] 1
|  8>     print[ P_OrbEn ] 0
|  9>     print[ P_Cartesian ] 0
| 10> end
| 11> *xyz 0 1
| 12>  C        0.9042470000     1.7306780000    -0.9286390000
| 13>  C        2.3819930000     1.7808190000    -1.1258220000
| 14>  C        3.2459120000     0.9346680000    -0.5783650000
| 15>  C        4.7446910000     0.9175790000    -0.7269360000
| 16>  C        5.3675740000     1.0612440000     0.6660690000
| 17>  C        5.1541980000    -0.4376830000    -1.3140120000
| 18>  C        5.2575990000     2.0340050000    -1.6273450000
| 19>  H        0.5317360000     2.6615680000    -0.4887510000
| 20>  H        0.6158280000     0.9062270000    -0.2733590000
| 21>  H        0.3815550000     1.6062220000    -1.8826450000
| 22>  H        2.7499840000     2.5775710000    -1.7686260000
| 23>  H        2.8523850000     0.1436520000     0.0628550000
| 24>  H        5.0125380000     0.2747070000     1.3377570000
| 25>  H        5.1105410000     2.0252450000     1.1117460000
| 26>  H        6.4576550000     0.9884430000     0.6103080000
| 27>  H        4.7939900000    -1.2605430000    -0.6903090000
| 28>  H        6.2433820000    -0.5167860000    -1.3780960000
| 29>  H        4.7410690000    -0.5702320000    -2.3168820000
| 30>  H        4.9976830000     3.0185280000    -1.2301650000
| 31>  H        4.8461200000     1.9537580000    -2.6367210000
| 32>  H        6.3468010000     1.9833390000    -1.7063590000
| 33> *
| 34>
| 35>                          ****END OF INPUT****
 Total Charge           Charge          ....    0
 Multiplicity           Mult            ....    1
 Number of Electrons    NEL             ....   56
 Basis Dimension        Dim             ....  168

MULLIKEN ATOMIC CHARGES
-----------------------
   0 C :    0.051421
   1 C :   -0.115952
   2 C :    0.022672
   3 C :   -0.302795
   4 C :    0.048447
   5 C :    0.057078
   6 C :    0.073083
   7 H :    0.027141
   8 H :    0.018938
   9 H :    0.027891
  10 H :   -0.007837
  11 H :   -0.026705
  12 H :    0.012277
  13 H :    0.018872
  14 H :    0.015064
  15 H :    0.010063
  16 H :    0.012816
  17 H :    0.015392
  18 H :    0.014808
  19 H :    0.015773
  20 H :    0.011553
Sum of atomic charges:    0.0000000

LOEWDIN ATOMIC CHARGES
----------------------
   0 C :   -0.064074
   1 C :   -0.053483
   2 C :   -0.030550
   3 C :   -0.066638
   4 C :   -0.046378
   5 C :   -0.045052
   6 C :   -0.048952
   7 H :    0.034551
   8 H :    0.029454
   9 H :    0.034878
  10 H :    0.021005
  11 H :    0.018069
  12 H :    0.023278
  13 H :    0.025579
  14 H :    0.023509
  15 H :    0.022912
  16 H :    0.023202
  17 H :    0.025112
  18 H :    0.023787
  19 H :    0.024212
  20 H :    0.025576

  Mayer bond orders larger than 0.1
B(  0-C ,  1-C ) :   1.0790 B(  0-C ,  7-H ) :   0.9458 B(  0-C ,  8-H ) :   0.9610
B(  0-C ,  9-H ) :   0.9451 B(  1-C ,  2-C ) :   1.9448 B(  1-C , 10-H ) :   0.9340
B(  2-C ,  3-C ) :   0.9783 B(  2-C , 11-H ) :   0.9499 B(  3-C ,  4-C ) :   1.0340
B(  3-C ,  5-C ) :   1.0343 B(  3-C ,  6-C ) :   1.0901 B(  4-C , 12-H ) :   0.9571
B(  4-C , 13-H ) :   0.9608 B(  4-C , 14-H ) :   0.9561 B(  5-C , 15-H ) :   0.9573
B(  5-C , 16-H ) :   0.9562 B(  5-C , 17-H ) :   0.9583 B(  6-C , 18-H ) :   0.9463
B(  6-C , 19-H ) :   0.9446 B(  6-C , 20-H ) :   0.9533

FINAL SINGLE POINT ENERGY      -274.563073997830

DIPOLE MOMENT
-------------
                                X             Y             Z
Electronic contribution:     -1.28120       0.22457      -0.03536
Nuclear contribution   :      1.26031      -0.20157       0.01675
                        -----------------------------------------
Total Dipole Moment    :     -0.02089       0.02299      -0.01861
                        -----------------------------------------
Magnitude (a.u.)       :      0.03621
Magnitude (Debye)      :      0.09205

                             ****ORCA TERMINATED NORMALLY****
TOTAL RUN TIME: 0 days 0 hours 0 minutes 8 seconds 891 msec
