                         Program Version 3.0.3 - RELEASE   -
|  1> ! RI PBE def2-SVP def2-SVP/J NBO PAL2
|  2> % maxcore 2000
|  3> % output
|  4>     # printlevel mini
|  5>     print[ P_Basis ] 0
|  6>     print[ P_SCFInfo ] 1
|  7>     print[ P_SCFIterInfo ] 1
|  8>     print[ P_OrbEn ] 0
|  9>     print[ P_Cartesian ] 0
| 10> end
| 11> *xyz 0 1
| 12>  C        0.6622890000    -0.4969570000    -0.7535420000
| 13>  C        2.1365640000    -0.3560490000    -0.9211430000
| 14>  C        3.0474800000    -1.1634890000    -0.3918890000
| 15>  C        4.5347730000    -1.0249740000    -0.5630980000
| 16>  C        5.2247210000    -0.8386170000     0.7815400000
| 17>  C        5.0538340000    -2.1937440000    -1.3559280000
| 18>  C        5.9680360000    -3.0733030000    -0.9696330000
| 19>  H        0.2291590000     0.3973410000    -0.2940630000
| 20>  H        0.4118710000    -1.3562790000    -0.1284600000
| 21>  H        0.1652360000    -0.6229250000    -1.7208860000
| 22>  H        2.4767520000     0.4822650000    -1.5290050000
| 23>  H        2.7223470000    -2.0088070000     0.2153720000
| 24>  H        4.7069620000    -0.1256970000    -1.1702870000
| 25>  H        5.0517690000    -1.6978540000     1.4353590000
| 26>  H        4.8348910000     0.0472390000     1.2859390000
| 27>  H        6.3039490000    -0.7180450000     0.6607170000
| 28>  H        4.5974760000    -2.3082530000    -2.3373030000
| 29>  H        6.4550200000    -3.0166200000    -0.0024580000
| 30>  H        6.2663420000    -3.8892320000    -1.6178120000
| 31> *
| 32>
| 33>                          ****END OF INPUT****
 Total Charge           Charge          ....    0
 Multiplicity           Mult            ....    1
 Number of Electrons    NEL             ....   54
 Basis Dimension        Dim             ....  158

MULLIKEN ATOMIC CHARGES
-----------------------
   0 C :    0.043203
   1 C :   -0.111775
   2 C :   -0.024992
   3 C :   -0.035256
   4 C :    0.023406
   5 C :   -0.037000
   6 C :   -0.037898
   7 H :    0.031233
   8 H :    0.021250
   9 H :    0.031883
  10 H :   -0.007523
  11 H :   -0.012085
  12 H :    0.008738
  13 H :    0.025528
  14 H :    0.018469
  15 H :    0.027782
  16 H :   -0.001211
  17 H :    0.015598
  18 H :    0.020649
Sum of atomic charges:   -0.0000000

LOEWDIN ATOMIC CHARGES
----------------------
   0 C :   -0.065159
   1 C :   -0.048580
   2 C :   -0.032207
   3 C :   -0.046124
   4 C :   -0.055257
   5 C :   -0.018611
   6 C :   -0.072610
   7 H :    0.036003
   8 H :    0.031207
   9 H :    0.036471
  10 H :    0.020821
  11 H :    0.021483
  12 H :    0.037582
  13 H :    0.026549
  14 H :    0.028850
  15 H :    0.028077
  16 H :    0.025918
  17 H :    0.020396
  18 H :    0.025191

  Mayer bond orders larger than 0.1
B(  0-C ,  1-C ) :   1.0825 B(  0-C ,  7-H ) :   0.9469 B(  0-C ,  8-H ) :   0.9609
B(  0-C ,  9-H ) :   0.9462 B(  1-C ,  2-C ) :   1.9182 B(  1-C , 10-H ) :   0.9525
B(  2-C ,  3-C ) :   1.0044 B(  2-C , 11-H ) :   0.9498 B(  3-C ,  4-C ) :   1.0947
B(  3-C ,  5-C ) :   1.0059 B(  3-C , 12-H ) :   0.8888 B(  4-C , 13-H ) :   0.9526
B(  4-C , 14-H ) :   0.9554 B(  4-C , 15-H ) :   0.9472 B(  5-C ,  6-C ) :   2.0093
B(  5-C , 16-H ) :   0.9550 B(  6-C , 17-H ) :   0.9310 B(  6-C , 18-H ) :   0.9403

FINAL SINGLE POINT ENERGY      -273.338641688277

DIPOLE MOMENT
-------------
                                X             Y             Z
Electronic contribution:      1.00245      -0.56356      -1.60712
Nuclear contribution   :     -1.16933       0.70858       1.60100
                        -----------------------------------------
Total Dipole Moment    :     -0.16688       0.14501      -0.00612
                        -----------------------------------------
Magnitude (a.u.)       :      0.22117
Magnitude (Debye)      :      0.56218

                             ****ORCA TERMINATED NORMALLY****
TOTAL RUN TIME: 0 days 0 hours 0 minutes 8 seconds 128 msec
