                         Program Version 3.0.3 - RELEASE   -
|  1> ! RI PBE def2-SVP def2-SVP/J NBO PAL2
|  2> % maxcore 2000
|  3> % output
|  4>     # printlevel mini
|  5>     print[ P_Basis ] 0
|  6>     print[ P_SCFInfo ] 1
|  7>     print[ P_SCFIterInfo ] 1
|  8>     print[ P_OrbEn ] 0
|  9>     print[ P_Cartesian ] 0
| 10> end
| 11> *xyz 0 1
| 12>  C        0.7680110000     0.2446830000     0.7684250000
| 13>  C        2.2495920000     0.1699140000     0.9059190000
| 14>  C        3.0982800000     1.1179210000     0.5325700000
| 15>  C        4.5945370000     1.0191790000     0.6573400000
| 16>  C        5.2712720000     1.0295490000    -0.7189090000
| 17>  C        5.1132740000     2.0986040000     1.4940760000
| 18>  C        5.5374700000     2.9988150000     2.1664180000
| 19>  H        0.3869800000    -0.5755910000     0.1517990000
| 20>  H        0.4558580000     1.1866870000     0.3137650000
| 21>  H        0.2780150000     0.1572060000     1.7433780000
| 22>  H        2.6498400000    -0.7396230000     1.3530750000
| 23>  H        2.7222870000     2.0403980000     0.0927050000
| 24>  H        4.8315860000     0.0701130000     1.1528610000
| 25>  H        5.0394800000     1.9539360000    -1.2519280000
| 26>  H        4.9145210000     0.1875020000    -1.3147880000
| 27>  H        6.3556000000     0.9591670000    -0.6174240000
| 28>  H        5.9118980000     3.7922500000     2.7685960000
| 29> *
| 30>
| 31>                          ****END OF INPUT****
 Total Charge           Charge          ....    0
 Multiplicity           Mult            ....    1
 Number of Electrons    NEL             ....   52
 Basis Dimension        Dim             ....  148

MULLIKEN ATOMIC CHARGES
-----------------------
   0 C :    0.040089
   1 C :   -0.104514
   2 C :   -0.001303
   3 C :   -0.043830
   4 C :    0.024408
   5 C :    0.410111
   6 C :   -0.513110
   7 H :    0.033498
   8 H :    0.021265
   9 H :    0.034221
  10 H :   -0.004406
  11 H :   -0.006215
  12 H :    0.024078
  13 H :    0.030399
  14 H :    0.025334
  15 H :    0.035763
  16 H :   -0.005786
Sum of atomic charges:   -0.0000000

LOEWDIN ATOMIC CHARGES
----------------------
   0 C :   -0.063631
   1 C :   -0.041876
   2 C :   -0.027112
   3 C :   -0.049587
   4 C :   -0.043433
   5 C :   -0.009597
   6 C :   -0.091954
   7 H :    0.036995
   8 H :    0.031770
   9 H :    0.037896
  10 H :    0.022501
  11 H :    0.024670
  12 H :    0.048314
  13 H :    0.030329
  14 H :    0.028972
  15 H :    0.032295
  16 H :    0.033447

  Mayer bond orders larger than 0.1
B(  0-C ,  1-C ) :   1.0862 B(  0-C ,  7-H ) :   0.9475 B(  0-C ,  8-H ) :   0.9617
B(  0-C ,  9-H ) :   0.9461 B(  1-C ,  2-C ) :   1.9299 B(  1-C , 10-H ) :   0.9492
B(  2-C ,  3-C ) :   1.0093 B(  2-C , 11-H ) :   0.9488 B(  3-C ,  4-C ) :   1.0680
B(  3-C ,  5-C ) :   0.9828 B(  3-C , 12-H ) :   0.8806 B(  4-C , 13-H ) :   0.9608
B(  4-C , 14-H ) :   0.9574 B(  4-C , 15-H ) :   0.9583 B(  5-C ,  6-C ) :   2.3241
B(  5-C , 16-H ) :  -0.1192 B(  6-C , 16-H ) :   1.1095

FINAL SINGLE POINT ENERGY      -272.094699757529

DIPOLE MOMENT
-------------
                                X             Y             Z
Electronic contribution:      3.56216       2.58247       3.11517
Nuclear contribution   :     -3.77006      -2.81987      -3.26887
                        -----------------------------------------
Total Dipole Moment    :     -0.20790      -0.23740      -0.15371
                        -----------------------------------------
Magnitude (a.u.)       :      0.35101
Magnitude (Debye)      :      0.89218

                             ****ORCA TERMINATED NORMALLY****
TOTAL RUN TIME: 0 days 0 hours 0 minutes 7 seconds 524 msec
