                         Program Version 3.0.3 - RELEASE   -
|  1> ! RI PBE def2-SVP def2-SVP/J NBO PAL2
|  2> % maxcore 2000
|  3> % output
|  4>     # printlevel mini
|  5>     print[ P_Basis ] 0
|  6>     print[ P_SCFInfo ] 1
|  7>     print[ P_SCFIterInfo ] 1
|  8>     print[ P_OrbEn ] 0
|  9>     print[ P_Cartesian ] 0
| 10> end
| 11> *xyz 0 1
| 12>  C        0.8342250000     0.0252390000     0.0926520000
| 13>  C        2.3091320000    -0.0595090000    -0.0597340000
| 14>  C        3.0408220000    -1.1360920000     0.2492690000
| 15>  C        4.4429380000    -1.2158490000     0.1040580000
| 16>  C        5.6441950000    -1.3081430000    -0.0114660000
| 17>  C        7.0445890000    -1.4458760000    -0.1348100000
| 18>  C        7.8661140000    -0.4969460000    -0.5897800000
| 19>  H        0.3531010000     0.2369650000    -0.8679950000
| 20>  H        0.5564940000     0.8441540000     0.7644830000
| 21>  H        0.4160240000    -0.9015300000     0.4894200000
| 22>  H        2.8196850000     0.8175740000    -0.4494940000
| 23>  H        2.5429610000    -2.0215940000     0.6407030000
| 24>  H        7.4571710000    -2.4049790000     0.1702370000
| 25>  H        7.4939400000     0.4710450000    -0.9030780000
| 26>  H        8.9323270000    -0.6736700000    -0.6569150000
| 27> *
| 28>
| 29>                          ****END OF INPUT****
 Total Charge           Charge          ....    0
 Multiplicity           Mult            ....    1
 Number of Electrons    NEL             ....   50
 Basis Dimension        Dim             ....  138

MULLIKEN ATOMIC CHARGES
-----------------------
   0 C :    0.032461
   1 C :   -0.085689
   2 C :   -0.064183
   3 C :    0.006982
   4 C :   -0.016910
   5 C :   -0.089241
   6 C :   -0.014037
   7 H :    0.041468
   8 H :    0.042657
   9 H :    0.024049
  10 H :    0.011473
  11 H :    0.018572
  12 H :    0.028259
  13 H :    0.030188
  14 H :    0.033951
Sum of atomic charges:   -0.0000000

LOEWDIN ATOMIC CHARGES
----------------------
   0 C :   -0.063645
   1 C :   -0.003349
   2 C :   -0.063854
   3 C :   -0.035040
   4 C :   -0.043569
   5 C :   -0.047731
   6 C :   -0.029743
   7 H :    0.042021
   8 H :    0.042045
   9 H :    0.032828
  10 H :    0.030364
  11 H :    0.039644
  12 H :    0.043409
  13 H :    0.028828
  14 H :    0.027791

  Mayer bond orders larger than 0.1
B(  0-C ,  1-C ) :   1.0922 B(  0-C ,  7-H ) :   0.9427 B(  0-C ,  8-H ) :   0.9433
B(  0-C ,  9-H ) :   0.9590 B(  1-C ,  2-C ) :   1.8007 B(  1-C ,  4-C ) :   0.1083
B(  1-C , 10-H ) :   0.9593 B(  2-C ,  3-C ) :   1.0735 B(  2-C , 11-H ) :   0.9357
B(  3-C ,  4-C ) :   2.3158 B(  3-C ,  6-C ) :   0.1140 B(  4-C ,  5-C ) :   1.0743
B(  5-C ,  6-C ) :   1.8954 B(  5-C , 12-H ) :   0.9447 B(  6-C , 13-H ) :   0.9519
B(  6-C , 14-H ) :   0.9428

FINAL SINGLE POINT ENERGY      -270.895803715758

DIPOLE MOMENT
-------------
                                X             Y             Z
Electronic contribution:      3.98964      -2.25853       0.33866
Nuclear contribution   :     -4.33589       2.40594      -0.35343
                        -----------------------------------------
Total Dipole Moment    :     -0.34625       0.14741      -0.01478
                        -----------------------------------------
Magnitude (a.u.)       :      0.37661
Magnitude (Debye)      :      0.95727

                             ****ORCA TERMINATED NORMALLY****
TOTAL RUN TIME: 0 days 0 hours 0 minutes 6 seconds 445 msec
