                         Program Version 3.0.3 - RELEASE   -
|  1> ! RI PBE def2-SVP def2-SVP/J NBO PAL2
|  2> % maxcore 2000
|  3> % output
|  4>     # printlevel mini
|  5>     print[ P_Basis ] 0
|  6>     print[ P_SCFInfo ] 1
|  7>     print[ P_SCFIterInfo ] 1
|  8>     print[ P_OrbEn ] 0
|  9>     print[ P_Cartesian ] 0
| 10> end
| 11> *xyz 0 1
| 12>  C        0.8900520000    -0.0510980000     0.0861600000
| 13>  C        2.3838060000    -0.0459890000     0.0904800000
| 14>  C        3.1394510000    -0.6362040000    -0.8431300000
| 15>  C        4.5483870000    -0.6297530000    -0.8364640000
| 16>  C        5.7607380000    -0.6437370000    -0.8616050000
| 17>  C        7.1202510000    -0.6535140000    -0.8802120000
| 18>  C        8.3270860000    -0.6623260000    -0.8971700000
| 19>  H        0.4872040000     0.4902710000     0.9417510000
| 20>  H        0.4959540000    -1.0707680000     0.1216480000
| 21>  H        0.4935860000     0.4157290000    -0.8200350000
| 22>  H        2.8877630000     0.4694460000     0.9028720000
| 23>  H        2.6642940000    -1.1611320000    -1.6706220000
| 24>  H        9.3909880000    -0.6724960000    -0.9105420000
| 25> *
| 26>
| 27>                          ****END OF INPUT****
 Total Charge           Charge          ....    0
 Multiplicity           Mult            ....    1
 Number of Electrons    NEL             ....   48
 Basis Dimension        Dim             ....  128

MULLIKEN ATOMIC CHARGES
-----------------------
   0 C :    0.018605
   1 C :   -0.082830
   2 C :   -0.075736
   3 C :    0.000434
   4 C :    0.012269
   5 C :    0.355316
   6 C :   -0.417183
   7 H :    0.032730
   8 H :    0.047610
   9 H :    0.048863
  10 H :    0.023340
  11 H :    0.024767
  12 H :    0.011815
Sum of atomic charges:   -0.0000000

LOEWDIN ATOMIC CHARGES
----------------------
   0 C :   -0.068891
   1 C :    0.002719
   2 C :   -0.060077
   3 C :    0.003193
   4 C :   -0.057663
   5 C :   -0.030186
   6 C :   -0.032382
   7 H :    0.036497
   8 H :    0.045416
   9 H :    0.045681
  10 H :    0.033131
  11 H :    0.043731
  12 H :    0.038832

  Mayer bond orders larger than 0.1
B(  0-C ,  1-C ) :   1.0679 B(  0-C ,  7-H ) :   0.9603 B(  0-C ,  8-H ) :   0.9536
B(  0-C ,  9-H ) :   0.9534 B(  1-C ,  2-C ) :   1.8015 B(  1-C ,  4-C ) :   0.1110
B(  1-C , 10-H ) :   0.9588 B(  2-C ,  3-C ) :   1.0729 B(  2-C , 11-H ) :   0.9449
B(  3-C ,  4-C ) :   2.1950 B(  3-C ,  6-C ) :   0.2463 B(  4-C ,  5-C ) :   0.9615
B(  5-C ,  6-C ) :   2.1294 B(  5-C , 12-H ) :  -0.1049 B(  6-C , 12-H ) :   1.0946

FINAL SINGLE POINT ENERGY      -269.654576822976

DIPOLE MOMENT
-------------
                                X             Y             Z
Electronic contribution:      9.11872      -1.08401      -1.73621
Nuclear contribution   :     -9.76245       1.15442       1.85136
                        -----------------------------------------
Total Dipole Moment    :     -0.64373       0.07041       0.11515
                        -----------------------------------------
Magnitude (a.u.)       :      0.65773
Magnitude (Debye)      :      1.67181

                             ****ORCA TERMINATED NORMALLY****
TOTAL RUN TIME: 0 days 0 hours 0 minutes 5 seconds 981 msec
