                         Program Version 3.0.3 - RELEASE   -
|  1> ! RI PBE def2-SVP def2-SVP/J NBO PAL2
|  2> % maxcore 2000
|  3> % output
|  4>     # printlevel mini
|  5>     print[ P_Basis ] 0
|  6>     print[ P_SCFInfo ] 1
|  7>     print[ P_SCFIterInfo ] 1
|  8>     print[ P_OrbEn ] 0
|  9>     print[ P_Cartesian ] 0
| 10> end
| 11> *xyz 0 1
| 12>  C        0.7710600000    -1.4512080000    -0.1293500000
| 13>  C        2.2587360000    -1.4060780000    -0.2069930000
| 14>  C        2.9575950000    -0.7093940000    -1.0951730000
| 15>  C        4.4532560000    -0.6733590000    -1.1777990000
| 16>  C        4.9637370000    -1.2045690000    -2.4825410000
| 17>  C        5.6638470000    -0.5071650000    -3.3691710000
| 18>  C        6.1639510000    -1.0306580000    -4.6718980000
| 19>  H        0.3999520000    -2.4751130000    -0.2416500000
| 20>  H        0.3125480000    -0.8363480000    -0.9063430000
| 21>  H        0.4144120000    -1.0947320000     0.8424660000
| 22>  H        2.8008840000    -1.9950960000     0.5325890000
| 23>  H        2.4260410000    -0.1227010000    -1.8438860000
| 24>  H        4.8679890000    -1.2593060000    -0.3490680000
| 25>  H        4.8087400000     0.3560610000    -1.0510760000
| 26>  H        4.7131380000    -2.2416060000    -2.7040880000
| 27>  H        5.9024080000     0.5313660000    -3.1402830000
| 28>  H        5.8780590000    -2.0741250000    -4.8183360000
| 29>  H        7.2551000000    -0.9642280000    -4.7325630000
| 30>  H        5.7686370000    -0.4480400000    -5.5103480000
| 31> *
| 32>
| 33>                          ****END OF INPUT****
 Total Charge           Charge          ....    0
 Multiplicity           Mult            ....    1
 Number of Electrons    NEL             ....   54
 Basis Dimension        Dim             ....  158

MULLIKEN ATOMIC CHARGES
-----------------------
   0 C :    0.044137
   1 C :   -0.107016
   2 C :   -0.071162
   3 C :    0.132531
   4 C :   -0.072475
   5 C :   -0.102063
   6 C :    0.035516
   7 H :    0.029483
   8 H :    0.019631
   9 H :    0.028664
  10 H :   -0.007800
  11 H :   -0.009723
  12 H :    0.009776
  13 H :    0.006956
  14 H :   -0.010497
  15 H :   -0.008537
  16 H :    0.016787
  17 H :    0.035509
  18 H :    0.030281
Sum of atomic charges:   -0.0000000

LOEWDIN ATOMIC CHARGES
----------------------
   0 C :   -0.064688
   1 C :   -0.049682
   2 C :   -0.043205
   3 C :   -0.038627
   4 C :   -0.042941
   5 C :   -0.049110
   6 C :   -0.067195
   7 H :    0.035215
   8 H :    0.030750
   9 H :    0.035234
  10 H :    0.020188
  11 H :    0.021089
  12 H :    0.034761
  13 H :    0.034124
  14 H :    0.021163
  15 H :    0.020360
  16 H :    0.030454
  17 H :    0.036387
  18 H :    0.035723

  Mayer bond orders larger than 0.1
B(  0-C ,  1-C ) :   1.0838 B(  0-C ,  7-H ) :   0.9485 B(  0-C ,  8-H ) :   0.9618
B(  0-C ,  9-H ) :   0.9470 B(  1-C ,  2-C ) :   1.9174 B(  1-C , 10-H ) :   0.9523
B(  2-C ,  3-C ) :   1.0461 B(  2-C , 11-H ) :   0.9530 B(  3-C ,  4-C ) :   1.0460
B(  3-C , 12-H ) :   0.9086 B(  3-C , 13-H ) :   0.9086 B(  4-C ,  5-C ) :   1.9266
B(  4-C , 14-H ) :   0.9501 B(  5-C ,  6-C ) :   1.0876 B(  5-C , 15-H ) :   0.9499
B(  6-C , 16-H ) :   0.9588 B(  6-C , 17-H ) :   0.9477 B(  6-C , 18-H ) :   0.9460

FINAL SINGLE POINT ENERGY      -273.344687733684

DIPOLE MOMENT
-------------
                                X             Y             Z
Electronic contribution:      0.90737       0.52523       1.13044
Nuclear contribution   :     -0.93159      -0.53639      -1.15563
                        -----------------------------------------
Total Dipole Moment    :     -0.02421      -0.01115      -0.02519
                        -----------------------------------------
Magnitude (a.u.)       :      0.03668
Magnitude (Debye)      :      0.09323

                             ****ORCA TERMINATED NORMALLY****
TOTAL RUN TIME: 0 days 0 hours 0 minutes 7 seconds 812 msec
