                         Program Version 3.0.3 - RELEASE   -
|  1> ! RI PBE def2-SVP def2-SVP/J NBO PAL2
|  2> % maxcore 2000
|  3> % output
|  4>     # printlevel mini
|  5>     print[ P_Basis ] 0
|  6>     print[ P_SCFInfo ] 1
|  7>     print[ P_SCFIterInfo ] 1
|  8>     print[ P_OrbEn ] 0
|  9>     print[ P_Cartesian ] 0
| 10> end
| 11> *xyz 0 1
| 12>  C        1.0386100000     0.3837920000    -0.2937590000
| 13>  C        2.4882350000     0.2374930000    -0.6084430000
| 14>  C        3.1729560000    -0.8989700000    -0.5553860000
| 15>  C        4.6258850000    -1.0530640000    -0.8593760000
| 16>  C        4.9273730000    -2.0446980000    -1.9895770000
| 17>  C        4.3633450000    -1.5670470000    -3.3192710000
| 18>  C        6.4242140000    -2.2990120000    -2.0912710000
| 19>  H        0.8814810000     1.0853380000     0.5320740000
| 20>  H        0.5922190000    -0.5730630000    -0.0154320000
| 21>  H        0.4848530000     0.7820530000    -1.1502420000
| 22>  H        3.0143570000     1.1464790000    -0.8993680000
| 23>  H        2.6462770000    -1.8096580000    -0.2658440000
| 24>  H        5.1449560000    -1.3996860000     0.0439520000
| 25>  H        5.0573860000    -0.0767520000    -1.1108080000
| 26>  H        4.4382140000    -2.9942630000    -1.7330940000
| 27>  H        4.8381430000    -0.6280170000    -3.6231110000
| 28>  H        3.2878270000    -1.3886160000    -3.2571800000
| 29>  H        4.5428330000    -2.3004640000    -4.1095720000
| 30>  H        6.9582780000    -1.3743770000    -2.3333470000
| 31>  H        6.6511850000    -3.0258860000    -2.8754390000
| 32>  H        6.8304830000    -2.6810830000    -1.1509170000
| 33> *
| 34>
| 35>                          ****END OF INPUT****
 Total Charge           Charge          ....    0
 Multiplicity           Mult            ....    1
 Number of Electrons    NEL             ....   56
 Basis Dimension        Dim             ....  168

MULLIKEN ATOMIC CHARGES
-----------------------
   0 C :    0.034071
   1 C :   -0.102377
   2 C :   -0.055103
   3 C :    0.104621
   4 C :   -0.176738
   5 C :    0.018146
   6 C :    0.030124
   7 H :    0.032839
   8 H :    0.016364
   9 H :    0.033026
  10 H :   -0.009471
  11 H :   -0.017676
  12 H :    0.008403
  13 H :   -0.008636
  14 H :    0.005181
  15 H :    0.006983
  16 H :    0.023251
  17 H :    0.018914
  18 H :    0.010276
  19 H :    0.016516
  20 H :    0.011286
Sum of atomic charges:   -0.0000000

LOEWDIN ATOMIC CHARGES
----------------------
   0 C :   -0.067346
   1 C :   -0.049431
   2 C :   -0.044378
   3 C :   -0.034909
   4 C :   -0.046009
   5 C :   -0.062061
   6 C :   -0.059127
   7 H :    0.035805
   8 H :    0.029736
   9 H :    0.035834
  10 H :    0.020333
  11 H :    0.019172
  12 H :    0.030874
  13 H :    0.024158
  14 H :    0.022451
  15 H :    0.023166
  16 H :    0.025821
  17 H :    0.024734
  18 H :    0.023320
  19 H :    0.024693
  20 H :    0.023165

  Mayer bond orders larger than 0.1
B(  0-C ,  1-C ) :   1.0888 B(  0-C ,  7-H ) :   0.9470 B(  0-C ,  8-H ) :   0.9598
B(  0-C ,  9-H ) :   0.9473 B(  1-C ,  2-C ) :   1.9124 B(  1-C , 10-H ) :   0.9513
B(  2-C ,  3-C ) :   1.0677 B(  2-C , 11-H ) :   0.9475 B(  3-C ,  4-C ) :   1.0482
B(  3-C , 12-H ) :   0.9082 B(  3-C , 13-H ) :   0.9229 B(  4-C ,  5-C ) :   1.0818
B(  4-C ,  6-C ) :   1.0867 B(  4-C , 14-H ) :   0.9136 B(  5-C , 15-H ) :   0.9568
B(  5-C , 16-H ) :   0.9550 B(  5-C , 17-H ) :   0.9619 B(  6-C , 18-H ) :   0.9582
B(  6-C , 19-H ) :   0.9619 B(  6-C , 20-H ) :   0.9575

FINAL SINGLE POINT ENERGY      -274.564314845999

DIPOLE MOMENT
-------------
                                X             Y             Z
Electronic contribution:     -1.08374       0.60642       2.03788
Nuclear contribution   :      1.03410      -0.60651      -2.01972
                        -----------------------------------------
Total Dipole Moment    :     -0.04964      -0.00009       0.01816
                        -----------------------------------------
Magnitude (a.u.)       :      0.05286
Magnitude (Debye)      :      0.13435

                             ****ORCA TERMINATED NORMALLY****
TOTAL RUN TIME: 0 days 0 hours 0 minutes 9 seconds 224 msec
