                         Program Version 3.0.3 - RELEASE   -
|  1> ! RI PBE def2-SVP def2-SVP/J NBO PAL2
|  2> % maxcore 2000
|  3> % output
|  4>     # printlevel mini
|  5>     print[ P_Basis ] 0
|  6>     print[ P_SCFInfo ] 1
|  7>     print[ P_SCFIterInfo ] 1
|  8>     print[ P_OrbEn ] 0
|  9>     print[ P_Cartesian ] 0
| 10> end
| 11> *xyz 0 1
| 12>  C        0.6543470000     1.3332590000    -0.6728660000
| 13>  C        2.1128650000     1.3597540000    -0.3675510000
| 14>  C        2.6441890000     1.7143920000     0.7962700000
| 15>  C        4.1098120000     1.7325830000     1.1083650000
| 16>  C        4.6099410000     3.0998020000     1.5008720000
| 17>  C        4.5842170000     4.1422890000     0.4291150000
| 18>  C        5.0427910000     3.3540170000     2.7317200000
| 19>  H        0.4142500000     1.9900510000    -1.5152510000
| 20>  H        0.0608420000     1.6511000000     0.1865820000
| 21>  H        0.3288310000     0.3278430000    -0.9588060000
| 22>  H        2.7819130000     1.0559730000    -1.1724880000
| 23>  H        1.9840190000     2.0233220000     1.6065720000
| 24>  H        4.6648460000     1.3785020000     0.2313300000
| 25>  H        4.3177920000     1.0348490000     1.9266030000
| 26>  H        5.2173890000     3.8437030000    -0.4136410000
| 27>  H        4.9345640000     5.1070690000     0.7975950000
| 28>  H        3.5733510000     4.2655390000     0.0292660000
| 29>  H        5.0602330000     2.5837680000     3.4955140000
| 30>  H        5.3965190000     4.3391940000     3.0162910000
| 31> *
| 32>
| 33>                          ****END OF INPUT****
 Total Charge           Charge          ....    0
 Multiplicity           Mult            ....    1
 Number of Electrons    NEL             ....   54
 Basis Dimension        Dim             ....  158

MULLIKEN ATOMIC CHARGES
-----------------------
   0 C :    0.036872
   1 C :   -0.094857
   2 C :   -0.072594
   3 C :    0.136374
   4 C :   -0.210855
   5 C :    0.086768
   6 C :   -0.035934
   7 H :    0.032167
   8 H :    0.019924
   9 H :    0.031228
  10 H :   -0.007914
  11 H :   -0.009303
  12 H :    0.005703
  13 H :    0.008734
  14 H :    0.022917
  15 H :    0.010720
  16 H :    0.027278
  17 H :    0.007811
  18 H :    0.004961
Sum of atomic charges:   -0.0000000

LOEWDIN ATOMIC CHARGES
----------------------
   0 C :   -0.065755
   1 C :   -0.047385
   2 C :   -0.042627
   3 C :   -0.031838
   4 C :   -0.028074
   5 C :   -0.055494
   6 C :   -0.081627
   7 H :    0.036047
   8 H :    0.031104
   9 H :    0.036159
  10 H :    0.020667
  11 H :    0.022532
  12 H :    0.032869
  13 H :    0.035900
  14 H :    0.035481
  15 H :    0.029488
  16 H :    0.035297
  17 H :    0.018522
  18 H :    0.018736

  Mayer bond orders larger than 0.1
B(  0-C ,  1-C ) :   1.0875 B(  0-C ,  7-H ) :   0.9478 B(  0-C ,  8-H ) :   0.9604
B(  0-C ,  9-H ) :   0.9463 B(  1-C ,  2-C ) :   1.9100 B(  1-C , 10-H ) :   0.9501
B(  2-C ,  3-C ) :   1.0592 B(  2-C , 11-H ) :   0.9513 B(  3-C ,  4-C ) :   1.0493
B(  3-C , 12-H ) :   0.9090 B(  3-C , 13-H ) :   0.8979 B(  4-C ,  5-C ) :   1.0830
B(  4-C ,  6-C ) :   1.9825 B(  5-C , 14-H ) :   0.9394 B(  5-C , 15-H ) :   0.9503
B(  5-C , 16-H ) :   0.9396 B(  6-C , 17-H ) :   0.9359 B(  6-C , 18-H ) :   0.9331

FINAL SINGLE POINT ENERGY      -273.344553464938

DIPOLE MOMENT
-------------
                                X             Y             Z
Electronic contribution:      1.49214      -0.79417       1.59158
Nuclear contribution   :     -1.63521       0.74674      -1.84003
                        -----------------------------------------
Total Dipole Moment    :     -0.14307      -0.04743      -0.24845
                        -----------------------------------------
Magnitude (a.u.)       :      0.29059
Magnitude (Debye)      :      0.73863

                             ****ORCA TERMINATED NORMALLY****
TOTAL RUN TIME: 0 days 0 hours 0 minutes 8 seconds 362 msec
