                         Program Version 3.0.3 - RELEASE   -
|  1> ! RI PBE def2-SVP def2-SVP/J NBO PAL2
|  2> % maxcore 2000
|  3> % output
|  4>     # printlevel mini
|  5>     print[ P_Basis ] 0
|  6>     print[ P_SCFInfo ] 1
|  7>     print[ P_SCFIterInfo ] 1
|  8>     print[ P_OrbEn ] 0
|  9>     print[ P_Cartesian ] 0
| 10> end
| 11> *xyz 0 1
| 12>  C        0.3987350000     0.8688610000    -1.1539150000
| 13>  C        1.8758070000     0.9448900000    -0.9699140000
| 14>  C        2.7623240000     0.1422370000    -1.5466350000
| 15>  C        4.2417570000     0.2203960000    -1.3661510000
| 16>  C        4.9861560000     0.4827990000    -2.6807900000
| 17>  C        6.4648910000     0.5600740000    -2.4981590000
| 18>  C        7.3510080000    -0.2384930000    -3.0766180000
| 19>  H       -0.1103900000     0.6963090000    -0.2001060000
| 20>  H        0.1226130000     0.0630340000    -1.8369590000
| 21>  H        0.0008400000     1.8068160000    -1.5546100000
| 22>  H        2.2405960000     1.7250550000    -0.3018730000
| 23>  H        2.4008510000    -0.6386330000    -2.2168630000
| 24>  H        4.6144390000    -0.7205330000    -0.9431430000
| 25>  H        4.4841680000     1.0059160000    -0.6426410000
| 26>  H        4.6183730000     1.4265580000    -3.1015500000
| 27>  H        4.7441090000    -0.3007770000    -3.4062550000
| 28>  H        6.8206800000     1.3368610000    -1.8220340000
| 29>  H        7.0425370000    -1.0274460000    -3.7562780000
| 30>  H        8.4147860000    -0.1327460000    -2.8974150000
| 31> *
| 32>
| 33>                          ****END OF INPUT****
 Total Charge           Charge          ....    0
 Multiplicity           Mult            ....    1
 Number of Electrons    NEL             ....   54
 Basis Dimension        Dim             ....  158

MULLIKEN ATOMIC CHARGES
-----------------------
   0 C :    0.039490
   1 C :   -0.109415
   2 C :   -0.053957
   3 C :    0.039993
   4 C :    0.038652
   5 C :   -0.073254
   6 C :   -0.041805
   7 H :    0.031511
   8 H :    0.020429
   9 H :    0.030591
  10 H :   -0.008267
  11 H :   -0.013119
  12 H :    0.019675
  13 H :    0.007640
  14 H :    0.020406
  15 H :    0.008620
  16 H :    0.001327
  17 H :    0.016145
  18 H :    0.025339
Sum of atomic charges:   -0.0000000

LOEWDIN ATOMIC CHARGES
----------------------
   0 C :   -0.065653
   1 C :   -0.048686
   2 C :   -0.046252
   3 C :   -0.036668
   4 C :   -0.038782
   5 C :   -0.027054
   6 C :   -0.070391
   7 H :    0.036100
   8 H :    0.030545
   9 H :    0.035524
  10 H :    0.020579
  11 H :    0.019704
  12 H :    0.032758
  13 H :    0.027235
  14 H :    0.034129
  15 H :    0.027690
  16 H :    0.024109
  17 H :    0.020874
  18 H :    0.024239

  Mayer bond orders larger than 0.1
B(  0-C ,  1-C ) :   1.0849 B(  0-C ,  7-H ) :   0.9467 B(  0-C ,  8-H ) :   0.9612
B(  0-C ,  9-H ) :   0.9478 B(  1-C ,  2-C ) :   1.9284 B(  1-C , 10-H ) :   0.9538
B(  2-C ,  3-C ) :   1.0653 B(  2-C , 11-H ) :   0.9478 B(  3-C ,  4-C ) :   1.0551
B(  3-C , 12-H ) :   0.9156 B(  3-C , 13-H ) :   0.9322 B(  4-C ,  5-C ) :   1.0668
B(  4-C , 14-H ) :   0.9148 B(  4-C , 15-H ) :   0.9327 B(  5-C ,  6-C ) :   2.0139
B(  5-C , 16-H ) :   0.9526 B(  6-C , 17-H ) :   0.9478 B(  6-C , 18-H ) :   0.9437

FINAL SINGLE POINT ENERGY      -273.338839871670

DIPOLE MOMENT
-------------
                                X             Y             Z
Electronic contribution:      2.06422      -0.03666      -0.02760
Nuclear contribution   :     -2.25115       0.10706       0.08765
                        -----------------------------------------
Total Dipole Moment    :     -0.18693       0.07040       0.06006
                        -----------------------------------------
Magnitude (a.u.)       :      0.20858
Magnitude (Debye)      :      0.53016

                             ****ORCA TERMINATED NORMALLY****
TOTAL RUN TIME: 0 days 0 hours 0 minutes 7 seconds 988 msec
