                         Program Version 3.0.3 - RELEASE   -
|  1> ! RI PBE def2-SVP def2-SVP/J NBO PAL2
|  2> % maxcore 2000
|  3> % output
|  4>     # printlevel mini
|  5>     print[ P_Basis ] 0
|  6>     print[ P_SCFInfo ] 1
|  7>     print[ P_SCFIterInfo ] 1
|  8>     print[ P_OrbEn ] 0
|  9>     print[ P_Cartesian ] 0
| 10> end
| 11> *xyz 0 1
| 12>  C        1.0647040000     1.9198620000     0.6404030000
| 13>  C        2.4811720000     1.5159210000     0.4155250000
| 14>  C        3.0391120000     1.3077520000    -0.7710640000
| 15>  C        4.4580450000     0.9017640000    -0.9912000000
| 16>  C        5.2354750000     1.9397950000    -1.8137210000
| 17>  C        6.6070780000     1.5406390000    -2.0780530000
| 18>  C        7.7372530000     1.1902830000    -2.2826680000
| 19>  H        1.0061880000     2.8668020000     1.1865100000
| 20>  H        0.5341160000     1.1775430000     1.2453180000
| 21>  H        0.5278090000     2.0365570000    -0.3030140000
| 22>  H        3.0932400000     1.3795790000     1.3068470000
| 23>  H        2.4310730000     1.4436200000    -1.6662860000
| 24>  H        4.4977990000    -0.0548630000    -1.5239060000
| 25>  H        4.9606130000     0.7503440000    -0.0323870000
| 26>  H        5.2315820000     2.8985160000    -1.2848780000
| 27>  H        4.7219930000     2.1122930000    -2.7661620000
| 28>  H        8.7398500000     0.8853730000    -2.4674640000
| 29> *
| 30>
| 31>                          ****END OF INPUT****
 Total Charge           Charge          ....    0
 Multiplicity           Mult            ....    1
 Number of Electrons    NEL             ....   52
 Basis Dimension        Dim             ....  148

MULLIKEN ATOMIC CHARGES
-----------------------
   0 C :    0.034344
   1 C :   -0.102976
   2 C :   -0.059666
   3 C :    0.043093
   4 C :    0.056766
   5 C :    0.344681
   6 C :   -0.505164
   7 H :    0.033638
   8 H :    0.036868
   9 H :    0.018756
  10 H :   -0.005373
  11 H :   -0.010533
  12 H :    0.030174
  13 H :    0.015778
  14 H :    0.037749
  15 H :    0.035297
  16 H :   -0.003430
Sum of atomic charges:   -0.0000000

LOEWDIN ATOMIC CHARGES
----------------------
   0 C :   -0.066565
   1 C :   -0.043182
   2 C :   -0.049479
   3 C :   -0.027825
   4 C :   -0.044021
   5 C :   -0.022080
   6 C :   -0.093854
   7 H :    0.036966
   8 H :    0.037729
   9 H :    0.030706
  10 H :    0.022281
  11 H :    0.020355
  12 H :    0.037013
  13 H :    0.032291
  14 H :    0.048714
  15 H :    0.047590
  16 H :    0.033361

  Mayer bond orders larger than 0.1
B(  0-C ,  1-C ) :   1.0891 B(  0-C ,  7-H ) :   0.9465 B(  0-C ,  8-H ) :   0.9467
B(  0-C ,  9-H ) :   0.9595 B(  1-C ,  2-C ) :   1.9290 B(  1-C , 10-H ) :   0.9535
B(  2-C ,  3-C ) :   1.0616 B(  2-C , 11-H ) :   0.9451 B(  3-C ,  4-C ) :   1.0675
B(  3-C , 12-H ) :   0.9157 B(  3-C , 13-H ) :   0.9329 B(  4-C ,  5-C ) :   1.0633
B(  4-C , 14-H ) :   0.8983 B(  4-C , 15-H ) :   0.8952 B(  5-C ,  6-C ) :   2.3287
B(  5-C , 16-H ) :  -0.1099 B(  6-C , 16-H ) :   1.1005

FINAL SINGLE POINT ENERGY      -272.096463443530

DIPOLE MOMENT
-------------
                                X             Y             Z
Electronic contribution:      6.33313      -0.57298      -2.81482
Nuclear contribution   :     -6.70414       0.63551       2.95241
                        -----------------------------------------
Total Dipole Moment    :     -0.37101       0.06253       0.13759
                        -----------------------------------------
Magnitude (a.u.)       :      0.40061
Magnitude (Debye)      :      1.01827

                             ****ORCA TERMINATED NORMALLY****
TOTAL RUN TIME: 0 days 0 hours 0 minutes 7 seconds 365 msec
