                         Program Version 3.0.3 - RELEASE   -
|  1> ! RI PBE def2-SVP def2-SVP/J NBO PAL2
|  2> % maxcore 2000
|  3> % output
|  4>     # printlevel mini
|  5>     print[ P_Basis ] 0
|  6>     print[ P_SCFInfo ] 1
|  7>     print[ P_SCFIterInfo ] 1
|  8>     print[ P_OrbEn ] 0
|  9>     print[ P_Cartesian ] 0
| 10> end
| 11> *xyz 0 1
| 12>  C        4.3424590000    -1.5242550000    -0.4380260000
| 13>  C        3.1547440000    -0.6135710000    -0.3873920000
| 14>  C        2.0229280000    -0.9061130000    -1.0397350000
| 15>  C        3.2424130000     0.6109690000     0.3888040000
| 16>  C        4.3114520000     1.0248170000     1.0880100000
| 17>  C        4.3454310000     2.2536810000     1.8442530000
| 18>  C        5.3994630000     2.6786270000     2.5438580000
| 19>  H        4.1365940000    -2.4001540000    -1.0534080000
| 20>  H        4.6186930000    -1.8666030000     0.5635760000
| 21>  H        5.2144190000    -1.0108530000    -0.8537380000
| 22>  H        1.9239900000    -1.8111450000    -1.6277530000
| 23>  H        1.1648980000    -0.2439920000    -1.0006000000
| 24>  H        2.3507020000     1.2351170000     0.3908500000
| 25>  H        5.2151240000     0.4201910000     1.1027790000
| 26>  H        3.4400640000     2.8572540000     1.8281330000
| 27>  H        6.3189760000     2.1033850000     2.5830300000
| 28>  H        5.3761390000     3.6097540000     3.0962510000
| 29> *
| 30>
| 31>                          ****END OF INPUT****
 Total Charge           Charge          ....    0
 Multiplicity           Mult            ....    1
 Number of Electrons    NEL             ....   52
 Basis Dimension        Dim             ....  148

MULLIKEN ATOMIC CHARGES
-----------------------
   0 C :    0.073357
   1 C :   -0.114075
   2 C :   -0.043398
   3 C :    0.008785
   4 C :   -0.000284
   5 C :   -0.004213
   6 C :   -0.032464
   7 H :    0.013126
   8 H :    0.035980
   9 H :    0.035666
  10 H :    0.013418
  11 H :    0.015067
  12 H :   -0.023590
  13 H :   -0.016451
  14 H :   -0.006859
  15 H :    0.018769
  16 H :    0.027167
Sum of atomic charges:   -0.0000000

LOEWDIN ATOMIC CHARGES
----------------------
   0 C :   -0.055333
   1 C :   -0.033453
   2 C :   -0.053276
   3 C :   -0.023074
   4 C :   -0.035683
   5 C :   -0.030753
   6 C :   -0.053016
   7 H :    0.032460
   8 H :    0.038117
   9 H :    0.038083
  10 H :    0.021377
  11 H :    0.021770
  12 H :    0.027723
  13 H :    0.026306
  14 H :    0.029687
  15 H :    0.022935
  16 H :    0.026130

  Mayer bond orders larger than 0.1
B(  0-C ,  1-C ) :   1.1052 B(  0-C ,  7-H ) :   0.9447 B(  0-C ,  8-H ) :   0.9353
B(  0-C ,  9-H ) :   0.9340 B(  1-C ,  2-C ) :   1.8552 B(  1-C ,  3-C ) :   1.1162
B(  2-C ,  4-C ) :   0.1162 B(  2-C , 10-H ) :   0.9316 B(  2-C , 11-H ) :   0.9414
B(  3-C ,  4-C ) :   1.6640 B(  3-C ,  6-C ) :   0.1217 B(  3-C , 12-H ) :   0.9680
B(  4-C ,  5-C ) :   1.1501 B(  4-C , 13-H ) :   0.9508 B(  5-C ,  6-C ) :   1.8635
B(  5-C , 14-H ) :   0.9644 B(  6-C , 15-H ) :   0.9463 B(  6-C , 16-H ) :   0.9411

FINAL SINGLE POINT ENERGY      -272.137707400764

DIPOLE MOMENT
-------------
                                X             Y             Z
Electronic contribution:     -1.14225       1.68177       0.53793
Nuclear contribution   :      1.21212      -1.79406      -0.57372
                        -----------------------------------------
Total Dipole Moment    :      0.06988      -0.11229      -0.03579
                        -----------------------------------------
Magnitude (a.u.)       :      0.13701
Magnitude (Debye)      :      0.34826

                             ****ORCA TERMINATED NORMALLY****
TOTAL RUN TIME: 0 days 0 hours 0 minutes 7 seconds 12 msec
