                         Program Version 3.0.3 - RELEASE   -
|  1> ! RI PBE def2-SVP def2-SVP/J NBO PAL2
|  2> % maxcore 2000
|  3> % output
|  4>     # printlevel mini
|  5>     print[ P_Basis ] 0
|  6>     print[ P_SCFInfo ] 1
|  7>     print[ P_SCFIterInfo ] 1
|  8>     print[ P_OrbEn ] 0
|  9>     print[ P_Cartesian ] 0
| 10> end
| 11> *xyz 0 1
| 12>  C        0.9807560000     0.1774250000    -0.0916440000
| 13>  C        2.4513550000    -0.0045550000     0.1215710000
| 14>  C        2.9761290000    -0.1097430000     1.3482980000
| 15>  C        3.3292580000    -0.0683160000    -1.0333360000
| 16>  C        2.9309000000     0.0237900000    -2.3128270000
| 17>  C        3.8117500000    -0.0421040000    -3.4157270000
| 18>  C        4.5372490000    -0.0947230000    -4.3757150000
| 19>  H        0.4503920000     0.2068700000     0.8601030000
| 20>  H        0.5652720000    -0.6391430000    -0.6894640000
| 21>  H        0.7725690000     1.1079050000    -0.6279930000
| 22>  H        2.3565740000    -0.0673120000     2.2364570000
| 23>  H        4.0426720000    -0.2413680000     1.4933700000
| 24>  H        4.3877720000    -0.2011480000    -0.8281170000
| 25>  H        1.8785660000     0.1569160000    -2.5476830000
| 26>  H        5.1847850000    -0.1431950000    -5.2186930000
| 27> *
| 28>
| 29>                          ****END OF INPUT****
 Total Charge           Charge          ....    0
 Multiplicity           Mult            ....    1
 Number of Electrons    NEL             ....   50
 Basis Dimension        Dim             ....  138

MULLIKEN ATOMIC CHARGES
-----------------------
   0 C :    0.069723
   1 C :   -0.127827
   2 C :   -0.035781
   3 C :    0.039270
   4 C :   -0.085619
   5 C :    0.408261
   6 C :   -0.420875
   7 H :    0.016158
   8 H :    0.042126
   9 H :    0.039190
  10 H :    0.015868
  11 H :    0.020640
  12 H :   -0.010084
  13 H :    0.023372
  14 H :    0.005580
Sum of atomic charges:   -0.0000000

LOEWDIN ATOMIC CHARGES
----------------------
   0 C :   -0.056759
   1 C :   -0.035059
   2 C :   -0.043055
   3 C :    0.001469
   4 C :   -0.055375
   5 C :   -0.016593
   6 C :   -0.066834
   7 H :    0.034135
   8 H :    0.040018
   9 H :    0.039593
  10 H :    0.022836
  11 H :    0.024072
  12 H :    0.034580
  13 H :    0.041300
  14 H :    0.035673

  Mayer bond orders larger than 0.1
B(  0-C ,  1-C ) :   1.1000 B(  0-C ,  7-H ) :   0.9441 B(  0-C ,  8-H ) :   0.9359
B(  0-C ,  9-H ) :   0.9343 B(  1-C ,  2-C ) :   1.8506 B(  1-C ,  3-C ) :   1.1258
B(  2-C ,  4-C ) :   0.1209 B(  2-C , 10-H ) :   0.9334 B(  2-C , 11-H ) :   0.9436
B(  3-C ,  4-C ) :   1.7000 B(  3-C ,  6-C ) :   0.1158 B(  3-C , 12-H ) :   0.9687
B(  4-C ,  5-C ) :   1.0375 B(  4-C , 13-H ) :   0.9300 B(  5-C ,  6-C ) :   2.2474
B(  6-C , 14-H ) :   1.0882

FINAL SINGLE POINT ENERGY      -270.890822888781

DIPOLE MOMENT
-------------
                                X             Y             Z
Electronic contribution:      3.52289      -0.25281      -4.75434
Nuclear contribution   :     -3.75068       0.26935       4.99222
                        -----------------------------------------
Total Dipole Moment    :     -0.22779       0.01655       0.23788
                        -----------------------------------------
Magnitude (a.u.)       :      0.32977
Magnitude (Debye)      :      0.83821

                             ****ORCA TERMINATED NORMALLY****
TOTAL RUN TIME: 0 days 0 hours 0 minutes 6 seconds 756 msec
