                         Program Version 3.0.3 - RELEASE   -
|  1> ! RI PBE def2-SVP def2-SVP/J NBO PAL2
|  2> % maxcore 2000
|  3> % output
|  4>     # printlevel mini
|  5>     print[ P_Basis ] 0
|  6>     print[ P_SCFInfo ] 1
|  7>     print[ P_SCFIterInfo ] 1
|  8>     print[ P_OrbEn ] 0
|  9>     print[ P_Cartesian ] 0
| 10> end
| 11> *xyz 0 1
| 12>  C        2.4747580000     1.5734620000    -0.0357560000
| 13>  C        2.1789910000     0.1038580000    -0.0664050000
| 14>  C        1.3456800000    -0.4765210000     0.7920320000
| 15>  C        2.8413410000    -0.6859100000    -1.1386240000
| 16>  C        2.1318880000    -1.1756030000    -2.1607140000
| 17>  C        4.2842680000    -0.9136790000    -1.0695640000
| 18>  C        5.0567740000    -0.6667460000    -0.0137960000
| 19>  H        1.9909330000     2.0555090000     0.8149470000
| 20>  H        2.1173220000     2.0494180000    -0.9543820000
| 21>  H        3.5492360000     1.7648230000     0.0164070000
| 22>  H        0.8471310000     0.0974580000     1.5662300000
| 23>  H        1.1438860000    -1.5404660000     0.7492050000
| 24>  H        1.0618150000    -1.0221800000    -2.2292060000
| 25>  H        2.6104910000    -1.7421630000    -2.9528180000
| 26>  H        4.7289420000    -1.3490930000    -1.9615650000
| 27>  H        4.6512370000    -0.2567260000     0.9047850000
| 28>  H        6.1174970000    -0.8854500000    -0.0324860000
| 29> *
| 30>
| 31>                          ****END OF INPUT****
 Total Charge           Charge          ....    0
 Multiplicity           Mult            ....    1
 Number of Electrons    NEL             ....   52
 Basis Dimension        Dim             ....  148

MULLIKEN ATOMIC CHARGES
-----------------------
   0 C :    0.091667
   1 C :   -0.192222
   2 C :   -0.003622
   3 C :   -0.014263
   4 C :   -0.031452
   5 C :   -0.010812
   6 C :   -0.024045
   7 H :    0.013786
   8 H :    0.031604
   9 H :    0.027024
  10 H :    0.009849
  11 H :    0.015303
  12 H :    0.023545
  13 H :    0.015960
  14 H :   -0.013708
  15 H :    0.031945
  16 H :    0.029440
Sum of atomic charges:   -0.0000000

LOEWDIN ATOMIC CHARGES
----------------------
   0 C :   -0.051196
   1 C :   -0.026613
   2 C :   -0.061264
   3 C :   -0.025623
   4 C :   -0.041253
   5 C :   -0.024056
   6 C :   -0.050146
   7 H :    0.030708
   8 H :    0.039466
   9 H :    0.035032
  10 H :    0.020495
  11 H :    0.023989
  12 H :    0.025704
  13 H :    0.022267
  14 H :    0.029426
  15 H :    0.025614
  16 H :    0.027451

  Mayer bond orders larger than 0.1
B(  0-C ,  1-C ) :   1.0812 B(  0-C ,  7-H ) :   0.9503 B(  0-C ,  8-H ) :   0.9395
B(  0-C ,  9-H ) :   0.9405 B(  1-C ,  2-C ) :   1.9766 B(  1-C ,  3-C ) :   0.9789
B(  2-C , 10-H ) :   0.9325 B(  2-C , 11-H ) :   0.9379 B(  3-C ,  4-C ) :   1.8856
B(  3-C ,  5-C ) :   1.1180 B(  4-C ,  6-C ) :   0.1338 B(  4-C , 12-H ) :   0.9371
B(  4-C , 13-H ) :   0.9375 B(  5-C ,  6-C ) :   1.9053 B(  5-C , 14-H ) :   0.9519
B(  6-C , 15-H ) :   0.9279 B(  6-C , 16-H ) :   0.9419

FINAL SINGLE POINT ENERGY      -272.123639577068

DIPOLE MOMENT
-------------
                                X             Y             Z
Electronic contribution:      0.23020      -1.85510      -1.05037
Nuclear contribution   :     -0.16845       1.98775       1.00243
                        -----------------------------------------
Total Dipole Moment    :      0.06175       0.13265      -0.04794
                        -----------------------------------------
Magnitude (a.u.)       :      0.15397
Magnitude (Debye)      :      0.39137

                             ****ORCA TERMINATED NORMALLY****
TOTAL RUN TIME: 0 days 0 hours 0 minutes 7 seconds 812 msec
