                         Program Version 3.0.3 - RELEASE   -
|  1> ! RI PBE def2-SVP def2-SVP/J NBO PAL2
|  2> % maxcore 2000
|  3> % output
|  4>     # printlevel mini
|  5>     print[ P_Basis ] 0
|  6>     print[ P_SCFInfo ] 1
|  7>     print[ P_SCFIterInfo ] 1
|  8>     print[ P_OrbEn ] 0
|  9>     print[ P_Cartesian ] 0
| 10> end
| 11> *xyz 0 1
| 12>  C        1.1883780000    -0.4815770000     0.3224760000
| 13>  C        2.4912880000     0.0608620000    -0.1761440000
| 14>  C        3.0273540000    -0.3610810000    -1.3226640000
| 15>  C        3.1686850000     1.0834840000     0.6453940000
| 16>  C        2.6666190000     1.5367400000     1.8042400000
| 17>  C        4.4135830000     1.6088130000     0.1790430000
| 18>  C        5.4609530000     2.0510310000    -0.2121130000
| 19>  H        0.7943250000    -1.2241450000    -0.3710230000
| 20>  H        0.4426870000     0.3111990000     0.4329180000
| 21>  H        1.3028070000    -0.9561710000     1.3014640000
| 22>  H        2.5304980000    -1.1117320000    -1.9260620000
| 23>  H        3.9701000000     0.0314900000    -1.6831720000
| 24>  H        1.7280660000     1.1690940000     2.1971140000
| 25>  H        3.1917490000     2.2874100000     2.3799020000
| 26>  H        6.3884280000     2.4467940000    -0.5525620000
| 27> *
| 28>
| 29>                          ****END OF INPUT****
 Total Charge           Charge          ....    0
 Multiplicity           Mult            ....    1
 Number of Electrons    NEL             ....   50
 Basis Dimension        Dim             ....  138

MULLIKEN ATOMIC CHARGES
-----------------------
   0 C :    0.040118
   1 C :   -0.097241
   2 C :   -0.029071
   3 C :   -0.016897
   4 C :   -0.021148
   5 C :    0.390774
   6 C :   -0.457657
   7 H :    0.017250
   8 H :    0.042241
   9 H :    0.041573
  10 H :    0.011772
  11 H :    0.028137
  12 H :    0.016448
  13 H :    0.029309
  14 H :    0.004393
Sum of atomic charges:   -0.0000000

LOEWDIN ATOMIC CHARGES
----------------------
   0 C :   -0.056462
   1 C :   -0.025714
   2 C :   -0.037985
   3 C :   -0.044828
   4 C :   -0.021310
   5 C :   -0.000950
   6 C :   -0.068662
   7 H :    0.034343
   8 H :    0.038587
   9 H :    0.038654
  10 H :    0.022935
  11 H :    0.028657
  12 H :    0.024070
  13 H :    0.031945
  14 H :    0.036720

  Mayer bond orders larger than 0.1
B(  0-C ,  1-C ) :   1.1005 B(  0-C ,  7-H ) :   0.9424 B(  0-C ,  8-H ) :   0.9362
B(  0-C ,  9-H ) :   0.9357 B(  1-C ,  2-C ) :   1.9164 B(  1-C ,  3-C ) :   1.0681
B(  2-C ,  4-C ) :   0.1354 B(  2-C , 10-H ) :   0.9286 B(  2-C , 11-H ) :   0.9132
B(  3-C ,  4-C ) :   1.8549 B(  3-C ,  5-C ) :   0.9634 B(  4-C ,  6-C ) :   0.1089
B(  4-C , 12-H ) :   0.9163 B(  4-C , 13-H ) :   0.9383 B(  5-C ,  6-C ) :   2.2743
B(  5-C , 14-H ) :  -0.1041 B(  6-C , 14-H ) :   1.0940

FINAL SINGLE POINT ENERGY      -270.883662362134

DIPOLE MOMENT
-------------
                                X             Y             Z
Electronic contribution:      4.30679       2.74523      -0.25635
Nuclear contribution   :     -4.51200      -2.85054       0.30919
                        -----------------------------------------
Total Dipole Moment    :     -0.20522      -0.10531       0.05284
                        -----------------------------------------
Magnitude (a.u.)       :      0.23664
Magnitude (Debye)      :      0.60149

                             ****ORCA TERMINATED NORMALLY****
TOTAL RUN TIME: 0 days 0 hours 0 minutes 6 seconds 8 msec
