                         Program Version 3.0.3 - RELEASE   -
|  1> ! RI PBE def2-SVP def2-SVP/J NBO PAL2
|  2> % maxcore 2000
|  3> % output
|  4>     # printlevel mini
|  5>     print[ P_Basis ] 0
|  6>     print[ P_SCFInfo ] 1
|  7>     print[ P_SCFIterInfo ] 1
|  8>     print[ P_OrbEn ] 0
|  9>     print[ P_Cartesian ] 0
| 10> end
| 11> *xyz 0 1
| 12>  C        3.0195640000     1.2927110000    -0.7156110000
| 13>  C        2.6044380000    -0.0081340000    -0.0904900000
| 14>  C        1.6369610000    -0.7285780000    -0.6528980000
| 15>  C        3.3305790000    -0.4377620000     1.1792000000
| 16>  C        3.1321880000     0.6212900000     2.2709970000
| 17>  C        2.8172630000    -1.7723330000     1.7111600000
| 18>  C        4.8306670000    -0.5813510000     0.8926990000
| 19>  H        2.4325830000     1.4925600000    -1.6126100000
| 20>  H        4.0752400000     1.2864210000    -1.0004640000
| 21>  H        2.8813740000     2.1335990000    -0.0304570000
| 22>  H        1.1465130000    -0.3847360000    -1.5573480000
| 23>  H        1.2959290000    -1.6725760000    -0.2484290000
| 24>  H        2.0704860000     0.7692540000     2.4844230000
| 25>  H        3.5608520000     1.5847650000     1.9885070000
| 26>  H        3.6225320000     0.3018000000     3.1945930000
| 27>  H        1.7553910000    -1.7235280000     1.9639670000
| 28>  H        3.3632270000    -2.0416110000     2.6189410000
| 29>  H        2.9606140000    -2.5769360000     0.9859470000
| 30>  H        5.2818110000     0.3661860000     0.5918950000
| 31>  H        5.0094850000    -1.3117780000     0.0995030000
| 32>  H        5.3515040000    -0.9223820000     1.7915670000
| 33> *
| 34>
| 35>                          ****END OF INPUT****
 Total Charge           Charge          ....    0
 Multiplicity           Mult            ....    1
 Number of Electrons    NEL             ....   56
 Basis Dimension        Dim             ....  168

MULLIKEN ATOMIC CHARGES
-----------------------
   0 C :    0.070102
   1 C :   -0.095309
   2 C :   -0.033547
   3 C :   -0.316260
   4 C :    0.070211
   5 C :    0.060823
   6 C :    0.059661
   7 H :    0.005046
   8 H :    0.024632
   9 H :    0.026424
  10 H :   -0.004169
  11 H :    0.004855
  12 H :    0.015951
  13 H :    0.013523
  14 H :    0.006681
  15 H :    0.019403
  16 H :    0.006426
  17 H :    0.020309
  18 H :    0.014154
  19 H :    0.021055
  20 H :    0.010029
Sum of atomic charges:   -0.0000000

LOEWDIN ATOMIC CHARGES
----------------------
   0 C :   -0.055694
   1 C :   -0.016766
   2 C :   -0.080452
   3 C :   -0.060334
   4 C :   -0.042340
   5 C :   -0.049138
   6 C :   -0.044022
   7 H :    0.030387
   8 H :    0.032959
   9 H :    0.032931
  10 H :    0.017739
  11 H :    0.017777
  12 H :    0.026179
  13 H :    0.020719
  14 H :    0.023961
  15 H :    0.025048
  16 H :    0.024004
  17 H :    0.024920
  18 H :    0.020638
  19 H :    0.027098
  20 H :    0.024387

  Mayer bond orders larger than 0.1
B(  0-C ,  1-C ) :   1.0913 B(  0-C ,  7-H ) :   0.9396 B(  0-C ,  8-H ) :   0.9392
B(  0-C ,  9-H ) :   0.9417 B(  1-C ,  2-C ) :   2.0076 B(  1-C ,  3-C ) :   0.9603
B(  2-C , 10-H ) :   0.9236 B(  2-C , 11-H ) :   0.9200 B(  3-C ,  4-C ) :   1.0397
B(  3-C ,  5-C ) :   1.0855 B(  3-C ,  6-C ) :   1.0384 B(  4-C , 12-H ) :   0.9599
B(  4-C , 13-H ) :   0.9537 B(  4-C , 14-H ) :   0.9544 B(  5-C , 15-H ) :   0.9454
B(  5-C , 16-H ) :   0.9490 B(  5-C , 17-H ) :   0.9468 B(  6-C , 18-H ) :   0.9535
B(  6-C , 19-H ) :   0.9606 B(  6-C , 20-H ) :   0.9542

FINAL SINGLE POINT ENERGY      -274.558866011565

DIPOLE MOMENT
-------------
                                X             Y             Z
Electronic contribution:     -1.50034      -0.31190      -1.57981
Nuclear contribution   :      1.65827       0.42525       1.67088
                        -----------------------------------------
Total Dipole Moment    :      0.15793       0.11335       0.09107
                        -----------------------------------------
Magnitude (a.u.)       :      0.21467
Magnitude (Debye)      :      0.54565

                             ****ORCA TERMINATED NORMALLY****
TOTAL RUN TIME: 0 days 0 hours 0 minutes 9 seconds 26 msec
