                         Program Version 3.0.3 - RELEASE   -
|  1> ! RI PBE def2-SVP def2-SVP/J NBO PAL2
|  2> % maxcore 2000
|  3> % output
|  4>     # printlevel mini
|  5>     print[ P_Basis ] 0
|  6>     print[ P_SCFInfo ] 1
|  7>     print[ P_SCFIterInfo ] 1
|  8>     print[ P_OrbEn ] 0
|  9>     print[ P_Cartesian ] 0
| 10> end
| 11> *xyz 0 1
| 12>  C        1.0625680000    -0.2133500000     0.0958760000
| 13>  C        2.5422740000     0.0310730000     0.0251830000
| 14>  C        3.1814450000     0.2694880000    -1.1251400000
| 15>  C        3.2467990000    -0.0027820000     1.2590930000
| 16>  C        3.8152060000    -0.0385730000     2.3262880000
| 17>  C        4.4594750000    -0.0847920000     3.5836630000
| 18>  C        5.7675870000     0.1020380000     3.7709310000
| 19>  H        0.6132940000    -0.1684340000    -0.8967600000
| 20>  H        0.5801390000     0.5306820000     0.7349310000
| 21>  H        0.8552220000    -1.1936960000     0.5324640000
| 22>  H        2.6409430000     0.2945240000    -2.0642100000
| 23>  H        4.2496610000     0.4430870000    -1.1509250000
| 24>  H        3.8217370000    -0.2883960000     4.4407770000
| 25>  H        6.4339180000     0.3069090000     2.9416260000
| 26>  H        6.1973310000     0.0529230000     4.7637050000
| 27> *
| 28>
| 29>                          ****END OF INPUT****
 Total Charge           Charge          ....    0
 Multiplicity           Mult            ....    1
 Number of Electrons    NEL             ....   50
 Basis Dimension        Dim             ....  138

MULLIKEN ATOMIC CHARGES
-----------------------
   0 C :    0.080191
   1 C :   -0.197729
   2 C :    0.003831
   3 C :    0.023168
   4 C :   -0.041481
   5 C :   -0.089929
   6 C :   -0.011360
   7 H :    0.013643
   8 H :    0.042293
   9 H :    0.038008
  10 H :    0.016614
  11 H :    0.023825
  12 H :    0.031256
  13 H :    0.035719
  14 H :    0.031949
Sum of atomic charges:    0.0000000

LOEWDIN ATOMIC CHARGES
----------------------
   0 C :   -0.043772
   1 C :   -0.050131
   2 C :   -0.035297
   3 C :   -0.026120
   4 C :   -0.041621
   5 C :   -0.047641
   6 C :   -0.023735
   7 H :    0.031290
   8 H :    0.041677
   9 H :    0.041009
  10 H :    0.023619
  11 H :    0.028755
  12 H :    0.043776
  13 H :    0.030316
  14 H :    0.027874

  Mayer bond orders larger than 0.1
B(  0-C ,  1-C ) :   1.0718 B(  0-C ,  7-H ) :   0.9469 B(  0-C ,  8-H ) :   0.9480
B(  0-C ,  9-H ) :   0.9478 B(  1-C ,  2-C ) :   1.8880 B(  1-C ,  3-C ) :   1.0357
B(  2-C ,  4-C ) :   0.1033 B(  2-C , 10-H ) :   0.9314 B(  2-C , 11-H ) :   0.9408
B(  3-C ,  4-C ) :   2.3688 B(  3-C ,  6-C ) :   0.1157 B(  4-C ,  5-C ) :   1.0719
B(  5-C ,  6-C ) :   1.8955 B(  5-C , 12-H ) :   0.9461 B(  6-C , 13-H ) :   0.9532
B(  6-C , 14-H ) :   0.9437

FINAL SINGLE POINT ENERGY      -270.892973807423

DIPOLE MOMENT
-------------
                                X             Y             Z
Electronic contribution:      1.67515       0.05885       1.78200
Nuclear contribution   :     -1.81696      -0.08091      -1.75811
                        -----------------------------------------
Total Dipole Moment    :     -0.14181      -0.02206       0.02389
                        -----------------------------------------
Magnitude (a.u.)       :      0.14549
Magnitude (Debye)      :      0.36981

                             ****ORCA TERMINATED NORMALLY****
TOTAL RUN TIME: 0 days 0 hours 0 minutes 6 seconds 580 msec
