                         Program Version 3.0.3 - RELEASE   -
|  1> ! RI PBE def2-SVP def2-SVP/J NBO PAL2
|  2> % maxcore 2000
|  3> % output
|  4>     # printlevel mini
|  5>     print[ P_Basis ] 0
|  6>     print[ P_SCFInfo ] 1
|  7>     print[ P_SCFIterInfo ] 1
|  8>     print[ P_OrbEn ] 0
|  9>     print[ P_Cartesian ] 0
| 10> end
| 11> *xyz 0 1
| 12>  C        1.0962000000     0.0231560000     0.0308990000
| 13>  C        2.5943540000     0.0868150000    -0.0474280000
| 14>  C        3.2474280000     0.8226230000    -0.9529010000
| 15>  C        3.3079750000    -0.6871300000     0.9049890000
| 16>  C        3.8734230000    -1.3630200000     1.7367360000
| 17>  C        4.5217540000    -2.1171760000     2.6647840000
| 18>  C        5.0958540000    -2.7864070000     3.4883400000
| 19>  H        0.6431410000     0.6486080000    -0.7387750000
| 20>  H        0.7471110000     0.3601320000     1.0101740000
| 21>  H        0.7471190000    -1.0043460000    -0.0986310000
| 22>  H        2.7037000000     1.4138490000    -1.6804610000
| 23>  H        4.3291110000     0.8488660000    -0.9851870000
| 24>  H        5.6027290000    -3.3764790000     4.2144810000
| 25> *
| 26>
| 27>                          ****END OF INPUT****
 Total Charge           Charge          ....    0
 Multiplicity           Mult            ....    1
 Number of Electrons    NEL             ....   48
 Basis Dimension        Dim             ....  128

MULLIKEN ATOMIC CHARGES
-----------------------
   0 C :    0.082753
   1 C :   -0.207060
   2 C :    0.010774
   3 C :   -0.000010
   4 C :    0.006950
   5 C :    0.357796
   6 C :   -0.424848
   7 H :    0.019321
   8 H :    0.043351
   9 H :    0.043382
  10 H :    0.021795
  11 H :    0.031393
  12 H :    0.014404
Sum of atomic charges:   -0.0000000

LOEWDIN ATOMIC CHARGES
----------------------
   0 C :   -0.041398
   1 C :   -0.051312
   2 C :   -0.026002
   3 C :    0.012282
   4 C :   -0.053939
   5 C :   -0.029717
   6 C :   -0.028631
   7 H :    0.033847
   8 H :    0.043209
   9 H :    0.043105
  10 H :    0.026389
  11 H :    0.031888
  12 H :    0.040280

  Mayer bond orders larger than 0.1
B(  0-C ,  1-C ) :   1.0678 B(  0-C ,  7-H ) :   0.9457 B(  0-C ,  8-H ) :   0.9478
B(  0-C ,  9-H ) :   0.9484 B(  1-C ,  2-C ) :   1.8866 B(  1-C ,  3-C ) :   1.0420
B(  2-C ,  4-C ) :   0.1030 B(  2-C , 10-H ) :   0.9307 B(  2-C , 11-H ) :   0.9410
B(  3-C ,  4-C ) :   2.2553 B(  3-C ,  6-C ) :   0.2498 B(  4-C ,  5-C ) :   0.9535
B(  5-C ,  6-C ) :   2.1278 B(  5-C , 12-H ) :  -0.1047 B(  6-C , 12-H ) :   1.0938

FINAL SINGLE POINT ENERGY      -269.654494264714

DIPOLE MOMENT
-------------
                                X             Y             Z
Electronic contribution:      4.60216      -3.40888       4.19497
Nuclear contribution   :     -4.87766       3.54604      -4.36375
                        -----------------------------------------
Total Dipole Moment    :     -0.27551       0.13716      -0.16879
                        -----------------------------------------
Magnitude (a.u.)       :      0.35100
Magnitude (Debye)      :      0.89218

                             ****ORCA TERMINATED NORMALLY****
TOTAL RUN TIME: 0 days 0 hours 0 minutes 5 seconds 964 msec
