                         Program Version 3.0.3 - RELEASE   -
|  1> ! RI PBE def2-SVP def2-SVP/J NBO PAL2
|  2> % maxcore 2000
|  3> % output
|  4>     # printlevel mini
|  5>     print[ P_Basis ] 0
|  6>     print[ P_SCFInfo ] 1
|  7>     print[ P_SCFIterInfo ] 1
|  8>     print[ P_OrbEn ] 0
|  9>     print[ P_Cartesian ] 0
| 10> end
| 11> *xyz 0 1
| 12>  C        2.8774870000    -1.7116350000     0.5580040000
| 13>  C        3.0738430000    -0.6502540000    -0.4769490000
| 14>  C        2.6382080000    -0.7850180000    -1.7256070000
| 15>  C        3.7891030000     0.5957680000    -0.0194180000
| 16>  C        5.2077750000     0.3509330000     0.4288280000
| 17>  C        6.1468230000    -0.1617920000    -0.6159280000
| 18>  C        5.5947870000     0.5887520000     1.6781280000
| 19>  H        2.3558420000    -2.5782890000     0.1506360000
| 20>  H        2.2985120000    -1.3241140000     1.4032870000
| 21>  H        3.8370130000    -2.0404880000     0.9687000000
| 22>  H        2.1148320000    -1.6780890000    -2.0501900000
| 23>  H        2.7852120000    -0.0035090000    -2.4634060000
| 24>  H        3.2305780000     1.0449690000     0.8093340000
| 25>  H        3.7935670000     1.3208750000    -0.8408570000
| 26>  H        5.7885390000    -1.1072470000    -1.0345600000
| 27>  H        7.1493500000    -0.3143480000    -0.2149080000
| 28>  H        6.2118160000     0.5400510000    -1.4544270000
| 29>  H        4.9016960000     0.9646540000     2.4231350000
| 30>  H        6.6184060000     0.4215790000     1.9961080000
| 31> *
| 32>
| 33>                          ****END OF INPUT****
 Total Charge           Charge          ....    0
 Multiplicity           Mult            ....    1
 Number of Electrons    NEL             ....   54
 Basis Dimension        Dim             ....  158

MULLIKEN ATOMIC CHARGES
-----------------------
   0 C :    0.080547
   1 C :   -0.211712
   2 C :   -0.040182
   3 C :    0.160694
   4 C :   -0.223797
   5 C :    0.084755
   6 C :   -0.029030
   7 H :    0.014801
   8 H :    0.025766
   9 H :    0.030210
  10 H :    0.007435
  11 H :    0.008720
  12 H :    0.002980
  13 H :    0.007528
  14 H :    0.029372
  15 H :    0.012512
  16 H :    0.026723
  17 H :    0.006360
  18 H :    0.006318
Sum of atomic charges:    0.0000000

LOEWDIN ATOMIC CHARGES
----------------------
   0 C :   -0.056523
   1 C :   -0.026781
   2 C :   -0.082150
   3 C :   -0.024645
   4 C :   -0.028526
   5 C :   -0.056081
   6 C :   -0.079629
   7 H :    0.030617
   8 H :    0.036919
   9 H :    0.036794
  10 H :    0.019563
  11 H :    0.018892
  12 H :    0.034541
  13 H :    0.035132
  14 H :    0.036728
  15 H :    0.030220
  16 H :    0.037048
  17 H :    0.018631
  18 H :    0.019249

  Mayer bond orders larger than 0.1
B(  0-C ,  1-C ) :   1.0876 B(  0-C ,  7-H ) :   0.9494 B(  0-C ,  8-H ) :   0.9387
B(  0-C ,  9-H ) :   0.9363 B(  1-C ,  2-C ) :   1.9716 B(  1-C ,  3-C ) :   1.0552
B(  2-C , 10-H ) :   0.9310 B(  2-C , 11-H ) :   0.9362 B(  3-C ,  4-C ) :   1.0584
B(  3-C , 12-H ) :   0.8952 B(  3-C , 13-H ) :   0.8978 B(  4-C ,  5-C ) :   1.0859
B(  4-C ,  6-C ) :   1.9718 B(  5-C , 14-H ) :   0.9371 B(  5-C , 15-H ) :   0.9489
B(  5-C , 16-H ) :   0.9392 B(  6-C , 17-H ) :   0.9338 B(  6-C , 18-H ) :   0.9326

FINAL SINGLE POINT ENERGY      -273.344575665851

DIPOLE MOMENT
-------------
                                X             Y             Z
Electronic contribution:     -0.63281       1.34596       0.01282
Nuclear contribution   :      0.66332      -1.40587      -0.00876
                        -----------------------------------------
Total Dipole Moment    :      0.03051      -0.05992       0.00406
                        -----------------------------------------
Magnitude (a.u.)       :      0.06736
Magnitude (Debye)      :      0.17121

                             ****ORCA TERMINATED NORMALLY****
TOTAL RUN TIME: 0 days 0 hours 0 minutes 8 seconds 58 msec
