                         Program Version 3.0.3 - RELEASE   -
|  1> ! RI PBE def2-SVP def2-SVP/J NBO PAL2
|  2> % maxcore 2000
|  3> % output
|  4>     # printlevel mini
|  5>     print[ P_Basis ] 0
|  6>     print[ P_SCFInfo ] 1
|  7>     print[ P_SCFIterInfo ] 1
|  8>     print[ P_OrbEn ] 0
|  9>     print[ P_Cartesian ] 0
| 10> end
| 11> *xyz 0 1
| 12>  C        3.5792260000     0.7887470000     2.3148380000
| 13>  C        3.0544200000     0.8934910000     0.9165770000
| 14>  C        2.3201470000     1.9283950000     0.5190960000
| 15>  C        3.3918900000    -0.2326580000    -0.0181730000
| 16>  C        4.8898260000    -0.3559490000    -0.3265860000
| 17>  C        5.1721590000    -1.4240290000    -1.3296790000
| 18>  C        5.9335890000    -2.4887680000    -1.1202290000
| 19>  H        3.2371510000     1.6195200000     2.9330430000
| 20>  H        4.6733760000     0.7829920000     2.3316340000
| 21>  H        3.2540360000    -0.1467320000     2.7824140000
| 22>  H        2.0737670000     2.7417830000     1.1932530000
| 23>  H        1.9381970000     1.9950880000    -0.4940890000
| 24>  H        2.8440500000    -0.0999020000    -0.9557970000
| 25>  H        3.0507830000    -1.1810310000     0.4152810000
| 26>  H        5.4539220000    -0.5586240000     0.5881390000
| 27>  H        5.2412100000     0.6090940000    -0.7121440000
| 28>  H        4.6944130000    -1.3020170000    -2.3011880000
| 29>  H        6.4276190000    -2.6526580000    -0.1670500000
| 30>  H        6.0952310000    -3.2330500000    -1.8914400000
| 31> *
| 32>
| 33>                          ****END OF INPUT****
 Total Charge           Charge          ....    0
 Multiplicity           Mult            ....    1
 Number of Electrons    NEL             ....   54
 Basis Dimension        Dim             ....  158

MULLIKEN ATOMIC CHARGES
-----------------------
   0 C :    0.052389
   1 C :   -0.191295
   2 C :   -0.025034
   3 C :    0.056959
   4 C :    0.048697
   5 C :   -0.075064
   6 C :   -0.041178
   7 H :    0.014864
   8 H :    0.038942
   9 H :    0.026603
  10 H :    0.005509
  11 H :    0.004982
  12 H :   -0.003823
  13 H :    0.016768
  14 H :    0.006816
  15 H :    0.020387
  16 H :    0.002535
  17 H :    0.015525
  18 H :    0.025418
Sum of atomic charges:    0.0000000

LOEWDIN ATOMIC CHARGES
----------------------
   0 C :   -0.059107
   1 C :   -0.031276
   2 C :   -0.078632
   3 C :   -0.027595
   4 C :   -0.037172
   5 C :   -0.026715
   6 C :   -0.069129
   7 H :    0.031813
   8 H :    0.035331
   9 H :    0.035684
  10 H :    0.018750
  11 H :    0.018583
  12 H :    0.026867
  13 H :    0.031067
  14 H :    0.025909
  15 H :    0.035535
  16 H :    0.024614
  17 H :    0.020800
  18 H :    0.024674

  Mayer bond orders larger than 0.1
B(  0-C ,  1-C ) :   1.0781 B(  0-C ,  7-H ) :   0.9470 B(  0-C ,  8-H ) :   0.9441
B(  0-C ,  9-H ) :   0.9432 B(  1-C ,  2-C ) :   1.9949 B(  1-C ,  3-C ) :   1.0574
B(  2-C , 10-H ) :   0.9304 B(  2-C , 11-H ) :   0.9329 B(  3-C ,  4-C ) :   1.0640
B(  3-C , 12-H ) :   0.9171 B(  3-C , 13-H ) :   0.9174 B(  4-C ,  5-C ) :   1.0698
B(  4-C , 14-H ) :   0.9248 B(  4-C , 15-H ) :   0.9129 B(  5-C ,  6-C ) :   2.0185
B(  5-C , 16-H ) :   0.9496 B(  6-C , 17-H ) :   0.9462 B(  6-C , 18-H ) :   0.9431

FINAL SINGLE POINT ENERGY      -273.337780009761

DIPOLE MOMENT
-------------
                                X             Y             Z
Electronic contribution:     -0.27299      -0.11826      -1.60636
Nuclear contribution   :      0.32704       0.08325       1.70881
                        -----------------------------------------
Total Dipole Moment    :      0.05405      -0.03501       0.10246
                        -----------------------------------------
Magnitude (a.u.)       :      0.12101
Magnitude (Debye)      :      0.30759

                             ****ORCA TERMINATED NORMALLY****
TOTAL RUN TIME: 0 days 0 hours 0 minutes 7 seconds 824 msec
