                         Program Version 3.0.3 - RELEASE   -
|  1> ! RI PBE def2-SVP def2-SVP/J NBO PAL2
|  2> % maxcore 2000
|  3> % output
|  4>     # printlevel mini
|  5>     print[ P_Basis ] 0
|  6>     print[ P_SCFInfo ] 1
|  7>     print[ P_SCFIterInfo ] 1
|  8>     print[ P_OrbEn ] 0
|  9>     print[ P_Cartesian ] 0
| 10> end
| 11> *xyz 0 1
| 12>  C        3.2225330000    -1.9550970000    -0.2537440000
| 13>  C        2.7955650000    -0.6298250000     0.2969340000
| 14>  C        2.1217660000    -0.5275890000     1.4385510000
| 15>  C        3.1527480000     0.5869620000    -0.5073830000
| 16>  C        4.6670340000     0.8384700000    -0.5815590000
| 17>  C        4.9957050000     2.0311530000    -1.3426510000
| 18>  C        5.2435730000     3.0214950000    -1.9747190000
| 19>  H        2.8706960000    -2.7774430000     0.3700110000
| 20>  H        4.3121540000    -2.0304560000    -0.3247150000
| 21>  H        2.8322180000    -2.0990090000    -1.2668330000
| 22>  H        1.8559000000    -1.4035070000     2.0205130000
| 23>  H        1.8094380000     0.4359690000     1.8266590000
| 24>  H        2.6708700000     1.4685010000    -0.0796290000
| 25>  H        2.7728130000     0.4793290000    -1.5297560000
| 26>  H        5.1716460000    -0.0203580000    -1.0350720000
| 27>  H        5.0675190000     0.9346950000     0.4332010000
| 28>  H        5.4696330000     3.8984120000    -2.5335190000
| 29> *
| 30>
| 31>                          ****END OF INPUT****
 Total Charge           Charge          ....    0
 Multiplicity           Mult            ....    1
 Number of Electrons    NEL             ....   52
 Basis Dimension        Dim             ....  148

MULLIKEN ATOMIC CHARGES
-----------------------
   0 C :    0.066614
   1 C :   -0.204752
   2 C :   -0.020683
   3 C :    0.059941
   4 C :    0.071796
   5 C :    0.343016
   6 C :   -0.509954
   7 H :    0.013063
   8 H :    0.034847
   9 H :    0.025418
  10 H :    0.008313
  11 H :    0.008074
  12 H :    0.012038
  13 H :    0.022923
  14 H :    0.035255
  15 H :    0.037263
  16 H :   -0.003171
Sum of atomic charges:   -0.0000000

LOEWDIN ATOMIC CHARGES
----------------------
   0 C :   -0.056920
   1 C :   -0.034626
   2 C :   -0.072769
   3 C :   -0.019319
   4 C :   -0.042193
   5 C :   -0.022026
   6 C :   -0.092024
   7 H :    0.032295
   8 H :    0.033996
   9 H :    0.036412
  10 H :    0.019984
  11 H :    0.020172
  12 H :    0.033046
  13 H :    0.034376
  14 H :    0.045881
  15 H :    0.050071
  16 H :    0.033641

  Mayer bond orders larger than 0.1
B(  0-C ,  1-C ) :   1.0820 B(  0-C ,  7-H ) :   0.9456 B(  0-C ,  8-H ) :   0.9440
B(  0-C ,  9-H ) :   0.9399 B(  1-C ,  2-C ) :   1.9966 B(  1-C ,  3-C ) :   1.0542
B(  2-C , 10-H ) :   0.9302 B(  2-C , 11-H ) :   0.9353 B(  3-C ,  4-C ) :   1.0689
B(  3-C , 12-H ) :   0.9231 B(  3-C , 13-H ) :   0.9150 B(  4-C ,  5-C ) :   1.0724
B(  4-C , 14-H ) :   0.8890 B(  4-C , 15-H ) :   0.8955 B(  5-C ,  6-C ) :   2.3254
B(  5-C , 16-H ) :  -0.1115 B(  6-C , 16-H ) :   1.1022

FINAL SINGLE POINT ENERGY      -272.095193003211

DIPOLE MOMENT
-------------
                                X             Y             Z
Electronic contribution:      2.16012       4.67097      -1.72216
Nuclear contribution   :     -2.17322      -4.96095       1.72475
                        -----------------------------------------
Total Dipole Moment    :     -0.01310      -0.28998       0.00259
                        -----------------------------------------
Magnitude (a.u.)       :      0.29029
Magnitude (Debye)      :      0.73785

                             ****ORCA TERMINATED NORMALLY****
TOTAL RUN TIME: 0 days 0 hours 0 minutes 7 seconds 571 msec
