                         Program Version 3.0.3 - RELEASE   -
|  1> ! RI PBE def2-SVP def2-SVP/J NBO PAL2
|  2> % maxcore 2000
|  3> % output
|  4>     # printlevel mini
|  5>     print[ P_Basis ] 0
|  6>     print[ P_SCFInfo ] 1
|  7>     print[ P_SCFIterInfo ] 1
|  8>     print[ P_OrbEn ] 0
|  9>     print[ P_Cartesian ] 0
| 10> end
| 11> *xyz 0 1
| 12>  C        1.0711940000    -0.3542840000     0.1478470000
| 13>  C        2.5231190000    -0.0470810000    -0.0694330000
| 14>  C        3.1960410000     0.9893300000     0.4727550000
| 15>  C        2.6647610000     1.9963330000     1.3572340000
| 16>  C        3.4004530000     2.9943750000     1.8532400000
| 17>  C        3.2131920000    -0.9484230000    -0.9258910000
| 18>  C        3.7557540000    -1.7371040000    -1.6567700000
| 19>  H        0.5879820000     0.3620500000     0.8094650000
| 20>  H        0.9571340000    -1.3532070000     0.5771980000
| 21>  H        0.5390880000    -0.3566100000    -0.8071740000
| 22>  H        4.2492670000     1.0839610000     0.2229350000
| 23>  H        1.6160090000     1.9378020000     1.6313210000
| 24>  H        4.4528620000     3.0950210000     1.6082840000
| 25>  H        2.9744530000     3.7373160000     2.5160570000
| 26>  H        4.2483100000    -2.4262690000    -2.3008790000
| 27> *
| 28>
| 29>                          ****END OF INPUT****
 Total Charge           Charge          ....    0
 Multiplicity           Mult            ....    1
 Number of Electrons    NEL             ....   50
 Basis Dimension        Dim             ....  138

MULLIKEN ATOMIC CHARGES
-----------------------
   0 C :    0.081796
   1 C :   -0.166011
   2 C :    0.033691
   3 C :   -0.010332
   4 C :   -0.031729
   5 C :    0.396027
   6 C :   -0.445307
   7 H :    0.019107
   8 H :    0.039852
   9 H :    0.042887
  10 H :   -0.011956
  11 H :   -0.004213
  12 H :    0.024640
  13 H :    0.027504
  14 H :    0.004045
Sum of atomic charges:   -0.0000000

LOEWDIN ATOMIC CHARGES
----------------------
   0 C :   -0.045616
   1 C :   -0.048454
   2 C :   -0.018316
   3 C :   -0.035414
   4 C :   -0.041985
   5 C :   -0.009585
   6 C :   -0.070362
   7 H :    0.029952
   8 H :    0.044213
   9 H :    0.044712
  10 H :    0.035739
  11 H :    0.028061
  12 H :    0.024807
  13 H :    0.026461
  14 H :    0.035787

  Mayer bond orders larger than 0.1
B(  0-C ,  1-C ) :   1.0884 B(  0-C ,  7-H ) :   0.9413 B(  0-C ,  8-H ) :   0.9394
B(  0-C ,  9-H ) :   0.9404 B(  1-C ,  2-C ) :   1.6734 B(  1-C ,  4-C ) :   0.1192
B(  1-C ,  5-C ) :   1.0432 B(  2-C ,  3-C ) :   1.1427 B(  2-C ,  6-C ) :   0.1056
B(  2-C , 10-H ) :   0.9519 B(  3-C ,  4-C ) :   1.8723 B(  3-C , 11-H ) :   0.9530
B(  4-C , 12-H ) :   0.9491 B(  4-C , 13-H ) :   0.9417 B(  5-C ,  6-C ) :   2.2606
B(  5-C , 14-H ) :  -0.1028 B(  6-C , 14-H ) :   1.0934

FINAL SINGLE POINT ENERGY      -270.889221839441

DIPOLE MOMENT
-------------
                                X             Y             Z
Electronic contribution:      2.38898      -2.33093      -2.40161
Nuclear contribution   :     -2.59516       2.37440       2.49099
                        -----------------------------------------
Total Dipole Moment    :     -0.20618       0.04348       0.08938
                        -----------------------------------------
Magnitude (a.u.)       :      0.22888
Magnitude (Debye)      :      0.58178

                             ****ORCA TERMINATED NORMALLY****
TOTAL RUN TIME: 0 days 0 hours 0 minutes 6 seconds 728 msec
