                         Program Version 3.0.3 - RELEASE   -
|  1> ! RI PBE def2-SVP def2-SVP/J NBO PAL2
|  2> % maxcore 2000
|  3> % output
|  4>     # printlevel mini
|  5>     print[ P_Basis ] 0
|  6>     print[ P_SCFInfo ] 1
|  7>     print[ P_SCFIterInfo ] 1
|  8>     print[ P_OrbEn ] 0
|  9>     print[ P_Cartesian ] 0
| 10> end
| 11> *xyz 0 1
| 12>  C        0.9940170000     0.2026500000    -0.0493500000
| 13>  C        2.4817490000     0.0815830000     0.0486340000
| 14>  C        3.1102000000    -0.8461510000     0.7995140000
| 15>  C        2.4529400000    -1.8170320000     1.5853230000
| 16>  C        1.9303310000    -2.6607460000     2.2681790000
| 17>  C        3.2498900000     1.0103170000    -0.7030440000
| 18>  C        3.8592110000     1.8172590000    -1.3561550000
| 19>  H        0.5005030000    -0.5522070000     0.5616430000
| 20>  H        0.6723530000     0.0892010000    -1.0880120000
| 21>  H        0.6723600000     1.1948830000     0.2780160000
| 22>  H        4.1953780000    -0.8623850000     0.8126570000
| 23>  H        1.4649660000    -3.4047120000     2.8703920000
| 24>  H        4.4098940000     2.5252410000    -1.9291890000
| 25> *
| 26>
| 27>                          ****END OF INPUT****
 Total Charge           Charge          ....    0
 Multiplicity           Mult            ....    1
 Number of Electrons    NEL             ....   48
 Basis Dimension        Dim             ....  128

MULLIKEN ATOMIC CHARGES
-----------------------
   0 C :    0.098570
   1 C :   -0.177937
   2 C :   -0.034813
   3 C :    0.400144
   4 C :   -0.420304
   5 C :    0.413058
   6 C :   -0.442132
   7 H :    0.033788
   8 H :    0.041022
   9 H :    0.040439
  10 H :    0.030732
  11 H :    0.008788
  12 H :    0.008646
Sum of atomic charges:   -0.0000000

LOEWDIN ATOMIC CHARGES
----------------------
   0 C :   -0.041146
   1 C :   -0.027185
   2 C :   -0.038965
   3 C :   -0.019658
   4 C :   -0.059817
   5 C :   -0.010132
   6 C :   -0.058313
   7 H :    0.038560
   8 H :    0.045363
   9 H :    0.045416
  10 H :    0.050712
  11 H :    0.037321
  12 H :    0.037845

  Mayer bond orders larger than 0.1
B(  0-C ,  1-C ) :   1.0925 B(  0-C ,  7-H ) :   0.9340 B(  0-C ,  8-H ) :   0.9408
B(  0-C ,  9-H ) :   0.9396 B(  1-C ,  2-C ) :   1.6981 B(  1-C ,  4-C ) :   0.1164
B(  1-C ,  5-C ) :   1.0365 B(  2-C ,  3-C ) :   1.0226 B(  2-C ,  6-C ) :   0.1110
B(  2-C , 10-H ) :   0.9445 B(  3-C ,  4-C ) :   2.2155 B(  4-C , 11-H ) :   1.0875
B(  5-C ,  6-C ) :   2.2498 B(  5-C , 12-H ) :  -0.1014 B(  6-C , 12-H ) :   1.0919

FINAL SINGLE POINT ENERGY      -269.644691609896

DIPOLE MOMENT
-------------
                                X             Y             Z
Electronic contribution:      2.95650      -0.68615       0.55477
Nuclear contribution   :     -3.13351       0.77555      -0.62766
                        -----------------------------------------
Total Dipole Moment    :     -0.17701       0.08940      -0.07289
                        -----------------------------------------
Magnitude (a.u.)       :      0.21128
Magnitude (Debye)      :      0.53702

                             ****ORCA TERMINATED NORMALLY****
TOTAL RUN TIME: 0 days 0 hours 0 minutes 5 seconds 883 msec
