                         Program Version 3.0.3 - RELEASE   -
|  1> ! RI PBE def2-SVP def2-SVP/J NBO PAL2
|  2> % maxcore 2000
|  3> % output
|  4>     # printlevel mini
|  5>     print[ P_Basis ] 0
|  6>     print[ P_SCFInfo ] 1
|  7>     print[ P_SCFIterInfo ] 1
|  8>     print[ P_OrbEn ] 0
|  9>     print[ P_Cartesian ] 0
| 10> end
| 11> *xyz 0 1
| 12>  C        1.1195080000    -0.1345110000     0.0178050000
| 13>  C        2.5795310000     0.1913780000     0.0764540000
| 14>  C        3.0078670000     1.2128360000     1.0180290000
| 15>  C        2.2030580000     1.8891900000     1.8403280000
| 16>  C        3.4453030000    -0.4595670000    -0.7315940000
| 17>  C        4.8757310000    -0.2886660000    -0.8222510000
| 18>  C        5.6442630000    -0.9881360000    -1.6609280000
| 19>  H        0.7535570000    -0.4843620000     0.9880680000
| 20>  H        0.9209930000    -0.9109760000    -0.7212510000
| 21>  H        0.5280980000     0.7477780000    -0.2458680000
| 22>  H        4.0685640000     1.4387170000     1.0497820000
| 23>  H        1.1324130000     1.7232820000     1.8702750000
| 24>  H        2.5996920000     2.6377770000     2.5152580000
| 25>  H        3.0317930000    -1.2087880000    -1.4040770000
| 26>  H        5.3515150000     0.4438900000    -0.1778300000
| 27>  H        5.2189990000    -1.7326600000    -2.3265380000
| 28>  H        6.7158050000    -0.8387830000    -1.7075410000
| 29> *
| 30>
| 31>                          ****END OF INPUT****
 Total Charge           Charge          ....    0
 Multiplicity           Mult            ....    1
 Number of Electrons    NEL             ....   52
 Basis Dimension        Dim             ....  148

MULLIKEN ATOMIC CHARGES
-----------------------
   0 C :    0.037980
   1 C :   -0.064953
   2 C :   -0.015353
   3 C :   -0.038466
   4 C :   -0.031196
   5 C :    0.009516
   6 C :   -0.040110
   7 H :    0.038966
   8 H :    0.018122
   9 H :    0.040639
  10 H :   -0.012690
  11 H :    0.020517
  12 H :    0.022760
  13 H :   -0.025914
  14 H :   -0.006601
  15 H :    0.019391
  16 H :    0.027393
Sum of atomic charges:   -0.0000000

LOEWDIN ATOMIC CHARGES
----------------------
   0 C :   -0.055602
   1 C :   -0.030361
   2 C :   -0.030540
   3 C :   -0.052063
   4 C :   -0.035077
   5 C :   -0.032302
   6 C :   -0.049378
   7 H :    0.037921
   8 H :    0.031860
   9 H :    0.038369
  10 H :    0.027457
  11 H :    0.021700
  12 H :    0.025811
  13 H :    0.026698
  14 H :    0.027462
  15 H :    0.022307
  16 H :    0.025738

  Mayer bond orders larger than 0.1
B(  0-C ,  1-C ) :   1.1055 B(  0-C ,  7-H ) :   0.9348 B(  0-C ,  8-H ) :   0.9478
B(  0-C ,  9-H ) :   0.9347 B(  1-C ,  2-C ) :   1.1515 B(  1-C ,  4-C ) :   1.6431
B(  1-C ,  6-C ) :   0.1183 B(  2-C ,  3-C ) :   1.8875 B(  2-C , 10-H ) :   0.9482
B(  3-C ,  4-C ) :   0.1184 B(  3-C , 11-H ) :   0.9360 B(  3-C , 12-H ) :   0.9396
B(  4-C ,  5-C ) :   1.1538 B(  4-C , 13-H ) :   0.9515 B(  5-C ,  6-C ) :   1.8697
B(  5-C , 14-H ) :   0.9517 B(  6-C , 15-H ) :   0.9518 B(  6-C , 16-H ) :   0.9403

FINAL SINGLE POINT ENERGY      -272.134615440361

DIPOLE MOMENT
-------------
                                X             Y             Z
Electronic contribution:      1.85745       0.18045      -0.16318
Nuclear contribution   :     -1.97498      -0.18120       0.17994
                        -----------------------------------------
Total Dipole Moment    :     -0.11754      -0.00076       0.01676
                        -----------------------------------------
Magnitude (a.u.)       :      0.11873
Magnitude (Debye)      :      0.30179

                             ****ORCA TERMINATED NORMALLY****
TOTAL RUN TIME: 0 days 0 hours 0 minutes 7 seconds 701 msec
