                         Program Version 3.0.3 - RELEASE   -
|  1> ! RI PBE def2-SVP def2-SVP/J NBO PAL2
|  2> % maxcore 2000
|  3> % output
|  4>     # printlevel mini
|  5>     print[ P_Basis ] 0
|  6>     print[ P_SCFInfo ] 1
|  7>     print[ P_SCFIterInfo ] 1
|  8>     print[ P_OrbEn ] 0
|  9>     print[ P_Cartesian ] 0
| 10> end
| 11> *xyz 0 1
| 12>  C        0.9032920000     0.1965010000     0.2272330000
| 13>  C        2.3929160000     0.2906170000     0.1569150000
| 14>  C        2.9965840000     1.3493460000    -0.6341890000
| 15>  C        2.3217520000     2.2707710000    -1.3227030000
| 16>  C        3.1604670000    -0.5995440000     0.8220690000
| 17>  C        4.5733840000    -0.6159360000     0.8343260000
| 18>  C        5.7765520000    -0.6675140000     0.8728630000
| 19>  H        0.4723470000     0.0609600000    -0.7692110000
| 20>  H        0.4723400000     1.1136720000     0.6396200000
| 21>  H        0.5901970000    -0.6398980000     0.8522080000
| 22>  H        4.0825710000     1.3663470000    -0.6468860000
| 23>  H        1.2381310000     2.2995360000    -1.3442030000
| 24>  H        2.8412250000     3.0321830000    -1.8916450000
| 25>  H        2.6748290000    -1.3782580000     1.4039390000
| 26>  H        6.8394850000    -0.7079450000     0.9029840000
| 27> *
| 28>
| 29>                          ****END OF INPUT****
 Total Charge           Charge          ....    0
 Multiplicity           Mult            ....    1
 Number of Electrons    NEL             ....   50
 Basis Dimension        Dim             ....  138

MULLIKEN ATOMIC CHARGES
-----------------------
   0 C :    0.050171
   1 C :   -0.080823
   2 C :   -0.001769
   3 C :   -0.032176
   4 C :   -0.090963
   5 C :    0.389644
   6 C :   -0.413231
   7 H :    0.041599
   8 H :    0.041755
   9 H :    0.020462
  10 H :    0.008745
  11 H :    0.020348
  12 H :    0.026818
  13 H :    0.015272
  14 H :    0.004148
Sum of atomic charges:   -0.0000000

LOEWDIN ATOMIC CHARGES
----------------------
   0 C :   -0.052891
   1 C :   -0.011732
   2 C :   -0.026310
   3 C :   -0.043425
   4 C :   -0.056194
   5 C :   -0.019226
   6 C :   -0.068489
   7 H :    0.040494
   8 H :    0.040694
   9 H :    0.033214
  10 H :    0.036521
  11 H :    0.021938
  12 H :    0.028194
  13 H :    0.041932
  14 H :    0.035279

  Mayer bond orders larger than 0.1
B(  0-C ,  1-C ) :   1.1022 B(  0-C ,  7-H ) :   0.9347 B(  0-C ,  8-H ) :   0.9338
B(  0-C ,  9-H ) :   0.9477 B(  1-C ,  2-C ) :   1.1592 B(  1-C ,  4-C ) :   1.6669
B(  1-C ,  6-C ) :   0.1131 B(  2-C ,  3-C ) :   1.8817 B(  2-C , 10-H ) :   0.9416
B(  3-C ,  4-C ) :   0.1190 B(  3-C , 11-H ) :   0.9374 B(  3-C , 12-H ) :   0.9392
B(  4-C ,  5-C ) :   1.0346 B(  4-C , 13-H ) :   0.9413 B(  5-C ,  6-C ) :   2.2409
B(  6-C , 14-H ) :   1.0904

FINAL SINGLE POINT ENERGY      -270.890855468047

DIPOLE MOMENT
-------------
                                X             Y             Z
Electronic contribution:      4.90333      -2.14452       1.60032
Nuclear contribution   :     -5.20022       2.22972      -1.66621
                        -----------------------------------------
Total Dipole Moment    :     -0.29688       0.08520      -0.06589
                        -----------------------------------------
Magnitude (a.u.)       :      0.31582
Magnitude (Debye)      :      0.80275

                             ****ORCA TERMINATED NORMALLY****
TOTAL RUN TIME: 0 days 0 hours 0 minutes 6 seconds 809 msec
