                         Program Version 3.0.3 - RELEASE   -
|  1> ! RI PBE def2-SVP def2-SVP/J NBO PAL2
|  2> % maxcore 2000
|  3> % output
|  4>     # printlevel mini
|  5>     print[ P_Basis ] 0
|  6>     print[ P_SCFInfo ] 1
|  7>     print[ P_SCFIterInfo ] 1
|  8>     print[ P_OrbEn ] 0
|  9>     print[ P_Cartesian ] 0
| 10> end
| 11> *xyz 0 1
| 12>  C        1.0788690000     0.2621380000    -0.0389670000
| 13>  C        2.4379220000    -0.3955630000     0.1675820000
| 14>  C        2.7800090000    -0.4152200000     1.6318780000
| 15>  C        3.8119800000     0.2012370000     2.1897550000
| 16>  C        2.5502000000    -1.7944130000    -0.4063580000
| 17>  C        3.9417360000    -2.3405720000    -0.4849510000
| 18>  C        1.4995870000    -2.5018300000    -0.8106720000
| 19>  H        1.1020380000     1.2908150000     0.3252990000
| 20>  H        0.2942250000    -0.2643830000     0.5104700000
| 21>  H        0.8034230000     0.2740910000    -1.0958200000
| 22>  H        3.1979970000     0.2171880000    -0.3357900000
| 23>  H        2.0955970000    -0.9882900000     2.2564950000
| 24>  H        4.5146010000     0.7795180000     1.5970470000
| 25>  H        3.9918210000     0.1540410000     3.2577250000
| 26>  H        4.4199630000    -2.3402660000     0.4987760000
| 27>  H        4.5645870000    -1.7167790000    -1.1352750000
| 28>  H        3.9504220000    -3.3583060000    -0.8766800000
| 29>  H        0.4884570000    -2.1162840000    -0.7694000000
| 30>  H        1.6229560000    -3.5044130000    -1.2056140000
| 31> *
| 32>
| 33>                          ****END OF INPUT****
 Total Charge           Charge          ....    0
 Multiplicity           Mult            ....    1
 Number of Electrons    NEL             ....   54
 Basis Dimension        Dim             ....  158

MULLIKEN ATOMIC CHARGES
-----------------------
   0 C :    0.033914
   1 C :   -0.034949
   2 C :   -0.034804
   3 C :   -0.036099
   4 C :   -0.162720
   5 C :    0.079157
   6 C :   -0.032046
   7 H :    0.022488
   8 H :    0.021979
   9 H :    0.024397
  10 H :   -0.000409
  11 H :    0.000913
  12 H :    0.018254
  13 H :    0.025571
  14 H :    0.030540
  15 H :    0.025481
  16 H :    0.009012
  17 H :    0.007217
  18 H :    0.002104
Sum of atomic charges:   -0.0000000

LOEWDIN ATOMIC CHARGES
----------------------
   0 C :   -0.051521
   1 C :   -0.038882
   2 C :   -0.011967
   3 C :   -0.069927
   4 C :   -0.022325
   5 C :   -0.056941
   6 C :   -0.079603
   7 H :    0.030013
   8 H :    0.025960
   9 H :    0.028170
  10 H :    0.033192
  11 H :    0.026478
  12 H :    0.021655
  13 H :    0.025573
  14 H :    0.036010
  15 H :    0.035517
  16 H :    0.029841
  17 H :    0.018395
  18 H :    0.020361

  Mayer bond orders larger than 0.1
B(  0-C ,  1-C ) :   1.0933 B(  0-C ,  7-H ) :   0.9544 B(  0-C ,  8-H ) :   0.9478
B(  0-C ,  9-H ) :   0.9512 B(  1-C ,  2-C ) :   1.0214 B(  1-C ,  4-C ) :   0.9861
B(  1-C , 10-H ) :   0.8915 B(  2-C ,  3-C ) :   1.9920 B(  2-C , 11-H ) :   0.9498
B(  3-C , 12-H ) :   0.9481 B(  3-C , 13-H ) :   0.9415 B(  4-C ,  5-C ) :   1.0944
B(  4-C ,  6-C ) :   1.9938 B(  5-C , 14-H ) :   0.9399 B(  5-C , 15-H ) :   0.9385
B(  5-C , 16-H ) :   0.9446 B(  6-C , 17-H ) :   0.9270 B(  6-C , 18-H ) :   0.9228

FINAL SINGLE POINT ENERGY      -273.337686366692

DIPOLE MOMENT
-------------
                                X             Y             Z
Electronic contribution:      0.07284      -0.24973       0.66918
Nuclear contribution   :      0.01394       0.32798      -0.67824
                        -----------------------------------------
Total Dipole Moment    :      0.08677       0.07825      -0.00906
                        -----------------------------------------
Magnitude (a.u.)       :      0.11720
Magnitude (Debye)      :      0.29789

                             ****ORCA TERMINATED NORMALLY****
TOTAL RUN TIME: 0 days 0 hours 0 minutes 8 seconds 639 msec
