                         Program Version 3.0.3 - RELEASE   -
|  1> ! RI PBE def2-SVP def2-SVP/J NBO PAL2
|  2> % maxcore 2000
|  3> % output
|  4>     # printlevel mini
|  5>     print[ P_Basis ] 0
|  6>     print[ P_SCFInfo ] 1
|  7>     print[ P_SCFIterInfo ] 1
|  8>     print[ P_OrbEn ] 0
|  9>     print[ P_Cartesian ] 0
| 10> end
| 11> *xyz 0 1
| 12>  C        0.8380920000    -0.2608970000    -0.0475530000
| 13>  C        2.3302880000    -0.0979740000     0.0849890000
| 14>  C        2.9013340000    -0.8255610000     1.2620680000
| 15>  C        3.0469210000     0.6386320000    -0.7901000000
| 16>  C        2.3952390000     1.3379140000    -1.9466680000
| 17>  C        4.4904130000     0.8062480000    -0.6760010000
| 18>  C        5.2607350000     1.5178150000    -1.5021650000
| 19>  H        0.4459550000    -0.8895440000     0.7535340000
| 20>  H        0.5592890000    -0.7296260000    -0.9957090000
| 21>  H        0.3145250000     0.6980410000     0.0048120000
| 22>  H        2.4273370000    -0.4735650000     2.1853550000
| 23>  H        3.9770950000    -0.7244360000     1.3803080000
| 24>  H        2.6704150000    -1.8943850000     1.1891360000
| 25>  H        1.3198630000     1.1784140000    -1.9825870000
| 26>  H        2.8167980000     0.9928130000    -2.8961270000
| 27>  H        2.5722020000     2.4170440000    -1.8972220000
| 28>  H        4.9834280000     0.3100320000     0.1521770000
| 29>  H        4.8643890000     2.0505070000    -2.3586920000
| 30>  H        6.3294740000     1.5869480000    -1.3392750000
| 31> *
| 32>
| 33>                          ****END OF INPUT****
 Total Charge           Charge          ....    0
 Multiplicity           Mult            ....    1
 Number of Electrons    NEL             ....   54
 Basis Dimension        Dim             ....  158

MULLIKEN ATOMIC CHARGES
-----------------------
   0 C :    0.032700
   1 C :   -0.246743
   2 C :    0.055779
   3 C :   -0.055873
   4 C :    0.043191
   5 C :   -0.021367
   6 C :   -0.051451
   7 H :    0.007012
   8 H :    0.041189
   9 H :    0.042661
  10 H :    0.027581
  11 H :    0.017261
  12 H :    0.035958
  13 H :    0.006635
  14 H :    0.028322
  15 H :    0.035979
  16 H :   -0.026422
  17 H :    0.007962
  18 H :    0.019624
Sum of atomic charges:   -0.0000000

LOEWDIN ATOMIC CHARGES
----------------------
   0 C :   -0.061624
   1 C :   -0.033771
   2 C :   -0.059571
   3 C :   -0.057865
   4 C :   -0.057971
   5 C :   -0.031262
   6 C :   -0.071225
   7 H :    0.028403
   8 H :    0.038795
   9 H :    0.039133
  10 H :    0.036992
  11 H :    0.026353
  12 H :    0.038126
  13 H :    0.027565
  14 H :    0.036018
  15 H :    0.036995
  16 H :    0.024170
  17 H :    0.017371
  18 H :    0.023367

  Mayer bond orders larger than 0.1
B(  0-C ,  1-C ) :   1.0822 B(  0-C ,  7-H ) :   0.9488 B(  0-C ,  8-H ) :   0.9430
B(  0-C ,  9-H ) :   0.9430 B(  1-C ,  2-C ) :   1.1232 B(  1-C ,  3-C ) :   1.7362
B(  1-C ,  6-C ) :   0.1296 B(  2-C , 10-H ) :   0.9332 B(  2-C , 11-H ) :   0.9450
B(  2-C , 12-H ) :   0.9363 B(  3-C ,  4-C ) :   1.1262 B(  3-C ,  5-C ) :   1.1344
B(  4-C , 13-H ) :   0.9363 B(  4-C , 14-H ) :   0.9307 B(  4-C , 15-H ) :   0.9332
B(  5-C ,  6-C ) :   1.9001 B(  5-C , 16-H ) :   0.9492 B(  6-C , 17-H ) :   0.9336
B(  6-C , 18-H ) :   0.9386

FINAL SINGLE POINT ENERGY      -273.349012843676

DIPOLE MOMENT
-------------
                                X             Y             Z
Electronic contribution:      2.27180       0.51414      -0.17763
Nuclear contribution   :     -2.60007      -0.67236       0.32281
                        -----------------------------------------
Total Dipole Moment    :     -0.32827      -0.15822       0.14519
                        -----------------------------------------
Magnitude (a.u.)       :      0.39226
Magnitude (Debye)      :      0.99706

                             ****ORCA TERMINATED NORMALLY****
TOTAL RUN TIME: 0 days 0 hours 0 minutes 8 seconds 291 msec
