                         Program Version 3.0.3 - RELEASE   -
|  1> ! RI PBE def2-SVP def2-SVP/J NBO PAL2
|  2> % maxcore 2000
|  3> % output
|  4>     # printlevel mini
|  5>     print[ P_Basis ] 0
|  6>     print[ P_SCFInfo ] 1
|  7>     print[ P_SCFIterInfo ] 1
|  8>     print[ P_OrbEn ] 0
|  9>     print[ P_Cartesian ] 0
| 10> end
| 11> *xyz 0 1
| 12>  C        1.0022180000    -0.0655240000     0.0951770000
| 13>  C        2.5048050000    -0.0680290000     0.0605670000
| 14>  C        3.2380500000     0.0270130000     1.3678360000
| 15>  C        3.1836880000    -0.1524170000    -1.0996130000
| 16>  C        2.5453280000    -0.2510390000    -2.4557580000
| 17>  C        4.6062530000    -0.1520600000    -1.0935500000
| 18>  C        5.8108580000    -0.1541910000    -1.1242260000
| 19>  H        0.6341390000     0.0088760000     1.1182850000
| 20>  H        0.5839350000    -0.9784580000    -0.3391030000
| 21>  H        0.5839300000     0.7749710000    -0.4666160000
| 22>  H        2.5483190000     0.0881850000     2.2098770000
| 23>  H        3.8875150000     0.9066180000     1.3947890000
| 24>  H        3.8875930000    -0.8393940000     1.5216920000
| 25>  H        1.4580290000    -0.2467510000    -2.3973220000
| 26>  H        2.8587580000    -1.1682800000    -2.9622770000
| 27>  H        2.8588170000     0.5832270000    -3.0896800000
| 28>  H        6.8746850000    -0.1557060000    -1.1443280000
| 29> *
| 30>
| 31>                          ****END OF INPUT****
 Total Charge           Charge          ....    0
 Multiplicity           Mult            ....    1
 Number of Electrons    NEL             ....   52
 Basis Dimension        Dim             ....  148

MULLIKEN ATOMIC CHARGES
-----------------------
   0 C :    0.034401
   1 C :   -0.249592
   2 C :    0.090653
   3 C :   -0.121950
   4 C :    0.068438
   5 C :    0.382270
   6 C :   -0.477698
   7 H :    0.011303
   8 H :    0.043711
   9 H :    0.045298
  10 H :    0.006870
  11 H :    0.041220
  12 H :    0.041555
  13 H :    0.014059
  14 H :    0.034784
  15 H :    0.037693
  16 H :   -0.003014
Sum of atomic charges:   -0.0000000

LOEWDIN ATOMIC CHARGES
----------------------
   0 C :   -0.061796
   1 C :   -0.022837
   2 C :   -0.058053
   3 C :   -0.078743
   4 C :   -0.049999
   5 C :   -0.007213
   6 C :   -0.088241
   7 H :    0.029839
   8 H :    0.040132
   9 H :    0.040397
  10 H :    0.025966
  11 H :    0.043548
  12 H :    0.043468
  13 H :    0.029271
  14 H :    0.040488
  15 H :    0.040996
  16 H :    0.032778

  Mayer bond orders larger than 0.1
B(  0-C ,  1-C ) :   1.0922 B(  0-C ,  7-H ) :   0.9418 B(  0-C ,  8-H ) :   0.9463
B(  0-C ,  9-H ) :   0.9468 B(  1-C ,  2-C ) :   1.1300 B(  1-C ,  3-C ) :   1.7395
B(  1-C ,  6-C ) :   0.1207 B(  2-C , 10-H ) :   0.9418 B(  2-C , 11-H ) :   0.9326
B(  2-C , 12-H ) :   0.9331 B(  3-C ,  4-C ) :   1.1032 B(  3-C ,  5-C ) :   1.0356
B(  4-C , 13-H ) :   0.9377 B(  4-C , 14-H ) :   0.9420 B(  4-C , 15-H ) :   0.9422
B(  5-C ,  6-C ) :   2.2350 B(  5-C , 16-H ) :  -0.1092 B(  6-C , 16-H ) :   1.0997

FINAL SINGLE POINT ENERGY      -272.105105239904

DIPOLE MOMENT
-------------
                                X             Y             Z
Electronic contribution:      5.10791      -0.10745      -1.49254
Nuclear contribution   :     -5.46708       0.11674       1.60522
                        -----------------------------------------
Total Dipole Moment    :     -0.35917       0.00929       0.11267
                        -----------------------------------------
Magnitude (a.u.)       :      0.37655
Magnitude (Debye)      :      0.95710

                             ****ORCA TERMINATED NORMALLY****
TOTAL RUN TIME: 0 days 0 hours 0 minutes 7 seconds 924 msec
