                         Program Version 3.0.3 - RELEASE   -
|  1> ! RI PBE def2-SVP def2-SVP/J NBO PAL2
|  2> % maxcore 2000
|  3> % output
|  4>     # printlevel mini
|  5>     print[ P_Basis ] 0
|  6>     print[ P_SCFInfo ] 1
|  7>     print[ P_SCFIterInfo ] 1
|  8>     print[ P_OrbEn ] 0
|  9>     print[ P_Cartesian ] 0
| 10> end
| 11> *xyz 0 1
| 12>  C        0.9971130000     0.1037010000     0.3942200000
| 13>  C        2.4246830000    -0.1073980000    -0.0073010000
| 14>  C        2.6341670000    -1.2605200000    -0.9527100000
| 15>  C        3.3712240000     0.7087080000     0.4818500000
| 16>  C        4.8174310000     0.7558330000     0.2813370000
| 17>  C        5.5299460000    -0.2200400000    -0.6075170000
| 18>  C        5.5165800000     1.7051430000     0.9170870000
| 19>  H        0.5945450000    -0.7933080000     0.8787640000
| 20>  H        0.3700840000     0.2852180000    -0.4863230000
| 21>  H        0.8814020000     0.9453090000     1.0781830000
| 22>  H        1.6808240000    -1.7421640000    -1.1769010000
| 23>  H        3.2922140000    -2.0245570000    -0.5340990000
| 24>  H        3.0677520000    -0.9430260000    -1.9030730000
| 25>  H        3.0167560000     1.4869220000     1.1549740000
| 26>  H        5.1668390000    -0.1679810000    -1.6364400000
| 27>  H        5.3915500000    -1.2493770000    -0.2690560000
| 28>  H        6.5998240000    -0.0093420000    -0.6167210000
| 29>  H        5.0306390000     2.4250800000     1.5662910000
| 30>  H        6.5915370000     1.7871980000     0.8052350000
| 31> *
| 32>
| 33>                          ****END OF INPUT****
 Total Charge           Charge          ....    0
 Multiplicity           Mult            ....    1
 Number of Electrons    NEL             ....   54
 Basis Dimension        Dim             ....  158

MULLIKEN ATOMIC CHARGES
-----------------------
   0 C :    0.039623
   1 C :   -0.231608
   2 C :    0.070689
   3 C :    0.020996
   4 C :   -0.125730
   5 C :    0.081390
   6 C :   -0.057201
   7 H :    0.031790
   8 H :    0.032304
   9 H :    0.018893
  10 H :    0.003257
  11 H :    0.035459
  12 H :    0.034424
  13 H :   -0.037768
  14 H :    0.028204
  15 H :    0.027157
  16 H :    0.011459
  17 H :    0.008343
  18 H :    0.008321
Sum of atomic charges:   -0.0000000

LOEWDIN ATOMIC CHARGES
----------------------
   0 C :   -0.056737
   1 C :   -0.035208
   2 C :   -0.061081
   3 C :   -0.056471
   4 C :   -0.031924
   5 C :   -0.054929
   6 C :   -0.072172
   7 H :    0.034740
   8 H :    0.035044
   9 H :    0.028719
  10 H :    0.029348
  11 H :    0.038516
  12 H :    0.038673
  13 H :    0.025864
  14 H :    0.035169
  15 H :    0.034658
  16 H :    0.031672
  17 H :    0.018205
  18 H :    0.017913

  Mayer bond orders larger than 0.1
B(  0-C ,  1-C ) :   1.1016 B(  0-C ,  7-H ) :   0.9404 B(  0-C ,  8-H ) :   0.9396
B(  0-C ,  9-H ) :   0.9547 B(  1-C ,  2-C ) :   1.0825 B(  1-C ,  3-C ) :   1.7837
B(  1-C ,  6-C ) :   0.1256 B(  2-C , 10-H ) :   0.9378 B(  2-C , 11-H ) :   0.9422
B(  2-C , 12-H ) :   0.9420 B(  3-C ,  4-C ) :   1.1342 B(  3-C , 13-H ) :   0.9309
B(  4-C ,  5-C ) :   1.0983 B(  4-C ,  6-C ) :   1.8698 B(  5-C , 14-H ) :   0.9351
B(  5-C , 15-H ) :   0.9373 B(  5-C , 16-H ) :   0.9354 B(  6-C , 17-H ) :   0.9411
B(  6-C , 18-H ) :   0.9325

FINAL SINGLE POINT ENERGY      -273.348870672775

DIPOLE MOMENT
-------------
                                X             Y             Z
Electronic contribution:      1.16546       2.06720       1.43020
Nuclear contribution   :     -1.37157      -2.36977      -1.64712
                        -----------------------------------------
Total Dipole Moment    :     -0.20611      -0.30257      -0.21693
                        -----------------------------------------
Magnitude (a.u.)       :      0.42554
Magnitude (Debye)      :      1.08163

                             ****ORCA TERMINATED NORMALLY****
TOTAL RUN TIME: 0 days 0 hours 0 minutes 8 seconds 540 msec
