                         Program Version 3.0.3 - RELEASE   -
|  1> ! RI PBE def2-SVP def2-SVP/J NBO PAL2
|  2> % maxcore 2000
|  3> % output
|  4>     # printlevel mini
|  5>     print[ P_Basis ] 0
|  6>     print[ P_SCFInfo ] 1
|  7>     print[ P_SCFIterInfo ] 1
|  8>     print[ P_OrbEn ] 0
|  9>     print[ P_Cartesian ] 0
| 10> end
| 11> *xyz 0 1
| 12>  C        0.7082230000    -0.3039840000     0.2532940000
| 13>  C        2.0925570000     0.0503410000    -0.1914810000
| 14>  C        2.1975150000     0.7067540000    -1.5434460000
| 15>  C        3.1512730000    -0.2143650000     0.5741350000
| 16>  C        4.5831810000     0.0909350000     0.2523190000
| 17>  C        5.2057880000     0.9980430000     1.2696770000
| 18>  C        6.2445250000     0.6879150000     2.0328290000
| 19>  H        0.0732360000     0.5878450000     0.2985320000
| 20>  H        0.7065740000    -0.7769510000     1.2363440000
| 21>  H        0.2322900000    -0.9874130000    -0.4587740000
| 22>  H        1.2087260000     0.8662370000    -1.9768580000
| 23>  H        2.7674550000     0.0947990000    -2.2482770000
| 24>  H        2.6909370000     1.6806890000    -1.4878610000
| 25>  H        2.9838170000    -0.6887410000     1.5390770000
| 26>  H        4.6533280000     0.5535990000    -0.7372530000
| 27>  H        5.1619150000    -0.8394790000     0.2084970000
| 28>  H        4.7362070000     1.9737070000     1.3815650000
| 29>  H        6.7335850000    -0.2786920000     1.9559820000
| 30>  H        6.6449580000     1.3857440000     2.7591880000
| 31> *
| 32>
| 33>                          ****END OF INPUT****
 Total Charge           Charge          ....    0
 Multiplicity           Mult            ....    1
 Number of Electrons    NEL             ....   54
 Basis Dimension        Dim             ....  158

MULLIKEN ATOMIC CHARGES
-----------------------
   0 C :    0.058350
   1 C :   -0.212811
   2 C :    0.039513
   3 C :   -0.089893
   4 C :    0.138713
   5 C :   -0.087785
   6 C :   -0.040606
   7 H :    0.029488
   8 H :    0.011075
   9 H :    0.028530
  10 H :    0.007412
  11 H :    0.041128
  12 H :    0.040090
  13 H :   -0.021630
  14 H :    0.005842
  15 H :    0.010292
  16 H :    0.002301
  17 H :    0.015769
  18 H :    0.024222
Sum of atomic charges:    0.0000000

LOEWDIN ATOMIC CHARGES
----------------------
   0 C :   -0.056891
   1 C :   -0.048015
   2 C :   -0.065114
   3 C :   -0.056665
   4 C :   -0.041815
   5 C :   -0.022472
   6 C :   -0.072141
   7 H :    0.033842
   8 H :    0.028556
   9 H :    0.033490
  10 H :    0.029305
  11 H :    0.038840
  12 H :    0.038107
  13 H :    0.020438
  14 H :    0.035013
  15 H :    0.036295
  16 H :    0.024792
  17 H :    0.020450
  18 H :    0.023984

  Mayer bond orders larger than 0.1
B(  0-C ,  1-C ) :   1.1020 B(  0-C ,  7-H ) :   0.9408 B(  0-C ,  8-H ) :   0.9512
B(  0-C ,  9-H ) :   0.9415 B(  1-C ,  2-C ) :   1.0823 B(  1-C ,  3-C ) :   1.9013
B(  2-C , 10-H ) :   0.9476 B(  2-C , 11-H ) :   0.9452 B(  2-C , 12-H ) :   0.9423
B(  3-C ,  4-C ) :   1.0468 B(  3-C , 13-H ) :   0.9361 B(  4-C ,  5-C ) :   1.0504
B(  4-C , 14-H ) :   0.8988 B(  4-C , 15-H ) :   0.9051 B(  5-C ,  6-C ) :   2.0051
B(  5-C , 16-H ) :   0.9566 B(  6-C , 17-H ) :   0.9456 B(  6-C , 18-H ) :   0.9459

FINAL SINGLE POINT ENERGY      -273.339957367080

DIPOLE MOMENT
-------------
                                X             Y             Z
Electronic contribution:      2.14483      -0.06101       1.46182
Nuclear contribution   :     -2.34870       0.09511      -1.69622
                        -----------------------------------------
Total Dipole Moment    :     -0.20387       0.03410      -0.23440
                        -----------------------------------------
Magnitude (a.u.)       :      0.31252
Magnitude (Debye)      :      0.79436

                             ****ORCA TERMINATED NORMALLY****
TOTAL RUN TIME: 0 days 0 hours 0 minutes 8 seconds 352 msec
