                         Program Version 3.0.3 - RELEASE   -
|  1> ! RI PBE def2-SVP def2-SVP/J NBO PAL2
|  2> % maxcore 2000
|  3> % output
|  4>     # printlevel mini
|  5>     print[ P_Basis ] 0
|  6>     print[ P_SCFInfo ] 1
|  7>     print[ P_SCFIterInfo ] 1
|  8>     print[ P_OrbEn ] 0
|  9>     print[ P_Cartesian ] 0
| 10> end
| 11> *xyz 0 1
| 12>  C        0.8161550000    -0.0459000000    -0.1149930000
| 13>  C        2.3015810000     0.1037100000     0.0086780000
| 14>  C        2.7443680000     1.3942530000     0.6226970000
| 15>  C        3.1139210000    -0.8657070000    -0.4104260000
| 16>  C        4.6156170000    -0.8807630000    -0.3742850000
| 17>  C        5.1434640000    -2.0535970000     0.3105750000
| 18>  C        5.5641690000    -3.0282780000     0.8710460000
| 19>  H        0.3365160000     0.0179550000     0.8676980000
| 20>  H        0.5406570000    -0.9983830000    -0.5693480000
| 21>  H        0.3913430000     0.7608050000    -0.7222260000
| 22>  H        2.2851820000     1.5220980000     1.6084930000
| 23>  H        2.4103040000     2.2407140000     0.0131550000
| 24>  H        3.8236950000     1.4740560000     0.7430700000
| 25>  H        2.6655230000    -1.7621530000    -0.8315080000
| 26>  H        5.0133520000     0.0182360000     0.1019400000
| 27>  H        5.0060360000    -0.8798030000    -1.4004130000
| 28>  H        5.9389070000    -3.8899530000     1.3703470000
| 29> *
| 30>
| 31>                          ****END OF INPUT****
 Total Charge           Charge          ....    0
 Multiplicity           Mult            ....    1
 Number of Electrons    NEL             ....   52
 Basis Dimension        Dim             ....  148

MULLIKEN ATOMIC CHARGES
-----------------------
   0 C :    0.044380
   1 C :   -0.184375
   2 C :    0.059561
   3 C :   -0.085144
   4 C :    0.169283
   5 C :    0.290203
   6 C :   -0.479184
   7 H :    0.027132
   8 H :    0.016984
   9 H :    0.026460
  10 H :    0.025305
  11 H :    0.027276
  12 H :    0.010572
  13 H :   -0.011366
  14 H :    0.025593
  15 H :    0.042174
  16 H :   -0.004854
Sum of atomic charges:   -0.0000000

LOEWDIN ATOMIC CHARGES
----------------------
   0 C :   -0.053435
   1 C :   -0.041808
   2 C :   -0.058374
   3 C :   -0.049989
   4 C :   -0.044839
   5 C :   -0.018999
   6 C :   -0.093330
   7 H :    0.033948
   8 H :    0.030190
   9 H :    0.033241
  10 H :    0.037262
  11 H :    0.037019
  12 H :    0.026429
  13 H :    0.025378
  14 H :    0.047301
  15 H :    0.056878
  16 H :    0.033130

  Mayer bond orders larger than 0.1
B(  0-C ,  1-C ) :   1.0789 B(  0-C ,  7-H ) :   0.9472 B(  0-C ,  8-H ) :   0.9536
B(  0-C ,  9-H ) :   0.9486 B(  1-C ,  2-C ) :   1.1019 B(  1-C ,  3-C ) :   1.9069
B(  2-C , 10-H ) :   0.9389 B(  2-C , 11-H ) :   0.9409 B(  2-C , 12-H ) :   0.9439
B(  3-C ,  4-C ) :   1.0337 B(  3-C , 13-H ) :   0.9345 B(  4-C ,  5-C ) :   1.0449
B(  4-C , 14-H ) :   0.8902 B(  4-C , 15-H ) :   0.8792 B(  5-C ,  6-C ) :   2.3811
B(  5-C , 16-H ) :  -0.1091 B(  6-C , 16-H ) :   1.1004

FINAL SINGLE POINT ENERGY      -272.097764847924

DIPOLE MOMENT
-------------
                                X             Y             Z
Electronic contribution:      5.04136      -4.79665       0.02984
Nuclear contribution   :     -5.27921       5.18056      -0.10346
                        -----------------------------------------
Total Dipole Moment    :     -0.23785       0.38391      -0.07361
                        -----------------------------------------
Magnitude (a.u.)       :      0.45758
Magnitude (Debye)      :      1.16308

                             ****ORCA TERMINATED NORMALLY****
TOTAL RUN TIME: 0 days 0 hours 0 minutes 7 seconds 520 msec
