                         Program Version 3.0.3 - RELEASE   -
|  1> ! RI PBE def2-SVP def2-SVP/J NBO PAL2
|  2> % maxcore 2000
|  3> % output
|  4>     # printlevel mini
|  5>     print[ P_Basis ] 0
|  6>     print[ P_SCFInfo ] 1
|  7>     print[ P_SCFIterInfo ] 1
|  8>     print[ P_OrbEn ] 0
|  9>     print[ P_Cartesian ] 0
| 10> end
| 11> *xyz 0 1
| 12>  C        1.0125860000    -0.0170300000    -0.0923450000
| 13>  C        2.5401720000    -0.0359290000    -0.1055400000
| 14>  C        3.0426090000     0.1595630000    -1.5350130000
| 15>  C        3.0341230000     1.0463540000     0.8269210000
| 16>  C        3.8571850000     2.0439730000     0.5358100000
| 17>  C        3.1001800000    -1.3386290000     0.4180760000
| 18>  C        2.4209010000    -2.3663170000     0.9078270000
| 19>  H        0.6479370000     0.9337290000    -0.4867910000
| 20>  H        0.6191800000    -0.1319720000     0.9205570000
| 21>  H        0.6067600000    -0.8223900000    -0.7098090000
| 22>  H        2.7097420000     1.1194070000    -1.9380760000
| 23>  H        2.6563870000    -0.6341660000    -2.1779190000
| 24>  H        4.1337530000     0.1285850000    -1.5839680000
| 25>  H        2.6557410000     0.9578020000     1.8441830000
| 26>  H        4.2728170000     2.1853300000    -0.4555130000
| 27>  H        4.1455380000     2.7653600000     1.2917260000
| 28>  H        4.1868190000    -1.3981950000     0.3792940000
| 29>  H        1.3390400000    -2.3683450000     0.9787350000
| 30>  H        2.9331320000    -3.2551310000     1.2579460000
| 31> *
| 32>
| 33>                          ****END OF INPUT****
 Total Charge           Charge          ....    0
 Multiplicity           Mult            ....    1
 Number of Electrons    NEL             ....   54
 Basis Dimension        Dim             ....  158

MULLIKEN ATOMIC CHARGES
-----------------------
   0 C :    0.071322
   1 C :   -0.259086
   2 C :    0.053970
   3 C :    0.009216
   4 C :   -0.035783
   5 C :    0.001615
   6 C :   -0.035007
   7 H :    0.017062
   8 H :    0.019091
   9 H :    0.020405
  10 H :    0.020585
  11 H :    0.022122
  12 H :    0.024127
  13 H :   -0.002408
  14 H :    0.014184
  15 H :    0.022039
  16 H :    0.001176
  17 H :    0.017432
  18 H :    0.017937
Sum of atomic charges:   -0.0000000

LOEWDIN ATOMIC CHARGES
----------------------
   0 C :   -0.040990
   1 C :   -0.067718
   2 C :   -0.044126
   3 C :   -0.007944
   4 C :   -0.070203
   5 C :   -0.009744
   6 C :   -0.069198
   7 H :    0.028789
   8 H :    0.024892
   9 H :    0.026338
  10 H :    0.026675
  11 H :    0.029701
  12 H :    0.025698
  13 H :    0.026445
  14 H :    0.020895
  15 H :    0.026382
  16 H :    0.026934
  17 H :    0.021258
  18 H :    0.025917

  Mayer bond orders larger than 0.1
B(  0-C ,  1-C ) :   1.0711 B(  0-C ,  7-H ) :   0.9550 B(  0-C ,  8-H ) :   0.9475
B(  0-C ,  9-H ) :   0.9459 B(  1-C ,  2-C ) :   1.0698 B(  1-C ,  3-C ) :   0.9617
B(  1-C ,  5-C ) :   0.9573 B(  2-C , 10-H ) :   0.9445 B(  2-C , 11-H ) :   0.9551
B(  2-C , 12-H ) :   0.9479 B(  3-C ,  4-C ) :   2.0157 B(  3-C , 13-H ) :   0.9523
B(  4-C , 14-H ) :   0.9296 B(  4-C , 15-H ) :   0.9374 B(  5-C ,  6-C ) :   2.0156
B(  5-C , 16-H ) :   0.9547 B(  6-C , 17-H ) :   0.9322 B(  6-C , 18-H ) :   0.9362

FINAL SINGLE POINT ENERGY      -273.331945500344

DIPOLE MOMENT
-------------
                                X             Y             Z
Electronic contribution:      1.31341      -0.27727       1.82797
Nuclear contribution   :     -1.37616       0.28780      -1.90121
                        -----------------------------------------
Total Dipole Moment    :     -0.06275       0.01053      -0.07324
                        -----------------------------------------
Magnitude (a.u.)       :      0.09702
Magnitude (Debye)      :      0.24659

                             ****ORCA TERMINATED NORMALLY****
TOTAL RUN TIME: 0 days 0 hours 0 minutes 8 seconds 168 msec
