                         Program Version 3.0.3 - RELEASE   -
|  1> ! RI PBE def2-SVP def2-SVP/J NBO PAL2
|  2> % maxcore 2000
|  3> % output
|  4>     # printlevel mini
|  5>     print[ P_Basis ] 0
|  6>     print[ P_SCFInfo ] 1
|  7>     print[ P_SCFIterInfo ] 1
|  8>     print[ P_OrbEn ] 0
|  9>     print[ P_Cartesian ] 0
| 10> end
| 11> *xyz 0 1
| 12>  C        0.9152900000    -0.0570900000    -0.1586350000
| 13>  C        2.4459020000     0.0417160000    -0.0415680000
| 14>  C        3.0848780000    -0.3224740000    -1.3925750000
| 15>  C        2.8154110000     1.4660760000     0.3019170000
| 16>  C        3.4740600000     1.8830980000     1.3710550000
| 17>  C        2.9099490000    -0.8983110000     0.9765340000
| 18>  C        3.2817840000    -1.6889140000     1.8003590000
| 19>  H        0.5540120000     0.6441920000    -0.9153180000
| 20>  H        0.4386460000     0.1826250000     0.7926010000
| 21>  H        0.6201650000    -1.0662020000    -0.4527100000
| 22>  H        2.7484950000     0.3757040000    -2.1634730000
| 23>  H        2.7964410000    -1.3324260000    -1.6903780000
| 24>  H        4.1727210000    -0.2740860000    -1.3311890000
| 25>  H        2.4816490000     2.1890120000    -0.4408600000
| 26>  H        3.8199550000     1.1885840000     2.1290030000
| 27>  H        3.6866320000     2.9354490000     1.5186970000
| 28>  H        3.6108100000    -2.3906520000     2.5297420000
| 29> *
| 30>
| 31>                          ****END OF INPUT****
 Total Charge           Charge          ....    0
 Multiplicity           Mult            ....    1
 Number of Electrons    NEL             ....   52
 Basis Dimension        Dim             ....  148

MULLIKEN ATOMIC CHARGES
-----------------------
   0 C :    0.077050
   1 C :   -0.232633
   2 C :    0.064091
   3 C :   -0.029286
   4 C :   -0.000618
   5 C :    0.486056
   6 C :   -0.552933
   7 H :    0.014785
   8 H :    0.032970
   9 H :    0.023880
  10 H :    0.016587
  11 H :    0.023514
  12 H :    0.037868
  13 H :   -0.000536
  14 H :    0.027212
  15 H :    0.018551
  16 H :   -0.006558
Sum of atomic charges:   -0.0000000

LOEWDIN ATOMIC CHARGES
----------------------
   0 C :   -0.029123
   1 C :   -0.073289
   2 C :   -0.031738
   3 C :   -0.014667
   4 C :   -0.055747
   5 C :    0.004652
   6 C :   -0.091407
   7 H :    0.025596
   8 H :    0.032258
   9 H :    0.029656
  10 H :    0.026023
  11 H :    0.029738
  12 H :    0.033154
  13 H :    0.025913
  14 H :    0.028361
  15 H :    0.026274
  16 H :    0.034344

  Mayer bond orders larger than 0.1
B(  0-C ,  1-C ) :   1.0326 B(  0-C ,  7-H ) :   0.9552 B(  0-C ,  8-H ) :   0.9618
B(  0-C ,  9-H ) :   0.9557 B(  1-C ,  2-C ) :   1.0335 B(  1-C ,  3-C ) :   0.9517
B(  1-C ,  5-C ) :   0.9398 B(  2-C , 10-H ) :   0.9533 B(  2-C , 11-H ) :   0.9550
B(  2-C , 12-H ) :   0.9610 B(  3-C ,  4-C ) :   2.0391 B(  3-C , 13-H ) :   0.9533
B(  4-C , 14-H ) :   0.9148 B(  4-C , 15-H ) :   0.9389 B(  5-C ,  6-C ) :   2.2565
B(  5-C , 16-H ) :  -0.1302 B(  6-C , 16-H ) :   1.1193

FINAL SINGLE POINT ENERGY      -272.088803189443

DIPOLE MOMENT
-------------
                                X             Y             Z
Electronic contribution:      1.65131      -1.49534       3.22807
Nuclear contribution   :     -1.76716       1.54675      -3.43929
                        -----------------------------------------
Total Dipole Moment    :     -0.11585       0.05141      -0.21122
                        -----------------------------------------
Magnitude (a.u.)       :      0.24633
Magnitude (Debye)      :      0.62612

                             ****ORCA TERMINATED NORMALLY****
TOTAL RUN TIME: 0 days 0 hours 0 minutes 7 seconds 577 msec
