                         Program Version 3.0.3 - RELEASE   -
|  1> ! RI PBE def2-SVP def2-SVP/J NBO PAL2
|  2> % maxcore 2000
|  3> % output
|  4>     # printlevel mini
|  5>     print[ P_Basis ] 0
|  6>     print[ P_SCFInfo ] 1
|  7>     print[ P_SCFIterInfo ] 1
|  8>     print[ P_OrbEn ] 0
|  9>     print[ P_Cartesian ] 0
| 10> end
| 11> *xyz 0 1
| 12>  C        0.7335650000     0.1361430000    -0.0460390000
| 13>  C        2.2384800000     0.3891730000    -0.0873750000
| 14>  C        2.6105280000     0.9596460000    -1.4541560000
| 15>  C        2.6127250000     1.3867160000     1.0049280000
| 16>  C        2.9531740000    -0.9571420000     0.1563350000
| 17>  C        4.4446970000    -0.9178280000     0.1225900000
| 18>  C        5.2354430000    -1.2155870000     1.1449520000
| 19>  H        0.1781770000     1.0658690000    -0.1979910000
| 20>  H        0.4303420000    -0.2809340000     0.9186540000
| 21>  H        0.4294680000    -0.5676590000    -0.8264230000
| 22>  H        2.0454020000     1.8746160000    -1.6525800000
| 23>  H        2.3843850000     0.2489230000    -2.2548330000
| 24>  H        3.6719880000     1.2113270000    -1.5136670000
| 25>  H        2.0964780000     2.3386180000     0.8518610000
| 26>  H        3.6876200000     1.5813250000     1.0155870000
| 27>  H        2.3330250000     1.0091250000     1.9928660000
| 28>  H        2.6012740000    -1.6625660000    -0.6082450000
| 29>  H        2.6273680000    -1.3547450000     1.1238450000
| 30>  H        4.9039400000    -0.6342080000    -0.8223990000
| 31>  H        4.8284990000    -1.5113640000     2.1074920000
| 32>  H        6.3155210000    -1.1804400000     1.0585070000
| 33> *
| 34>
| 35>                          ****END OF INPUT****
 Total Charge           Charge          ....    0
 Multiplicity           Mult            ....    1
 Number of Electrons    NEL             ....   56
 Basis Dimension        Dim             ....  168

MULLIKEN ATOMIC CHARGES
-----------------------
   0 C :    0.083490
   1 C :   -0.373844
   2 C :    0.064215
   3 C :    0.078563
   4 C :    0.125586
   5 C :   -0.077979
   6 C :   -0.033765
   7 H :    0.008975
   8 H :    0.007400
   9 H :    0.007174
  10 H :    0.010156
  11 H :    0.009668
  12 H :    0.013164
  13 H :    0.006534
  14 H :    0.019140
  15 H :    0.004598
  16 H :    0.011231
  17 H :   -0.005953
  18 H :    0.003539
  19 H :    0.013084
  20 H :    0.025024
Sum of atomic charges:    0.0000000

LOEWDIN ATOMIC CHARGES
----------------------
   0 C :   -0.047191
   1 C :   -0.063848
   2 C :   -0.050718
   3 C :   -0.047920
   4 C :   -0.030209
   5 C :   -0.027675
   6 C :   -0.066601
   7 H :    0.023073
   8 H :    0.022736
   9 H :    0.022092
  10 H :    0.024948
  11 H :    0.023209
  12 H :    0.022385
  13 H :    0.022737
  14 H :    0.024702
  15 H :    0.022580
  16 H :    0.031982
  17 H :    0.025727
  18 H :    0.024015
  19 H :    0.020098
  20 H :    0.023878

  Mayer bond orders larger than 0.1
B(  0-C ,  1-C ) :   1.0564 B(  0-C ,  7-H ) :   0.9566 B(  0-C ,  8-H ) :   0.9554
B(  0-C ,  9-H ) :   0.9558 B(  1-C ,  2-C ) :   1.0477 B(  1-C ,  3-C ) :   1.0452
B(  1-C ,  4-C ) :   1.0116 B(  2-C , 10-H ) :   0.9556 B(  2-C , 11-H ) :   0.9574
B(  2-C , 12-H ) :   0.9529 B(  3-C , 13-H ) :   0.9570 B(  3-C , 14-H ) :   0.9545
B(  3-C , 15-H ) :   0.9581 B(  4-C ,  5-C ) :   1.0690 B(  4-C , 16-H ) :   0.9038
B(  4-C , 17-H ) :   0.9254 B(  5-C ,  6-C ) :   2.0011 B(  5-C , 18-H ) :   0.9520
B(  6-C , 19-H ) :   0.9431 B(  6-C , 20-H ) :   0.9440

FINAL SINGLE POINT ENERGY      -274.557883702110

DIPOLE MOMENT
-------------
                                X             Y             Z
Electronic contribution:      2.40409      -2.02526       0.31929
Nuclear contribution   :     -2.50942       2.06912      -0.39347
                        -----------------------------------------
Total Dipole Moment    :     -0.10533       0.04385      -0.07418
                        -----------------------------------------
Magnitude (a.u.)       :      0.13609
Magnitude (Debye)      :      0.34592

                             ****ORCA TERMINATED NORMALLY****
TOTAL RUN TIME: 0 days 0 hours 0 minutes 9 seconds 101 msec
