                         Program Version 3.0.3 - RELEASE   -
|  1> ! RI PBE def2-SVP def2-SVP/J NBO PAL2
|  2> % maxcore 2000
|  3> % output
|  4>     # printlevel mini
|  5>     print[ P_Basis ] 0
|  6>     print[ P_SCFInfo ] 1
|  7>     print[ P_SCFIterInfo ] 1
|  8>     print[ P_OrbEn ] 0
|  9>     print[ P_Cartesian ] 0
| 10> end
| 11> *xyz 0 1
| 12>  C        0.8892580000    -0.1923850000    -0.0630990000
| 13>  C        2.3960290000     0.0421370000    -0.0131040000
| 14>  C        2.7988510000     1.0333170000    -1.1000010000
| 15>  C        2.7870050000     0.5855980000     1.3572390000
| 16>  C        3.0897910000    -1.3160180000    -0.2572240000
| 17>  C        4.5421500000    -1.2717550000    -0.2421810000
| 18>  C        5.7425330000    -1.2309370000    -0.2289730000
| 19>  H        0.3477020000     0.7420820000     0.1045660000
| 20>  H        0.5732090000    -0.9041810000     0.7050930000
| 21>  H        0.5815970000    -0.5869450000    -1.0358920000
| 22>  H        2.3045440000     1.9955740000    -0.9424370000
| 23>  H        2.5144000000     0.6684960000    -2.0913080000
| 24>  H        3.8781940000     1.2008820000    -1.0987830000
| 25>  H        2.2925510000     1.5424280000     1.5445760000
| 26>  H        3.8660260000     0.7409930000     1.4252680000
| 27>  H        2.4939410000    -0.1049240000     2.1534740000
| 28>  H        2.7600160000    -1.7149570000    -1.2236250000
| 29>  H        2.7517140000    -2.0295970000     0.5032650000
| 30>  H        6.8062000000    -1.2006000000    -0.2183550000
| 31> *
| 32>
| 33>                          ****END OF INPUT****
 Total Charge           Charge          ....    0
 Multiplicity           Mult            ....    1
 Number of Electrons    NEL             ....   54
 Basis Dimension        Dim             ....  158

MULLIKEN ATOMIC CHARGES
-----------------------
   0 C :    0.097625
   1 C :   -0.390191
   2 C :    0.073786
   3 C :    0.068601
   4 C :    0.132134
   5 C :    0.375026
   6 C :   -0.524547
   7 H :    0.013110
   8 H :    0.008176
   9 H :    0.006428
  10 H :    0.009412
  11 H :    0.006599
  12 H :    0.028041
  13 H :    0.010798
  14 H :    0.027224
  15 H :    0.008392
  16 H :    0.027030
  17 H :    0.028621
  18 H :   -0.006263
Sum of atomic charges:   -0.0000000

LOEWDIN ATOMIC CHARGES
----------------------
   0 C :   -0.046530
   1 C :   -0.059586
   2 C :   -0.047297
   3 C :   -0.048655
   4 C :   -0.036654
   5 C :   -0.016726
   6 C :   -0.095748
   7 H :    0.025782
   8 H :    0.023003
   9 H :    0.022960
  10 H :    0.024347
  11 H :    0.023158
  12 H :    0.029250
  13 H :    0.024559
  14 H :    0.029314
  15 H :    0.023681
  16 H :    0.045948
  17 H :    0.046452
  18 H :    0.032744

  Mayer bond orders larger than 0.1
B(  0-C ,  1-C ) :   1.0577 B(  0-C ,  7-H ) :   0.9575 B(  0-C ,  8-H ) :   0.9536
B(  0-C ,  9-H ) :   0.9526 B(  1-C ,  2-C ) :   1.0435 B(  1-C ,  3-C ) :   1.0439
B(  1-C ,  4-C ) :   1.0098 B(  2-C , 10-H ) :   0.9570 B(  2-C , 11-H ) :   0.9581
B(  2-C , 12-H ) :   0.9556 B(  3-C , 13-H ) :   0.9570 B(  3-C , 14-H ) :   0.9541
B(  3-C , 15-H ) :   0.9555 B(  4-C ,  5-C ) :   1.0572 B(  4-C , 16-H ) :   0.8929
B(  4-C , 17-H ) :   0.8891 B(  5-C ,  6-C ) :   2.2667 B(  5-C , 18-H ) :  -0.1213
B(  6-C , 18-H ) :   1.1121

FINAL SINGLE POINT ENERGY      -273.317144127477

DIPOLE MOMENT
-------------
                                X             Y             Z
Electronic contribution:      5.44149      -3.53729      -0.62079
Nuclear contribution   :     -5.71275       3.59066       0.62673
                        -----------------------------------------
Total Dipole Moment    :     -0.27126       0.05336       0.00594
                        -----------------------------------------
Magnitude (a.u.)       :      0.27653
Magnitude (Debye)      :      0.70288

                             ****ORCA TERMINATED NORMALLY****
TOTAL RUN TIME: 0 days 0 hours 0 minutes 9 seconds 62 msec
