                         Program Version 3.0.3 - RELEASE   -
|  1> ! RI PBE def2-SVP def2-SVP/J NBO PAL2
|  2> % maxcore 2000
|  3> % output
|  4>     # printlevel mini
|  5>     print[ P_Basis ] 0
|  6>     print[ P_SCFInfo ] 1
|  7>     print[ P_SCFIterInfo ] 1
|  8>     print[ P_OrbEn ] 0
|  9>     print[ P_Cartesian ] 0
| 10> end
| 11> *xyz 0 1
| 12>  C        1.0309450000     0.0750000000    -0.0426440000
| 13>  C        2.5704940000     0.0784560000    -0.0379050000
| 14>  C        3.0891800000     0.9293210000     1.1356560000
| 15>  C        3.0599270000    -1.2974900000     0.1048050000
| 16>  C        3.4436430000    -2.4246110000     0.2514330000
| 17>  C        3.0598820000     0.6418900000    -1.3013050000
| 18>  C        3.4438050000     1.1317880000    -2.3268500000
| 19>  H        0.6621430000    -0.3434960000     0.8953890000
| 20>  H        0.6499790000    -0.5243600000    -0.8693490000
| 21>  H        0.6621630000     1.0966610000    -0.1487410000
| 22>  H        2.7276950000     0.5138480000     2.0778650000
| 23>  H        2.7276960000     1.9540190000     1.0337550000
| 24>  H        4.1788830000     0.9403670000     1.1509000000
| 25>  H        3.7893120000    -3.4239000000     0.3723390000
| 26>  H        3.7893530000     1.5572170000    -3.2391500000
| 27> *
| 28>
| 29>                          ****END OF INPUT****
 Total Charge           Charge          ....    0
 Multiplicity           Mult            ....    1
 Number of Electrons    NEL             ....   50
 Basis Dimension        Dim             ....  138

MULLIKEN ATOMIC CHARGES
-----------------------
   0 C :    0.083420
   1 C :   -0.287342
   2 C :    0.079118
   3 C :    0.503558
   4 C :   -0.532310
   5 C :    0.501183
   6 C :   -0.531641
   7 H :    0.027002
   8 H :    0.040236
   9 H :    0.027072
  10 H :    0.027080
  11 H :    0.027907
  12 H :    0.041777
  13 H :   -0.003328
  14 H :   -0.003733
Sum of atomic charges:   -0.0000000

LOEWDIN ATOMIC CHARGES
----------------------
   0 C :   -0.021898
   1 C :   -0.075142
   2 C :   -0.023264
   3 C :    0.002637
   4 C :   -0.077307
   5 C :    0.002764
   6 C :   -0.077158
   7 H :    0.031310
   8 H :    0.035656
   9 H :    0.031175
  10 H :    0.031423
  11 H :    0.031550
  12 H :    0.035803
  13 H :    0.036242
  14 H :    0.036210

  Mayer bond orders larger than 0.1
B(  0-C ,  1-C ) :   1.0464 B(  0-C ,  7-H ) :   0.9557 B(  0-C ,  8-H ) :   0.9585
B(  0-C ,  9-H ) :   0.9568 B(  1-C ,  2-C ) :   1.0478 B(  1-C ,  3-C ) :   0.9177
B(  1-C ,  5-C ) :   0.9199 B(  2-C , 10-H ) :   0.9551 B(  2-C , 11-H ) :   0.9550
B(  2-C , 12-H ) :   0.9579 B(  3-C ,  4-C ) :   2.2902 B(  3-C , 13-H ) :  -0.1287
B(  4-C , 13-H ) :   1.1179 B(  5-C ,  6-C ) :   2.2916 B(  5-C , 14-H ) :  -0.1276
B(  6-C , 14-H ) :   1.1168

FINAL SINGLE POINT ENERGY      -270.841357535125

DIPOLE MOMENT
-------------
                                X             Y             Z
Electronic contribution:      2.68483      -2.23179      -3.07774
Nuclear contribution   :     -2.84612       2.36246       3.25863
                        -----------------------------------------
Total Dipole Moment    :     -0.16129       0.13068       0.18089
                        -----------------------------------------
Magnitude (a.u.)       :      0.27534
Magnitude (Debye)      :      0.69985

                             ****ORCA TERMINATED NORMALLY****
TOTAL RUN TIME: 0 days 0 hours 0 minutes 6 seconds 729 msec
