                         Program Version 3.0.3 - RELEASE   -
|  1> ! RI PBE def2-SVP def2-SVP/J NBO PAL2
|  2> % maxcore 2000
|  3> % output
|  4>     # printlevel mini
|  5>     print[ P_Basis ] 0
|  6>     print[ P_SCFInfo ] 1
|  7>     print[ P_SCFIterInfo ] 1
|  8>     print[ P_OrbEn ] 0
|  9>     print[ P_Cartesian ] 0
| 10> end
| 11> *xyz 0 1
| 12>  C        2.1000030000     1.2114360000    -1.0942590000
| 13>  C        2.7466890000     0.3765270000     0.0094590000
| 14>  C        1.7805240000     0.1921440000     1.1782200000
| 15>  C        3.1784690000    -0.9536700000    -0.5264880000
| 16>  C        4.4037650000    -1.4768720000    -0.5889110000
| 17>  C        5.6511360000    -0.8007870000    -0.1103050000
| 18>  C        4.6272320000    -2.8405510000    -1.1691570000
| 19>  H        1.7694430000     2.1805560000    -0.7103210000
| 20>  H        1.2236220000     0.6986500000    -1.5028180000
| 21>  H        2.7960990000     1.3877700000    -1.9171440000
| 22>  H        3.6202970000     0.9227820000     0.3772950000
| 23>  H        0.8913740000    -0.3612670000     0.8603200000
| 24>  H        1.4490190000     1.1581250000     1.5691910000
| 25>  H        2.2463560000    -0.3661750000     1.9931200000
| 26>  H        2.3599190000    -1.5622810000    -0.9145460000
| 27>  H        5.4746140000     0.1886970000     0.3087860000
| 28>  H        6.3685600000    -0.6971690000    -0.9317440000
| 29>  H        6.1455540000    -1.4090370000     0.6550570000
| 30>  H        3.6945190000    -3.2962000000    -1.5046590000
| 31>  H        5.0901410000    -3.5077630000    -0.4335500000
| 32>  H        5.3134760000    -2.7952160000    -2.0221450000
| 33> *
| 34>
| 35>                          ****END OF INPUT****
 Total Charge           Charge          ....    0
 Multiplicity           Mult            ....    1
 Number of Electrons    NEL             ....   56
 Basis Dimension        Dim             ....  168

MULLIKEN ATOMIC CHARGES
-----------------------
   0 C :    0.021980
   1 C :   -0.101199
   2 C :    0.027587
   3 C :   -0.023632
   4 C :   -0.202344
   5 C :    0.055486
   6 C :    0.044638
   7 H :    0.012682
   8 H :    0.010724
   9 H :    0.022208
  10 H :    0.001336
  11 H :    0.011306
  12 H :    0.010634
  13 H :    0.020287
  14 H :   -0.032448
  15 H :    0.008945
  16 H :    0.026413
  17 H :    0.024187
  18 H :    0.010713
  19 H :    0.024984
  20 H :    0.025516
Sum of atomic charges:   -0.0000000

LOEWDIN ATOMIC CHARGES
----------------------
   0 C :   -0.054438
   1 C :   -0.049874
   2 C :   -0.053419
   3 C :   -0.048014
   4 C :   -0.049881
   5 C :   -0.061215
   6 C :   -0.057499
   7 H :    0.023423
   8 H :    0.022862
   9 H :    0.026047
  10 H :    0.024303
  11 H :    0.022782
  12 H :    0.022865
  13 H :    0.025758
  14 H :    0.017925
  15 H :    0.026063
  16 H :    0.035424
  17 H :    0.034767
  18 H :    0.027876
  19 H :    0.032065
  20 H :    0.032179

  Mayer bond orders larger than 0.1
B(  0-C ,  1-C ) :   1.0707 B(  0-C ,  7-H ) :   0.9566 B(  0-C ,  8-H ) :   0.9611
B(  0-C ,  9-H ) :   0.9638 B(  1-C ,  2-C ) :   1.0702 B(  1-C ,  3-C ) :   1.0213
B(  1-C , 10-H ) :   0.9062 B(  2-C , 11-H ) :   0.9620 B(  2-C , 12-H ) :   0.9569
B(  2-C , 13-H ) :   0.9628 B(  3-C ,  4-C ) :   1.9050 B(  3-C , 14-H ) :   0.9245
B(  4-C ,  5-C ) :   1.1062 B(  4-C ,  6-C ) :   1.0819 B(  5-C , 15-H ) :   0.9421
B(  5-C , 16-H ) :   0.9402 B(  5-C , 17-H ) :   0.9406 B(  6-C , 18-H ) :   0.9504
B(  6-C , 19-H ) :   0.9465 B(  6-C , 20-H ) :   0.9468

FINAL SINGLE POINT ENERGY      -274.566604200379

DIPOLE MOMENT
-------------
                                X             Y             Z
Electronic contribution:      0.56991      -0.89724      -0.32209
Nuclear contribution   :     -0.42789       0.90377       0.34521
                        -----------------------------------------
Total Dipole Moment    :      0.14202       0.00653       0.02312
                        -----------------------------------------
Magnitude (a.u.)       :      0.14403
Magnitude (Debye)      :      0.36610

                             ****ORCA TERMINATED NORMALLY****
TOTAL RUN TIME: 0 days 0 hours 0 minutes 8 seconds 764 msec
