                         Program Version 3.0.3 - RELEASE   -
|  1> ! RI PBE def2-SVP def2-SVP/J NBO PAL2
|  2> % maxcore 2000
|  3> % output
|  4>     # printlevel mini
|  5>     print[ P_Basis ] 0
|  6>     print[ P_SCFInfo ] 1
|  7>     print[ P_SCFIterInfo ] 1
|  8>     print[ P_OrbEn ] 0
|  9>     print[ P_Cartesian ] 0
| 10> end
| 11> *xyz 0 1
| 12>  C        0.7573350000     0.0557880000     0.2178350000
| 13>  C        2.2751220000    -0.0139330000     0.0590190000
| 14>  C        2.9679950000     0.2321980000     1.3980800000
| 15>  C        2.6859180000    -1.3315310000    -0.5135200000
| 16>  C        3.3197230000    -1.5119410000    -1.6741380000
| 17>  C        3.7029030000    -2.8059830000    -2.1985490000
| 18>  C        4.3358630000    -2.9939110000    -3.3564750000
| 19>  H        0.4544540000     1.0208180000     0.6328270000
| 20>  H        0.4031700000    -0.7248500000     0.8981010000
| 21>  H        0.2512350000    -0.0799050000    -0.7401170000
| 22>  H        2.5860950000     0.7707000000    -0.6407400000
| 23>  H        2.6963220000    -0.5418490000     2.1223980000
| 24>  H        2.6718080000     1.1977670000     1.8166360000
| 25>  H        4.0545310000     0.2235870000     1.2904290000
| 26>  H        2.4358400000    -2.2082950000     0.0862470000
| 27>  H        3.5743450000    -0.6438490000    -2.2810920000
| 28>  H        3.4454700000    -3.6687560000    -1.5871160000
| 29>  H        4.6083430000    -2.1573740000    -3.9921860000
| 30>  H        4.6008050000    -3.9845710000    -3.7047380000
| 31> *
| 32>
| 33>                          ****END OF INPUT****
 Total Charge           Charge          ....    0
 Multiplicity           Mult            ....    1
 Number of Electrons    NEL             ....   54
 Basis Dimension        Dim             ....  158

MULLIKEN ATOMIC CHARGES
-----------------------
   0 C :    0.025834
   1 C :   -0.094661
   2 C :    0.011548
   3 C :   -0.032328
   4 C :    0.016071
   5 C :   -0.013545
   6 C :   -0.029683
   7 H :    0.015548
   8 H :    0.014618
   9 H :    0.023976
  10 H :    0.000813
  11 H :    0.017117
  12 H :    0.016009
  13 H :    0.030410
  14 H :   -0.010924
  15 H :   -0.019858
  16 H :   -0.009776
  17 H :    0.017082
  18 H :    0.021749
Sum of atomic charges:   -0.0000000

LOEWDIN ATOMIC CHARGES
----------------------
   0 C :   -0.052337
   1 C :   -0.048026
   2 C :   -0.055375
   3 C :   -0.014241
   4 C :   -0.044549
   5 C :   -0.032740
   6 C :   -0.057906
   7 H :    0.025356
   8 H :    0.024052
   9 H :    0.027305
  10 H :    0.027709
  11 H :    0.024664
  12 H :    0.025421
  13 H :    0.028456
  14 H :    0.021827
  15 H :    0.025501
  16 H :    0.028261
  17 H :    0.022194
  18 H :    0.024429

  Mayer bond orders larger than 0.1
B(  0-C ,  1-C ) :   1.0632 B(  0-C ,  7-H ) :   0.9575 B(  0-C ,  8-H ) :   0.9634
B(  0-C ,  9-H ) :   0.9636 B(  1-C ,  2-C ) :   1.0646 B(  1-C ,  3-C ) :   1.0153
B(  1-C , 10-H ) :   0.9123 B(  2-C , 11-H ) :   0.9614 B(  2-C , 12-H ) :   0.9574
B(  2-C , 13-H ) :   0.9635 B(  3-C ,  4-C ) :   1.7923 B(  3-C ,  6-C ) :   0.1364
B(  3-C , 14-H ) :   0.9526 B(  4-C ,  5-C ) :   1.1303 B(  4-C , 15-H ) :   0.9590
B(  5-C ,  6-C ) :   1.8903 B(  5-C , 16-H ) :   0.9620 B(  6-C , 17-H ) :   0.9457
B(  6-C , 18-H ) :   0.9420

FINAL SINGLE POINT ENERGY      -273.348152410939

DIPOLE MOMENT
-------------
                                X             Y             Z
Electronic contribution:      2.01404      -2.76387      -3.36247
Nuclear contribution   :     -2.11622       2.91230       3.52882
                        -----------------------------------------
Total Dipole Moment    :     -0.10218       0.14843       0.16635
                        -----------------------------------------
Magnitude (a.u.)       :      0.24524
Magnitude (Debye)      :      0.62336

                             ****ORCA TERMINATED NORMALLY****
TOTAL RUN TIME: 0 days 0 hours 0 minutes 8 seconds 302 msec
