                         Program Version 3.0.3 - RELEASE   -
|  1> ! RI PBE def2-SVP def2-SVP/J NBO PAL2
|  2> % maxcore 2000
|  3> % output
|  4>     # printlevel mini
|  5>     print[ P_Basis ] 0
|  6>     print[ P_SCFInfo ] 1
|  7>     print[ P_SCFIterInfo ] 1
|  8>     print[ P_OrbEn ] 0
|  9>     print[ P_Cartesian ] 0
| 10> end
| 11> *xyz 0 1
| 12>  C        0.7327990000    -0.0404060000    -0.2105270000
| 13>  C        2.2552240000    -0.0507920000    -0.0831700000
| 14>  C        2.9009640000     0.6749500000    -1.2622880000
| 15>  C        2.6772280000     0.5683730000     1.2080830000
| 16>  C        3.3517350000    -0.0623700000     2.1723620000
| 17>  C        3.7461120000     0.5379550000     3.3942220000
| 18>  C        4.0953650000     1.0180270000     4.4414310000
| 19>  H        0.4221220000    -0.4997100000    -1.1524800000
| 20>  H        0.3497100000     0.9843480000    -0.1974220000
| 21>  H        0.2611000000    -0.5856620000     0.6093500000
| 22>  H        2.5967190000    -1.0925680000    -0.0877060000
| 23>  H        2.5940760000     1.7248520000    -1.2863710000
| 24>  H        2.5983320000     0.2181080000    -2.2080470000
| 25>  H        3.9905510000     0.6450280000    -1.1997150000
| 26>  H        2.4057510000     1.6126470000     1.3566110000
| 27>  H        3.6293740000    -1.1059540000     2.0368690000
| 28>  H        4.3997370000     1.4505750000     5.3646890000
| 29> *
| 30>
| 31>                          ****END OF INPUT****
 Total Charge           Charge          ....    0
 Multiplicity           Mult            ....    1
 Number of Electrons    NEL             ....   52
 Basis Dimension        Dim             ....  148

MULLIKEN ATOMIC CHARGES
-----------------------
   0 C :    0.019381
   1 C :   -0.097010
   2 C :    0.013827
   3 C :   -0.003482
   4 C :   -0.063642
   5 C :    0.383204
   6 C :   -0.416896
   7 H :    0.019720
   8 H :    0.016456
   9 H :    0.028868
  10 H :    0.002978
  11 H :    0.017032
  12 H :    0.018631
  13 H :    0.031999
  14 H :    0.003631
  15 H :    0.021529
  16 H :    0.003774
Sum of atomic charges:   -0.0000000

LOEWDIN ATOMIC CHARGES
----------------------
   0 C :   -0.051514
   1 C :   -0.047629
   2 C :   -0.053363
   3 C :    0.012533
   4 C :   -0.063014
   5 C :   -0.019684
   6 C :   -0.073393
   7 H :    0.027094
   8 H :    0.025138
   9 H :    0.028889
  10 H :    0.028050
  11 H :    0.025581
  12 H :    0.026829
  13 H :    0.029227
  14 H :    0.029476
  15 H :    0.040853
  16 H :    0.034925

  Mayer bond orders larger than 0.1
B(  0-C ,  1-C ) :   1.0612 B(  0-C ,  7-H ) :   0.9583 B(  0-C ,  8-H ) :   0.9634
B(  0-C ,  9-H ) :   0.9638 B(  1-C ,  2-C ) :   1.0641 B(  1-C ,  3-C ) :   1.0214
B(  1-C , 10-H ) :   0.9111 B(  2-C , 11-H ) :   0.9609 B(  2-C , 12-H ) :   0.9576
B(  2-C , 13-H ) :   0.9638 B(  3-C ,  4-C ) :   1.8211 B(  3-C ,  6-C ) :   0.1301
B(  3-C , 14-H ) :   0.9546 B(  4-C ,  5-C ) :   1.0421 B(  4-C , 15-H ) :   0.9370
B(  5-C ,  6-C ) :   2.2798 B(  6-C , 16-H ) :   1.0851

FINAL SINGLE POINT ENERGY      -272.101680828065

DIPOLE MOMENT
-------------
                                X             Y             Z
Electronic contribution:      3.99748       0.29871       8.46277
Nuclear contribution   :     -4.17218      -0.35852      -8.85020
                        -----------------------------------------
Total Dipole Moment    :     -0.17470      -0.05980      -0.38744
                        -----------------------------------------
Magnitude (a.u.)       :      0.42919
Magnitude (Debye)      :      1.09092

                             ****ORCA TERMINATED NORMALLY****
TOTAL RUN TIME: 0 days 0 hours 0 minutes 7 seconds 524 msec
