                         Program Version 3.0.3 - RELEASE   -
|  1> ! RI PBE def2-SVP def2-SVP/J NBO PAL2
|  2> % maxcore 2000
|  3> % output
|  4>     # printlevel mini
|  5>     print[ P_Basis ] 0
|  6>     print[ P_SCFInfo ] 1
|  7>     print[ P_SCFIterInfo ] 1
|  8>     print[ P_OrbEn ] 0
|  9>     print[ P_Cartesian ] 0
| 10> end
| 11> *xyz 0 1
| 12>  C        1.2616660000     0.1292050000     0.6279630000
| 13>  C        2.6203960000    -0.0701780000    -0.0485090000
| 14>  C        3.2085120000    -1.4186730000     0.3388150000
| 15>  C        2.5067510000     0.1430500000    -1.5404060000
| 16>  C        2.4917190000    -0.8642340000    -2.4195940000
| 17>  C        2.3962690000     1.5098710000    -2.0519050000
| 18>  C        2.4710900000     2.6400890000    -1.3509730000
| 19>  H        1.3611680000     0.0744490000     1.7152400000
| 20>  H        0.5664920000    -0.6535360000     0.3125860000
| 21>  H        0.8173200000     1.0925350000     0.3736840000
| 22>  H        3.2993840000     0.7029950000     0.3314030000
| 23>  H        2.5404610000    -2.2405150000     0.0672060000
| 24>  H        3.3559010000    -1.4665540000     1.4203280000
| 25>  H        4.1728970000    -1.5917780000    -0.1438210000
| 26>  H        2.5890800000    -1.8999720000    -2.1207240000
| 27>  H        2.3832250000    -0.6705090000    -3.4812140000
| 28>  H        2.2508950000     1.5806630000    -3.1277900000
| 29>  H        2.6180940000     2.6537370000    -0.2771990000
| 30>  H        2.3898780000     3.6025660000    -1.8413900000
| 31> *
| 32>
| 33>                          ****END OF INPUT****
 Total Charge           Charge          ....    0
 Multiplicity           Mult            ....    1
 Number of Electrons    NEL             ....   54
 Basis Dimension        Dim             ....  158

MULLIKEN ATOMIC CHARGES
-----------------------
   0 C :    0.019373
   1 C :   -0.105591
   2 C :    0.010919
   3 C :   -0.025604
   4 C :   -0.053939
   5 C :   -0.012667
   6 C :   -0.040058
   7 H :    0.023728
   8 H :    0.017967
   9 H :    0.020498
  10 H :    0.016352
  11 H :    0.020187
  12 H :    0.017046
  13 H :    0.024124
  14 H :    0.017598
  15 H :    0.013146
  16 H :   -0.011244
  17 H :    0.024720
  18 H :    0.023446
Sum of atomic charges:   -0.0000000

LOEWDIN ATOMIC CHARGES
----------------------
   0 C :   -0.052595
   1 C :   -0.041304
   2 C :   -0.056472
   3 C :   -0.022302
   4 C :   -0.053149
   5 C :   -0.024162
   6 C :   -0.058875
   7 H :    0.026356
   8 H :    0.026660
   9 H :    0.025813
  10 H :    0.030731
  11 H :    0.023492
  12 H :    0.027996
  13 H :    0.027785
  14 H :    0.021296
  15 H :    0.021941
  16 H :    0.029724
  17 H :    0.020807
  18 H :    0.026258

  Mayer bond orders larger than 0.1
B(  0-C ,  1-C ) :   1.0684 B(  0-C ,  7-H ) :   0.9617 B(  0-C ,  8-H ) :   0.9568
B(  0-C ,  9-H ) :   0.9576 B(  1-C ,  2-C ) :   1.1029 B(  1-C ,  3-C ) :   1.0166
B(  1-C , 10-H ) :   0.8841 B(  2-C , 11-H ) :   0.9497 B(  2-C , 12-H ) :   0.9551
B(  2-C , 13-H ) :   0.9568 B(  3-C ,  4-C ) :   1.8860 B(  3-C ,  5-C ) :   1.1166
B(  4-C ,  6-C ) :   0.1372 B(  4-C , 14-H ) :   0.9273 B(  4-C , 15-H ) :   0.9326
B(  5-C ,  6-C ) :   1.8962 B(  5-C , 16-H ) :   0.9527 B(  6-C , 17-H ) :   0.9342
B(  6-C , 18-H ) :   0.9416

FINAL SINGLE POINT ENERGY      -273.342591039072

DIPOLE MOMENT
-------------
                                X             Y             Z
Electronic contribution:      0.60293       1.92156      -3.38714
Nuclear contribution   :     -0.59326      -1.93808       3.50726
                        -----------------------------------------
Total Dipole Moment    :      0.00968      -0.01652       0.12012
                        -----------------------------------------
Magnitude (a.u.)       :      0.12163
Magnitude (Debye)      :      0.30917

                             ****ORCA TERMINATED NORMALLY****
TOTAL RUN TIME: 0 days 0 hours 0 minutes 8 seconds 663 msec
