                         Program Version 3.0.3 - RELEASE   -
|  1> ! RI PBE def2-SVP def2-SVP/J NBO PAL2
|  2> % maxcore 2000
|  3> % output
|  4>     # printlevel mini
|  5>     print[ P_Basis ] 0
|  6>     print[ P_SCFInfo ] 1
|  7>     print[ P_SCFIterInfo ] 1
|  8>     print[ P_OrbEn ] 0
|  9>     print[ P_Cartesian ] 0
| 10> end
| 11> *xyz 0 1
| 12>  C        0.9723620000    -0.0129080000    -0.3197690000
| 13>  C        2.4821860000     0.0415620000    -0.1086400000
| 14>  C        3.1993250000    -0.9491360000    -1.0203490000
| 15>  C        3.0112460000     1.4462100000    -0.3035890000
| 16>  C        3.6071060000     2.1327420000     0.6743170000
| 17>  C        2.8484220000     2.0252150000    -1.5975700000
| 18>  C        2.6942530000     2.4820040000    -2.7003000000
| 19>  H        0.5997030000    -1.0248420000    -0.1426480000
| 20>  H        0.7153850000     0.2673830000    -1.3444250000
| 21>  H        0.4515780000     0.6675800000     0.3573260000
| 22>  H        2.6971320000    -0.2254980000     0.9316150000
| 23>  H        3.0244970000    -0.7035280000    -2.0708910000
| 24>  H        2.8313970000    -1.9630330000    -0.8445700000
| 25>  H        4.2774810000    -0.9407880000    -0.8463990000
| 26>  H        3.7325990000     1.6955500000     1.6585240000
| 27>  H        3.9796870000     3.1370890000     0.5160650000
| 28>  H        2.5653320000     2.8998880000    -3.6705860000
| 29> *
| 30>
| 31>                          ****END OF INPUT****
 Total Charge           Charge          ....    0
 Multiplicity           Mult            ....    1
 Number of Electrons    NEL             ....   52
 Basis Dimension        Dim             ....  148

MULLIKEN ATOMIC CHARGES
-----------------------
   0 C :    0.029274
   1 C :   -0.073371
   2 C :    0.016908
   3 C :   -0.125104
   4 C :    0.010965
   5 C :    0.454859
   6 C :   -0.485353
   7 H :    0.016428
   8 H :    0.026546
   9 H :    0.022501
  10 H :   -0.010835
  11 H :    0.031641
  12 H :    0.018284
  13 H :    0.024896
  14 H :    0.018768
  15 H :    0.021352
  16 H :    0.002243
Sum of atomic charges:   -0.0000000

LOEWDIN ATOMIC CHARGES
----------------------
   0 C :   -0.051437
   1 C :   -0.031348
   2 C :   -0.053997
   3 C :   -0.039894
   4 C :   -0.030761
   5 C :   -0.006087
   6 C :   -0.070753
   7 H :    0.026055
   8 H :    0.028682
   9 H :    0.028132
  10 H :    0.027513
  11 H :    0.029260
  12 H :    0.026494
  13 H :    0.028410
  14 H :    0.024475
  15 H :    0.029042
  16 H :    0.036214

  Mayer bond orders larger than 0.1
B(  0-C ,  1-C ) :   1.0772 B(  0-C ,  7-H ) :   0.9599 B(  0-C ,  8-H ) :   0.9594
B(  0-C ,  9-H ) :   0.9586 B(  1-C ,  2-C ) :   1.0737 B(  1-C ,  3-C ) :   1.0250
B(  1-C , 10-H ) :   0.8897 B(  2-C , 11-H ) :   0.9596 B(  2-C , 12-H ) :   0.9595
B(  2-C , 13-H ) :   0.9587 B(  3-C ,  4-C ) :   1.9264 B(  3-C ,  5-C ) :   0.9738
B(  4-C ,  6-C ) :   0.1250 B(  4-C , 14-H ) :   0.9279 B(  4-C , 15-H ) :   0.9337
B(  5-C ,  6-C ) :   2.2082 B(  5-C , 16-H ) :  -0.1127 B(  6-C , 16-H ) :   1.1024

FINAL SINGLE POINT ENERGY      -272.099497716756

DIPOLE MOMENT
-------------
                                X             Y             Z
Electronic contribution:      1.63151       5.22741      -1.78116
Nuclear contribution   :     -1.67853      -5.38407       1.86302
                        -----------------------------------------
Total Dipole Moment    :     -0.04701      -0.15666       0.08186
                        -----------------------------------------
Magnitude (a.u.)       :      0.18291
Magnitude (Debye)      :      0.46491

                             ****ORCA TERMINATED NORMALLY****
TOTAL RUN TIME: 0 days 0 hours 0 minutes 7 seconds 994 msec
