                         Program Version 3.0.3 - RELEASE   -
|  1> ! RI PBE def2-SVP def2-SVP/J NBO PAL2
|  2> % maxcore 2000
|  3> % output
|  4>     # printlevel mini
|  5>     print[ P_Basis ] 0
|  6>     print[ P_SCFInfo ] 1
|  7>     print[ P_SCFIterInfo ] 1
|  8>     print[ P_OrbEn ] 0
|  9>     print[ P_Cartesian ] 0
| 10> end
| 11> *xyz 0 1
| 12>  C        3.2388150000    -0.0077310000    -1.3501430000
| 13>  C        2.6304420000    -0.3185740000     0.0097140000
| 14>  C        2.8307940000    -1.7879290000     0.3612440000
| 15>  C        3.1481000000     0.6568320000     1.0906910000
| 16>  C        2.3338220000     0.5649150000     2.3798360000
| 17>  C        4.6050690000     0.4805470000     1.3883470000
| 18>  C        5.5544950000     1.3684800000     1.1265490000
| 19>  H        2.8222260000    -0.6591700000    -2.1227500000
| 20>  H        4.3224570000    -0.1530550000    -1.3362700000
| 21>  H        3.0471680000     1.0277750000    -1.6447280000
| 22>  H        1.5493930000    -0.1383110000    -0.0577200000
| 23>  H        3.8922880000    -2.0499030000     0.3818410000
| 24>  H        2.3549730000    -2.4249450000    -0.3885560000
| 25>  H        2.3996280000    -2.0455430000     1.3311330000
| 26>  H        3.0161540000     1.6668590000     0.6827070000
| 27>  H        2.4804000000    -0.3951840000     2.8811820000
| 28>  H        1.2654270000     0.6769320000     2.1755390000
| 29>  H        2.6304660000     1.3476180000     3.0811710000
| 30>  H        4.8830040000    -0.4515990000     1.8785990000
| 31>  H        5.3265780000     2.3163200000     0.6476860000
| 32>  H        6.5919900000     1.1849550000     1.3823090000
| 33> *
| 34>
| 35>                          ****END OF INPUT****
 Total Charge           Charge          ....    0
 Multiplicity           Mult            ....    1
 Number of Electrons    NEL             ....   56
 Basis Dimension        Dim             ....  168

MULLIKEN ATOMIC CHARGES
-----------------------
   0 C :    0.032369
   1 C :   -0.116845
   2 C :    0.013997
   3 C :   -0.064311
   4 C :    0.034162
   5 C :   -0.043781
   6 C :   -0.029359
   7 H :    0.011901
   8 H :    0.022437
   9 H :    0.008397
  10 H :    0.004724
  11 H :    0.017663
  12 H :    0.016328
  13 H :    0.010886
  14 H :   -0.011800
  15 H :    0.017585
  16 H :    0.016505
  17 H :    0.024260
  18 H :   -0.000323
  19 H :    0.013271
  20 H :    0.021934
Sum of atomic charges:   -0.0000000

LOEWDIN ATOMIC CHARGES
----------------------
   0 C :   -0.060062
   1 C :   -0.038700
   2 C :   -0.060776
   3 C :   -0.041218
   4 C :   -0.054689
   5 C :   -0.018857
   6 C :   -0.066712
   7 H :    0.024207
   8 H :    0.025795
   9 H :    0.023270
  10 H :    0.023478
  11 H :    0.023716
  12 H :    0.027440
  13 H :    0.022536
  14 H :    0.025846
  15 H :    0.022746
  16 H :    0.025702
  17 H :    0.029195
  18 H :    0.023386
  19 H :    0.020247
  20 H :    0.023451

  Mayer bond orders larger than 0.1
B(  0-C ,  1-C ) :   1.0828 B(  0-C ,  7-H ) :   0.9573 B(  0-C ,  8-H ) :   0.9584
B(  0-C ,  9-H ) :   0.9549 B(  1-C ,  2-C ) :   1.0788 B(  1-C ,  3-C ) :   1.0241
B(  1-C , 10-H ) :   0.9082 B(  2-C , 11-H ) :   0.9598 B(  2-C , 12-H ) :   0.9561
B(  2-C , 13-H ) :   0.9568 B(  3-C ,  4-C ) :   1.0729 B(  3-C ,  5-C ) :   1.0200
B(  3-C , 14-H ) :   0.9041 B(  4-C , 15-H ) :   0.9547 B(  4-C , 16-H ) :   0.9539
B(  4-C , 17-H ) :   0.9579 B(  5-C ,  6-C ) :   2.0087 B(  5-C , 18-H ) :   0.9493
B(  6-C , 19-H ) :   0.9418 B(  6-C , 20-H ) :   0.9419

FINAL SINGLE POINT ENERGY      -274.556250549715

DIPOLE MOMENT
-------------
                                X             Y             Z
Electronic contribution:      1.55541       1.56285       0.91227
Nuclear contribution   :     -1.68775      -1.61498      -0.90001
                        -----------------------------------------
Total Dipole Moment    :     -0.13235      -0.05213       0.01226
                        -----------------------------------------
Magnitude (a.u.)       :      0.14277
Magnitude (Debye)      :      0.36289

                             ****ORCA TERMINATED NORMALLY****
TOTAL RUN TIME: 0 days 0 hours 0 minutes 9 seconds 21 msec
