                         Program Version 3.0.3 - RELEASE   -
|  1> ! RI PBE def2-SVP def2-SVP/J NBO PAL2
|  2> % maxcore 2000
|  3> % output
|  4>     # printlevel mini
|  5>     print[ P_Basis ] 0
|  6>     print[ P_SCFInfo ] 1
|  7>     print[ P_SCFIterInfo ] 1
|  8>     print[ P_OrbEn ] 0
|  9>     print[ P_Cartesian ] 0
| 10> end
| 11> *xyz 0 1
| 12>  C        0.9116020000     0.0588480000    -0.0474740000
| 13>  C        2.4227920000     0.1607190000     0.0947140000
| 14>  C        2.8497380000     1.6016340000     0.3319280000
| 15>  C        2.9436980000    -0.8074460000     1.1806880000
| 16>  C        4.4692410000    -0.9163200000     1.2005780000
| 17>  C        2.4344730000    -0.4709200000     2.5059550000
| 18>  C        2.0305590000    -0.1892310000     3.6019000000
| 19>  H        0.5552470000     0.6902380000    -0.8648900000
| 20>  H        0.4135760000     0.3834170000     0.8701330000
| 21>  H        0.5971280000    -0.9677860000    -0.2540460000
| 22>  H        2.8780750000    -0.1832370000    -0.8427990000
| 23>  H        2.4531250000     1.9697100000     1.2820270000
| 24>  H        2.4692080000     2.2469540000    -0.4634350000
| 25>  H        3.9356980000     1.7130970000     0.3537250000
| 26>  H        2.5441180000    -1.7989030000     0.9296260000
| 27>  H        4.9300890000     0.0244590000     1.5048450000
| 28>  H        4.8405410000    -1.1788290000     0.2067710000
| 29>  H        4.7913630000    -1.6865610000     1.9029520000
| 30>  H        1.6717200000     0.0540580000     4.5737820000
| 31> *
| 32>
| 33>                          ****END OF INPUT****
 Total Charge           Charge          ....    0
 Multiplicity           Mult            ....    1
 Number of Electrons    NEL             ....   54
 Basis Dimension        Dim             ....  158

MULLIKEN ATOMIC CHARGES
-----------------------
   0 C :    0.037762
   1 C :   -0.126329
   2 C :    0.014853
   3 C :   -0.057650
   4 C :    0.048029
   5 C :    0.415434
   6 C :   -0.532975
   7 H :    0.015020
   8 H :    0.027360
   9 H :    0.009016
  10 H :    0.001570
  11 H :    0.025279
  12 H :    0.017909
  13 H :    0.018004
  14 H :    0.022999
  15 H :    0.029140
  16 H :    0.014025
  17 H :    0.028593
  18 H :   -0.008038
Sum of atomic charges:    0.0000000

LOEWDIN ATOMIC CHARGES
----------------------
   0 C :   -0.056928
   1 C :   -0.034646
   2 C :   -0.060608
   3 C :   -0.047291
   4 C :   -0.043592
   5 C :   -0.007755
   6 C :   -0.098715
   7 H :    0.025455
   8 H :    0.029417
   9 H :    0.023831
  10 H :    0.023992
  11 H :    0.029749
  12 H :    0.027408
  13 H :    0.024232
  14 H :    0.045589
  15 H :    0.028530
  16 H :    0.026198
  17 H :    0.031898
  18 H :    0.033237

  Mayer bond orders larger than 0.1
B(  0-C ,  1-C ) :   1.0851 B(  0-C ,  7-H ) :   0.9591 B(  0-C ,  8-H ) :   0.9578
B(  0-C ,  9-H ) :   0.9558 B(  1-C ,  2-C ) :   1.0728 B(  1-C ,  3-C ) :   1.0236
B(  1-C , 10-H ) :   0.9063 B(  2-C , 11-H ) :   0.9572 B(  2-C , 12-H ) :   0.9578
B(  2-C , 13-H ) :   0.9576 B(  3-C ,  4-C ) :   1.0746 B(  3-C ,  5-C ) :   0.9969
B(  3-C , 14-H ) :   0.8732 B(  4-C , 15-H ) :   0.9569 B(  4-C , 16-H ) :   0.9538
B(  4-C , 17-H ) :   0.9591 B(  5-C ,  6-C ) :   2.2711 B(  5-C , 18-H ) :  -0.1231
B(  6-C , 18-H ) :   1.1132

FINAL SINGLE POINT ENERGY      -273.314984906385

DIPOLE MOMENT
-------------
                                X             Y             Z
Electronic contribution:     -0.81961      -1.87169       4.68027
Nuclear contribution   :      0.91555       1.83004      -4.92443
                        -----------------------------------------
Total Dipole Moment    :      0.09594      -0.04164      -0.24415
                        -----------------------------------------
Magnitude (a.u.)       :      0.26561
Magnitude (Debye)      :      0.67513

                             ****ORCA TERMINATED NORMALLY****
TOTAL RUN TIME: 0 days 0 hours 0 minutes 8 seconds 115 msec
