                         Program Version 3.0.3 - RELEASE   -
|  1> ! RI PBE def2-SVP def2-SVP/J NBO PAL2
|  2> % maxcore 2000
|  3> % output
|  4>     # printlevel mini
|  5>     print[ P_Basis ] 0
|  6>     print[ P_SCFInfo ] 1
|  7>     print[ P_SCFIterInfo ] 1
|  8>     print[ P_OrbEn ] 0
|  9>     print[ P_Cartesian ] 0
| 10> end
| 11> *xyz 0 1
| 12>  C        0.9073930000    -0.0338320000     0.0306780000
| 13>  C        2.4356830000     0.0216650000     0.0436140000
| 14>  C        3.0055710000     0.0684820000    -1.3743690000
| 15>  C        2.9125400000     1.1463610000     0.8389950000
| 16>  C        3.2923940000     2.0844500000     1.4963290000
| 17>  C        3.7729330000     3.1914030000     2.2403910000
| 18>  C        3.2476570000     3.6220300000     3.3875170000
| 19>  H        0.5668780000    -0.9076720000    -0.5301060000
| 20>  H        0.4964950000     0.8601540000    -0.4438410000
| 21>  H        0.5065930000    -0.0942920000     1.0436180000
| 22>  H        2.8021740000    -0.8944670000     0.5254720000
| 23>  H        2.6609550000     0.9647010000    -1.8952970000
| 24>  H        2.6775350000    -0.8057320000    -1.9418800000
| 25>  H        4.0964540000     0.0827750000    -1.3607720000
| 26>  H        4.6333500000     3.7093420000     1.8224680000
| 27>  H        2.3908870000     3.1335770000     3.8362280000
| 28>  H        3.6678080000     4.4770540000     3.9025650000
| 29> *
| 30>
| 31>                          ****END OF INPUT****
 Total Charge           Charge          ....    0
 Multiplicity           Mult            ....    1
 Number of Electrons    NEL             ....   52
 Basis Dimension        Dim             ....  148

MULLIKEN ATOMIC CHARGES
-----------------------
   0 C :    0.023795
   1 C :   -0.099300
   2 C :    0.006951
   3 C :   -0.009077
   4 C :   -0.080942
   5 C :   -0.101409
   6 C :   -0.012708
   7 H :    0.017248
   8 H :    0.027094
   9 H :    0.029348
  10 H :    0.027835
  11 H :    0.028723
  12 H :    0.020264
  13 H :    0.035837
  14 H :    0.027883
  15 H :    0.028302
  16 H :    0.030155
Sum of atomic charges:   -0.0000000

LOEWDIN ATOMIC CHARGES
----------------------
   0 C :   -0.044599
   1 C :   -0.053255
   2 C :   -0.048330
   3 C :   -0.027895
   4 C :   -0.063045
   5 C :   -0.046536
   6 C :   -0.032375
   7 H :    0.026062
   8 H :    0.029242
   9 H :    0.030155
  10 H :    0.046728
  11 H :    0.029460
  12 H :    0.026472
  13 H :    0.031428
  14 H :    0.041918
  15 H :    0.027925
  16 H :    0.026645

  Mayer bond orders larger than 0.1
B(  0-C ,  1-C ) :   1.0741 B(  0-C ,  7-H ) :   0.9583 B(  0-C ,  8-H ) :   0.9633
B(  0-C ,  9-H ) :   0.9638 B(  1-C ,  2-C ) :   1.0751 B(  1-C ,  3-C ) :   1.0140
B(  1-C , 10-H ) :   0.8750 B(  2-C , 11-H ) :   0.9621 B(  2-C , 12-H ) :   0.9583
B(  2-C , 13-H ) :   0.9637 B(  3-C ,  4-C ) :   2.4614 B(  3-C ,  6-C ) :   0.1281
B(  4-C ,  5-C ) :   1.0513 B(  5-C ,  6-C ) :   1.9129 B(  5-C , 14-H ) :   0.9509
B(  6-C , 15-H ) :   0.9533 B(  6-C , 16-H ) :   0.9443

FINAL SINGLE POINT ENERGY      -272.106666982409

DIPOLE MOMENT
-------------
                                X             Y             Z
Electronic contribution:      2.82358       3.08007       3.66335
Nuclear contribution   :     -2.90191      -3.27048      -3.82038
                        -----------------------------------------
Total Dipole Moment    :     -0.07832      -0.19041      -0.15702
                        -----------------------------------------
Magnitude (a.u.)       :      0.25893
Magnitude (Debye)      :      0.65815

                             ****ORCA TERMINATED NORMALLY****
TOTAL RUN TIME: 0 days 0 hours 0 minutes 7 seconds 241 msec
