                         Program Version 3.0.3 - RELEASE   -
|  1> ! RI PBE def2-SVP def2-SVP/J NBO PAL2
|  2> % maxcore 2000
|  3> % output
|  4>     # printlevel mini
|  5>     print[ P_Basis ] 0
|  6>     print[ P_SCFInfo ] 1
|  7>     print[ P_SCFIterInfo ] 1
|  8>     print[ P_OrbEn ] 0
|  9>     print[ P_Cartesian ] 0
| 10> end
| 11> *xyz 0 1
| 12>  C        0.9267850000     0.0830850000     0.0694830000
| 13>  C        2.4556370000     0.0716560000     0.0103560000
| 14>  C        2.9912930000    -1.2913780000    -0.4326030000
| 15>  C        2.9504820000     1.1310600000    -0.8549340000
| 16>  C        3.3535600000     2.0041350000    -1.5874170000
| 17>  C        3.8105000000     2.9910130000    -2.4099060000
| 18>  C        4.2143250000     3.8635940000    -3.1377630000
| 19>  H        0.5748060000    -0.6871360000     0.7595880000
| 20>  H        0.5045120000    -0.1198650000    -0.9170020000
| 21>  H        0.5514670000     1.0497540000     0.4080360000
| 22>  H        2.8369520000     0.2758050000     1.0194110000
| 23>  H        2.6319280000    -1.5361960000    -1.4343900000
| 24>  H        2.6486590000    -2.0678310000     0.2552170000
| 25>  H        4.0819450000    -1.3007010000    -0.4505550000
| 26>  H        4.5707490000     4.6336050000    -3.7797220000
| 27> *
| 28>
| 29>                          ****END OF INPUT****
 Total Charge           Charge          ....    0
 Multiplicity           Mult            ....    1
 Number of Electrons    NEL             ....   50
 Basis Dimension        Dim             ....  138

MULLIKEN ATOMIC CHARGES
-----------------------
   0 C :    0.023977
   1 C :   -0.119962
   2 C :    0.010669
   3 C :   -0.036617
   4 C :   -0.015882
   5 C :    0.357532
   6 C :   -0.449673
   7 H :    0.022719
   8 H :    0.030451
   9 H :    0.035153
  10 H :    0.037172
  11 H :    0.028893
  12 H :    0.025352
  13 H :    0.040155
  14 H :    0.010060
Sum of atomic charges:   -0.0000000

LOEWDIN ATOMIC CHARGES
----------------------
   0 C :   -0.042529
   1 C :   -0.054210
   2 C :   -0.045355
   3 C :    0.011843
   4 C :   -0.074029
   5 C :   -0.030157
   6 C :   -0.039909
   7 H :    0.028404
   8 H :    0.030753
   9 H :    0.032570
  10 H :    0.050780
  11 H :    0.030951
  12 H :    0.028976
  13 H :    0.033349
  14 H :    0.038562

  Mayer bond orders larger than 0.1
B(  0-C ,  1-C ) :   1.0723 B(  0-C ,  7-H ) :   0.9591 B(  0-C ,  8-H ) :   0.9618
B(  0-C ,  9-H ) :   0.9633 B(  1-C ,  2-C ) :   1.0754 B(  1-C ,  3-C ) :   1.0205
B(  1-C , 10-H ) :   0.8747 B(  2-C , 11-H ) :   0.9597 B(  2-C , 12-H ) :   0.9577
B(  2-C , 13-H ) :   0.9631 B(  3-C ,  4-C ) :   2.3351 B(  3-C ,  6-C ) :   0.2650
B(  4-C ,  5-C ) :   0.9297 B(  5-C ,  6-C ) :   2.1368 B(  5-C , 14-H ) :  -0.1098
B(  6-C , 14-H ) :   1.0984

FINAL SINGLE POINT ENERGY      -270.869031858610

DIPOLE MOMENT
-------------
                                X             Y             Z
Electronic contribution:      4.30703       8.05454      -4.31715
Nuclear contribution   :     -4.50213      -8.44980       4.61866
                        -----------------------------------------
Total Dipole Moment    :     -0.19510      -0.39526       0.30150
                        -----------------------------------------
Magnitude (a.u.)       :      0.53404
Magnitude (Debye)      :      1.35743

                             ****ORCA TERMINATED NORMALLY****
TOTAL RUN TIME: 0 days 0 hours 0 minutes 6 seconds 642 msec
