                         Program Version 3.0.3 - RELEASE   -
|  1> ! RI PBE def2-SVP def2-SVP/J NBO PAL2
|  2> % maxcore 2000
|  3> % output
|  4>     # printlevel mini
|  5>     print[ P_Basis ] 0
|  6>     print[ P_SCFInfo ] 1
|  7>     print[ P_SCFIterInfo ] 1
|  8>     print[ P_OrbEn ] 0
|  9>     print[ P_Cartesian ] 0
| 10> end
| 11> *xyz 0 1
| 12>  C        1.9501210000    -0.6733460000    -1.1465800000
| 13>  C        3.4186720000    -0.9320640000    -0.8416110000
| 14>  C        4.2466500000    -0.9463790000    -2.1174420000
| 15>  C        3.9393240000     0.1078720000     0.1589640000
| 16>  C        5.3536350000    -0.0963510000     0.6209750000
| 17>  C        5.6399470000    -1.3589340000     1.3734150000
| 18>  C        6.3013720000     0.8074690000     0.3890280000
| 19>  H        1.5505980000    -1.4230900000    -1.8342660000
| 20>  H        1.8188580000     0.3078810000    -1.6139960000
| 21>  H        1.3428360000    -0.6927830000    -0.2376440000
| 22>  H        3.4926750000    -1.9218790000    -0.3741620000
| 23>  H        4.1845110000     0.0206040000    -2.6274620000
| 24>  H        3.8867910000    -1.7113650000    -2.8102320000
| 25>  H        5.3015760000    -1.1408430000    -1.9121560000
| 26>  H        3.2794370000     0.0955290000     1.0368050000
| 27>  H        3.8460660000     1.1033000000    -0.2893730000
| 28>  H        4.9744300000    -1.4559950000     2.2378980000
| 29>  H        6.6710990000    -1.3875660000     1.7275800000
| 30>  H        5.4715630000    -2.2424930000     0.7496150000
| 31>  H        6.0886290000     1.7221630000    -0.1538930000
| 32>  H        7.3193280000     0.6654690000     0.7364390000
| 33> *
| 34>
| 35>                          ****END OF INPUT****
 Total Charge           Charge          ....    0
 Multiplicity           Mult            ....    1
 Number of Electrons    NEL             ....   56
 Basis Dimension        Dim             ....  168

MULLIKEN ATOMIC CHARGES
-----------------------
   0 C :    0.031982
   1 C :   -0.184509
   2 C :    0.023822
   3 C :    0.111565
   4 C :   -0.205806
   5 C :    0.080777
   6 C :   -0.025616
   7 H :    0.017267
   8 H :    0.010144
   9 H :    0.011888
  10 H :    0.007882
  11 H :    0.010974
  12 H :    0.016015
  13 H :    0.027316
  14 H :    0.009818
  15 H :   -0.011210
  16 H :    0.021898
  17 H :    0.009017
  18 H :    0.028595
  19 H :    0.004428
  20 H :    0.003754
Sum of atomic charges:    0.0000000

LOEWDIN ATOMIC CHARGES
----------------------
   0 C :   -0.058031
   1 C :   -0.046128
   2 C :   -0.060294
   3 C :   -0.027768
   4 C :   -0.031000
   5 C :   -0.055238
   6 C :   -0.079983
   7 H :    0.025194
   8 H :    0.023538
   9 H :    0.023596
  10 H :    0.021116
  11 H :    0.024151
  12 H :    0.024881
  13 H :    0.026822
  14 H :    0.030118
  15 H :    0.025020
  16 H :    0.034499
  17 H :    0.030323
  18 H :    0.033113
  19 H :    0.018097
  20 H :    0.017974

  Mayer bond orders larger than 0.1
B(  0-C ,  1-C ) :   1.0900 B(  0-C ,  7-H ) :   0.9601 B(  0-C ,  8-H ) :   0.9591
B(  0-C ,  9-H ) :   0.9569 B(  1-C ,  2-C ) :   1.0798 B(  1-C ,  3-C ) :   1.0489
B(  1-C , 10-H ) :   0.9097 B(  2-C , 11-H ) :   0.9592 B(  2-C , 12-H ) :   0.9593
B(  2-C , 13-H ) :   0.9559 B(  3-C ,  4-C ) :   1.0609 B(  3-C , 14-H ) :   0.9078
B(  3-C , 15-H ) :   0.9131 B(  4-C ,  5-C ) :   1.0835 B(  4-C ,  6-C ) :   1.9820
B(  5-C , 16-H ) :   0.9416 B(  5-C , 17-H ) :   0.9455 B(  5-C , 18-H ) :   0.9395
B(  6-C , 19-H ) :   0.9326 B(  6-C , 20-H ) :   0.9284

FINAL SINGLE POINT ENERGY      -274.563280635582

DIPOLE MOMENT
-------------
                                X             Y             Z
Electronic contribution:      1.84687       1.32200       1.84778
Nuclear contribution   :     -1.98509      -1.50835      -1.79815
                        -----------------------------------------
Total Dipole Moment    :     -0.13821      -0.18636       0.04963
                        -----------------------------------------
Magnitude (a.u.)       :      0.23726
Magnitude (Debye)      :      0.60307

                             ****ORCA TERMINATED NORMALLY****
TOTAL RUN TIME: 0 days 0 hours 0 minutes 8 seconds 950 msec
