                         Program Version 3.0.3 - RELEASE   -
|  1> ! RI PBE def2-SVP def2-SVP/J NBO PAL2
|  2> % maxcore 2000
|  3> % output
|  4>     # printlevel mini
|  5>     print[ P_Basis ] 0
|  6>     print[ P_SCFInfo ] 1
|  7>     print[ P_SCFIterInfo ] 1
|  8>     print[ P_OrbEn ] 0
|  9>     print[ P_Cartesian ] 0
| 10> end
| 11> *xyz 0 1
| 12>  C        4.1975360000    -1.7984050000     0.0198530000
| 13>  C        3.4690960000    -0.5784940000    -0.5280540000
| 14>  C        2.1439300000    -0.9880640000    -1.1564480000
| 15>  C        3.2413590000     0.4932500000     0.5365340000
| 16>  C        4.5155270000     1.1127840000     1.1067390000
| 17>  C        4.2326950000     2.1684370000     2.1229890000
| 18>  C        4.6032460000     3.4382490000     2.0339280000
| 19>  H        4.3314490000    -2.5540240000    -0.7585180000
| 20>  H        3.6236110000    -2.2579470000     0.8315530000
| 21>  H        5.1871620000    -1.5504020000     0.4091010000
| 22>  H        4.0936290000    -0.1358670000    -1.3161640000
| 23>  H        1.4811260000    -1.4330870000    -0.4072180000
| 24>  H        2.2912800000    -1.7276470000    -1.9477600000
| 25>  H        1.6249900000    -0.1295250000    -1.5905000000
| 26>  H        2.6487980000     0.0614810000     1.3541230000
| 27>  H        2.6281810000     1.2941610000     0.1086060000
| 28>  H        5.1168270000     1.5366150000     0.2950290000
| 29>  H        5.1233190000     0.3286620000     1.5736030000
| 30>  H        3.6646090000     1.8474220000     2.9955820000
| 31>  H        5.1682950000     3.8040560000     1.1816380000
| 32>  H        4.3601350000     4.1575360000     2.8075020000
| 33> *
| 34>
| 35>                          ****END OF INPUT****
 Total Charge           Charge          ....    0
 Multiplicity           Mult            ....    1
 Number of Electrons    NEL             ....   56
 Basis Dimension        Dim             ....  168

MULLIKEN ATOMIC CHARGES
-----------------------
   0 C :    0.005659
   1 C :   -0.137917
   2 C :    0.023113
   3 C :   -0.015342
   4 C :    0.064064
   5 C :   -0.070167
   6 C :   -0.041235
   7 H :    0.018802
   8 H :    0.013876
   9 H :    0.018542
  10 H :    0.004433
  11 H :    0.013492
  12 H :    0.018532
  13 H :    0.013896
  14 H :    0.000922
  15 H :    0.008935
  16 H :   -0.000248
  17 H :    0.022534
  18 H :   -0.001004
  19 H :    0.015861
  20 H :    0.023252
Sum of atomic charges:    0.0000000

LOEWDIN ATOMIC CHARGES
----------------------
   0 C :   -0.061962
   1 C :   -0.048533
   2 C :   -0.059853
   3 C :   -0.032943
   4 C :   -0.044213
   5 C :   -0.024650
   6 C :   -0.072863
   7 H :    0.026843
   8 H :    0.024438
   9 H :    0.022600
  10 H :    0.023554
  11 H :    0.024248
  12 H :    0.024947
  13 H :    0.024336
  14 H :    0.020685
  15 H :    0.024792
  16 H :    0.027429
  17 H :    0.033091
  18 H :    0.023711
  19 H :    0.020625
  20 H :    0.023720

  Mayer bond orders larger than 0.1
B(  0-C ,  1-C ) :   1.0833 B(  0-C ,  7-H ) :   0.9571 B(  0-C ,  8-H ) :   0.9602
B(  0-C ,  9-H ) :   0.9569 B(  1-C ,  2-C ) :   1.0909 B(  1-C ,  3-C ) :   1.0649
B(  1-C , 10-H ) :   0.9067 B(  2-C , 11-H ) :   0.9585 B(  2-C , 12-H ) :   0.9593
B(  2-C , 13-H ) :   0.9559 B(  3-C ,  4-C ) :   1.0736 B(  3-C , 14-H ) :   0.9293
B(  3-C , 15-H ) :   0.9335 B(  4-C ,  5-C ) :   1.0708 B(  4-C , 16-H ) :   0.9247
B(  4-C , 17-H ) :   0.9017 B(  5-C ,  6-C ) :   2.0153 B(  5-C , 18-H ) :   0.9503
B(  6-C , 19-H ) :   0.9468 B(  6-C , 20-H ) :   0.9423

FINAL SINGLE POINT ENERGY      -274.557386964460

DIPOLE MOMENT
-------------
                                X             Y             Z
Electronic contribution:      1.15543       3.41288       2.11326
Nuclear contribution   :     -1.17558      -3.57814      -2.19673
                        -----------------------------------------
Total Dipole Moment    :     -0.02015      -0.16526      -0.08347
                        -----------------------------------------
Magnitude (a.u.)       :      0.18624
Magnitude (Debye)      :      0.47338

                             ****ORCA TERMINATED NORMALLY****
TOTAL RUN TIME: 0 days 0 hours 0 minutes 9 seconds 297 msec
