                         Program Version 3.0.3 - RELEASE   -
|  1> ! RI PBE def2-SVP def2-SVP/J NBO PAL2
|  2> % maxcore 2000
|  3> % output
|  4>     # printlevel mini
|  5>     print[ P_Basis ] 0
|  6>     print[ P_SCFInfo ] 1
|  7>     print[ P_SCFIterInfo ] 1
|  8>     print[ P_OrbEn ] 0
|  9>     print[ P_Cartesian ] 0
| 10> end
| 11> *xyz 0 1
| 12>  C        0.9926420000    -0.3521850000    -0.1029940000
| 13>  C        2.4791420000    -0.0285500000    -0.1652590000
| 14>  C        2.8980510000     0.2804840000    -1.5968430000
| 15>  C        2.8093650000     1.1080290000     0.7986580000
| 16>  C        4.3058320000     1.3944340000     0.9381480000
| 17>  C        4.5939100000     2.4146050000     1.9320100000
| 18>  C        4.8109120000     3.2589720000     2.7578220000
| 19>  H        0.7418370000    -1.1891890000    -0.7595020000
| 20>  H        0.3952180000     0.5084170000    -0.4204930000
| 21>  H        0.6829570000    -0.6154980000     0.9115670000
| 22>  H        3.0324950000    -0.9179000000     0.1666400000
| 23>  H        2.3942090000     1.1822900000    -1.9600380000
| 24>  H        2.6291470000    -0.5402810000    -2.2664570000
| 25>  H        3.9746760000     0.4384600000    -1.6910040000
| 26>  H        2.4101080000     0.8674050000     1.7886940000
| 27>  H        2.2986560000     2.0220770000     0.4748460000
| 28>  H        4.7245120000     1.7126230000    -0.0217010000
| 29>  H        4.8312490000     0.4720270000     1.2125980000
| 30>  H        5.0082820000     4.0066690000     3.4887090000
| 31> *
| 32>
| 33>                          ****END OF INPUT****
 Total Charge           Charge          ....    0
 Multiplicity           Mult            ....    1
 Number of Electrons    NEL             ....   54
 Basis Dimension        Dim             ....  158

MULLIKEN ATOMIC CHARGES
-----------------------
   0 C :    0.030655
   1 C :   -0.135586
   2 C :   -0.003272
   3 C :   -0.021156
   4 C :    0.103245
   5 C :    0.347309
   6 C :   -0.516964
   7 H :    0.015735
   8 H :    0.014047
   9 H :    0.015849
  10 H :    0.002676
  11 H :    0.015939
  12 H :    0.021042
  13 H :    0.023874
  14 H :    0.017219
  15 H :    0.014014
  16 H :    0.032897
  17 H :    0.027834
  18 H :   -0.005357
Sum of atomic charges:   -0.0000000

LOEWDIN ATOMIC CHARGES
----------------------
   0 C :   -0.056585
   1 C :   -0.048979
   2 C :   -0.062190
   3 C :   -0.025053
   4 C :   -0.046738
   5 C :   -0.019543
   6 C :   -0.096382
   7 H :    0.025026
   8 H :    0.024754
   9 H :    0.025055
  10 H :    0.023214
  11 H :    0.025617
  12 H :    0.027802
  13 H :    0.023076
  14 H :    0.028392
  15 H :    0.026709
  16 H :    0.046036
  17 H :    0.047133
  18 H :    0.032657

  Mayer bond orders larger than 0.1
B(  0-C ,  1-C ) :   1.0916 B(  0-C ,  7-H ) :   0.9598 B(  0-C ,  8-H ) :   0.9593
B(  0-C ,  9-H ) :   0.9580 B(  1-C ,  2-C ) :   1.0759 B(  1-C ,  3-C ) :   1.0588
B(  1-C , 10-H ) :   0.9072 B(  2-C , 11-H ) :   0.9605 B(  2-C , 12-H ) :   0.9585
B(  2-C , 13-H ) :   0.9594 B(  3-C ,  4-C ) :   1.0714 B(  3-C , 14-H ) :   0.9373
B(  3-C , 15-H ) :   0.9313 B(  4-C ,  5-C ) :   1.0688 B(  4-C , 16-H ) :   0.8846
B(  4-C , 17-H ) :   0.8893 B(  5-C ,  6-C ) :   2.3196 B(  5-C , 18-H ) :  -0.1146
B(  6-C , 18-H ) :   1.1055

FINAL SINGLE POINT ENERGY      -273.315022319043

DIPOLE MOMENT
-------------
                                X             Y             Z
Electronic contribution:      4.88911       4.56937       5.42487
Nuclear contribution   :     -5.01654      -4.83668      -5.65589
                        -----------------------------------------
Total Dipole Moment    :     -0.12743      -0.26732      -0.23103
                        -----------------------------------------
Magnitude (a.u.)       :      0.37559
Magnitude (Debye)      :      0.95468

                             ****ORCA TERMINATED NORMALLY****
TOTAL RUN TIME: 0 days 0 hours 0 minutes 8 seconds 151 msec
