                         Program Version 3.0.3 - RELEASE   -
|  1> ! RI PBE def2-SVP def2-SVP/J NBO PAL2
|  2> % maxcore 2000
|  3> % output
|  4>     # printlevel mini
|  5>     print[ P_Basis ] 0
|  6>     print[ P_SCFInfo ] 1
|  7>     print[ P_SCFIterInfo ] 1
|  8>     print[ P_OrbEn ] 0
|  9>     print[ P_Cartesian ] 0
| 10> end
| 11> *xyz 0 1
| 12>  C        1.1910880000     0.0708800000     0.4453900000
| 13>  C        2.6619000000    -0.0886870000     0.0282320000
| 14>  C        2.9467100000    -1.4875160000    -0.2619570000
| 15>  C        3.1549730000    -2.6501100000    -0.4778160000
| 16>  C        3.0381440000     0.8560330000    -1.0994840000
| 17>  C        2.9851210000     2.3125430000    -0.7556440000
| 18>  C        3.3961370000     0.4294440000    -2.3043880000
| 19>  H        0.9576490000    -0.6018380000     1.2715850000
| 20>  H        0.5341200000    -0.1701920000    -0.3920320000
| 21>  H        0.9858040000     1.0924050000     0.7682070000
| 22>  H        3.2794220000     0.1906540000     0.8941450000
| 23>  H        3.3466760000    -3.6793020000    -0.6691030000
| 24>  H        3.5908570000     2.5287810000     0.1309160000
| 25>  H        1.9663910000     2.6408420000    -0.5299060000
| 26>  H        3.3572510000     2.9212240000    -1.5800630000
| 27>  H        3.4440000000    -0.6267090000    -2.5405610000
| 28>  H        3.6565470000     1.1327170000    -3.0876080000
| 29> *
| 30>
| 31>                          ****END OF INPUT****
 Total Charge           Charge          ....    0
 Multiplicity           Mult            ....    1
 Number of Electrons    NEL             ....   52
 Basis Dimension        Dim             ....  148

MULLIKEN ATOMIC CHARGES
-----------------------
   0 C :    0.014906
   1 C :    0.037068
   2 C :    0.390850
   3 C :   -0.527987
   4 C :   -0.193650
   5 C :    0.067082
   6 C :   -0.003801
   7 H :    0.034484
   8 H :    0.035572
   9 H :    0.018991
  10 H :    0.033402
  11 H :   -0.004859
  12 H :    0.024950
  13 H :    0.031684
  14 H :    0.017661
  15 H :    0.021630
  16 H :    0.002019
Sum of atomic charges:   -0.0000000

LOEWDIN ATOMIC CHARGES
----------------------
   0 C :   -0.040108
   1 C :   -0.044784
   2 C :   -0.004430
   3 C :   -0.090356
   4 C :   -0.027287
   5 C :   -0.055342
   6 C :   -0.065686
   7 H :    0.033018
   8 H :    0.033337
   9 H :    0.024907
  10 H :    0.052635
  11 H :    0.034006
  12 H :    0.034511
  13 H :    0.034247
  14 H :    0.034032
  15 H :    0.026403
  16 H :    0.020897

  Mayer bond orders larger than 0.1
B(  0-C ,  1-C ) :   1.0572 B(  0-C ,  7-H ) :   0.9603 B(  0-C ,  8-H ) :   0.9623
B(  0-C ,  9-H ) :   0.9536 B(  1-C ,  2-C ) :   0.9966 B(  1-C ,  4-C ) :   0.9608
B(  1-C , 10-H ) :   0.8604 B(  2-C ,  3-C ) :   2.2874 B(  2-C , 11-H ) :  -0.1196
B(  3-C , 11-H ) :   1.1097 B(  4-C ,  5-C ) :   1.0847 B(  4-C ,  6-C ) :   2.0178
B(  5-C , 12-H ) :   0.9426 B(  5-C , 13-H ) :   0.9436 B(  5-C , 14-H ) :   0.9465
B(  6-C , 15-H ) :   0.9138 B(  6-C , 16-H ) :   0.9264

FINAL SINGLE POINT ENERGY      -272.093081851554

DIPOLE MOMENT
-------------
                                X             Y             Z
Electronic contribution:      2.02747      -4.90902      -0.30377
Nuclear contribution   :     -2.14338       5.21483       0.49256
                        -----------------------------------------
Total Dipole Moment    :     -0.11591       0.30581       0.18879
                        -----------------------------------------
Magnitude (a.u.)       :      0.37762
Magnitude (Debye)      :      0.95984

                             ****ORCA TERMINATED NORMALLY****
TOTAL RUN TIME: 0 days 0 hours 0 minutes 7 seconds 508 msec
