                         Program Version 3.0.3 - RELEASE   -
|  1> ! RI PBE def2-SVP def2-SVP/J NBO PAL2
|  2> % maxcore 2000
|  3> % output
|  4>     # printlevel mini
|  5>     print[ P_Basis ] 0
|  6>     print[ P_SCFInfo ] 1
|  7>     print[ P_SCFIterInfo ] 1
|  8>     print[ P_OrbEn ] 0
|  9>     print[ P_Cartesian ] 0
| 10> end
| 11> *xyz 0 1
| 12>  C        0.9973600000     0.1755230000     0.2184460000
| 13>  C        2.4918950000     0.2808940000    -0.0695190000
| 14>  C        2.8263430000    -0.2163700000    -1.4874980000
| 15>  C        2.5461850000    -1.6677710000    -1.6903630000
| 16>  C        1.7279580000    -2.1729080000    -2.6031090000
| 17>  C        2.9653970000     1.6890980000     0.1072890000
| 18>  C        3.8808820000     2.0894100000     0.9780770000
| 19>  H        0.6409600000    -0.8465680000     0.0737650000
| 20>  H        0.4282000000     0.8236780000    -0.4554300000
| 21>  H        0.7748600000     0.4802540000     1.2429540000
| 22>  H        3.0331640000    -0.3508670000     0.6459210000
| 23>  H        3.8911980000    -0.0288660000    -1.6694320000
| 24>  H        2.2694770000     0.3757470000    -2.2225680000
| 25>  H        3.0718570000    -2.3495200000    -1.0222840000
| 26>  H        1.1817540000    -1.5327870000    -3.2894980000
| 27>  H        1.5774370000    -3.2417740000    -2.7027120000
| 28>  H        2.4989270000     2.4260830000    -0.5471610000
| 29>  H        4.3674780000     1.3884920000     1.6500480000
| 30>  H        4.1775670000     3.1291640000     1.0545840000
| 31> *
| 32>
| 33>                          ****END OF INPUT****
 Total Charge           Charge          ....    0
 Multiplicity           Mult            ....    1
 Number of Electrons    NEL             ....   54
 Basis Dimension        Dim             ....  158

MULLIKEN ATOMIC CHARGES
-----------------------
   0 C :    0.040058
   1 C :   -0.103692
   2 C :    0.092259
   3 C :   -0.078256
   4 C :   -0.033578
   5 C :   -0.031851
   6 C :   -0.035889
   7 H :    0.021400
   8 H :    0.010465
   9 H :    0.021709
  10 H :   -0.002764
  11 H :    0.024139
  12 H :   -0.004880
  13 H :    0.003466
  14 H :    0.018229
  15 H :    0.023723
  16 H :   -0.002698
  17 H :    0.016539
  18 H :    0.021622
Sum of atomic charges:   -0.0000000

LOEWDIN ATOMIC CHARGES
----------------------
   0 C :   -0.052945
   1 C :   -0.041096
   2 C :   -0.032164
   3 C :   -0.027982
   4 C :   -0.066981
   5 C :   -0.019240
   6 C :   -0.068520
   7 H :    0.026692
   8 H :    0.024363
   9 H :    0.027656
  10 H :    0.026408
  11 H :    0.036927
  12 H :    0.026031
  13 H :    0.025481
  14 H :    0.021737
  15 H :    0.024500
  16 H :    0.023798
  17 H :    0.021262
  18 H :    0.024072

  Mayer bond orders larger than 0.1
B(  0-C ,  1-C ) :   1.0588 B(  0-C ,  7-H ) :   0.9532 B(  0-C ,  8-H ) :   0.9585
B(  0-C ,  9-H ) :   0.9627 B(  1-C ,  2-C ) :   1.0281 B(  1-C ,  5-C ) :   1.0283
B(  1-C , 10-H ) :   0.9083 B(  2-C ,  3-C ) :   1.0757 B(  2-C , 11-H ) :   0.9130
B(  2-C , 12-H ) :   0.9191 B(  3-C ,  4-C ) :   1.9988 B(  3-C , 13-H ) :   0.9515
B(  4-C , 14-H ) :   0.9475 B(  4-C , 15-H ) :   0.9430 B(  5-C ,  6-C ) :   2.0140
B(  5-C , 16-H ) :   0.9483 B(  6-C , 17-H ) :   0.9470 B(  6-C , 18-H ) :   0.9409

FINAL SINGLE POINT ENERGY      -273.333523287559

DIPOLE MOMENT
-------------
                                X             Y             Z
Electronic contribution:      1.61147       0.00416      -0.44195
Nuclear contribution   :     -1.62186      -0.02616       0.45314
                        -----------------------------------------
Total Dipole Moment    :     -0.01038      -0.02200       0.01119
                        -----------------------------------------
Magnitude (a.u.)       :      0.02678
Magnitude (Debye)      :      0.06806

                             ****ORCA TERMINATED NORMALLY****
TOTAL RUN TIME: 0 days 0 hours 0 minutes 7 seconds 920 msec
