                         Program Version 3.0.3 - RELEASE   -
|  1> ! RI PBE def2-SVP def2-SVP/J NBO PAL2
|  2> % maxcore 2000
|  3> % output
|  4>     # printlevel mini
|  5>     print[ P_Basis ] 0
|  6>     print[ P_SCFInfo ] 1
|  7>     print[ P_SCFIterInfo ] 1
|  8>     print[ P_OrbEn ] 0
|  9>     print[ P_Cartesian ] 0
| 10> end
| 11> *xyz 0 1
| 12>  C        0.8858640000     0.1355770000    -0.2187930000
| 13>  C        2.3928450000    -0.0315300000    -0.0313420000
| 14>  C        2.7537130000    -0.4712880000     1.4015060000
| 15>  C        2.4147710000     0.5573130000     2.4275960000
| 16>  C        1.6126390000     0.3679310000     3.4657680000
| 17>  C        2.9398660000    -0.9709930000    -1.0021640000
| 18>  C        3.3814580000    -1.7603930000    -1.7924170000
| 19>  H        0.4927560000     0.8552800000     0.5015200000
| 20>  H        0.3752250000    -0.8177680000    -0.0643680000
| 21>  H        0.6553880000     0.4841760000    -1.2264280000
| 22>  H        2.8723040000     0.9400050000    -0.2104460000
| 23>  H        3.8300400000    -0.6727270000     1.4317860000
| 24>  H        2.2461680000    -1.4141630000     1.6261040000
| 25>  H        2.8827460000     1.5326260000     2.2959660000
| 26>  H        1.1243890000    -0.5866580000     3.6370270000
| 27>  H        1.4193310000     1.1551760000     4.1853160000
| 28>  H        3.7747080000    -2.4553750000    -2.4958420000
| 29> *
| 30>
| 31>                          ****END OF INPUT****
 Total Charge           Charge          ....    0
 Multiplicity           Mult            ....    1
 Number of Electrons    NEL             ....   52
 Basis Dimension        Dim             ....  148

MULLIKEN ATOMIC CHARGES
-----------------------
   0 C :    0.031960
   1 C :   -0.096925
   2 C :    0.081456
   3 C :   -0.074873
   4 C :   -0.028305
   5 C :    0.425690
   6 C :   -0.535096
   7 H :    0.026538
   8 H :    0.026089
   9 H :    0.030598
  10 H :    0.028554
  11 H :    0.033559
  12 H :    0.008380
  13 H :    0.001573
  14 H :    0.018759
  15 H :    0.027150
  16 H :   -0.005105
Sum of atomic charges:    0.0000000

LOEWDIN ATOMIC CHARGES
----------------------
   0 C :   -0.045256
   1 C :   -0.047740
   2 C :   -0.024780
   3 C :   -0.029597
   4 C :   -0.062196
   5 C :   -0.012611
   6 C :   -0.093780
   7 H :    0.028561
   8 H :    0.030251
   9 H :    0.031660
  10 H :    0.045427
  11 H :    0.041355
  12 H :    0.031285
  13 H :    0.025373
  14 H :    0.022750
  15 H :    0.025720
  16 H :    0.033580

  Mayer bond orders larger than 0.1
B(  0-C ,  1-C ) :   1.0614 B(  0-C ,  7-H ) :   0.9533 B(  0-C ,  8-H ) :   0.9612
B(  0-C ,  9-H ) :   0.9622 B(  1-C ,  2-C ) :   1.0359 B(  1-C ,  5-C ) :   1.0034
B(  1-C , 10-H ) :   0.8753 B(  2-C ,  3-C ) :   1.0720 B(  2-C , 11-H ) :   0.9105
B(  2-C , 12-H ) :   0.9242 B(  3-C ,  4-C ) :   2.0020 B(  3-C , 13-H ) :   0.9491
B(  4-C , 14-H ) :   0.9478 B(  4-C , 15-H ) :   0.9419 B(  5-C ,  6-C ) :   2.2931
B(  5-C , 16-H ) :  -0.1205 B(  6-C , 16-H ) :   1.1104

FINAL SINGLE POINT ENERGY      -272.090534644981

DIPOLE MOMENT
-------------
                                X             Y             Z
Electronic contribution:      3.06374      -1.62294      -2.89998
Nuclear contribution   :     -3.12359       1.78054       3.02339
                        -----------------------------------------
Total Dipole Moment    :     -0.05985       0.15760       0.12341
                        -----------------------------------------
Magnitude (a.u.)       :      0.20892
Magnitude (Debye)      :      0.53104

                             ****ORCA TERMINATED NORMALLY****
TOTAL RUN TIME: 0 days 0 hours 0 minutes 7 seconds 634 msec
