                         Program Version 3.0.3 - RELEASE   -
|  1> ! RI PBE def2-SVP def2-SVP/J NBO PAL2
|  2> % maxcore 2000
|  3> % output
|  4>     # printlevel mini
|  5>     print[ P_Basis ] 0
|  6>     print[ P_SCFInfo ] 1
|  7>     print[ P_SCFIterInfo ] 1
|  8>     print[ P_OrbEn ] 0
|  9>     print[ P_Cartesian ] 0
| 10> end
| 11> *xyz 0 1
| 12>  C        0.9358340000    -0.1376470000    -0.1310850000
| 13>  C        2.4485640000    -0.0090560000     0.0073310000
| 14>  C        2.8893670000     1.4677410000    -0.0256610000
| 15>  C        2.5602900000     2.1435510000    -1.2687730000
| 16>  C        2.2916910000     2.6863190000    -2.3058100000
| 17>  C        2.9261950000    -0.6451330000     1.2746720000
| 18>  C        3.7817180000    -1.6544020000     1.3488480000
| 19>  H        0.5874340000     0.3475260000    -1.0451320000
| 20>  H        0.4275260000     0.3332550000     0.7161560000
| 21>  H        0.6379350000    -1.1873590000    -0.1586030000
| 22>  H        2.9267690000    -0.5168720000    -0.8370810000
| 23>  H        3.9704410000     1.5238050000     0.1359640000
| 24>  H        2.4216990000     2.0023790000     0.8100270000
| 25>  H        2.0561250000     3.1736440000    -3.2220390000
| 26>  H        2.5166320000    -0.2275450000     2.1948730000
| 27>  H        4.2097730000    -2.1001010000     0.4558750000
| 28>  H        4.0838970000    -2.0748950000     2.3010450000
| 29> *
| 30>
| 31>                          ****END OF INPUT****
 Total Charge           Charge          ....    0
 Multiplicity           Mult            ....    1
 Number of Electrons    NEL             ....   52
 Basis Dimension        Dim             ....  148

MULLIKEN ATOMIC CHARGES
-----------------------
   0 C :    0.031790
   1 C :   -0.106266
   2 C :    0.115509
   3 C :    0.351208
   4 C :   -0.513535
   5 C :   -0.039478
   6 C :   -0.021970
   7 H :    0.033218
   8 H :    0.011184
   9 H :    0.025597
  10 H :    0.008795
  11 H :    0.040873
  12 H :    0.024506
  13 H :   -0.002723
  14 H :    0.000021
  15 H :    0.017485
  16 H :    0.023787
Sum of atomic charges:   -0.0000000

LOEWDIN ATOMIC CHARGES
----------------------
   0 C :   -0.051781
   1 C :   -0.033984
   2 C :   -0.037968
   3 C :   -0.020886
   4 C :   -0.091860
   5 C :   -0.022948
   6 C :   -0.060977
   7 H :    0.032019
   8 H :    0.024471
   9 H :    0.029216
  10 H :    0.032062
  11 H :    0.050706
  12 H :    0.045707
  13 H :    0.033977
  14 H :    0.024528
  15 H :    0.022569
  16 H :    0.025149

  Mayer bond orders larger than 0.1
B(  0-C ,  1-C ) :   1.0571 B(  0-C ,  7-H ) :   0.9527 B(  0-C ,  8-H ) :   0.9600
B(  0-C ,  9-H ) :   0.9640 B(  1-C ,  2-C ) :   1.0246 B(  1-C ,  5-C ) :   1.0223
B(  1-C , 10-H ) :   0.9120 B(  2-C ,  3-C ) :   1.0646 B(  2-C , 11-H ) :   0.8993
B(  2-C , 12-H ) :   0.8838 B(  3-C ,  4-C ) :   2.3008 B(  3-C , 13-H ) :  -0.1121
B(  4-C , 13-H ) :   1.1025 B(  5-C ,  6-C ) :   2.0171 B(  5-C , 14-H ) :   0.9468
B(  6-C , 15-H ) :   0.9467 B(  6-C , 16-H ) :   0.9404

FINAL SINGLE POINT ENERGY      -272.091281821357

DIPOLE MOMENT
-------------
                                X             Y             Z
Electronic contribution:      1.35391       3.43400      -2.29636
Nuclear contribution   :     -1.37257      -3.54207       2.44888
                        -----------------------------------------
Total Dipole Moment    :     -0.01866      -0.10807       0.15252
                        -----------------------------------------
Magnitude (a.u.)       :      0.18785
Magnitude (Debye)      :      0.47748

                             ****ORCA TERMINATED NORMALLY****
TOTAL RUN TIME: 0 days 0 hours 0 minutes 7 seconds 679 msec
