                         Program Version 3.0.3 - RELEASE   -
|  1> ! RI PBE def2-SVP def2-SVP/J NBO PAL2
|  2> % maxcore 2000
|  3> % output
|  4>     # printlevel mini
|  5>     print[ P_Basis ] 0
|  6>     print[ P_SCFInfo ] 1
|  7>     print[ P_SCFIterInfo ] 1
|  8>     print[ P_OrbEn ] 0
|  9>     print[ P_Cartesian ] 0
| 10> end
| 11> *xyz 0 1
| 12>  C        0.9888750000    -0.0118790000    -0.0160920000
| 13>  C        2.5146570000     0.0275990000    -0.0888680000
| 14>  C        2.9788550000     0.2261370000    -1.5455510000
| 15>  C        4.4126960000     0.0960610000    -1.7298230000
| 16>  C        5.5973360000    -0.0279080000    -1.8757640000
| 17>  C        3.0522540000     1.0623020000     0.7847150000
| 18>  C        3.4701490000     1.9297980000     1.5014250000
| 19>  H        0.5997870000    -0.8266750000    -0.6312270000
| 20>  H        0.5618100000     0.9273380000    -0.3746320000
| 21>  H        0.6548720000    -0.1635990000     1.0107750000
| 22>  H        2.9083740000    -0.9363380000     0.2534450000
| 23>  H        2.6513230000     1.2119680000    -1.8915080000
| 24>  H        2.4690090000    -0.5148590000    -2.1704280000
| 25>  H        6.6489150000    -0.1298600000    -2.0028160000
| 26>  H        3.8519000000     2.6939250000     2.1361390000
| 27> *
| 28>
| 29>                          ****END OF INPUT****
 Total Charge           Charge          ....    0
 Multiplicity           Mult            ....    1
 Number of Electrons    NEL             ....   50
 Basis Dimension        Dim             ....  138

MULLIKEN ATOMIC CHARGES
-----------------------
   0 C :    0.048472
   1 C :   -0.113731
   2 C :    0.101121
   3 C :    0.366064
   4 C :   -0.503082
   5 C :    0.418192
   6 C :   -0.506762
   7 H :    0.019945
   8 H :    0.025989
   9 H :    0.035216
  10 H :    0.039078
  11 H :    0.038974
  12 H :    0.036383
  13 H :   -0.002443
  14 H :   -0.003416
Sum of atomic charges:    0.0000000

LOEWDIN ATOMIC CHARGES
----------------------
   0 C :   -0.042773
   1 C :   -0.040719
   2 C :   -0.030633
   3 C :   -0.021532
   4 C :   -0.081272
   5 C :   -0.012961
   6 C :   -0.081957
   7 H :    0.027449
   8 H :    0.030858
   9 H :    0.034677
  10 H :    0.050117
  11 H :    0.050811
  12 H :    0.049253
  13 H :    0.034067
  14 H :    0.034617

  Mayer bond orders larger than 0.1
B(  0-C ,  1-C ) :   1.0771 B(  0-C ,  7-H ) :   0.9546 B(  0-C ,  8-H ) :   0.9574
B(  0-C ,  9-H ) :   0.9612 B(  1-C ,  2-C ) :   1.0393 B(  1-C ,  5-C ) :   0.9997
B(  1-C , 10-H ) :   0.8809 B(  2-C ,  3-C ) :   1.0596 B(  2-C , 11-H ) :   0.8927
B(  2-C , 12-H ) :   0.8936 B(  3-C ,  4-C ) :   2.3163 B(  3-C , 13-H ) :  -0.1127
B(  4-C , 13-H ) :   1.1037 B(  5-C ,  6-C ) :   2.3145 B(  5-C , 14-H ) :  -0.1176
B(  6-C , 14-H ) :   1.1081

FINAL SINGLE POINT ENERGY      -270.846303886371

DIPOLE MOMENT
-------------
                                X             Y             Z
Electronic contribution:      4.74000       1.15168       0.17020
Nuclear contribution   :     -5.09932      -1.29433      -0.23629
                        -----------------------------------------
Total Dipole Moment    :     -0.35931      -0.14265      -0.06608
                        -----------------------------------------
Magnitude (a.u.)       :      0.39220
Magnitude (Debye)      :      0.99689

                             ****ORCA TERMINATED NORMALLY****
TOTAL RUN TIME: 0 days 0 hours 0 minutes 6 seconds 841 msec
