                         Program Version 3.0.3 - RELEASE   -
|  1> ! RI PBE def2-SVP def2-SVP/J NBO PAL2
|  2> % maxcore 2000
|  3> % output
|  4>     # printlevel mini
|  5>     print[ P_Basis ] 0
|  6>     print[ P_SCFInfo ] 1
|  7>     print[ P_SCFIterInfo ] 1
|  8>     print[ P_OrbEn ] 0
|  9>     print[ P_Cartesian ] 0
| 10> end
| 11> *xyz 0 1
| 12>  C        0.9692200000     0.0993720000    -0.0943880000
| 13>  C        2.4174060000     0.1061470000    -0.0302350000
| 14>  C        3.6226240000     0.1111730000     0.0285020000
| 15>  C        5.0394310000     0.1209700000     0.0423130000
| 16>  C        5.8083940000     0.0476730000     1.1393660000
| 17>  C        5.2453710000    -0.0558150000     2.5164410000
| 18>  C        7.2976820000     0.0664810000     1.0350420000
| 19>  H        0.5417260000     0.8746700000     0.5473540000
| 20>  H        0.5635230000    -0.8630060000     0.2299080000
| 21>  H        0.6220100000     0.2812540000    -1.1147080000
| 22>  H        5.5246280000     0.1947140000    -0.9283140000
| 23>  H        4.1557950000    -0.0646970000     2.5085260000
| 24>  H        5.5848440000     0.7827110000     3.1342800000
| 25>  H        5.6000950000    -0.9677500000     3.0090060000
| 26>  H        7.6333140000     0.1439770000     0.0000430000
| 27>  H        7.7293530000    -0.8413070000     1.4708580000
| 28>  H        7.7161750000     0.9083440000     1.5976060000
| 29> *
| 30>
| 31>                          ****END OF INPUT****
 Total Charge           Charge          ....    0
 Multiplicity           Mult            ....    1
 Number of Electrons    NEL             ....   52
 Basis Dimension        Dim             ....  148

MULLIKEN ATOMIC CHARGES
-----------------------
   0 C :    0.057059
   1 C :   -0.182810
   2 C :   -0.021593
   3 C :   -0.057998
   4 C :   -0.213795
   5 C :    0.063111
   6 C :    0.057980
   7 H :    0.047673
   8 H :    0.046059
   9 H :    0.044837
  10 H :    0.000488
  11 H :    0.034137
  12 H :    0.027978
  13 H :    0.024893
  14 H :    0.014874
  15 H :    0.028090
  16 H :    0.029016
Sum of atomic charges:   -0.0000000

LOEWDIN ATOMIC CHARGES
----------------------
   0 C :   -0.067795
   1 C :   -0.060551
   2 C :   -0.061709
   3 C :   -0.077458
   4 C :   -0.017752
   5 C :   -0.058557
   6 C :   -0.054255
   7 H :    0.050152
   8 H :    0.049817
   9 H :    0.050002
  10 H :    0.036042
  11 H :    0.036118
  12 H :    0.037470
  13 H :    0.036892
  14 H :    0.029663
  15 H :    0.035845
  16 H :    0.036078

  Mayer bond orders larger than 0.1
B(  0-C ,  1-C ) :   1.1340 B(  0-C ,  7-H ) :   0.9316 B(  0-C ,  8-H ) :   0.9309
B(  0-C ,  9-H ) :   0.9330 B(  1-C ,  2-C ) :   2.4303 B(  1-C ,  4-C ) :   0.1165
B(  2-C ,  3-C ) :   1.0123 B(  3-C ,  4-C ) :   1.7778 B(  3-C , 10-H ) :   0.9420
B(  4-C ,  5-C ) :   1.1164 B(  4-C ,  6-C ) :   1.0849 B(  5-C , 11-H ) :   0.9361
B(  5-C , 12-H ) :   0.9392 B(  5-C , 13-H ) :   0.9392 B(  6-C , 14-H ) :   0.9531
B(  6-C , 15-H ) :   0.9441 B(  6-C , 16-H ) :   0.9441

FINAL SINGLE POINT ENERGY      -272.120882456655

DIPOLE MOMENT
-------------
                                X             Y             Z
Electronic contribution:     -1.91223       0.20577      -3.00474
Nuclear contribution   :      1.87881      -0.21753       3.20872
                        -----------------------------------------
Total Dipole Moment    :     -0.03342      -0.01176       0.20398
                        -----------------------------------------
Magnitude (a.u.)       :      0.20704
Magnitude (Debye)      :      0.52624

                             ****ORCA TERMINATED NORMALLY****
TOTAL RUN TIME: 0 days 0 hours 0 minutes 6 seconds 902 msec
