                         Program Version 3.0.3 - RELEASE   -
|  1> ! RI PBE def2-SVP def2-SVP/J NBO PAL2
|  2> % maxcore 2000
|  3> % output
|  4>     # printlevel mini
|  5>     print[ P_Basis ] 0
|  6>     print[ P_SCFInfo ] 1
|  7>     print[ P_SCFIterInfo ] 1
|  8>     print[ P_OrbEn ] 0
|  9>     print[ P_Cartesian ] 0
| 10> end
| 11> *xyz 0 1
| 12>  C        0.9061750000     0.0527590000    -0.1213870000
| 13>  C        2.3533840000     0.0644300000    -0.0642140000
| 14>  C        3.5588010000     0.0741990000    -0.0060880000
| 15>  C        4.9700310000     0.0841950000     0.0176150000
| 16>  C        5.7170760000     0.1267240000     1.1344810000
| 17>  C        7.1586350000     0.1358680000     1.1240150000
| 18>  C        7.9153590000     0.1780600000     2.2225500000
| 19>  H        0.4862480000     0.9202490000     0.3950750000
| 20>  H        0.5022380000    -0.8453670000     0.3540080000
| 21>  H        0.5537550000     0.0733410000    -1.1555920000
| 22>  H        5.4720970000     0.0549540000    -0.9478320000
| 23>  H        5.2227440000     0.1560890000     2.1019360000
| 24>  H        7.6369660000     0.1059540000     0.1471410000
| 25>  H        7.4705880000     0.2086350000     3.2119340000
| 26>  H        8.9968140000     0.1833210000     2.1668690000
| 27> *
| 28>
| 29>                          ****END OF INPUT****
 Total Charge           Charge          ....    0
 Multiplicity           Mult            ....    1
 Number of Electrons    NEL             ....   50
 Basis Dimension        Dim             ....  138

MULLIKEN ATOMIC CHARGES
-----------------------
   0 C :    0.054171
   1 C :   -0.180235
   2 C :    0.018057
   3 C :   -0.089899
   4 C :    0.022512
   5 C :   -0.006018
   6 C :   -0.032061
   7 H :    0.052082
   8 H :    0.051623
   9 H :    0.048428
  10 H :    0.019786
  11 H :   -0.003407
  12 H :   -0.006572
  13 H :    0.020393
  14 H :    0.031141
Sum of atomic charges:    0.0000000

LOEWDIN ATOMIC CHARGES
----------------------
   0 C :   -0.066314
   1 C :   -0.043890
   2 C :   -0.060440
   3 C :   -0.044941
   4 C :   -0.012918
   5 C :   -0.033037
   6 C :   -0.048487
   7 H :    0.053098
   8 H :    0.053140
   9 H :    0.051310
  10 H :    0.039807
  11 H :    0.032566
  12 H :    0.029412
  13 H :    0.023844
  14 H :    0.026850

  Mayer bond orders larger than 0.1
B(  0-C ,  1-C ) :   1.1324 B(  0-C ,  7-H ) :   0.9302 B(  0-C ,  8-H ) :   0.9297
B(  0-C ,  9-H ) :   0.9337 B(  1-C ,  2-C ) :   2.4229 B(  1-C ,  4-C ) :   0.1073
B(  2-C ,  3-C ) :   1.0307 B(  3-C ,  4-C ) :   1.6795 B(  3-C ,  6-C ) :   0.1247
B(  3-C , 10-H ) :   0.9497 B(  4-C ,  5-C ) :   1.1526 B(  4-C , 11-H ) :   0.9723
B(  5-C ,  6-C ) :   1.8553 B(  5-C , 12-H ) :   0.9620 B(  6-C , 13-H ) :   0.9493
B(  6-C , 14-H ) :   0.9433

FINAL SINGLE POINT ENERGY      -270.899938719571

DIPOLE MOMENT
-------------
                                X             Y             Z
Electronic contribution:      0.43406      -0.03639      -1.18886
Nuclear contribution   :     -0.76380       0.03306       1.15679
                        -----------------------------------------
Total Dipole Moment    :     -0.32974      -0.00333      -0.03207
                        -----------------------------------------
Magnitude (a.u.)       :      0.33131
Magnitude (Debye)      :      0.84213

                             ****ORCA TERMINATED NORMALLY****
TOTAL RUN TIME: 0 days 0 hours 0 minutes 6 seconds 449 msec
