                         Program Version 3.0.3 - RELEASE   -
|  1> ! RI PBE def2-SVP def2-SVP/J NBO PAL2
|  2> % maxcore 2000
|  3> % output
|  4>     # printlevel mini
|  5>     print[ P_Basis ] 0
|  6>     print[ P_SCFInfo ] 1
|  7>     print[ P_SCFIterInfo ] 1
|  8>     print[ P_OrbEn ] 0
|  9>     print[ P_Cartesian ] 0
| 10> end
| 11> *xyz 0 1
| 12>  C        0.9619990000    -0.0402020000    -0.0965760000
| 13>  C        2.4091500000     0.0027940000    -0.0996420000
| 14>  C        3.6149530000     0.0459550000    -0.0936200000
| 15>  C        5.0250900000     0.0643960000    -0.1232540000
| 16>  C        5.7856700000     0.8081560000     0.6992850000
| 17>  C        7.1968440000     0.8185270000     0.6603470000
| 18>  C        8.4007460000     0.8509850000     0.6540920000
| 19>  H        0.5843870000    -0.4041860000     0.8628030000
| 20>  H        0.5872260000    -0.7025540000    -0.8805730000
| 21>  H        0.5414430000     0.9549480000    -0.2644830000
| 22>  H        5.5117230000    -0.5668370000    -0.8620630000
| 23>  H        5.3083740000     1.4420930000     1.4408740000
| 24>  H        9.4646160000     0.8738050000     0.6418500000
| 25> *
| 26>
| 27>                          ****END OF INPUT****
 Total Charge           Charge          ....    0
 Multiplicity           Mult            ....    1
 Number of Electrons    NEL             ....   48
 Basis Dimension        Dim             ....  128

MULLIKEN ATOMIC CHARGES
-----------------------
   0 C :    0.053201
   1 C :   -0.173059
   2 C :    0.015982
   3 C :   -0.063447
   4 C :   -0.060337
   5 C :    0.397446
   6 C :   -0.409103
   7 H :    0.053814
   8 H :    0.054254
   9 H :    0.053781
  10 H :    0.034991
  11 H :    0.035552
  12 H :    0.006926
Sum of atomic charges:   -0.0000000

LOEWDIN ATOMIC CHARGES
----------------------
   0 C :   -0.065778
   1 C :   -0.033676
   2 C :   -0.061882
   3 C :   -0.019373
   4 C :   -0.032924
   5 C :   -0.019819
   6 C :   -0.060146
   7 H :    0.054805
   8 H :    0.053353
   9 H :    0.054693
  10 H :    0.047177
  11 H :    0.047480
  12 H :    0.036091

  Mayer bond orders larger than 0.1
B(  0-C ,  1-C ) :   1.1315 B(  0-C ,  7-H ) :   0.9286 B(  0-C ,  8-H ) :   0.9336
B(  0-C ,  9-H ) :   0.9292 B(  1-C ,  2-C ) :   2.4167 B(  1-C ,  4-C ) :   0.1124
B(  2-C ,  3-C ) :   1.0507 B(  3-C ,  4-C ) :   1.7077 B(  3-C ,  6-C ) :   0.1197
B(  3-C , 10-H ) :   0.9497 B(  4-C ,  5-C ) :   1.0569 B(  4-C , 11-H ) :   0.9479
B(  5-C ,  6-C ) :   2.2468 B(  6-C , 12-H ) :   1.0881

FINAL SINGLE POINT ENERGY      -269.652543187724

DIPOLE MOMENT
-------------
                                X             Y             Z
Electronic contribution:      5.23944       0.46467       0.34009
Nuclear contribution   :     -5.79924      -0.51548      -0.37946
                        -----------------------------------------
Total Dipole Moment    :     -0.55980      -0.05081      -0.03937
                        -----------------------------------------
Magnitude (a.u.)       :      0.56348
Magnitude (Debye)      :      1.43225

                             ****ORCA TERMINATED NORMALLY****
TOTAL RUN TIME: 0 days 0 hours 0 minutes 5 seconds 793 msec
