                         Program Version 3.0.3 - RELEASE   -
|  1> ! RI PBE def2-SVP def2-SVP/J NBO PAL2
|  2> % maxcore 2000
|  3> % output
|  4>     # printlevel mini
|  5>     print[ P_Basis ] 0
|  6>     print[ P_SCFInfo ] 1
|  7>     print[ P_SCFIterInfo ] 1
|  8>     print[ P_OrbEn ] 0
|  9>     print[ P_Cartesian ] 0
| 10> end
| 11> *xyz 0 1
| 12>  C        0.9816790000     0.1077870000     0.0809200000
| 13>  C        2.4306030000     0.0789350000     0.0818440000
| 14>  C        3.6345430000     0.0390620000     0.0840000000
| 15>  C        5.0615280000     0.0170690000     0.0851570000
| 16>  C        5.7333220000    -1.1434580000     0.1431320000
| 17>  C        5.7794220000     1.2920270000     0.0214710000
| 18>  C        5.2080950000     2.4910510000    -0.0377350000
| 19>  H        0.5843620000    -0.2015370000     1.0513130000
| 20>  H        0.5778480000    -0.5684970000    -0.6769750000
| 21>  H        0.6078920000     1.1125490000    -0.1306560000
| 22>  H        5.2180880000    -2.0936720000     0.1907290000
| 23>  H        6.8171420000    -1.1520530000     0.1434500000
| 24>  H        6.8630310000     1.2081620000     0.0251380000
| 25>  H        4.1289450000     2.5980410000    -0.0423560000
| 26>  H        5.8043890000     3.3940150000    -0.0828240000
| 27> *
| 28>
| 29>                          ****END OF INPUT****
 Total Charge           Charge          ....    0
 Multiplicity           Mult            ....    1
 Number of Electrons    NEL             ....   50
 Basis Dimension        Dim             ....  138

MULLIKEN ATOMIC CHARGES
-----------------------
   0 C :    0.058051
   1 C :   -0.216230
   2 C :   -0.001611
   3 C :   -0.037853
   4 C :   -0.023292
   5 C :   -0.005874
   6 C :   -0.008405
   7 H :    0.050770
   8 H :    0.052262
   9 H :    0.047396
  10 H :    0.024128
  11 H :    0.020708
  12 H :   -0.012749
  13 H :    0.029445
  14 H :    0.023253
Sum of atomic charges:    0.0000000

LOEWDIN ATOMIC CHARGES
----------------------
   0 C :   -0.066441
   1 C :   -0.045736
   2 C :   -0.046622
   3 C :   -0.046473
   4 C :   -0.026709
   5 C :   -0.022838
   6 C :   -0.040753
   7 H :    0.053149
   8 H :    0.053234
   9 H :    0.051341
  10 H :    0.028469
  11 H :    0.024268
  12 H :    0.030052
  13 H :    0.028178
  14 H :    0.026882

  Mayer bond orders larger than 0.1
B(  0-C ,  1-C ) :   1.1361 B(  0-C ,  7-H ) :   0.9297 B(  0-C ,  8-H ) :   0.9306
B(  0-C ,  9-H ) :   0.9319 B(  1-C ,  2-C ) :   2.5109 B(  1-C ,  4-C ) :   0.1045
B(  2-C ,  3-C ) :   0.9479 B(  3-C ,  4-C ) :   1.8288 B(  3-C ,  5-C ) :   1.1066
B(  4-C ,  6-C ) :   0.1345 B(  4-C , 10-H ) :   0.9415 B(  4-C , 11-H ) :   0.9362
B(  5-C ,  6-C ) :   1.9051 B(  5-C , 12-H ) :   0.9576 B(  6-C , 13-H ) :   0.9296
B(  6-C , 14-H ) :   0.9404

FINAL SINGLE POINT ENERGY      -270.893245045117

DIPOLE MOMENT
-------------
                                X             Y             Z
Electronic contribution:      1.66227      -0.84941       0.04065
Nuclear contribution   :     -2.00830       0.85843      -0.03982
                        -----------------------------------------
Total Dipole Moment    :     -0.34603       0.00901       0.00083
                        -----------------------------------------
Magnitude (a.u.)       :      0.34615
Magnitude (Debye)      :      0.87984

                             ****ORCA TERMINATED NORMALLY****
TOTAL RUN TIME: 0 days 0 hours 0 minutes 6 seconds 453 msec
