                         Program Version 3.0.3 - RELEASE   -
|  1> ! RI PBE def2-SVP def2-SVP/J NBO PAL2
|  2> % maxcore 2000
|  3> % output
|  4>     # printlevel mini
|  5>     print[ P_Basis ] 0
|  6>     print[ P_SCFInfo ] 1
|  7>     print[ P_SCFIterInfo ] 1
|  8>     print[ P_OrbEn ] 0
|  9>     print[ P_Cartesian ] 0
| 10> end
| 11> *xyz 0 1
| 12>  C        0.9813800000    -0.0117570000    -0.1332080000
| 13>  C        2.4287390000     0.0145380000    -0.0918250000
| 14>  C        3.6319140000     0.0383720000    -0.0548460000
| 15>  C        5.0588860000     0.0469050000    -0.0335500000
| 16>  C        5.7583210000     0.7977420000     0.8312210000
| 17>  C        5.7182890000    -0.7906280000    -0.9864590000
| 18>  C        6.2590450000    -1.4990620000    -1.7925610000
| 19>  H        0.6266300000    -0.6666100000    -0.9326610000
| 20>  H        0.5771170000     0.9882570000    -0.3103430000
| 21>  H        0.5700520000    -0.3774910000     0.8112270000
| 22>  H        5.2505460000     1.4285670000     1.5489220000
| 23>  H        6.8402470000     0.7839380000     0.8241670000
| 24>  H        6.7412240000    -2.1253710000    -2.5051840000
| 25> *
| 26>
| 27>                          ****END OF INPUT****
 Total Charge           Charge          ....    0
 Multiplicity           Mult            ....    1
 Number of Electrons    NEL             ....   48
 Basis Dimension        Dim             ....  128

MULLIKEN ATOMIC CHARGES
-----------------------
   0 C :    0.052270
   1 C :   -0.217367
   2 C :    0.062682
   3 C :   -0.142764
   4 C :    0.036149
   5 C :    0.461489
   6 C :   -0.475216
   7 H :    0.054737
   8 H :    0.051960
   9 H :    0.052600
  10 H :    0.027351
  11 H :    0.030908
  12 H :    0.005200
Sum of atomic charges:   -0.0000000

LOEWDIN ATOMIC CHARGES
----------------------
   0 C :   -0.065815
   1 C :   -0.031869
   2 C :   -0.044695
   3 C :   -0.061358
   4 C :   -0.005611
   5 C :    0.001513
   6 C :   -0.056378
   7 H :    0.054255
   8 H :    0.053996
   9 H :    0.054214
  10 H :    0.031814
  11 H :    0.032716
  12 H :    0.037218

  Mayer bond orders larger than 0.1
B(  0-C ,  1-C ) :   1.1404 B(  0-C ,  7-H ) :   0.9312 B(  0-C ,  8-H ) :   0.9297
B(  0-C ,  9-H ) :   0.9294 B(  1-C ,  2-C ) :   2.4900 B(  1-C ,  4-C ) :   0.1110
B(  2-C ,  3-C ) :   0.9884 B(  3-C ,  4-C ) :   1.8565 B(  3-C ,  5-C ) :   0.9929
B(  4-C ,  6-C ) :   0.1164 B(  4-C , 10-H ) :   0.9350 B(  4-C , 11-H ) :   0.9331
B(  5-C ,  6-C ) :   2.2465 B(  5-C , 12-H ) :  -0.1108 B(  6-C , 12-H ) :   1.1008

FINAL SINGLE POINT ENERGY      -269.643633747409

DIPOLE MOMENT
-------------
                                X             Y             Z
Electronic contribution:      3.92202      -1.02926      -1.14809
Nuclear contribution   :     -4.34843       1.08057       1.20283
                        -----------------------------------------
Total Dipole Moment    :     -0.42640       0.05131       0.05474
                        -----------------------------------------
Magnitude (a.u.)       :      0.43295
Magnitude (Debye)      :      1.10048

                             ****ORCA TERMINATED NORMALLY****
TOTAL RUN TIME: 0 days 0 hours 0 minutes 5 seconds 891 msec
