                         Program Version 3.0.3 - RELEASE   -
|  1> ! RI PBE def2-SVP def2-SVP/J NBO PAL2
|  2> % maxcore 2000
|  3> % output
|  4>     # printlevel mini
|  5>     print[ P_Basis ] 0
|  6>     print[ P_SCFInfo ] 1
|  7>     print[ P_SCFIterInfo ] 1
|  8>     print[ P_OrbEn ] 0
|  9>     print[ P_Cartesian ] 0
| 10> end
| 11> *xyz 0 1
| 12>  C        0.9655660000     0.0979730000     0.0143000000
| 13>  C        2.4172220000     0.0992150000     0.0138220000
| 14>  C        3.6206150000     0.0997980000     0.0137640000
| 15>  C        5.0863140000     0.0989940000     0.0141670000
| 16>  C        5.5935690000    -1.1769430000     0.6956640000
| 17>  C        5.5954910000     0.1464810000    -1.4306710000
| 18>  C        5.5954260000     1.3263330000     0.7783410000
| 19>  H        0.5712960000     0.8939230000     0.6513070000
| 20>  H        0.5729680000    -0.8522200000     0.3855510000
| 21>  H        0.5713430000     0.2509290000    -0.9936750000
| 22>  H        5.2415380000    -2.0658050000     0.1683010000
| 23>  H        5.2426930000    -1.2324540000     1.7280830000
| 24>  H        6.6871220000    -1.1890260000     0.7012020000
| 25>  H        5.2447200000    -0.7195550000    -1.9954160000
| 26>  H        6.6890420000     0.1468690000    -1.4420280000
| 27>  H        5.2448030000     1.0479850000    -1.9369000000
| 28>  H        5.2440540000     1.3142710000     1.8119920000
| 29>  H        5.2453190000     2.2486870000     0.3106210000
| 30>  H        6.6890790000     1.3355540000     0.7851650000
| 31> *
| 32>
| 33>                          ****END OF INPUT****
 Total Charge           Charge          ....    0
 Multiplicity           Mult            ....    1
 Number of Electrons    NEL             ....   54
 Basis Dimension        Dim             ....  158

MULLIKEN ATOMIC CHARGES
-----------------------
   0 C :    0.059071
   1 C :   -0.260040
   2 C :    0.060048
   3 C :   -0.357837
   4 C :    0.071191
   5 C :    0.064315
   6 C :    0.070957
   7 H :    0.044258
   8 H :    0.042349
   9 H :    0.041943
  10 H :    0.018575
  11 H :    0.019333
  12 H :    0.014703
  13 H :    0.021702
  14 H :    0.015584
  15 H :    0.021201
  16 H :    0.019427
  17 H :    0.018320
  18 H :    0.014900
Sum of atomic charges:   -0.0000000

LOEWDIN ATOMIC CHARGES
----------------------
   0 C :   -0.068365
   1 C :   -0.078223
   2 C :   -0.048451
   3 C :   -0.071807
   4 C :   -0.038248
   5 C :   -0.039230
   6 C :   -0.038109
   7 H :    0.048994
   8 H :    0.048672
   9 H :    0.048558
  10 H :    0.027137
  11 H :    0.027321
  12 H :    0.024015
  13 H :    0.027575
  14 H :    0.024258
  15 H :    0.027522
  16 H :    0.027300
  17 H :    0.027061
  18 H :    0.024021

  Mayer bond orders larger than 0.1
B(  0-C ,  1-C ) :   1.1459 B(  0-C ,  7-H ) :   0.9319 B(  0-C ,  8-H ) :   0.9315
B(  0-C ,  9-H ) :   0.9317 B(  1-C ,  2-C ) :   2.5708 B(  2-C ,  3-C ) :   0.9396
B(  3-C ,  4-C ) :   1.0504 B(  3-C ,  5-C ) :   1.0466 B(  3-C ,  6-C ) :   1.0487
B(  4-C , 10-H ) :   0.9567 B(  4-C , 11-H ) :   0.9566 B(  4-C , 12-H ) :   0.9572
B(  5-C , 13-H ) :   0.9584 B(  5-C , 14-H ) :   0.9566 B(  5-C , 15-H ) :   0.9584
B(  6-C , 16-H ) :   0.9573 B(  6-C , 17-H ) :   0.9573 B(  6-C , 18-H ) :   0.9573

FINAL SINGLE POINT ENERGY      -273.326487397113

DIPOLE MOMENT
-------------
                                X             Y             Z
Electronic contribution:     -3.15896       0.00558      -0.00088
Nuclear contribution   :      3.07185      -0.00564       0.00314
                        -----------------------------------------
Total Dipole Moment    :     -0.08710      -0.00006       0.00226
                        -----------------------------------------
Magnitude (a.u.)       :      0.08713
Magnitude (Debye)      :      0.22148

                             ****ORCA TERMINATED NORMALLY****
TOTAL RUN TIME: 0 days 0 hours 0 minutes 7 seconds 277 msec
