                         Program Version 3.0.3 - RELEASE   -
|  1> ! RI PBE def2-SVP def2-SVP/J NBO PAL2
|  2> % maxcore 2000
|  3> % output
|  4>     # printlevel mini
|  5>     print[ P_Basis ] 0
|  6>     print[ P_SCFInfo ] 1
|  7>     print[ P_SCFIterInfo ] 1
|  8>     print[ P_OrbEn ] 0
|  9>     print[ P_Cartesian ] 0
| 10> end
| 11> *xyz 0 1
| 12>  C        0.9020160000    -0.0578880000    -0.0322660000
| 13>  C        2.3530900000    -0.0608850000    -0.0449450000
| 14>  C        3.5558360000    -0.0575920000    -0.0618960000
| 15>  C        5.0172680000    -0.0750370000    -0.0751450000
| 16>  C        5.5758810000    -0.2919220000     1.3367290000
| 17>  C        5.5236970000    -1.1310600000    -1.0199500000
| 18>  C        6.3217440000    -0.8974530000    -2.0502140000
| 19>  H        0.5151470000    -0.3759280000     0.9392010000
| 20>  H        0.5021310000    -0.7357420000    -0.7907230000
| 21>  H        0.5103720000     0.9416330000    -0.2377990000
| 22>  H        5.3677920000     0.8983270000    -0.4392020000
| 23>  H        5.2668420000    -1.2646920000     1.7251940000
| 24>  H        5.2070260000     0.4772070000     2.0174740000
| 25>  H        6.6668880000    -0.2566660000     1.3187680000
| 26>  H        5.1979320000    -2.1459780000    -0.8015730000
| 27>  H        6.6532750000     0.1072950000    -2.2943300000
| 28>  H        6.6703620000    -1.6996200000    -2.6901440000
| 29> *
| 30>
| 31>                          ****END OF INPUT****
 Total Charge           Charge          ....    0
 Multiplicity           Mult            ....    1
 Number of Electrons    NEL             ....   52
 Basis Dimension        Dim             ....  148

MULLIKEN ATOMIC CHARGES
-----------------------
   0 C :    0.056463
   1 C :   -0.238184
   2 C :   -0.028766
   3 C :   -0.033537
   4 C :    0.021627
   5 C :   -0.030711
   6 C :   -0.031712
   7 H :    0.043426
   8 H :    0.047104
   9 H :    0.044393
  10 H :    0.014948
  11 H :    0.024401
  12 H :    0.032433
  13 H :    0.028321
  14 H :    0.005867
  15 H :    0.016789
  16 H :    0.027137
Sum of atomic charges:   -0.0000000

LOEWDIN ATOMIC CHARGES
----------------------
   0 C :   -0.067905
   1 C :   -0.069077
   2 C :   -0.056674
   3 C :   -0.047944
   4 C :   -0.044012
   5 C :   -0.009608
   6 C :   -0.063266
   7 H :    0.048867
   8 H :    0.050257
   9 H :    0.049636
  10 H :    0.044977
  11 H :    0.028634
  12 H :    0.031342
  13 H :    0.028766
  14 H :    0.027814
  15 H :    0.021991
  16 H :    0.026203

  Mayer bond orders larger than 0.1
B(  0-C ,  1-C ) :   1.1405 B(  0-C ,  7-H ) :   0.9317 B(  0-C ,  8-H ) :   0.9316
B(  0-C ,  9-H ) :   0.9334 B(  1-C ,  2-C ) :   2.6068 B(  2-C ,  3-C ) :   0.9836
B(  3-C ,  4-C ) :   1.0660 B(  3-C ,  5-C ) :   1.0120 B(  3-C , 10-H ) :   0.8794
B(  4-C , 11-H ) :   0.9609 B(  4-C , 12-H ) :   0.9583 B(  4-C , 13-H ) :   0.9593
B(  5-C ,  6-C ) :   2.0148 B(  5-C , 14-H ) :   0.9530 B(  6-C , 15-H ) :   0.9461
B(  6-C , 16-H ) :   0.9424

FINAL SINGLE POINT ENERGY      -272.100558213306

DIPOLE MOMENT
-------------
                                X             Y             Z
Electronic contribution:     -0.80884       0.33511      -1.18699
Nuclear contribution   :      0.64734      -0.31843       1.28114
                        -----------------------------------------
Total Dipole Moment    :     -0.16150       0.01667       0.09415
                        -----------------------------------------
Magnitude (a.u.)       :      0.18768
Magnitude (Debye)      :      0.47705

                             ****ORCA TERMINATED NORMALLY****
TOTAL RUN TIME: 0 days 0 hours 0 minutes 7 seconds 425 msec
