                         Program Version 3.0.3 - RELEASE   -
|  1> ! RI PBE def2-SVP def2-SVP/J NBO PAL2
|  2> % maxcore 2000
|  3> % output
|  4>     # printlevel mini
|  5>     print[ P_Basis ] 0
|  6>     print[ P_SCFInfo ] 1
|  7>     print[ P_SCFIterInfo ] 1
|  8>     print[ P_OrbEn ] 0
|  9>     print[ P_Cartesian ] 0
| 10> end
| 11> *xyz 0 1
| 12>  C        0.9759800000    -0.0530110000    -0.0525300000
| 13>  C        2.4263390000    -0.0782520000    -0.0451180000
| 14>  C        3.6273210000    -0.1098460000    -0.0402500000
| 15>  C        5.0904370000    -0.1218070000    -0.0233650000
| 16>  C        5.6505560000     0.8387050000     1.0364770000
| 17>  C        5.6116010000    -1.4760160000     0.1662530000
| 18>  C        6.0641800000    -2.5743750000     0.3329890000
| 19>  H        0.5687150000    -0.9934300000     0.3268670000
| 20>  H        0.5911680000     0.0960360000    -1.0644280000
| 21>  H        0.5941190000     0.7560040000     0.5750340000
| 22>  H        5.4377650000     0.2226700000    -1.0066750000
| 23>  H        5.3304830000     0.5294110000     2.0316950000
| 24>  H        5.2858420000     1.8495660000     0.8496750000
| 25>  H        6.7409430000     0.8389860000     1.0031330000
| 26>  H        6.4573510000    -3.5525620000     0.4781520000
| 27> *
| 28>
| 29>                          ****END OF INPUT****
 Total Charge           Charge          ....    0
 Multiplicity           Mult            ....    1
 Number of Electrons    NEL             ....   50
 Basis Dimension        Dim             ....  138

MULLIKEN ATOMIC CHARGES
-----------------------
   0 C :    0.055341
   1 C :   -0.232047
   2 C :   -0.034758
   3 C :    0.004955
   4 C :    0.018717
   5 C :    0.397344
   6 C :   -0.503893
   7 H :    0.049308
   8 H :    0.045882
   9 H :    0.047373
  10 H :    0.046229
  11 H :    0.039416
  12 H :    0.031917
  13 H :    0.037099
  14 H :   -0.002884
Sum of atomic charges:   -0.0000000

LOEWDIN ATOMIC CHARGES
----------------------
   0 C :   -0.067009
   1 C :   -0.056885
   2 C :   -0.054850
   3 C :   -0.051146
   4 C :   -0.034772
   5 C :   -0.005445
   6 C :   -0.081660
   7 H :    0.052095
   8 H :    0.050371
   9 H :    0.050680
  10 H :    0.064668
  11 H :    0.034408
  12 H :    0.031944
  13 H :    0.032599
  14 H :    0.035002

  Mayer bond orders larger than 0.1
B(  0-C ,  1-C ) :   1.1401 B(  0-C ,  7-H ) :   0.9305 B(  0-C ,  8-H ) :   0.9330
B(  0-C ,  9-H ) :   0.9320 B(  1-C ,  2-C ) :   2.6375 B(  2-C ,  3-C ) :   0.9814
B(  3-C ,  4-C ) :   1.0729 B(  3-C ,  5-C ) :   0.9823 B(  3-C , 10-H ) :   0.8545
B(  4-C , 11-H ) :   0.9608 B(  4-C , 12-H ) :   0.9592 B(  4-C , 13-H ) :   0.9600
B(  5-C ,  6-C ) :   2.3488 B(  5-C , 14-H ) :  -0.1171 B(  6-C , 14-H ) :   1.1073

FINAL SINGLE POINT ENERGY      -270.853729855542

DIPOLE MOMENT
-------------
                                X             Y             Z
Electronic contribution:      2.03049      -3.03750      -1.39043
Nuclear contribution   :     -2.26572       3.28041       1.38910
                        -----------------------------------------
Total Dipole Moment    :     -0.23523       0.24291      -0.00133
                        -----------------------------------------
Magnitude (a.u.)       :      0.33814
Magnitude (Debye)      :      0.85948

                             ****ORCA TERMINATED NORMALLY****
TOTAL RUN TIME: 0 days 0 hours 0 minutes 6 seconds 625 msec
