                         Program Version 3.0.3 - RELEASE   -
|  1> ! RI PBE def2-SVP def2-SVP/J NBO PAL2
|  2> % maxcore 2000
|  3> % output
|  4>     # printlevel mini
|  5>     print[ P_Basis ] 0
|  6>     print[ P_SCFInfo ] 1
|  7>     print[ P_SCFIterInfo ] 1
|  8>     print[ P_OrbEn ] 0
|  9>     print[ P_Cartesian ] 0
| 10> end
| 11> *xyz 0 1
| 12>  C        0.9228910000    -0.0710640000     0.0455990000
| 13>  C        2.3679740000    -0.0618000000     0.0652500000
| 14>  C        3.5770770000    -0.0544100000     0.0821440000
| 15>  C        4.9364000000    -0.0468460000     0.0998180000
| 16>  C        6.1488440000    -0.0365300000     0.1241230000
| 17>  C        7.5600010000    -0.0434020000     0.1095450000
| 18>  C        8.3291160000     0.3938000000     1.1089990000
| 19>  H        0.5179360000     0.7093890000     0.6954660000
| 20>  H        0.5343630000    -1.0329160000     0.3915020000
| 21>  H        0.5446040000     0.1010320000    -0.9657140000
| 22>  H        8.0255140000    -0.4378880000    -0.7911740000
| 23>  H        7.9000000000     0.7928080000     2.0201530000
| 24>  H        9.4086010000     0.3593070000     1.0311900000
| 25> *
| 26>
| 27>                          ****END OF INPUT****
 Total Charge           Charge          ....    0
 Multiplicity           Mult            ....    1
 Number of Electrons    NEL             ....   48
 Basis Dimension        Dim             ....  128

MULLIKEN ATOMIC CHARGES
-----------------------
   0 C :    0.057406
   1 C :   -0.170258
   2 C :   -0.024381
   3 C :   -0.003129
   4 C :   -0.027081
   5 C :   -0.102306
   6 C :   -0.007520
   7 H :    0.057372
   8 H :    0.055631
   9 H :    0.054945
  10 H :    0.035830
  11 H :    0.035360
  12 H :    0.038131
Sum of atomic charges:   -0.0000000

LOEWDIN ATOMIC CHARGES
----------------------
   0 C :   -0.064551
   1 C :   -0.010498
   2 C :   -0.070780
   3 C :   -0.047716
   4 C :   -0.014506
   5 C :   -0.048262
   6 C :   -0.020422
   7 H :    0.056474
   8 H :    0.056669
   9 H :    0.056105
  10 H :    0.046489
  11 H :    0.031276
  12 H :    0.029722

  Mayer bond orders larger than 0.1
B(  0-C ,  1-C ) :   1.1513 B(  0-C ,  7-H ) :   0.9273 B(  0-C ,  8-H ) :   0.9257
B(  0-C ,  9-H ) :   0.9264 B(  1-C ,  2-C ) :   2.3186 B(  1-C ,  4-C ) :   0.2178
B(  2-C ,  3-C ) :   0.9844 B(  3-C ,  4-C ) :   2.2141 B(  3-C ,  6-C ) :   0.1128
B(  4-C ,  5-C ) :   1.0837 B(  5-C ,  6-C ) :   1.8945 B(  5-C , 10-H ) :   0.9416
B(  6-C , 11-H ) :   0.9518 B(  6-C , 12-H ) :   0.9433

FINAL SINGLE POINT ENERGY      -269.664402238204

DIPOLE MOMENT
-------------
                                X             Y             Z
Electronic contribution:      1.44251      -0.36838      -0.84922
Nuclear contribution   :     -1.81754       0.37055       0.85735
                        -----------------------------------------
Total Dipole Moment    :     -0.37503       0.00217       0.00813
                        -----------------------------------------
Magnitude (a.u.)       :      0.37512
Magnitude (Debye)      :      0.95348

                             ****ORCA TERMINATED NORMALLY****
TOTAL RUN TIME: 0 days 0 hours 0 minutes 5 seconds 552 msec
