                         Program Version 3.0.3 - RELEASE   -
|  1> ! RI PBE def2-SVP def2-SVP/J NBO PAL2
|  2> % maxcore 2000
|  3> % output
|  4>     # printlevel mini
|  5>     print[ P_Basis ] 0
|  6>     print[ P_SCFInfo ] 1
|  7>     print[ P_SCFIterInfo ] 1
|  8>     print[ P_OrbEn ] 0
|  9>     print[ P_Cartesian ] 0
| 10> end
| 11> *xyz 0 1
| 12>  C        1.1675200000     0.0788940000     0.0194910000
| 13>  C        2.6113360000     0.0786250000     0.0195290000
| 14>  C        3.8214920000     0.0785600000     0.0195210000
| 15>  C        5.1754530000     0.0785770000     0.0195160000
| 16>  C        6.3911740000     0.0786690000     0.0195040000
| 17>  C        7.7464110000     0.0787830000     0.0195010000
| 18>  C        8.9540370000     0.0789210000     0.0194900000
| 19>  H        0.7782760000    -0.7131010000    -0.6259000000
| 20>  H        0.7786610000     1.0339410000    -0.3437780000
| 21>  H        0.7783860000    -0.0839100000     1.0281410000
| 22>  H       10.0182540000     0.0790410000     0.0194840000
| 23> *
| 24>
| 25>                          ****END OF INPUT****
 Total Charge           Charge          ....    0
 Multiplicity           Mult            ....    1
 Number of Electrons    NEL             ....   46
 Basis Dimension        Dim             ....  118

MULLIKEN ATOMIC CHARGES
-----------------------
   0 C :    0.056055
   1 C :   -0.170667
   2 C :   -0.010394
   3 C :   -0.036078
   4 C :    0.030744
   5 C :    0.376970
   6 C :   -0.441810
   7 H :    0.061622
   8 H :    0.059812
   9 H :    0.059491
  10 H :    0.014256
Sum of atomic charges:   -0.0000000

LOEWDIN ATOMIC CHARGES
----------------------
   0 C :   -0.063081
   1 C :    0.006255
   2 C :   -0.069248
   3 C :   -0.013803
   4 C :   -0.029587
   5 C :   -0.029304
   6 C :   -0.019662
   7 H :    0.059436
   8 H :    0.059147
   9 H :    0.059036
  10 H :    0.040811

  Mayer bond orders larger than 0.1
B(  0-C ,  1-C ) :   1.1594 B(  0-C ,  7-H ) :   0.9244 B(  0-C ,  8-H ) :   0.9239
B(  0-C ,  9-H ) :   0.9243 B(  1-C ,  2-C ) :   2.2813 B(  1-C ,  4-C ) :   0.1994
B(  2-C ,  3-C ) :   1.0054 B(  3-C ,  4-C ) :   2.1274 B(  3-C ,  6-C ) :   0.2344
B(  4-C ,  5-C ) :   0.9546 B(  4-C ,  6-C ) :  -0.1053 B(  5-C ,  6-C ) :   2.0710
B(  5-C , 10-H ) :  -0.1139 B(  6-C , 10-H ) :   1.1029

FINAL SINGLE POINT ENERGY      -268.427169869990

DIPOLE MOMENT
-------------
                                X             Y             Z
Electronic contribution:      6.57935      -0.00139       0.00046
Nuclear contribution   :     -7.28916       0.00098      -0.00007
                        -----------------------------------------
Total Dipole Moment    :     -0.70981      -0.00041       0.00039
                        -----------------------------------------
Magnitude (a.u.)       :      0.70982
Magnitude (Debye)      :      1.80421

                             ****ORCA TERMINATED NORMALLY****
TOTAL RUN TIME: 0 days 0 hours 0 minutes 5 seconds 330 msec
