                         Program Version 3.0.3 - RELEASE   -
|  1> ! RI PBE def2-SVP def2-SVP/J NBO PAL2
|  2> % maxcore 2000
|  3> % output
|  4>     # printlevel mini
|  5>     print[ P_Basis ] 0
|  6>     print[ P_SCFInfo ] 1
|  7>     print[ P_SCFIterInfo ] 1
|  8>     print[ P_OrbEn ] 0
|  9>     print[ P_Cartesian ] 0
| 10> end
| 11> *xyz 0 1
| 12>  C        6.1637510000     0.9625740000     3.8275650000
| 13>  C        5.7829210000     0.6038550000     2.4735300000
| 14>  C        5.4646910000     0.3123210000     1.3506200000
| 15>  C        5.0803760000    -0.0579740000    -0.0027650000
| 16>  C        5.6265500000    -1.4177970000    -0.4613500000
| 17>  C        5.0574030000    -1.7718780000    -1.8268030000
| 18>  C        7.1466760000    -1.4296150000    -0.4770340000
| 19>  H        5.4151180000     0.6274040000     4.5500620000
| 20>  H        6.2679460000     2.0456550000     3.9322440000
| 21>  H        7.1193100000     0.5079490000     4.1017030000
| 22>  H        5.4229320000     0.7155890000    -0.7022410000
| 23>  H        3.9866530000    -0.0687050000    -0.0730420000
| 24>  H        5.2839930000    -2.1657750000     0.2634690000
| 25>  H        5.3652570000    -1.0375760000    -2.5784160000
| 26>  H        3.9644330000    -1.7974090000    -1.8131370000
| 27>  H        5.4115970000    -2.7510180000    -2.1580560000
| 28>  H        7.5311260000    -0.7045950000    -1.2022410000
| 29>  H        7.5276870000    -2.4145040000    -0.7582630000
| 30>  H        7.5539700000    -1.1721110000     0.5027570000
| 31> *
| 32>
| 33>                          ****END OF INPUT****
 Total Charge           Charge          ....    0
 Multiplicity           Mult            ....    1
 Number of Electrons    NEL             ....   54
 Basis Dimension        Dim             ....  158

MULLIKEN ATOMIC CHARGES
-----------------------
   0 C :    0.055733
   1 C :   -0.254550
   2 C :   -0.063018
   3 C :    0.086366
   4 C :   -0.183280
   5 C :    0.034665
   6 C :    0.038836
   7 H :    0.045302
   8 H :    0.045592
   9 H :    0.040957
  10 H :    0.019700
  11 H :    0.026854
  12 H :    0.016891
  13 H :    0.011912
  14 H :    0.018326
  15 H :    0.014845
  16 H :    0.005962
  17 H :    0.012967
  18 H :    0.025941
Sum of atomic charges:   -0.0000000

LOEWDIN ATOMIC CHARGES
----------------------
   0 C :   -0.070036
   1 C :   -0.075947
   2 C :   -0.065046
   3 C :   -0.044516
   4 C :   -0.039854
   5 C :   -0.061043
   6 C :   -0.056149
   7 H :    0.048840
   8 H :    0.049323
   9 H :    0.048717
  10 H :    0.042104
  11 H :    0.044204
  12 H :    0.027626
  13 H :    0.024265
  14 H :    0.025173
  15 H :    0.026664
  16 H :    0.022648
  17 H :    0.024313
  18 H :    0.028716

  Mayer bond orders larger than 0.1
B(  0-C ,  1-C ) :   1.1484 B(  0-C ,  7-H ) :   0.9312 B(  0-C ,  8-H ) :   0.9323
B(  0-C ,  9-H ) :   0.9280 B(  1-C ,  2-C ) :   2.5532 B(  2-C ,  3-C ) :   1.0663
B(  3-C ,  4-C ) :   1.0474 B(  3-C , 10-H ) :   0.8854 B(  3-C , 11-H ) :   0.8954
B(  4-C ,  5-C ) :   1.0891 B(  4-C ,  6-C ) :   1.0764 B(  4-C , 12-H ) :   0.9157
B(  5-C , 13-H ) :   0.9547 B(  5-C , 14-H ) :   0.9569 B(  5-C , 15-H ) :   0.9579
B(  6-C , 16-H ) :   0.9595 B(  6-C , 17-H ) :   0.9616 B(  6-C , 18-H ) :   0.9582

FINAL SINGLE POINT ENERGY      -273.328174883840

DIPOLE MOMENT
-------------
                                X             Y             Z
Electronic contribution:     -1.39289       2.76506       3.60377
Nuclear contribution   :      1.41560      -2.80308      -3.53278
                        -----------------------------------------
Total Dipole Moment    :      0.02271      -0.03802       0.07100
                        -----------------------------------------
Magnitude (a.u.)       :      0.08368
Magnitude (Debye)      :      0.21269

                             ****ORCA TERMINATED NORMALLY****
TOTAL RUN TIME: 0 days 0 hours 0 minutes 7 seconds 727 msec
