                         Program Version 3.0.3 - RELEASE   -
|  1> ! RI PBE def2-SVP def2-SVP/J NBO PAL2
|  2> % maxcore 2000
|  3> % output
|  4>     # printlevel mini
|  5>     print[ P_Basis ] 0
|  6>     print[ P_SCFInfo ] 1
|  7>     print[ P_SCFIterInfo ] 1
|  8>     print[ P_OrbEn ] 0
|  9>     print[ P_Cartesian ] 0
| 10> end
| 11> *xyz 0 1
| 12>  C        1.0236390000     0.0527370000    -0.0299300000
| 13>  C        2.4737440000    -0.0013930000    -0.0538560000
| 14>  C        3.6750900000    -0.0506690000    -0.0702820000
| 15>  C        5.1313000000    -0.1145270000    -0.0997020000
| 16>  C        5.7166400000     0.0506750000    -1.4830980000
| 17>  C        5.3878750000     1.3245170000    -2.1901190000
| 18>  C        6.4918750000    -0.8890440000    -2.0112790000
| 19>  H        0.6704180000     1.0114300000     0.3583630000
| 20>  H        0.6127150000    -0.7371110000     0.6040480000
| 21>  H        0.6094600000    -0.0759440000    -1.0331850000
| 22>  H        5.4651480000    -1.0646780000     0.3271020000
| 23>  H        5.5291040000     0.6768860000     0.5500490000
| 24>  H        5.7300010000     2.1895630000    -1.6115140000
| 25>  H        4.3054140000     1.4327180000    -2.3040980000
| 26>  H        5.8505930000     1.3643640000    -3.1766650000
| 27>  H        6.7127640000    -1.8084360000    -1.4799980000
| 28>  H        6.9305190000    -0.7699000000    -2.9959470000
| 29> *
| 30>
| 31>                          ****END OF INPUT****
 Total Charge           Charge          ....    0
 Multiplicity           Mult            ....    1
 Number of Electrons    NEL             ....   52
 Basis Dimension        Dim             ....  148

MULLIKEN ATOMIC CHARGES
-----------------------
   0 C :    0.055075
   1 C :   -0.222669
   2 C :   -0.123936
   3 C :    0.168662
   4 C :   -0.210726
   5 C :    0.086240
   6 C :   -0.028329
   7 H :    0.043469
   8 H :    0.047092
   9 H :    0.044627
  10 H :    0.017097
  11 H :    0.037213
  12 H :    0.020568
  13 H :    0.040200
  14 H :    0.009820
  15 H :    0.007623
  16 H :    0.007973
Sum of atomic charges:   -0.0000000

LOEWDIN ATOMIC CHARGES
----------------------
   0 C :   -0.068093
   1 C :   -0.071757
   2 C :   -0.065686
   3 C :   -0.036074
   4 C :   -0.022588
   5 C :   -0.055085
   6 C :   -0.075171
   7 H :    0.048462
   8 H :    0.050149
   9 H :    0.049534
  10 H :    0.047412
  11 H :    0.052117
  12 H :    0.035751
  13 H :    0.040445
  14 H :    0.030319
  15 H :    0.019712
  16 H :    0.020553

  Mayer bond orders larger than 0.1
B(  0-C ,  1-C ) :   1.1366 B(  0-C ,  7-H ) :   0.9330 B(  0-C ,  8-H ) :   0.9338
B(  0-C ,  9-H ) :   0.9318 B(  1-C ,  2-C ) :   2.6155 B(  2-C ,  3-C ) :   1.0509
B(  3-C ,  4-C ) :   1.0346 B(  3-C , 10-H ) :   0.8846 B(  3-C , 11-H ) :   0.8873
B(  4-C ,  5-C ) :   1.0865 B(  4-C ,  6-C ) :   2.0014 B(  5-C , 12-H ) :   0.9384
B(  5-C , 13-H ) :   0.9381 B(  5-C , 14-H ) :   0.9479 B(  6-C , 15-H ) :   0.9326
B(  6-C , 16-H ) :   0.9324

FINAL SINGLE POINT ENERGY      -272.106516545196

DIPOLE MOMENT
-------------
                                X             Y             Z
Electronic contribution:      0.04243      -1.25982       1.95163
Nuclear contribution   :     -0.24997       1.41330      -1.90888
                        -----------------------------------------
Total Dipole Moment    :     -0.20754       0.15348       0.04275
                        -----------------------------------------
Magnitude (a.u.)       :      0.26164
Magnitude (Debye)      :      0.66504

                             ****ORCA TERMINATED NORMALLY****
TOTAL RUN TIME: 0 days 0 hours 0 minutes 7 seconds 373 msec
