                         Program Version 3.0.3 - RELEASE   -
|  1> ! RI PBE def2-SVP def2-SVP/J NBO PAL2
|  2> % maxcore 2000
|  3> % output
|  4>     # printlevel mini
|  5>     print[ P_Basis ] 0
|  6>     print[ P_SCFInfo ] 1
|  7>     print[ P_SCFIterInfo ] 1
|  8>     print[ P_OrbEn ] 0
|  9>     print[ P_Cartesian ] 0
| 10> end
| 11> *xyz 0 1
| 12>  C        0.8851330000     0.1709240000    -0.0569900000
| 13>  C        2.3314580000     0.0588030000    -0.0388730000
| 14>  C        3.5285080000    -0.0384330000    -0.0302690000
| 15>  C        4.9841130000    -0.1506070000    -0.0110880000
| 16>  C        5.5267530000    -0.9538760000    -1.1028890000
| 17>  C        5.9812040000    -1.6132340000    -1.9979740000
| 18>  C        6.5214160000    -2.4111880000    -3.0824870000
| 19>  H        0.4643720000    -0.3612860000    -0.9138150000
| 20>  H        0.5723980000     1.2159040000    -0.1247660000
| 21>  H        0.4463010000    -0.2531190000     0.8496460000
| 22>  H        5.3008150000    -0.5813170000     0.9464820000
| 23>  H        5.4244480000     0.8531530000    -0.0474510000
| 24>  H        7.2018430000    -1.8225880000    -3.7029290000
| 25>  H        5.7211620000    -2.7863450000    -3.7253560000
| 26>  H        7.0752850000    -3.2719830000    -2.6995510000
| 27> *
| 28>
| 29>                          ****END OF INPUT****
 Total Charge           Charge          ....    0
 Multiplicity           Mult            ....    1
 Number of Electrons    NEL             ....   50
 Basis Dimension        Dim             ....  138

MULLIKEN ATOMIC CHARGES
-----------------------
   0 C :    0.054488
   1 C :   -0.214091
   2 C :   -0.117236
   3 C :    0.184640
   4 C :   -0.117858
   5 C :   -0.216388
   6 C :    0.051451
   7 H :    0.048563
   8 H :    0.044058
   9 H :    0.045424
  10 H :    0.046567
  11 H :    0.049290
  12 H :    0.046970
  13 H :    0.047983
  14 H :    0.046139
Sum of atomic charges:   -0.0000000

LOEWDIN ATOMIC CHARGES
----------------------
   0 C :   -0.067391
   1 C :   -0.062448
   2 C :   -0.061770
   3 C :   -0.045333
   4 C :   -0.061593
   5 C :   -0.062333
   6 C :   -0.068826
   7 H :    0.051194
   8 H :    0.049118
   9 H :    0.049494
  10 H :    0.064246
  11 H :    0.064844
  12 H :    0.049694
  13 H :    0.051447
  14 H :    0.049658

  Mayer bond orders larger than 0.1
B(  0-C ,  1-C ) :   1.1347 B(  0-C ,  7-H ) :   0.9315 B(  0-C ,  8-H ) :   0.9338
B(  0-C ,  9-H ) :   0.9339 B(  1-C ,  2-C ) :   2.6578 B(  2-C ,  3-C ) :   1.0389
B(  3-C ,  4-C ) :   1.0377 B(  3-C , 10-H ) :   0.8732 B(  3-C , 11-H ) :   0.8728
B(  4-C ,  5-C ) :   2.6598 B(  5-C ,  6-C ) :   1.1408 B(  6-C , 12-H ) :   0.9336
B(  6-C , 13-H ) :   0.9283 B(  6-C , 14-H ) :   0.9332

FINAL SINGLE POINT ENERGY      -270.865911006241

DIPOLE MOMENT
-------------
                                X             Y             Z
Electronic contribution:      1.47276       1.11714       1.79563
Nuclear contribution   :     -1.54365      -1.16819      -1.87841
                        -----------------------------------------
Total Dipole Moment    :     -0.07089      -0.05105      -0.08279
                        -----------------------------------------
Magnitude (a.u.)       :      0.12035
Magnitude (Debye)      :      0.30591

                             ****ORCA TERMINATED NORMALLY****
TOTAL RUN TIME: 0 days 0 hours 0 minutes 5 seconds 964 msec
