                         Program Version 3.0.3 - RELEASE   -
|  1> ! RI PBE def2-SVP def2-SVP/J NBO PAL2
|  2> % maxcore 2000
|  3> % output
|  4>     # printlevel mini
|  5>     print[ P_Basis ] 0
|  6>     print[ P_SCFInfo ] 1
|  7>     print[ P_SCFIterInfo ] 1
|  8>     print[ P_OrbEn ] 0
|  9>     print[ P_Cartesian ] 0
| 10> end
| 11> *xyz 0 1
| 12>  C        1.0000370000     0.0499580000     0.0564540000
| 13>  C        2.4512730000     0.0693940000     0.0541170000
| 14>  C        3.6539060000     0.0819210000     0.0583230000
| 15>  C        5.1077100000     0.1105180000     0.0396400000
| 16>  C        5.6782560000     0.7537640000    -1.2325870000
| 17>  C        7.1696000000     0.7244230000    -1.2562720000
| 18>  C        7.9526110000     1.7922890000    -1.3163380000
| 19>  H        0.6204240000    -0.9642860000     0.2044960000
| 20>  H        0.6007320000     0.4210390000    -0.8909230000
| 21>  H        0.5993000000     0.6774480000     0.8566660000
| 22>  H        5.4929170000    -0.9113480000     0.1338610000
| 23>  H        5.4764730000     0.6566540000     0.9144920000
| 24>  H        5.3191140000     1.7829790000    -1.3128090000
| 25>  H        5.2828300000     0.2096170000    -2.0975530000
| 26>  H        7.6287300000    -0.2627200000    -1.2123430000
| 27>  H        7.5389920000     2.7953990000    -1.3599700000
| 28>  H        9.0329160000     1.7051610000    -1.3292460000
| 29> *
| 30>
| 31>                          ****END OF INPUT****
 Total Charge           Charge          ....    0
 Multiplicity           Mult            ....    1
 Number of Electrons    NEL             ....   52
 Basis Dimension        Dim             ....  148

MULLIKEN ATOMIC CHARGES
-----------------------
   0 C :    0.054843
   1 C :   -0.253082
   2 C :   -0.066030
   3 C :    0.051303
   4 C :    0.038589
   5 C :   -0.077878
   6 C :   -0.036354
   7 H :    0.043688
   8 H :    0.044105
   9 H :    0.046141
  10 H :    0.027099
  11 H :    0.033303
  12 H :    0.016246
  13 H :    0.030366
  14 H :    0.002649
  15 H :    0.017075
  16 H :    0.027937
Sum of atomic charges:    0.0000000

LOEWDIN ATOMIC CHARGES
----------------------
   0 C :   -0.068258
   1 C :   -0.073314
   2 C :   -0.068296
   3 C :   -0.042117
   4 C :   -0.030794
   5 C :   -0.030300
   6 C :   -0.064909
   7 H :    0.048739
   8 H :    0.049177
   9 H :    0.049220
  10 H :    0.043610
  11 H :    0.045857
  12 H :    0.031931
  13 H :    0.038057
  14 H :    0.024325
  15 H :    0.021900
  16 H :    0.025171

  Mayer bond orders larger than 0.1
B(  0-C ,  1-C ) :   1.1337 B(  0-C ,  7-H ) :   0.9341 B(  0-C ,  8-H ) :   0.9320
B(  0-C ,  9-H ) :   0.9343 B(  1-C ,  2-C ) :   2.5830 B(  2-C ,  3-C ) :   1.0631
B(  3-C ,  4-C ) :   1.0668 B(  3-C , 10-H ) :   0.8963 B(  3-C , 11-H ) :   0.9000
B(  4-C ,  5-C ) :   1.0620 B(  4-C , 12-H ) :   0.9354 B(  4-C , 13-H ) :   0.9149
B(  5-C ,  6-C ) :   2.0141 B(  5-C , 14-H ) :   0.9511 B(  6-C , 15-H ) :   0.9496
B(  6-C , 16-H ) :   0.9444

FINAL SINGLE POINT ENERGY      -272.102225688574

DIPOLE MOMENT
-------------
                                X             Y             Z
Electronic contribution:     -0.52250      -0.88542       0.78512
Nuclear contribution   :      0.36060       0.83139      -0.80024
                        -----------------------------------------
Total Dipole Moment    :     -0.16190      -0.05404      -0.01512
                        -----------------------------------------
Magnitude (a.u.)       :      0.17135
Magnitude (Debye)      :      0.43554

                             ****ORCA TERMINATED NORMALLY****
TOTAL RUN TIME: 0 days 0 hours 0 minutes 7 seconds 238 msec
