                         Program Version 3.0.3 - RELEASE   -
|  1> ! RI PBE def2-SVP def2-SVP/J NBO PAL2
|  2> % maxcore 2000
|  3> % output
|  4>     # printlevel mini
|  5>     print[ P_Basis ] 0
|  6>     print[ P_SCFInfo ] 1
|  7>     print[ P_SCFIterInfo ] 1
|  8>     print[ P_OrbEn ] 0
|  9>     print[ P_Cartesian ] 0
| 10> end
| 11> *xyz 0 1
| 12>  C        0.9975250000    -0.0990910000     0.0051750000
| 13>  C        2.4486050000    -0.1078570000     0.0061030000
| 14>  C        3.6510690000    -0.1202180000    -0.0009220000
| 15>  C        5.1045320000    -0.1195160000     0.0133570000
| 16>  C        5.6743650000     0.6888950000     1.1906590000
| 17>  C        7.1265810000     0.6911280000     1.2066940000
| 18>  C        8.3270610000     0.6786300000     1.1991140000
| 19>  H        0.6091320000     0.5664270000     0.7802070000
| 20>  H        0.5982710000    -1.0992040000     0.1917190000
| 21>  H        0.6077620000     0.2440380000    -0.9564950000
| 22>  H        5.4872590000     0.2959340000    -0.9237970000
| 23>  H        5.4781930000    -1.1463510000     0.0709700000
| 24>  H        5.2967010000     0.2739140000     2.1297750000
| 25>  H        5.3055090000     1.7172760000     1.1344570000
| 26>  H        9.3912340000     0.6720950000     1.1989830000
| 27> *
| 28>
| 29>                          ****END OF INPUT****
 Total Charge           Charge          ....    0
 Multiplicity           Mult            ....    1
 Number of Electrons    NEL             ....   50
 Basis Dimension        Dim             ....  138

MULLIKEN ATOMIC CHARGES
-----------------------
   0 C :    0.055096
   1 C :   -0.255211
   2 C :   -0.060865
   3 C :    0.052251
   4 C :    0.052614
   5 C :    0.354131
   6 C :   -0.505439
   7 H :    0.047571
   8 H :    0.046031
   9 H :    0.046335
  10 H :    0.039409
  11 H :    0.041183
  12 H :    0.043811
  13 H :    0.045844
  14 H :   -0.002759
Sum of atomic charges:   -0.0000000

LOEWDIN ATOMIC CHARGES
----------------------
   0 C :   -0.067823
   1 C :   -0.067388
   2 C :   -0.071081
   3 C :   -0.033242
   4 C :   -0.035868
   5 C :   -0.023311
   6 C :   -0.088050
   7 H :    0.050543
   8 H :    0.049882
   9 H :    0.050123
  10 H :    0.049158
  11 H :    0.049666
  12 H :    0.051610
  13 H :    0.052135
  14 H :    0.033646

  Mayer bond orders larger than 0.1
B(  0-C ,  1-C ) :   1.1327 B(  0-C ,  7-H ) :   0.9321 B(  0-C ,  8-H ) :   0.9335
B(  0-C ,  9-H ) :   0.9336 B(  1-C ,  2-C ) :   2.5885 B(  2-C ,  3-C ) :   1.0570
B(  3-C ,  4-C ) :   1.0795 B(  3-C , 10-H ) :   0.8992 B(  3-C , 11-H ) :   0.8966
B(  4-C ,  5-C ) :   1.0601 B(  4-C , 12-H ) :   0.8987 B(  4-C , 13-H ) :   0.8966
B(  5-C ,  6-C ) :   2.3272 B(  5-C , 14-H ) :  -0.1133 B(  6-C , 14-H ) :   1.1043

FINAL SINGLE POINT ENERGY      -270.859652635332

DIPOLE MOMENT
-------------
                                X             Y             Z
Electronic contribution:      4.16315       0.26275       0.42124
Nuclear contribution   :     -4.55178      -0.27234      -0.43790
                        -----------------------------------------
Total Dipole Moment    :     -0.38863      -0.00959      -0.01667
                        -----------------------------------------
Magnitude (a.u.)       :      0.38910
Magnitude (Debye)      :      0.98902

                             ****ORCA TERMINATED NORMALLY****
TOTAL RUN TIME: 0 days 0 hours 0 minutes 6 seconds 903 msec
