                         Program Version 3.0.3 - RELEASE   -
|  1> ! RI PBE def2-SVP def2-SVP/J NBO PAL2
|  2> % maxcore 2000
|  3> % output
|  4>     # printlevel mini
|  5>     print[ P_Basis ] 0
|  6>     print[ P_SCFInfo ] 1
|  7>     print[ P_SCFIterInfo ] 1
|  8>     print[ P_OrbEn ] 0
|  9>     print[ P_Cartesian ] 0
| 10> end
| 11> *xyz 0 1
| 12>  C        3.1369470000    -1.8522680000     0.6115360000
| 13>  C        4.0050380000    -0.8505730000    -0.1439560000
| 14>  C        3.9721690000     0.5096440000     0.4724660000
| 15>  C        4.9852510000     1.2370880000     0.9477200000
| 16>  C        6.4173710000     0.7967570000     0.9467190000
| 17>  C        4.7297920000     2.5993110000     1.5334680000
| 18>  C        5.3734260000     3.7418750000     0.7529510000
| 19>  H        3.1320110000    -2.8260090000     0.1156870000
| 20>  H        2.1020750000    -1.5052240000     0.6752770000
| 21>  H        3.5004030000    -1.9922800000     1.6323560000
| 22>  H        3.6403840000    -0.7785780000    -1.1765820000
| 23>  H        5.0277140000    -1.2276300000    -0.2127890000
| 24>  H        2.9758730000     0.9471920000     0.5443450000
| 25>  H        6.5404760000    -0.2471720000     0.6621010000
| 26>  H        6.8571330000     0.9303820000     1.9408710000
| 27>  H        7.0167910000     1.3999130000     0.2573900000
| 28>  H        5.1074500000     2.6207830000     2.5641970000
| 29>  H        3.6505030000     2.7648650000     1.5935310000
| 30>  H        6.4619880000     3.6547340000     0.7277940000
| 31>  H        5.1331760000     4.7056740000     1.2080110000
| 32>  H        5.0151400000     3.7575150000    -0.2794930000
| 33> *
| 34>
| 35>                          ****END OF INPUT****
 Total Charge           Charge          ....    0
 Multiplicity           Mult            ....    1
 Number of Electrons    NEL             ....   56
 Basis Dimension        Dim             ....  168

MULLIKEN ATOMIC CHARGES
-----------------------
   0 C :   -0.038306
   1 C :    0.043326
   2 C :   -0.095205
   3 C :   -0.168480
   4 C :    0.071778
   5 C :    0.025262
   6 C :   -0.031906
   7 H :    0.019452
   8 H :    0.021664
   9 H :    0.023641
  10 H :    0.017103
  11 H :    0.002872
  12 H :   -0.023573
  13 H :    0.005981
  14 H :    0.017129
  15 H :    0.028950
  16 H :    0.011993
  17 H :    0.003474
  18 H :    0.027394
  19 H :    0.017955
  20 H :    0.019495
Sum of atomic charges:    0.0000000

LOEWDIN ATOMIC CHARGES
----------------------
   0 C :   -0.063248
   1 C :   -0.048672
   2 C :   -0.057672
   3 C :   -0.043949
   4 C :   -0.058631
   5 C :   -0.037502
   6 C :   -0.064897
   7 H :    0.024857
   8 H :    0.024365
   9 H :    0.025764
  10 H :    0.033298
  11 H :    0.023770
  12 H :    0.018739
  13 H :    0.026768
  14 H :    0.032964
  15 H :    0.035085
  16 H :    0.027274
  17 H :    0.025871
  18 H :    0.023551
  19 H :    0.026272
  20 H :    0.025995

  Mayer bond orders larger than 0.1
B(  0-C ,  1-C ) :   1.1008 B(  0-C ,  7-H ) :   0.9602 B(  0-C ,  8-H ) :   0.9695
B(  0-C ,  9-H ) :   0.9680 B(  1-C ,  2-C ) :   1.0669 B(  1-C , 10-H ) :   0.9104
B(  1-C , 11-H ) :   0.9274 B(  2-C ,  3-C ) :   1.8995 B(  2-C , 12-H ) :   0.9310
B(  3-C ,  4-C ) :   1.0978 B(  3-C ,  5-C ) :   1.0635 B(  4-C , 13-H ) :   0.9395
B(  4-C , 14-H ) :   0.9400 B(  4-C , 15-H ) :   0.9383 B(  5-C ,  6-C ) :   1.1052
B(  5-C , 16-H ) :   0.9177 B(  5-C , 17-H ) :   0.9263 B(  6-C , 18-H ) :   0.9659
B(  6-C , 19-H ) :   0.9597 B(  6-C , 20-H ) :   0.9643

FINAL SINGLE POINT ENERGY      -274.564682627664

DIPOLE MOMENT
-------------
                                X             Y             Z
Electronic contribution:     -0.63438       0.13580      -0.01469
Nuclear contribution   :      0.73998      -0.12813       0.00875
                        -----------------------------------------
Total Dipole Moment    :      0.10560       0.00766      -0.00594
                        -----------------------------------------
Magnitude (a.u.)       :      0.10605
Magnitude (Debye)      :      0.26955

                             ****ORCA TERMINATED NORMALLY****
TOTAL RUN TIME: 0 days 0 hours 0 minutes 8 seconds 972 msec
