                         Program Version 3.0.3 - RELEASE   -
|  1> ! RI PBE def2-SVP def2-SVP/J NBO PAL2
|  2> % maxcore 2000
|  3> % output
|  4>     # printlevel mini
|  5>     print[ P_Basis ] 0
|  6>     print[ P_SCFInfo ] 1
|  7>     print[ P_SCFIterInfo ] 1
|  8>     print[ P_OrbEn ] 0
|  9>     print[ P_Cartesian ] 0
| 10> end
| 11> *xyz 0 1
| 12>  C        2.4827660000     0.3163200000     1.6825740000
| 13>  C        3.0911130000    -0.3052490000     0.4278650000
| 14>  C        3.4518260000     0.7203730000    -0.5912150000
| 15>  C        4.6456920000     0.9737560000    -1.1502160000
| 16>  C        5.9011320000     0.2207710000    -0.8393170000
| 17>  C        4.7329110000     2.0513670000    -2.1310240000
| 18>  C        5.8284130000     2.4317320000    -2.7883880000
| 19>  H        2.1774740000    -0.4540240000     2.3944680000
| 20>  H        1.6004890000     0.9133050000     1.4372200000
| 21>  H        3.1992910000     0.9744290000     2.1792780000
| 22>  H        2.3578440000    -0.9934250000    -0.0123160000
| 23>  H        3.9544870000    -0.9151430000     0.7003000000
| 24>  H        2.6219220000     1.3512410000    -0.9099770000
| 25>  H        5.7508330000    -0.5476110000    -0.0835230000
| 26>  H        6.6794260000     0.9005520000    -0.4800010000
| 27>  H        6.2934110000    -0.2638750000    -1.7385470000
| 28>  H        3.8001260000     2.5764810000    -2.3259020000
| 29>  H        6.7883160000     1.9499570000    -2.6419070000
| 30>  H        5.7957390000     3.2461530000    -3.5017820000
| 31> *
| 32>
| 33>                          ****END OF INPUT****
 Total Charge           Charge          ....    0
 Multiplicity           Mult            ....    1
 Number of Electrons    NEL             ....   54
 Basis Dimension        Dim             ....  158

MULLIKEN ATOMIC CHARGES
-----------------------
   0 C :   -0.047798
   1 C :    0.045393
   2 C :   -0.119330
   3 C :   -0.072716
   4 C :    0.052842
   5 C :   -0.004752
   6 C :   -0.045487
   7 H :    0.023227
   8 H :    0.025075
   9 H :    0.032492
  10 H :    0.026360
  11 H :    0.006334
  12 H :   -0.016460
  13 H :    0.010726
  14 H :    0.034752
  15 H :    0.036019
  16 H :   -0.020425
  17 H :    0.010369
  18 H :    0.023379
Sum of atomic charges:   -0.0000000

LOEWDIN ATOMIC CHARGES
----------------------
   0 C :   -0.062487
   1 C :   -0.048077
   2 C :   -0.029626
   3 C :   -0.045207
   4 C :   -0.058778
   5 C :   -0.026757
   6 C :   -0.069474
   7 H :    0.027095
   8 H :    0.025613
   9 H :    0.027851
  10 H :    0.037013
  11 H :    0.025555
  12 H :    0.021651
  13 H :    0.028021
  14 H :    0.038030
  15 H :    0.038909
  16 H :    0.026538
  17 H :    0.019178
  18 H :    0.024953

  Mayer bond orders larger than 0.1
B(  0-C ,  1-C ) :   1.0968 B(  0-C ,  7-H ) :   0.9586 B(  0-C ,  8-H ) :   0.9687
B(  0-C ,  9-H ) :   0.9703 B(  1-C ,  2-C ) :   1.0620 B(  1-C , 10-H ) :   0.9106
B(  1-C , 11-H ) :   0.9253 B(  2-C ,  3-C ) :   1.7789 B(  2-C ,  6-C ) :   0.1323
B(  2-C , 12-H ) :   0.9408 B(  3-C ,  4-C ) :   1.1183 B(  3-C ,  5-C ) :   1.1211
B(  4-C , 13-H ) :   0.9410 B(  4-C , 14-H ) :   0.9311 B(  4-C , 15-H ) :   0.9329
B(  5-C ,  6-C ) :   1.8925 B(  5-C , 16-H ) :   0.9561 B(  6-C , 17-H ) :   0.9321
B(  6-C , 18-H ) :   0.9429

FINAL SINGLE POINT ENERGY      -273.349440778778

DIPOLE MOMENT
-------------
                                X             Y             Z
Electronic contribution:      0.44870       1.64547      -3.29487
Nuclear contribution   :     -0.52383      -1.84453       3.49136
                        -----------------------------------------
Total Dipole Moment    :     -0.07513      -0.19906       0.19649
                        -----------------------------------------
Magnitude (a.u.)       :      0.28962
Magnitude (Debye)      :      0.73615

                             ****ORCA TERMINATED NORMALLY****
TOTAL RUN TIME: 0 days 0 hours 0 minutes 8 seconds 388 msec
