                         Program Version 3.0.3 - RELEASE   -
|  1> ! RI PBE def2-SVP def2-SVP/J NBO PAL2
|  2> % maxcore 2000
|  3> % output
|  4>     # printlevel mini
|  5>     print[ P_Basis ] 0
|  6>     print[ P_SCFInfo ] 1
|  7>     print[ P_SCFIterInfo ] 1
|  8>     print[ P_OrbEn ] 0
|  9>     print[ P_Cartesian ] 0
| 10> end
| 11> *xyz 0 1
| 12>  C        1.6885810000     1.5089320000     0.0926340000
| 13>  C        2.3909870000     0.1581150000    -0.0196350000
| 14>  C        3.0804470000    -0.0095900000    -1.3294310000
| 15>  C        4.3815370000    -0.2433460000    -1.5555650000
| 16>  C        5.4431810000    -0.3987950000    -0.5051410000
| 17>  C        4.8420890000    -0.3675680000    -2.9003760000
| 18>  C        5.2769480000    -0.4806450000    -4.0172350000
| 19>  H        1.1446780000     1.5896180000     1.0364390000
| 20>  H        0.9712010000     1.6479380000    -0.7201420000
| 21>  H        2.4080780000     2.3292120000     0.0428310000
| 22>  H        1.6412320000    -0.6369650000     0.0813530000
| 23>  H        3.0844600000     0.0310160000     0.8137520000
| 24>  H        2.4409290000     0.0806320000    -2.2049480000
| 25>  H        5.0540790000    -0.2553150000     0.5015200000
| 26>  H        6.2480840000     0.3217180000    -0.6714370000
| 27>  H        5.8912760000    -1.3944300000    -0.5631300000
| 28>  H        5.6467230000    -0.5780280000    -5.0101800000
| 29> *
| 30>
| 31>                          ****END OF INPUT****
 Total Charge           Charge          ....    0
 Multiplicity           Mult            ....    1
 Number of Electrons    NEL             ....   52
 Basis Dimension        Dim             ....  148

MULLIKEN ATOMIC CHARGES
-----------------------
   0 C :   -0.046776
   1 C :    0.037549
   2 C :   -0.061187
   3 C :   -0.162120
   4 C :    0.085347
   5 C :    0.392484
   6 C :   -0.450877
   7 H :    0.023605
   8 H :    0.029141
   9 H :    0.031903
  10 H :    0.031287
  11 H :    0.006466
  12 H :   -0.002099
  13 H :    0.009442
  14 H :    0.038992
  15 H :    0.036664
  16 H :    0.000178
Sum of atomic charges:   -0.0000000

LOEWDIN ATOMIC CHARGES
----------------------
   0 C :   -0.061073
   1 C :   -0.047663
   2 C :   -0.014140
   3 C :   -0.063534
   4 C :   -0.046725
   5 C :   -0.009221
   6 C :   -0.081807
   7 H :    0.027605
   8 H :    0.027012
   9 H :    0.028437
  10 H :    0.039298
  11 H :    0.025668
  12 H :    0.030714
  13 H :    0.027493
  14 H :    0.041907
  15 H :    0.041924
  16 H :    0.034104

  Mayer bond orders larger than 0.1
B(  0-C ,  1-C ) :   1.0930 B(  0-C ,  7-H ) :   0.9598 B(  0-C ,  8-H ) :   0.9711
B(  0-C ,  9-H ) :   0.9700 B(  1-C ,  2-C ) :   1.0614 B(  1-C , 10-H ) :   0.9102
B(  1-C , 11-H ) :   0.9269 B(  2-C ,  3-C ) :   1.8110 B(  2-C ,  6-C ) :   0.1200
B(  2-C , 12-H ) :   0.9432 B(  3-C ,  4-C ) :   1.0827 B(  3-C ,  5-C ) :   1.0304
B(  4-C , 13-H ) :   0.9425 B(  4-C , 14-H ) :   0.9425 B(  4-C , 15-H ) :   0.9425
B(  5-C ,  6-C ) :   2.2815 B(  5-C , 16-H ) :  -0.1020 B(  6-C , 16-H ) :   1.0925

FINAL SINGLE POINT ENERGY      -272.103213141449

DIPOLE MOMENT
-------------
                                X             Y             Z
Electronic contribution:      3.37854      -2.38579      -6.28291
Nuclear contribution   :     -3.50923       2.42666       6.64087
                        -----------------------------------------
Total Dipole Moment    :     -0.13069       0.04087       0.35796
                        -----------------------------------------
Magnitude (a.u.)       :      0.38325
Magnitude (Debye)      :      0.97415

                             ****ORCA TERMINATED NORMALLY****
TOTAL RUN TIME: 0 days 0 hours 0 minutes 7 seconds 744 msec
