                         Program Version 3.0.3 - RELEASE   -
|  1> ! RI PBE def2-SVP def2-SVP/J NBO PAL2
|  2> % maxcore 2000
|  3> % output
|  4>     # printlevel mini
|  5>     print[ P_Basis ] 0
|  6>     print[ P_SCFInfo ] 1
|  7>     print[ P_SCFIterInfo ] 1
|  8>     print[ P_OrbEn ] 0
|  9>     print[ P_Cartesian ] 0
| 10> end
| 11> *xyz 0 1
| 12>  C        1.8005610000     1.1945570000     0.4617590000
| 13>  C        2.9547230000     0.3916850000    -0.1311010000
| 14>  C        3.1139820000    -0.9462080000     0.5062990000
| 15>  C        4.2122060000    -1.3784320000     1.1308370000
| 16>  C        4.3448800000    -2.6788020000     1.7508290000
| 17>  C        5.4448100000    -3.1095520000     2.3730740000
| 18>  C        5.5981070000    -4.4419230000     3.0169380000
| 19>  H        1.6861800000     2.1546620000    -0.0469100000
| 20>  H        1.9656950000     1.3889110000     1.5239380000
| 21>  H        0.8558060000     0.6525220000     0.3672790000
| 22>  H        3.8891240000     0.9538850000    -0.0392520000
| 23>  H        2.7753250000     0.2605810000    -1.2060480000
| 24>  H        2.2490260000    -1.6084380000     0.4586330000
| 25>  H        5.0798720000    -0.7216380000     1.1865300000
| 26>  H        3.4775890000    -3.3359550000     1.6960040000
| 27>  H        6.3053660000    -2.4434220000     2.4208440000
| 28>  H        4.6904980000    -5.0407000000     2.9185460000
| 29>  H        5.8270890000    -4.3428250000     4.0834250000
| 30>  H        6.4270610000    -5.0038100000     2.5733860000
| 31> *
| 32>
| 33>                          ****END OF INPUT****
 Total Charge           Charge          ....    0
 Multiplicity           Mult            ....    1
 Number of Electrons    NEL             ....   54
 Basis Dimension        Dim             ....  158

MULLIKEN ATOMIC CHARGES
-----------------------
   0 C :   -0.035541
   1 C :    0.030418
   2 C :   -0.085149
   3 C :    0.014028
   4 C :    0.019964
   5 C :   -0.120364
   6 C :    0.040395
   7 H :    0.021224
   8 H :    0.027288
   9 H :    0.022066
  10 H :    0.007972
  11 H :    0.027157
  12 H :   -0.011702
  13 H :   -0.021000
  14 H :   -0.021237
  15 H :   -0.005332
  16 H :    0.020483
  17 H :    0.036060
  18 H :    0.033270
Sum of atomic charges:   -0.0000000

LOEWDIN ATOMIC CHARGES
----------------------
   0 C :   -0.062833
   1 C :   -0.047447
   2 C :   -0.032938
   3 C :   -0.044606
   4 C :   -0.046464
   5 C :   -0.038470
   6 C :   -0.067189
   7 H :    0.026463
   8 H :    0.027088
   9 H :    0.024769
  10 H :    0.027440
  11 H :    0.035189
  12 H :    0.020751
  13 H :    0.024760
  14 H :    0.024557
  15 H :    0.022236
  16 H :    0.031142
  17 H :    0.038145
  18 H :    0.037406

  Mayer bond orders larger than 0.1
B(  0-C ,  1-C ) :   1.0963 B(  0-C ,  7-H ) :   0.9586 B(  0-C ,  8-H ) :   0.9686
B(  0-C ,  9-H ) :   0.9701 B(  1-C ,  2-C ) :   1.0627 B(  1-C , 10-H ) :   0.9347
B(  1-C , 11-H ) :   0.9144 B(  2-C ,  3-C ) :   1.7812 B(  2-C ,  5-C ) :   0.1318
B(  2-C , 12-H ) :   0.9554 B(  3-C ,  4-C ) :   1.1379 B(  3-C , 13-H ) :   0.9628
B(  4-C ,  5-C ) :   1.7917 B(  4-C , 14-H ) :   0.9609 B(  5-C ,  6-C ) :   1.0898
B(  5-C , 15-H ) :   0.9562 B(  6-C , 16-H ) :   0.9591 B(  6-C , 17-H ) :   0.9423
B(  6-C , 18-H ) :   0.9432

FINAL SINGLE POINT ENERGY      -273.353923779391

DIPOLE MOMENT
-------------
                                X             Y             Z
Electronic contribution:      1.54448      -1.41402      -0.24829
Nuclear contribution   :     -1.52680       1.40842       0.26375
                        -----------------------------------------
Total Dipole Moment    :      0.01768      -0.00559       0.01546
                        -----------------------------------------
Magnitude (a.u.)       :      0.02414
Magnitude (Debye)      :      0.06137

                             ****ORCA TERMINATED NORMALLY****
TOTAL RUN TIME: 0 days 0 hours 0 minutes 8 seconds 22 msec
