                         Program Version 3.0.3 - RELEASE   -
|  1> ! RI PBE def2-SVP def2-SVP/J NBO PAL2
|  2> % maxcore 2000
|  3> % output
|  4>     # printlevel mini
|  5>     print[ P_Basis ] 0
|  6>     print[ P_SCFInfo ] 1
|  7>     print[ P_SCFIterInfo ] 1
|  8>     print[ P_OrbEn ] 0
|  9>     print[ P_Cartesian ] 0
| 10> end
| 11> *xyz 0 1
| 12>  C        2.6813530000    -1.4369630000     0.4621390000
| 13>  C        3.4119980000    -0.0993830000     0.4106000000
| 14>  C        3.2371290000     0.6039400000    -0.8952600000
| 15>  C        4.2171230000     0.9470330000    -1.7224800000
| 16>  C        4.0464120000     1.6437450000    -3.0366900000
| 17>  C        4.7503430000     2.9987220000    -3.0275650000
| 18>  C        4.5640670000     0.7757610000    -4.1812710000
| 19>  H        2.7972880000    -1.9136380000     1.4384080000
| 20>  H        3.0658400000    -2.1208020000    -0.2982430000
| 21>  H        1.6109890000    -1.3078200000     0.2798840000
| 22>  H        4.4788940000    -0.2474450000     0.6043330000
| 23>  H        3.0349440000     0.5401220000     1.2185990000
| 24>  H        2.2096260000     0.8348650000    -1.1804040000
| 25>  H        5.2464140000     0.7139830000    -1.4420590000
| 26>  H        2.9739910000     1.8135850000    -3.1902890000
| 27>  H        5.8247390000     2.8755660000    -2.8590150000
| 28>  H        4.3598360000     3.6423170000    -2.2364650000
| 29>  H        4.6214840000     3.5129300000    -3.9838710000
| 30>  H        5.6313010000     0.5672660000    -4.0565370000
| 31>  H        4.4347010000     1.2787150000    -5.1435350000
| 32>  H        4.0392280000    -0.1810970000    -4.2209790000
| 33> *
| 34>
| 35>                          ****END OF INPUT****
 Total Charge           Charge          ....    0
 Multiplicity           Mult            ....    1
 Number of Electrons    NEL             ....   56
 Basis Dimension        Dim             ....  168

MULLIKEN ATOMIC CHARGES
-----------------------
   0 C :   -0.047395
   1 C :    0.034691
   2 C :   -0.074370
   3 C :   -0.023970
   4 C :   -0.096327
   5 C :    0.010647
   6 C :    0.022391
   7 H :    0.021797
   8 H :    0.027201
   9 H :    0.024842
  10 H :    0.006675
  11 H :    0.020585
  12 H :   -0.013542
  13 H :   -0.017989
  14 H :    0.000777
  15 H :    0.015449
  16 H :    0.023672
  17 H :    0.017752
  18 H :    0.013063
  19 H :    0.015292
  20 H :    0.018759
Sum of atomic charges:    0.0000000

LOEWDIN ATOMIC CHARGES
----------------------
   0 C :   -0.065877
   1 C :   -0.046444
   2 C :   -0.044160
   3 C :   -0.034495
   4 C :   -0.048296
   5 C :   -0.057248
   6 C :   -0.055258
   7 H :    0.025994
   8 H :    0.026467
   9 H :    0.025457
  10 H :    0.027173
  11 H :    0.032308
  12 H :    0.019514
  13 H :    0.018826
  14 H :    0.027145
  15 H :    0.024035
  16 H :    0.026716
  17 H :    0.024645
  18 H :    0.023607
  19 H :    0.024132
  20 H :    0.025758

  Mayer bond orders larger than 0.1
B(  0-C ,  1-C ) :   1.1000 B(  0-C ,  7-H ) :   0.9605 B(  0-C ,  8-H ) :   0.9680
B(  0-C ,  9-H ) :   0.9692 B(  1-C ,  2-C ) :   1.0594 B(  1-C , 10-H ) :   0.9335
B(  1-C , 11-H ) :   0.9186 B(  2-C ,  3-C ) :   1.9186 B(  2-C , 12-H ) :   0.9509
B(  3-C ,  4-C ) :   1.0190 B(  3-C , 13-H ) :   0.9482 B(  4-C ,  5-C ) :   1.0693
B(  4-C ,  6-C ) :   1.0671 B(  4-C , 14-H ) :   0.9118 B(  5-C , 15-H ) :   0.9611
B(  5-C , 16-H ) :   0.9622 B(  5-C , 17-H ) :   0.9587 B(  6-C , 18-H ) :   0.9616
B(  6-C , 19-H ) :   0.9596 B(  6-C , 20-H ) :   0.9616

FINAL SINGLE POINT ENERGY      -274.563291054622

DIPOLE MOMENT
-------------
                                X             Y             Z
Electronic contribution:     -0.43953       0.68682       0.89021
Nuclear contribution   :      0.41165      -0.68859      -0.87493
                        -----------------------------------------
Total Dipole Moment    :     -0.02788      -0.00177       0.01527
                        -----------------------------------------
Magnitude (a.u.)       :      0.03184
Magnitude (Debye)      :      0.08093

                             ****ORCA TERMINATED NORMALLY****
TOTAL RUN TIME: 0 days 0 hours 0 minutes 8 seconds 886 msec
