                         Program Version 3.0.3 - RELEASE   -
|  1> ! RI PBE def2-SVP def2-SVP/J NBO PAL2
|  2> % maxcore 2000
|  3> % output
|  4>     # printlevel mini
|  5>     print[ P_Basis ] 0
|  6>     print[ P_SCFInfo ] 1
|  7>     print[ P_SCFIterInfo ] 1
|  8>     print[ P_OrbEn ] 0
|  9>     print[ P_Cartesian ] 0
| 10> end
| 11> *xyz 0 1
| 12>  C        2.2744670000     0.7540940000    -1.4374900000
| 13>  C        3.3230050000     0.1310720000    -0.5208660000
| 14>  C        3.1091060000     0.4729520000     0.9147530000
| 15>  C        3.9926520000     1.1064060000     1.6886690000
| 16>  C        3.8055710000     1.4574860000     3.0915740000
| 17>  C        2.5164180000     1.0937580000     3.7606150000
| 18>  C        4.7778000000     2.0925680000     3.7543140000
| 19>  H        2.4338090000     0.4568390000    -2.4765770000
| 20>  H        2.3096440000     1.8446970000    -1.3861170000
| 21>  H        1.2665190000     0.4411210000    -1.1521690000
| 22>  H        4.3248830000     0.4465490000    -0.8274420000
| 23>  H        3.2898000000    -0.9595560000    -0.6391080000
| 24>  H        2.1473610000     0.1817790000     1.3341000000
| 25>  H        4.9493230000     1.3958910000     1.2563360000
| 26>  H        2.3539740000     0.0119690000     3.7396660000
| 27>  H        1.6646920000     1.5551330000     3.2519930000
| 28>  H        2.5113510000     1.4202010000     4.8007370000
| 29>  H        5.7112030000     2.3542310000     3.2678060000
| 30>  H        4.6690120000     2.3669100000     4.7972850000
| 31> *
| 32>
| 33>                          ****END OF INPUT****
 Total Charge           Charge          ....    0
 Multiplicity           Mult            ....    1
 Number of Electrons    NEL             ....   54
 Basis Dimension        Dim             ....  158

MULLIKEN ATOMIC CHARGES
-----------------------
   0 C :   -0.046563
   1 C :    0.045608
   2 C :   -0.086760
   3 C :    0.024012
   4 C :   -0.128890
   5 C :    0.078446
   6 C :   -0.041221
   7 H :    0.022986
   8 H :    0.034366
   9 H :    0.020650
  10 H :    0.002519
  11 H :    0.027755
  12 H :   -0.012450
  13 H :   -0.031653
  14 H :    0.033060
  15 H :    0.031005
  16 H :    0.009603
  17 H :    0.008501
  18 H :    0.009025
Sum of atomic charges:   -0.0000000

LOEWDIN ATOMIC CHARGES
----------------------
   0 C :   -0.064116
   1 C :   -0.043979
   2 C :   -0.031117
   3 C :   -0.040225
   4 C :   -0.034002
   5 C :   -0.055247
   6 C :   -0.061582
   7 H :    0.027069
   8 H :    0.028196
   9 H :    0.024638
  10 H :    0.026669
  11 H :    0.035435
  12 H :    0.020164
  13 H :    0.024845
  14 H :    0.036374
  15 H :    0.036390
  16 H :    0.030969
  17 H :    0.019859
  18 H :    0.019662

  Mayer bond orders larger than 0.1
B(  0-C ,  1-C ) :   1.0940 B(  0-C ,  7-H ) :   0.9604 B(  0-C ,  8-H ) :   0.9704
B(  0-C ,  9-H ) :   0.9693 B(  1-C ,  2-C ) :   1.0604 B(  1-C , 10-H ) :   0.9336
B(  1-C , 11-H ) :   0.9160 B(  2-C ,  3-C ) :   1.8038 B(  2-C ,  6-C ) :   0.1319
B(  2-C , 12-H ) :   0.9368 B(  3-C ,  4-C ) :   1.1135 B(  3-C , 13-H ) :   0.9595
B(  4-C ,  5-C ) :   1.1075 B(  4-C ,  6-C ) :   1.8851 B(  5-C , 14-H ) :   0.9339
B(  5-C , 15-H ) :   0.9314 B(  5-C , 16-H ) :   0.9448 B(  6-C , 17-H ) :   0.9378
B(  6-C , 18-H ) :   0.9298

FINAL SINGLE POINT ENERGY      -273.351597436660

DIPOLE MOMENT
-------------
                                X             Y             Z
Electronic contribution:      2.42365       0.43662       2.58531
Nuclear contribution   :     -2.59730      -0.54948      -2.72455
                        -----------------------------------------
Total Dipole Moment    :     -0.17365      -0.11286      -0.13924
                        -----------------------------------------
Magnitude (a.u.)       :      0.24956
Magnitude (Debye)      :      0.63432

                             ****ORCA TERMINATED NORMALLY****
TOTAL RUN TIME: 0 days 0 hours 0 minutes 8 seconds 286 msec
