                         Program Version 3.0.3 - RELEASE   -
|  1> ! RI PBE def2-SVP def2-SVP/J NBO PAL2
|  2> % maxcore 2000
|  3> % output
|  4>     # printlevel mini
|  5>     print[ P_Basis ] 0
|  6>     print[ P_SCFInfo ] 1
|  7>     print[ P_SCFIterInfo ] 1
|  8>     print[ P_OrbEn ] 0
|  9>     print[ P_Cartesian ] 0
| 10> end
| 11> *xyz 0 1
| 12>  C        1.9815350000    -1.7796760000    -0.1641170000
| 13>  C        2.5429380000    -0.3650360000    -0.0543190000
| 14>  C        3.0479530000    -0.0525370000     1.3116050000
| 15>  C        4.3051590000     0.3004560000     1.5935670000
| 16>  C        4.7901490000     0.5926310000     2.8928980000
| 17>  C        5.2380400000     0.8483480000     3.9830000000
| 18>  C        5.7650590000     1.1527440000     5.2982790000
| 19>  H        1.5849740000    -1.9673290000    -1.1644970000
| 20>  H        1.1706440000    -1.9377890000     0.5516800000
| 21>  H        2.7546650000    -2.5234310000     0.0411260000
| 22>  H        1.7513660000     0.3492850000    -0.3142290000
| 23>  H        3.3453170000    -0.2203090000    -0.7841010000
| 24>  H        2.3337830000    -0.1323380000     2.1289340000
| 25>  H        5.0259780000     0.3777470000     0.7809410000
| 26>  H        5.8690170000     0.2456970000     5.9002230000
| 27>  H        5.1048170000     1.8370130000     5.8378580000
| 28>  H        6.7495950000     1.6220330000     5.2275530000
| 29> *
| 30>
| 31>                          ****END OF INPUT****
 Total Charge           Charge          ....    0
 Multiplicity           Mult            ....    1
 Number of Electrons    NEL             ....   52
 Basis Dimension        Dim             ....  148

MULLIKEN ATOMIC CHARGES
-----------------------
   0 C :   -0.039496
   1 C :    0.019297
   2 C :   -0.058087
   3 C :   -0.070903
   4 C :   -0.009661
   5 C :   -0.176418
   6 C :    0.045558
   7 H :    0.022036
   8 H :    0.025906
   9 H :    0.031198
  10 H :    0.031026
  11 H :    0.010654
  12 H :    0.004217
  13 H :    0.014869
  14 H :    0.051019
  15 H :    0.051304
  16 H :    0.047481
Sum of atomic charges:   -0.0000000

LOEWDIN ATOMIC CHARGES
----------------------
   0 C :   -0.062602
   1 C :   -0.047113
   2 C :   -0.009342
   3 C :   -0.061333
   4 C :   -0.062197
   5 C :   -0.053662
   6 C :   -0.070138
   7 H :    0.027247
   8 H :    0.026384
   9 H :    0.028273
  10 H :    0.036818
  11 H :    0.028403
  12 H :    0.027506
  13 H :    0.037296
  14 H :    0.051852
  15 H :    0.051492
  16 H :    0.051116

  Mayer bond orders larger than 0.1
B(  0-C ,  1-C ) :   1.0963 B(  0-C ,  7-H ) :   0.9590 B(  0-C ,  8-H ) :   0.9702
B(  0-C ,  9-H ) :   0.9688 B(  1-C ,  2-C ) :   1.0626 B(  1-C , 10-H ) :   0.9167
B(  1-C , 11-H ) :   0.9320 B(  2-C ,  3-C ) :   1.8172 B(  2-C ,  5-C ) :   0.1216
B(  2-C , 12-H ) :   0.9607 B(  3-C ,  4-C ) :   1.0398 B(  3-C , 13-H ) :   0.9401
B(  4-C ,  5-C ) :   2.4454 B(  5-C ,  6-C ) :   1.1463 B(  6-C , 14-H ) :   0.9286
B(  6-C , 15-H ) :   0.9306 B(  6-C , 16-H ) :   0.9280

FINAL SINGLE POINT ENERGY      -272.113764178976

DIPOLE MOMENT
-------------
                                X             Y             Z
Electronic contribution:      3.15819       2.78662       2.61531
Nuclear contribution   :     -3.21659      -2.80227      -2.53365
                        -----------------------------------------
Total Dipole Moment    :     -0.05840      -0.01565       0.08166
                        -----------------------------------------
Magnitude (a.u.)       :      0.10161
Magnitude (Debye)      :      0.25826

                             ****ORCA TERMINATED NORMALLY****
TOTAL RUN TIME: 0 days 0 hours 0 minutes 7 seconds 124 msec
