                         Program Version 3.0.3 - RELEASE   -
|  1> ! RI PBE def2-SVP def2-SVP/J NBO PAL2
|  2> % maxcore 2000
|  3> % output
|  4>     # printlevel mini
|  5>     print[ P_Basis ] 0
|  6>     print[ P_SCFInfo ] 1
|  7>     print[ P_SCFIterInfo ] 1
|  8>     print[ P_OrbEn ] 0
|  9>     print[ P_Cartesian ] 0
| 10> end
| 11> *xyz 0 1
| 12>  C        1.7122020000     0.3709120000     1.1491780000
| 13>  C        2.6072480000    -0.1199080000     0.0160440000
| 14>  C        3.0019030000     0.9728430000    -0.9213460000
| 15>  C        4.2483540000     1.3466850000    -1.1847630000
| 16>  C        4.6371940000     2.4534530000    -2.1172480000
| 17>  C        5.3824310000     3.5487900000    -1.4177240000
| 18>  C        6.6236360000     3.9219950000    -1.6953260000
| 19>  H        1.4109290000    -0.4534590000     1.7996960000
| 20>  H        0.8029870000     0.8364520000     0.7591230000
| 21>  H        2.2288530000     1.1147710000     1.7601430000
| 22>  H        2.0738820000    -0.8985850000    -0.5434020000
| 23>  H        3.5058600000    -0.5917130000     0.4250980000
| 24>  H        2.1836600000     1.4997480000    -1.4143800000
| 25>  H        5.0710000000     0.8321170000    -0.6890860000
| 26>  H        3.7317570000     2.8624300000    -2.5803680000
| 27>  H        5.2633600000     2.0589640000    -2.9259330000
| 28>  H        4.8424630000     4.0474350000    -0.6148810000
| 29>  H        7.1950530000     3.4430410000    -2.4849610000
| 30>  H        7.1132390000     4.7196370000    -1.1485740000
| 31> *
| 32>
| 33>                          ****END OF INPUT****
 Total Charge           Charge          ....    0
 Multiplicity           Mult            ....    1
 Number of Electrons    NEL             ....   54
 Basis Dimension        Dim             ....  158

MULLIKEN ATOMIC CHARGES
-----------------------
   0 C :   -0.038519
   1 C :    0.037923
   2 C :   -0.069267
   3 C :   -0.077058
   4 C :    0.128813
   5 C :   -0.092582
   6 C :   -0.034198
   7 H :    0.022282
   8 H :    0.021509
   9 H :    0.026351
  10 H :    0.023196
  11 H :    0.005013
  12 H :   -0.015116
  13 H :   -0.009011
  14 H :    0.010643
  15 H :    0.013473
  16 H :    0.005674
  17 H :    0.016049
  18 H :    0.024826
Sum of atomic charges:    0.0000000

LOEWDIN ATOMIC CHARGES
----------------------
   0 C :   -0.063434
   1 C :   -0.045535
   2 C :   -0.040623
   3 C :   -0.040288
   4 C :   -0.039887
   5 C :   -0.026198
   6 C :   -0.067579
   7 H :    0.026836
   8 H :    0.024809
   9 H :    0.026235
  10 H :    0.033087
  11 H :    0.027561
  12 H :    0.019261
  13 H :    0.022088
  14 H :    0.036649
  15 H :    0.036001
  16 H :    0.025739
  17 H :    0.020712
  18 H :    0.024566

  Mayer bond orders larger than 0.1
B(  0-C ,  1-C ) :   1.0993 B(  0-C ,  7-H ) :   0.9599 B(  0-C ,  8-H ) :   0.9685
B(  0-C ,  9-H ) :   0.9696 B(  1-C ,  2-C ) :   1.0620 B(  1-C , 10-H ) :   0.9198
B(  1-C , 11-H ) :   0.9315 B(  2-C ,  3-C ) :   1.9105 B(  2-C , 12-H ) :   0.9497
B(  3-C ,  4-C ) :   1.0408 B(  3-C , 13-H ) :   0.9536 B(  4-C ,  5-C ) :   1.0499
B(  4-C , 14-H ) :   0.9072 B(  4-C , 15-H ) :   0.9092 B(  5-C ,  6-C ) :   2.0043
B(  5-C , 16-H ) :   0.9586 B(  6-C , 17-H ) :   0.9473 B(  6-C , 18-H ) :   0.9457

FINAL SINGLE POINT ENERGY      -273.338350708510

DIPOLE MOMENT
-------------
                                X             Y             Z
Electronic contribution:      2.26741       1.49070      -2.36986
Nuclear contribution   :     -2.41300      -1.59834       2.39627
                        -----------------------------------------
Total Dipole Moment    :     -0.14559      -0.10764       0.02642
                        -----------------------------------------
Magnitude (a.u.)       :      0.18298
Magnitude (Debye)      :      0.46509

                             ****ORCA TERMINATED NORMALLY****
TOTAL RUN TIME: 0 days 0 hours 0 minutes 8 seconds 127 msec
