                         Program Version 3.0.3 - RELEASE   -
|  1> ! RI PBE def2-SVP def2-SVP/J NBO PAL2
|  2> % maxcore 2000
|  3> % output
|  4>     # printlevel mini
|  5>     print[ P_Basis ] 0
|  6>     print[ P_SCFInfo ] 1
|  7>     print[ P_SCFIterInfo ] 1
|  8>     print[ P_OrbEn ] 0
|  9>     print[ P_Cartesian ] 0
| 10> end
| 11> *xyz 0 1
| 12>  C        1.7235040000    -1.4386010000    -0.2390680000
| 13>  C        2.5010040000    -0.1802070000     0.1318760000
| 14>  C        2.9113280000     0.6128500000    -1.0642210000
| 15>  C        4.1615520000     0.9029350000    -1.3974530000
| 16>  C        4.5497010000     1.7054290000    -2.6062020000
| 17>  C        5.4832590000     1.0028650000    -3.4760840000
| 18>  C        6.2569450000     0.4138430000    -4.1799260000
| 19>  H        1.4089850000    -1.9842980000     0.6534530000
| 20>  H        2.3334520000    -2.1076680000    -0.8501620000
| 21>  H        0.8258640000    -1.1921250000    -0.8125010000
| 22>  H        3.3875620000    -0.4443670000     0.7161920000
| 23>  H        1.8752010000     0.4453140000     0.7803830000
| 24>  H        2.1036940000     0.9587960000    -1.7105330000
| 25>  H        4.9821660000     0.5525890000    -0.7748740000
| 26>  H        5.0158480000     2.6481830000    -2.2919480000
| 27>  H        3.6544800000     1.9762690000    -3.1748320000
| 28>  H        6.9399640000    -0.1075060000    -4.8076020000
| 29> *
| 30>
| 31>                          ****END OF INPUT****
 Total Charge           Charge          ....    0
 Multiplicity           Mult            ....    1
 Number of Electrons    NEL             ....   52
 Basis Dimension        Dim             ....  148

MULLIKEN ATOMIC CHARGES
-----------------------
   0 C :   -0.040536
   1 C :    0.023042
   2 C :   -0.066789
   3 C :   -0.068034
   4 C :    0.143836
   5 C :    0.297282
   6 C :   -0.473090
   7 H :    0.022563
   8 H :    0.033152
   9 H :    0.023505
  10 H :    0.010529
  11 H :    0.026722
  12 H :   -0.009805
  13 H :    0.001850
  14 H :    0.046677
  15 H :    0.032459
  16 H :   -0.003363
Sum of atomic charges:   -0.0000000

LOEWDIN ATOMIC CHARGES
----------------------
   0 C :   -0.063368
   1 C :   -0.046121
   2 C :   -0.034958
   3 C :   -0.034281
   4 C :   -0.044450
   5 C :   -0.020457
   6 C :   -0.090369
   7 H :    0.027299
   8 H :    0.028606
   9 H :    0.025570
  10 H :    0.028877
  11 H :    0.034276
  12 H :    0.021167
  13 H :    0.026159
  14 H :    0.057165
  15 H :    0.051404
  16 H :    0.033479

  Mayer bond orders larger than 0.1
B(  0-C ,  1-C ) :   1.1010 B(  0-C ,  7-H ) :   0.9591 B(  0-C ,  8-H ) :   0.9697
B(  0-C ,  9-H ) :   0.9680 B(  1-C ,  2-C ) :   1.0674 B(  1-C , 10-H ) :   0.9332
B(  1-C , 11-H ) :   0.9199 B(  2-C ,  3-C ) :   1.9256 B(  2-C , 12-H ) :   0.9474
B(  3-C ,  4-C ) :   1.0359 B(  3-C , 13-H ) :   0.9531 B(  4-C ,  5-C ) :   1.0507
B(  4-C , 14-H ) :   0.8839 B(  4-C , 15-H ) :   0.8964 B(  5-C ,  6-C ) :   2.3815
B(  5-C , 16-H ) :  -0.1089 B(  6-C , 16-H ) :   1.1004

FINAL SINGLE POINT ENERGY      -272.093980266820

DIPOLE MOMENT
-------------
                                X             Y             Z
Electronic contribution:      5.51963       3.05727      -4.83093
Nuclear contribution   :     -5.76633      -2.98892       5.07477
                        -----------------------------------------
Total Dipole Moment    :     -0.24670       0.06835       0.24383
                        -----------------------------------------
Magnitude (a.u.)       :      0.35353
Magnitude (Debye)      :      0.89861

                             ****ORCA TERMINATED NORMALLY****
TOTAL RUN TIME: 0 days 0 hours 0 minutes 7 seconds 387 msec
