                         Program Version 3.0.3 - RELEASE   -
|  1> ! RI PBE def2-SVP def2-SVP/J NBO PAL2
|  2> % maxcore 2000
|  3> % output
|  4>     # printlevel mini
|  5>     print[ P_Basis ] 0
|  6>     print[ P_SCFInfo ] 1
|  7>     print[ P_SCFIterInfo ] 1
|  8>     print[ P_OrbEn ] 0
|  9>     print[ P_Cartesian ] 0
| 10> end
| 11> *xyz 0 1
| 12>  C        2.3483630000    -1.3895510000    -0.7462160000
| 13>  C        2.3206810000    -0.0138610000    -0.0846060000
| 14>  C        2.8158850000     1.0863860000    -0.9826550000
| 15>  C        1.9578920000     1.9177500000    -1.5840640000
| 16>  C        4.2485590000     1.2408960000    -1.2153110000
| 17>  C        5.2293460000     0.5487060000    -0.6328130000
| 18>  C        6.6800450000     0.7581690000    -0.8921620000
| 19>  H        1.9963750000    -2.1597890000    -0.0557080000
| 20>  H        3.3547210000    -1.6605410000    -1.0703770000
| 21>  H        1.7029310000    -1.4043110000    -1.6272140000
| 22>  H        2.9170860000    -0.0357040000     0.8336070000
| 23>  H        1.2967700000     0.2182720000     0.2194070000
| 24>  H        0.8882680000     1.8422070000    -1.4236010000
| 25>  H        2.3034280000     2.6984010000    -2.2532460000
| 26>  H        4.5209780000     2.0146790000    -1.9318560000
| 27>  H        4.9792100000    -0.2258220000     0.0886890000
| 28>  H        6.8461710000     1.5532580000    -1.6215430000
| 29>  H        7.1501950000    -0.1559250000    -1.2702200000
| 30>  H        7.2120980000     1.0219890000     0.0279800000
| 31> *
| 32>
| 33>                          ****END OF INPUT****
 Total Charge           Charge          ....    0
 Multiplicity           Mult            ....    1
 Number of Electrons    NEL             ....   54
 Basis Dimension        Dim             ....  158

MULLIKEN ATOMIC CHARGES
-----------------------
   0 C :   -0.013273
   1 C :    0.032981
   2 C :   -0.075352
   3 C :   -0.056323
   4 C :    0.017480
   5 C :   -0.117920
   6 C :    0.040901
   7 H :    0.023489
   8 H :    0.020233
   9 H :    0.020952
  10 H :    0.017405
  11 H :    0.000183
  12 H :    0.012813
  13 H :    0.010731
  14 H :   -0.029450
  15 H :    0.002262
  16 H :    0.023415
  17 H :    0.034575
  18 H :    0.034899
Sum of atomic charges:   -0.0000000

LOEWDIN ATOMIC CHARGES
----------------------
   0 C :   -0.060560
   1 C :   -0.037596
   2 C :   -0.026612
   3 C :   -0.063539
   4 C :   -0.040896
   5 C :   -0.037014
   6 C :   -0.064307
   7 H :    0.026965
   8 H :    0.024072
   9 H :    0.027427
  10 H :    0.028398
  11 H :    0.029305
  12 H :    0.020047
  13 H :    0.019589
  14 H :    0.025220
  15 H :    0.021916
  16 H :    0.031380
  17 H :    0.037965
  18 H :    0.038240

  Mayer bond orders larger than 0.1
B(  0-C ,  1-C ) :   1.1132 B(  0-C ,  7-H ) :   0.9608 B(  0-C ,  8-H ) :   0.9650
B(  0-C ,  9-H ) :   0.9618 B(  1-C ,  2-C ) :   1.0737 B(  1-C , 10-H ) :   0.9049
B(  1-C , 11-H ) :   0.9156 B(  2-C ,  3-C ) :   1.8755 B(  2-C ,  4-C ) :   1.1185
B(  3-C ,  5-C ) :   0.1331 B(  3-C , 12-H ) :   0.9316 B(  3-C , 13-H ) :   0.9400
B(  4-C ,  5-C ) :   1.8011 B(  4-C , 14-H ) :   0.9562 B(  5-C ,  6-C ) :   1.0912
B(  5-C , 15-H ) :   0.9402 B(  6-C , 16-H ) :   0.9607 B(  6-C , 17-H ) :   0.9437
B(  6-C , 18-H ) :   0.9429

FINAL SINGLE POINT ENERGY      -273.349947370063

DIPOLE MOMENT
-------------
                                X             Y             Z
Electronic contribution:     -0.84784       2.63851      -0.25222
Nuclear contribution   :      1.05081      -2.79270       0.35916
                        -----------------------------------------
Total Dipole Moment    :      0.20297      -0.15419       0.10694
                        -----------------------------------------
Magnitude (a.u.)       :      0.27642
Magnitude (Debye)      :      0.70261

                             ****ORCA TERMINATED NORMALLY****
TOTAL RUN TIME: 0 days 0 hours 0 minutes 8 seconds 504 msec
