                         Program Version 3.0.3 - RELEASE   -
|  1> ! RI PBE def2-SVP def2-SVP/J NBO PAL2
|  2> % maxcore 2000
|  3> % output
|  4>     # printlevel mini
|  5>     print[ P_Basis ] 0
|  6>     print[ P_SCFInfo ] 1
|  7>     print[ P_SCFIterInfo ] 1
|  8>     print[ P_OrbEn ] 0
|  9>     print[ P_Cartesian ] 0
| 10> end
| 11> *xyz 0 1
| 12>  C        1.2532990000    -0.1114590000    -0.2269850000
| 13>  C        2.7345870000     0.1437940000    -0.0196350000
| 14>  C        3.1009730000     1.0427330000     1.1291270000
| 15>  C        2.1914890000     1.5920170000     1.9297100000
| 16>  C        4.5740590000     1.3111320000     1.3534450000
| 17>  C        5.3516240000     0.0405230000     1.6924290000
| 18>  C        5.2186110000     2.0383700000     0.1746050000
| 19>  H        1.0972620000    -0.7727580000    -1.0819320000
| 20>  H        0.7103720000     0.8164940000    -0.4208270000
| 21>  H        0.8025860000    -0.5864330000     0.6474840000
| 22>  H        3.1582830000     0.5648130000    -0.9393190000
| 23>  H        3.2489900000    -0.8156970000     0.1121070000
| 24>  H        1.1287820000     1.4251080000     1.8028590000
| 25>  H        2.4880960000     2.2365990000     2.7505970000
| 26>  H        4.6358150000     1.9754000000     2.2223780000
| 27>  H        5.3935090000    -0.6454530000     0.8424400000
| 28>  H        4.8979650000    -0.4888270000     2.5333650000
| 29>  H        6.3817770000     0.2866220000     1.9623080000
| 30>  H        5.2561590000     1.4070520000    -0.7169200000
| 31>  H        6.2466990000     2.3186140000     0.4177470000
| 32>  H        4.6695430000     2.9484640000    -0.0772630000
| 33> *
| 34>
| 35>                          ****END OF INPUT****
 Total Charge           Charge          ....    0
 Multiplicity           Mult            ....    1
 Number of Electrons    NEL             ....   56
 Basis Dimension        Dim             ....  168

MULLIKEN ATOMIC CHARGES
-----------------------
   0 C :   -0.033943
   1 C :    0.049805
   2 C :   -0.134057
   3 C :   -0.048349
   4 C :   -0.092409
   5 C :    0.011765
   6 C :    0.024735
   7 H :    0.018043
   8 H :    0.028103
   9 H :    0.028812
  10 H :    0.013493
  11 H :    0.015691
  12 H :    0.009145
  13 H :    0.001799
  14 H :   -0.003675
  15 H :    0.024380
  16 H :    0.020902
  17 H :    0.014462
  18 H :    0.019876
  19 H :    0.012379
  20 H :    0.019042
Sum of atomic charges:   -0.0000000

LOEWDIN ATOMIC CHARGES
----------------------
   0 C :   -0.065669
   1 C :   -0.041692
   2 C :   -0.019644
   3 C :   -0.086143
   4 C :   -0.040305
   5 C :   -0.056686
   6 C :   -0.054715
   7 H :    0.028180
   8 H :    0.027056
   9 H :    0.026972
  10 H :    0.033945
  11 H :    0.034406
  12 H :    0.017913
  13 H :    0.018395
  14 H :    0.028322
  15 H :    0.022043
  16 H :    0.027161
  17 H :    0.026287
  18 H :    0.021257
  19 H :    0.025991
  20 H :    0.026926

  Mayer bond orders larger than 0.1
B(  0-C ,  1-C ) :   1.1466 B(  0-C ,  7-H ) :   0.9549 B(  0-C ,  8-H ) :   0.9571
B(  0-C ,  9-H ) :   0.9581 B(  1-C ,  2-C ) :   1.0316 B(  1-C , 10-H ) :   0.9064
B(  1-C , 11-H ) :   0.9049 B(  2-C ,  3-C ) :   1.9944 B(  2-C ,  4-C ) :   1.0384
B(  3-C , 12-H ) :   0.9205 B(  3-C , 13-H ) :   0.9263 B(  4-C ,  5-C ) :   1.0733
B(  4-C ,  6-C ) :   1.0760 B(  4-C , 14-H ) :   0.8966 B(  5-C , 15-H ) :   0.9589
B(  5-C , 16-H ) :   0.9608 B(  5-C , 17-H ) :   0.9547 B(  6-C , 18-H ) :   0.9588
B(  6-C , 19-H ) :   0.9548 B(  6-C , 20-H ) :   0.9597

FINAL SINGLE POINT ENERGY      -274.560159442591

DIPOLE MOMENT
-------------
                                X             Y             Z
Electronic contribution:     -0.85648       1.06024       1.47176
Nuclear contribution   :      1.01747      -1.16020      -1.61501
                        -----------------------------------------
Total Dipole Moment    :      0.16100      -0.09996      -0.14325
                        -----------------------------------------
Magnitude (a.u.)       :      0.23755
Magnitude (Debye)      :      0.60381

                             ****ORCA TERMINATED NORMALLY****
TOTAL RUN TIME: 0 days 0 hours 0 minutes 8 seconds 904 msec
