                         Program Version 3.0.3 - RELEASE   -
|  1> ! RI PBE def2-SVP def2-SVP/J NBO PAL2
|  2> % maxcore 2000
|  3> % output
|  4>     # printlevel mini
|  5>     print[ P_Basis ] 0
|  6>     print[ P_SCFInfo ] 1
|  7>     print[ P_SCFIterInfo ] 1
|  8>     print[ P_OrbEn ] 0
|  9>     print[ P_Cartesian ] 0
| 10> end
| 11> *xyz 0 1
| 12>  C        3.5937880000    -0.0207850000     1.2483680000
| 13>  C        2.9724640000    -0.1449330000    -0.1384800000
| 14>  C        3.3263470000     1.0007770000    -1.0477590000
| 15>  C        2.3922030000     1.8179320000    -1.5329320000
| 16>  C        4.7553190000     1.1862930000    -1.3946020000
| 17>  C        5.5203280000    -0.0293080000    -1.8281580000
| 18>  C        5.3339640000     2.3841390000    -1.3192990000
| 19>  H        3.3292940000    -0.8772630000     1.8726770000
| 20>  H        3.2447690000     0.8854000000     1.7488030000
| 21>  H        4.6837720000     0.0339940000     1.1956230000
| 22>  H        1.8843680000    -0.2037330000    -0.0542770000
| 23>  H        3.2972880000    -1.0865090000    -0.5962720000
| 24>  H        1.3464900000     1.6927310000    -1.2720870000
| 25>  H        2.6443660000     2.6225340000    -2.2137850000
| 26>  H        5.0284740000    -0.5214070000    -2.6728570000
| 27>  H        5.5857230000    -0.7696120000    -1.0250380000
| 28>  H        6.5356580000     0.2354330000    -2.1249280000
| 29>  H        4.7882340000     3.2517530000    -0.9677170000
| 30>  H        6.3730510000     2.5257760000    -1.5971700000
| 31> *
| 32>
| 33>                          ****END OF INPUT****
 Total Charge           Charge          ....    0
 Multiplicity           Mult            ....    1
 Number of Electrons    NEL             ....   54
 Basis Dimension        Dim             ....  158

MULLIKEN ATOMIC CHARGES
-----------------------
   0 C :   -0.038683
   1 C :    0.037974
   2 C :   -0.094154
   3 C :   -0.039272
   4 C :   -0.139586
   5 C :    0.062815
   6 C :   -0.023588
   7 H :    0.025875
   8 H :    0.026084
   9 H :    0.035603
  10 H :    0.003855
  11 H :    0.013671
  12 H :    0.010048
  13 H :    0.017954
  14 H :    0.032454
  15 H :    0.037941
  16 H :    0.010750
  17 H :    0.013128
  18 H :    0.007132
Sum of atomic charges:   -0.0000000

LOEWDIN ATOMIC CHARGES
----------------------
   0 C :   -0.064516
   1 C :   -0.036468
   2 C :   -0.022538
   3 C :   -0.061880
   4 C :   -0.028042
   5 C :   -0.054692
   6 C :   -0.061780
   7 H :    0.027781
   8 H :    0.029025
   9 H :    0.027419
  10 H :    0.029309
  11 H :    0.029377
  12 H :    0.019637
  13 H :    0.022265
  14 H :    0.036517
  15 H :    0.035776
  16 H :    0.031798
  17 H :    0.021844
  18 H :    0.019171

  Mayer bond orders larger than 0.1
B(  0-C ,  1-C ) :   1.1045 B(  0-C ,  7-H ) :   0.9611 B(  0-C ,  8-H ) :   0.9629
B(  0-C ,  9-H ) :   0.9628 B(  1-C ,  2-C ) :   1.0678 B(  1-C , 10-H ) :   0.9165
B(  1-C , 11-H ) :   0.9119 B(  2-C ,  3-C ) :   1.9606 B(  2-C ,  4-C ) :   1.0051
B(  3-C , 12-H ) :   0.9288 B(  3-C , 13-H ) :   0.9368 B(  4-C ,  5-C ) :   1.0856
B(  4-C ,  6-C ) :   1.9579 B(  5-C , 14-H ) :   0.9442 B(  5-C , 15-H ) :   0.9354
B(  5-C , 16-H ) :   0.9437 B(  6-C , 17-H ) :   0.9371 B(  6-C , 18-H ) :   0.9281

FINAL SINGLE POINT ENERGY      -273.342993393293

DIPOLE MOMENT
-------------
                                X             Y             Z
Electronic contribution:     -0.69341       2.04958      -2.06413
Nuclear contribution   :      0.75661      -2.32060       2.13307
                        -----------------------------------------
Total Dipole Moment    :      0.06320      -0.27102       0.06894
                        -----------------------------------------
Magnitude (a.u.)       :      0.28670
Magnitude (Debye)      :      0.72874

                             ****ORCA TERMINATED NORMALLY****
TOTAL RUN TIME: 0 days 0 hours 0 minutes 8 seconds 243 msec
