                         Program Version 3.0.3 - RELEASE   -
|  1> ! RI PBE def2-SVP def2-SVP/J NBO PAL2
|  2> % maxcore 2000
|  3> % output
|  4>     # printlevel mini
|  5>     print[ P_Basis ] 0
|  6>     print[ P_SCFInfo ] 1
|  7>     print[ P_SCFIterInfo ] 1
|  8>     print[ P_OrbEn ] 0
|  9>     print[ P_Cartesian ] 0
| 10> end
| 11> *xyz 0 1
| 12>  C        1.0852790000     0.5113080000    -0.1294060000
| 13>  C        2.5102640000     0.0375630000     0.0786930000
| 14>  C        2.7444590000    -1.4412800000    -0.0284900000
| 15>  C        1.7815570000    -2.3276960000    -0.2616690000
| 16>  C        4.1792720000    -1.8784460000     0.1401900000
| 17>  C        5.0549630000    -1.4519090000    -0.9984080000
| 18>  C        6.1254930000    -0.6776440000    -0.8914950000
| 19>  H        1.0250990000     1.5972740000    -0.0322510000
| 20>  H        0.4053120000     0.0743100000     0.6059180000
| 21>  H        0.7179580000     0.2458310000    -1.1236630000
| 22>  H        2.8661390000     0.3613590000     1.0662220000
| 23>  H        3.1774020000     0.5389490000    -0.6331320000
| 24>  H        0.7473790000    -2.0345600000    -0.3963700000
| 25>  H        2.0008710000    -3.3882500000    -0.3234060000
| 26>  H        4.2056690000    -2.9700290000     0.2231930000
| 27>  H        4.5840720000    -1.4709200000     1.0740210000
| 28>  H        4.7610090000    -1.8219030000    -1.9792230000
| 29>  H        6.4476450000    -0.2865650000     0.0690100000
| 30>  H        6.7216580000    -0.4106830000    -1.7565370000
| 31> *
| 32>
| 33>                          ****END OF INPUT****
 Total Charge           Charge          ....    0
 Multiplicity           Mult            ....    1
 Number of Electrons    NEL             ....   54
 Basis Dimension        Dim             ....  158

MULLIKEN ATOMIC CHARGES
-----------------------
   0 C :   -0.036685
   1 C :    0.058690
   2 C :   -0.193563
   3 C :   -0.039071
   4 C :    0.140314
   5 C :   -0.093278
   6 C :   -0.026057
   7 H :    0.024177
   8 H :    0.030055
   9 H :    0.025822
  10 H :    0.008709
  11 H :    0.024974
  12 H :    0.009883
  13 H :    0.005143
  14 H :    0.015921
  15 H :   -0.000692
  16 H :    0.003769
  17 H :    0.015787
  18 H :    0.026101
Sum of atomic charges:    0.0000000

LOEWDIN ATOMIC CHARGES
----------------------
   0 C :   -0.066923
   1 C :   -0.042305
   2 C :   -0.024216
   3 C :   -0.083176
   4 C :   -0.031273
   5 C :   -0.024144
   6 C :   -0.066649
   7 H :    0.029829
   8 H :    0.027317
   9 H :    0.027017
  10 H :    0.034416
  11 H :    0.037171
  12 H :    0.019521
  13 H :    0.019724
  14 H :    0.039031
  15 H :    0.031557
  16 H :    0.026878
  17 H :    0.020992
  18 H :    0.025234

  Mayer bond orders larger than 0.1
B(  0-C ,  1-C ) :   1.1439 B(  0-C ,  7-H ) :   0.9564 B(  0-C ,  8-H ) :   0.9581
B(  0-C ,  9-H ) :   0.9594 B(  1-C ,  2-C ) :   1.0350 B(  1-C , 10-H ) :   0.9049
B(  1-C , 11-H ) :   0.9063 B(  2-C ,  3-C ) :   1.9918 B(  2-C ,  4-C ) :   1.0491
B(  3-C , 12-H ) :   0.9212 B(  3-C , 13-H ) :   0.9285 B(  4-C ,  5-C ) :   1.0617
B(  4-C , 14-H ) :   0.8979 B(  4-C , 15-H ) :   0.9089 B(  5-C ,  6-C ) :   1.9942
B(  5-C , 16-H ) :   0.9553 B(  6-C , 17-H ) :   0.9474 B(  6-C , 18-H ) :   0.9425

FINAL SINGLE POINT ENERGY      -273.337968129927

DIPOLE MOMENT
-------------
                                X             Y             Z
Electronic contribution:      2.16970      -2.19539      -0.26821
Nuclear contribution   :     -2.12707       2.31770       0.30973
                        -----------------------------------------
Total Dipole Moment    :      0.04263       0.12231       0.04152
                        -----------------------------------------
Magnitude (a.u.)       :      0.13602
Magnitude (Debye)      :      0.34573

                             ****ORCA TERMINATED NORMALLY****
TOTAL RUN TIME: 0 days 0 hours 0 minutes 7 seconds 923 msec
