                         Program Version 3.0.3 - RELEASE   -
|  1> ! RI PBE def2-SVP def2-SVP/J NBO PAL2
|  2> % maxcore 2000
|  3> % output
|  4>     # printlevel mini
|  5>     print[ P_Basis ] 0
|  6>     print[ P_SCFInfo ] 1
|  7>     print[ P_SCFIterInfo ] 1
|  8>     print[ P_OrbEn ] 0
|  9>     print[ P_Cartesian ] 0
| 10> end
| 11> *xyz 0 1
| 12>  C        2.9960810000     1.1982730000    -0.4747330000
| 13>  C        2.4113370000    -0.0633070000     0.1525190000
| 14>  C        2.7974960000    -0.2627990000     1.5877980000
| 15>  C        1.9023850000    -0.3156990000     2.5673390000
| 16>  C        4.2736140000    -0.3850780000     1.8955660000
| 17>  C        4.9480330000    -1.4228740000     1.1286840000
| 18>  C        5.4987290000    -2.2793920000     0.4928460000
| 19>  H        2.6450930000     1.3125510000    -1.5024860000
| 20>  H        4.0875250000     1.1648210000    -0.5070530000
| 21>  H        2.6998280000     2.0899580000     0.0835220000
| 22>  H        2.7472680000    -0.9331290000    -0.4237440000
| 23>  H        1.3208230000    -0.0393510000     0.0841990000
| 24>  H        0.8420920000    -0.2072790000     2.3662970000
| 25>  H        2.1949760000    -0.4715790000     3.6001760000
| 26>  H        4.4082000000    -0.5789860000     2.9632070000
| 27>  H        4.7695020000     0.5717830000     1.6898230000
| 28>  H        5.9896080000    -3.0407030000    -0.0656810000
| 29> *
| 30>
| 31>                          ****END OF INPUT****
 Total Charge           Charge          ....    0
 Multiplicity           Mult            ....    1
 Number of Electrons    NEL             ....   52
 Basis Dimension        Dim             ....  148

MULLIKEN ATOMIC CHARGES
-----------------------
   0 C :   -0.040812
   1 C :    0.045967
   2 C :   -0.169173
   3 C :   -0.044311
   4 C :    0.156405
   5 C :    0.304780
   6 C :   -0.479300
   7 H :    0.023452
   8 H :    0.035008
   9 H :    0.022385
  10 H :    0.036837
  11 H :    0.008009
  12 H :    0.014529
  13 H :    0.010513
  14 H :    0.030007
  15 H :    0.048625
  16 H :   -0.002923
Sum of atomic charges:   -0.0000000

LOEWDIN ATOMIC CHARGES
----------------------
   0 C :   -0.063264
   1 C :   -0.039374
   2 C :   -0.015847
   3 C :   -0.072628
   4 C :   -0.038796
   5 C :   -0.019053
   6 C :   -0.089437
   7 H :    0.030107
   8 H :    0.027069
   9 H :    0.026035
  10 H :    0.039106
  11 H :    0.030268
  12 H :    0.022313
  13 H :    0.020269
  14 H :    0.053315
  15 H :    0.055693
  16 H :    0.034225

  Mayer bond orders larger than 0.1
B(  0-C ,  1-C ) :   1.1065 B(  0-C ,  7-H ) :   0.9574 B(  0-C ,  8-H ) :   0.9643
B(  0-C ,  9-H ) :   0.9658 B(  1-C ,  2-C ) :   1.0711 B(  1-C , 10-H ) :   0.9061
B(  1-C , 11-H ) :   0.9197 B(  2-C ,  3-C ) :   1.9943 B(  2-C ,  4-C ) :   1.0276
B(  3-C , 12-H ) :   0.9344 B(  3-C , 13-H ) :   0.9325 B(  4-C ,  5-C ) :   1.0432
B(  4-C , 14-H ) :   0.8831 B(  4-C , 15-H ) :   0.8848 B(  5-C ,  6-C ) :   2.3568
B(  5-C , 16-H ) :  -0.1116 B(  6-C , 16-H ) :   1.1028

FINAL SINGLE POINT ENERGY      -272.093385597423

DIPOLE MOMENT
-------------
                                X             Y             Z
Electronic contribution:      3.11445      -3.91881       1.78876
Nuclear contribution   :     -3.15258       4.11514      -1.85289
                        -----------------------------------------
Total Dipole Moment    :     -0.03812       0.19633      -0.06413
                        -----------------------------------------
Magnitude (a.u.)       :      0.21003
Magnitude (Debye)      :      0.53384

                             ****ORCA TERMINATED NORMALLY****
TOTAL RUN TIME: 0 days 0 hours 0 minutes 7 seconds 710 msec
