                         Program Version 3.0.3 - RELEASE   -
|  1> ! RI PBE def2-SVP def2-SVP/J NBO PAL2
|  2> % maxcore 2000
|  3> % output
|  4>     # printlevel mini
|  5>     print[ P_Basis ] 0
|  6>     print[ P_SCFInfo ] 1
|  7>     print[ P_SCFIterInfo ] 1
|  8>     print[ P_OrbEn ] 0
|  9>     print[ P_Cartesian ] 0
| 10> end
| 11> *xyz 0 1
| 12>  C        2.1395250000     1.4912640000    -0.3540350000
| 13>  C        2.6158660000     0.0447190000    -0.2470780000
| 14>  C        3.2137410000    -0.4863980000    -1.5232380000
| 15>  C        2.3144340000    -0.8640700000    -2.6083630000
| 16>  C        0.9818630000    -0.8850130000    -2.5570190000
| 17>  C        4.5483430000    -0.5889950000    -1.6336620000
| 18>  C        5.3594670000    -1.0561570000    -2.7918780000
| 19>  H        1.6919790000     1.8245680000     0.5856180000
| 20>  H        1.3962050000     1.6138500000    -1.1437860000
| 21>  H        2.9766860000     2.1547980000    -0.5829940000
| 22>  H        1.7816970000    -0.5938540000     0.0626200000
| 23>  H        3.3648860000    -0.0275760000     0.5460560000
| 24>  H        2.7818860000    -1.1637250000    -3.5409510000
| 25>  H        0.4270200000    -0.6039750000    -1.6694070000
| 26>  H        0.3984690000    -1.1935240000    -3.4161530000
| 27>  H        5.1326680000    -0.2965890000    -0.7624580000
| 28>  H        4.7651070000    -1.3292690000    -3.6624980000
| 29>  H        5.9603470000    -1.9279980000    -2.5118080000
| 30>  H        6.0684120000    -0.2803570000    -3.0997640000
| 31> *
| 32>
| 33>                          ****END OF INPUT****
 Total Charge           Charge          ....    0
 Multiplicity           Mult            ....    1
 Number of Electrons    NEL             ....   54
 Basis Dimension        Dim             ....  158

MULLIKEN ATOMIC CHARGES
-----------------------
   0 C :   -0.010304
   1 C :    0.004052
   2 C :   -0.021196
   3 C :   -0.021895
   4 C :   -0.043140
   5 C :   -0.146741
   6 C :    0.059107
   7 H :    0.020109
   8 H :    0.024840
   9 H :    0.018057
  10 H :    0.017452
  11 H :    0.004265
  12 H :   -0.024665
  13 H :    0.022380
  14 H :    0.021896
  15 H :   -0.012107
  16 H :    0.019011
  17 H :    0.034241
  18 H :    0.034639
Sum of atomic charges:   -0.0000000

LOEWDIN ATOMIC CHARGES
----------------------
   0 C :   -0.062598
   1 C :   -0.038029
   2 C :   -0.044818
   3 C :   -0.027576
   4 C :   -0.060894
   5 C :   -0.032763
   6 C :   -0.067056
   7 H :    0.025947
   8 H :    0.025532
   9 H :    0.026090
  10 H :    0.028044
  11 H :    0.028042
  12 H :    0.025236
  13 H :    0.020132
  14 H :    0.024757
  15 H :    0.021904
  16 H :    0.028160
  17 H :    0.040188
  18 H :    0.039700

  Mayer bond orders larger than 0.1
B(  0-C ,  1-C ) :   1.1126 B(  0-C ,  7-H ) :   0.9610 B(  0-C ,  8-H ) :   0.9654
B(  0-C ,  9-H ) :   0.9619 B(  1-C ,  2-C ) :   1.0716 B(  1-C , 10-H ) :   0.9067
B(  1-C , 11-H ) :   0.9202 B(  2-C ,  3-C ) :   1.1289 B(  2-C ,  5-C ) :   1.7871
B(  3-C ,  4-C ) :   1.9073 B(  3-C , 12-H ) :   0.9440 B(  4-C ,  5-C ) :   0.1322
B(  4-C , 13-H ) :   0.9338 B(  4-C , 14-H ) :   0.9370 B(  5-C ,  6-C ) :   1.1030
B(  5-C , 15-H ) :   0.9330 B(  6-C , 16-H ) :   0.9493 B(  6-C , 17-H ) :   0.9392
B(  6-C , 18-H ) :   0.9408

FINAL SINGLE POINT ENERGY      -273.347112560202

DIPOLE MOMENT
-------------
                                X             Y             Z
Electronic contribution:     -0.15219      -1.80390      -0.73519
Nuclear contribution   :      0.36775       1.80091       0.72815
                        -----------------------------------------
Total Dipole Moment    :      0.21556      -0.00299      -0.00703
                        -----------------------------------------
Magnitude (a.u.)       :      0.21570
Magnitude (Debye)      :      0.54826

                             ****ORCA TERMINATED NORMALLY****
TOTAL RUN TIME: 0 days 0 hours 0 minutes 8 seconds 497 msec
