                         Program Version 3.0.3 - RELEASE   -
|  1> ! RI PBE def2-SVP def2-SVP/J NBO PAL2
|  2> % maxcore 2000
|  3> % output
|  4>     # printlevel mini
|  5>     print[ P_Basis ] 0
|  6>     print[ P_SCFInfo ] 1
|  7>     print[ P_SCFIterInfo ] 1
|  8>     print[ P_OrbEn ] 0
|  9>     print[ P_Cartesian ] 0
| 10> end
| 11> *xyz 0 1
| 12>  C        2.7503340000    -0.8722770000    -1.2649990000
| 13>  C        2.5202380000     0.0467900000    -0.0705810000
| 14>  C        2.9693910000     1.4619820000    -0.3289480000
| 15>  C        2.1635670000     2.5260240000    -0.4616070000
| 16>  C        0.6790030000     2.5584490000    -0.3833730000
| 17>  C        4.3799850000     1.6406890000    -0.4490520000
| 18>  C        5.5763140000     1.7436120000    -0.5382830000
| 19>  H        2.4599970000    -1.8980580000    -1.0269380000
| 20>  H        3.8029750000    -0.8769360000    -1.5556270000
| 21>  H        2.1663320000    -0.5449310000    -2.1284020000
| 22>  H        3.0769570000    -0.3361850000     0.7909670000
| 23>  H        1.4658170000     0.0362980000     0.2097640000
| 24>  H        2.6440450000     3.4826300000    -0.6499610000
| 25>  H        0.2328360000     1.5793980000    -0.2136180000
| 26>  H        0.2580990000     2.9644490000    -1.3091670000
| 27>  H        0.3514180000     3.2254670000     0.4211340000
| 28>  H        6.6317900000     1.8512990000    -0.6193090000
| 29> *
| 30>
| 31>                          ****END OF INPUT****
 Total Charge           Charge          ....    0
 Multiplicity           Mult            ....    1
 Number of Electrons    NEL             ....   52
 Basis Dimension        Dim             ....  148

MULLIKEN ATOMIC CHARGES
-----------------------
   0 C :   -0.016635
   1 C :    0.059556
   2 C :   -0.135854
   3 C :   -0.093279
   4 C :    0.049647
   5 C :    0.422830
   6 C :   -0.474496
   7 H :    0.022225
   8 H :    0.034272
   9 H :    0.020257
  10 H :    0.021532
  11 H :   -0.002766
  12 H :   -0.001008
  13 H :    0.018963
  14 H :    0.036596
  15 H :    0.039547
  16 H :   -0.001388
Sum of atomic charges:    0.0000000

LOEWDIN ATOMIC CHARGES
----------------------
   0 C :   -0.058748
   1 C :   -0.029637
   2 C :   -0.061636
   3 C :   -0.016313
   4 C :   -0.065789
   5 C :   -0.007816
   6 C :   -0.083556
   7 H :    0.026978
   8 H :    0.030254
   9 H :    0.026758
  10 H :    0.036709
  11 H :    0.024881
  12 H :    0.031114
  13 H :    0.029005
  14 H :    0.041951
  15 H :    0.042179
  16 H :    0.033666

  Mayer bond orders larger than 0.1
B(  0-C ,  1-C ) :   1.1152 B(  0-C ,  7-H ) :   0.9606 B(  0-C ,  8-H ) :   0.9663
B(  0-C ,  9-H ) :   0.9612 B(  1-C ,  2-C ) :   1.0687 B(  1-C , 10-H ) :   0.9116
B(  1-C , 11-H ) :   0.9100 B(  2-C ,  3-C ) :   1.8216 B(  2-C ,  5-C ) :   1.0151
B(  3-C ,  4-C ) :   1.0937 B(  3-C ,  6-C ) :   0.1203 B(  3-C , 12-H ) :   0.9397
B(  4-C , 13-H ) :   0.9532 B(  4-C , 14-H ) :   0.9389 B(  4-C , 15-H ) :   0.9410
B(  5-C ,  6-C ) :   2.2453 B(  5-C , 16-H ) :  -0.1092 B(  6-C , 16-H ) :   1.0998

FINAL SINGLE POINT ENERGY      -272.103464299399

DIPOLE MOMENT
-------------
                                X             Y             Z
Electronic contribution:      5.44769       2.93541       0.91294
Nuclear contribution   :     -5.83503      -2.95228      -0.90951
                        -----------------------------------------
Total Dipole Moment    :     -0.38734      -0.01687       0.00343
                        -----------------------------------------
Magnitude (a.u.)       :      0.38772
Magnitude (Debye)      :      0.98551

                             ****ORCA TERMINATED NORMALLY****
TOTAL RUN TIME: 0 days 0 hours 0 minutes 7 seconds 397 msec
