                         Program Version 3.0.3 - RELEASE   -
|  1> ! RI PBE def2-SVP def2-SVP/J NBO PAL2
|  2> % maxcore 2000
|  3> % output
|  4>     # printlevel mini
|  5>     print[ P_Basis ] 0
|  6>     print[ P_SCFInfo ] 1
|  7>     print[ P_SCFIterInfo ] 1
|  8>     print[ P_OrbEn ] 0
|  9>     print[ P_Cartesian ] 0
| 10> end
| 11> *xyz 0 1
| 12>  C        1.2559260000     0.5505750000     0.1033510000
| 13>  C        2.7568560000     0.4787490000    -0.1144010000
| 14>  C        3.1901890000    -0.6627960000    -1.0506330000
| 15>  C        2.6535950000    -0.4606290000    -2.4369250000
| 16>  C        1.8194050000    -1.2762990000    -3.0649600000
| 17>  C        4.6870300000    -0.7565640000    -1.0911700000
| 18>  C        5.3990240000    -1.7934800000    -0.6747870000
| 19>  H        0.9968480000     1.3703450000     0.7772240000
| 20>  H        0.8795960000    -0.3756170000     0.5470480000
| 21>  H        0.7223270000     0.7045340000    -0.8370540000
| 22>  H        3.2676590000     0.3428980000     0.8439340000
| 23>  H        3.1221690000     1.4280330000    -0.5241700000
| 24>  H        2.7920340000    -1.6051230000    -0.6558800000
| 25>  H        2.9970230000     0.4410300000    -2.9443070000
| 26>  H        1.4557170000    -2.1857900000    -2.5965920000
| 27>  H        1.4722980000    -1.0687370000    -4.0706640000
| 28>  H        5.2024910000     0.1160640000    -1.4915050000
| 29>  H        4.9235900000    -2.6831870000    -0.2731010000
| 30>  H        6.4819220000    -1.7936170000    -0.7213180000
| 31> *
| 32>
| 33>                          ****END OF INPUT****
 Total Charge           Charge          ....    0
 Multiplicity           Mult            ....    1
 Number of Electrons    NEL             ....   54
 Basis Dimension        Dim             ....  158

MULLIKEN ATOMIC CHARGES
-----------------------
   0 C :    0.005411
   1 C :   -0.018688
   2 C :   -0.013678
   3 C :   -0.038888
   4 C :   -0.023556
   5 C :   -0.018725
   6 C :   -0.035275
   7 H :    0.022153
   8 H :    0.014614
   9 H :    0.022756
  10 H :    0.014519
  11 H :    0.005293
  12 H :   -0.014413
  13 H :    0.000874
  14 H :    0.015506
  15 H :    0.022581
  16 H :   -0.002403
  17 H :    0.015587
  18 H :    0.026331
Sum of atomic charges:    0.0000000

LOEWDIN ATOMIC CHARGES
----------------------
   0 C :   -0.066732
   1 C :   -0.031889
   2 C :   -0.041624
   3 C :   -0.015903
   4 C :   -0.062829
   5 C :   -0.013758
   6 C :   -0.066066
   7 H :    0.027901
   8 H :    0.024975
   9 H :    0.026166
  10 H :    0.026551
  11 H :    0.021689
  12 H :    0.028731
  13 H :    0.024714
  14 H :    0.021791
  15 H :    0.024910
  16 H :    0.023990
  17 H :    0.021890
  18 H :    0.025494

  Mayer bond orders larger than 0.1
B(  0-C ,  1-C ) :   1.1170 B(  0-C ,  7-H ) :   0.9607 B(  0-C ,  8-H ) :   0.9623
B(  0-C ,  9-H ) :   0.9571 B(  1-C ,  2-C ) :   1.0300 B(  1-C , 10-H ) :   0.9342
B(  1-C , 11-H ) :   0.9343 B(  2-C ,  3-C ) :   0.9942 B(  2-C ,  5-C ) :   1.0137
B(  2-C , 12-H ) :   0.9106 B(  3-C ,  4-C ) :   2.0147 B(  3-C , 13-H ) :   0.9510
B(  4-C , 14-H ) :   0.9455 B(  4-C , 15-H ) :   0.9403 B(  5-C ,  6-C ) :   2.0233
B(  5-C , 16-H ) :   0.9476 B(  6-C , 17-H ) :   0.9445 B(  6-C , 18-H ) :   0.9420

FINAL SINGLE POINT ENERGY      -273.332492839917

DIPOLE MOMENT
-------------
                                X             Y             Z
Electronic contribution:      2.40635      -1.04436      -1.84640
Nuclear contribution   :     -2.45451       1.15776       1.91331
                        -----------------------------------------
Total Dipole Moment    :     -0.04816       0.11340       0.06691
                        -----------------------------------------
Magnitude (a.u.)       :      0.14020
Magnitude (Debye)      :      0.35635

                             ****ORCA TERMINATED NORMALLY****
TOTAL RUN TIME: 0 days 0 hours 0 minutes 8 seconds 496 msec
