                         Program Version 3.0.3 - RELEASE   -
|  1> ! RI PBE def2-SVP def2-SVP/J NBO PAL2
|  2> % maxcore 2000
|  3> % output
|  4>     # printlevel mini
|  5>     print[ P_Basis ] 0
|  6>     print[ P_SCFInfo ] 1
|  7>     print[ P_SCFIterInfo ] 1
|  8>     print[ P_OrbEn ] 0
|  9>     print[ P_Cartesian ] 0
| 10> end
| 11> *xyz 0 1
| 12>  C        2.8577060000    -0.0145810000     1.5773990000
| 13>  C        2.4700240000    -0.1072890000     0.1133490000
| 14>  C        3.0486840000    -1.3448730000    -0.5976030000
| 15>  C        2.5563960000    -1.4305390000    -2.0167130000
| 16>  C        1.7621400000    -2.3840830000    -2.4775310000
| 17>  C        4.5087240000    -1.3391050000    -0.5707300000
| 18>  C        5.7095030000    -1.3159290000    -0.5661160000
| 19>  H        2.4199000000     0.8726610000     2.0397060000
| 20>  H        3.9418940000     0.0431340000     1.6944070000
| 21>  H        2.5071780000    -0.8877360000     2.1348750000
| 22>  H        2.8020880000     0.7876890000    -0.4222930000
| 23>  H        1.3819350000    -0.1523180000     0.0099950000
| 24>  H        2.7040880000    -2.2377420000    -0.0605670000
| 25>  H        2.8865220000    -0.6298660000    -2.6747460000
| 26>  H        1.4270180000    -3.1999630000    -1.8443630000
| 27>  H        1.4202590000    -2.3872680000    -3.5058550000
| 28>  H        6.7736600000    -1.3049850000    -0.5617360000
| 29> *
| 30>
| 31>                          ****END OF INPUT****
 Total Charge           Charge          ....    0
 Multiplicity           Mult            ....    1
 Number of Electrons    NEL             ....   52
 Basis Dimension        Dim             ....  148

MULLIKEN ATOMIC CHARGES
-----------------------
   0 C :   -0.002571
   1 C :   -0.015645
   2 C :   -0.025327
   3 C :   -0.017456
   4 C :   -0.029227
   5 C :    0.415168
   6 C :   -0.514416
   7 H :    0.022334
   8 H :    0.035492
   9 H :    0.016583
  10 H :    0.016331
  11 H :    0.024232
  12 H :    0.021177
  13 H :    0.010285
  14 H :    0.020453
  15 H :    0.027807
  16 H :   -0.005220
Sum of atomic charges:   -0.0000000

LOEWDIN ATOMIC CHARGES
----------------------
   0 C :   -0.066094
   1 C :   -0.026308
   2 C :   -0.048449
   3 C :   -0.008229
   4 C :   -0.058587
   5 C :   -0.008194
   6 C :   -0.088393
   7 H :    0.029345
   8 H :    0.031180
   9 H :    0.025824
  10 H :    0.027379
  11 H :    0.028774
  12 H :    0.047469
  13 H :    0.029691
  14 H :    0.023242
  15 H :    0.027405
  16 H :    0.033946

  Mayer bond orders larger than 0.1
B(  0-C ,  1-C ) :   1.1173 B(  0-C ,  7-H ) :   0.9591 B(  0-C ,  8-H ) :   0.9594
B(  0-C ,  9-H ) :   0.9618 B(  1-C ,  2-C ) :   1.0397 B(  1-C , 10-H ) :   0.9298
B(  1-C , 11-H ) :   0.9364 B(  2-C ,  3-C ) :   1.0119 B(  2-C ,  5-C ) :   0.9779
B(  2-C , 12-H ) :   0.8781 B(  3-C ,  4-C ) :   2.0143 B(  3-C , 13-H ) :   0.9514
B(  4-C , 14-H ) :   0.9465 B(  4-C , 15-H ) :   0.9412 B(  5-C ,  6-C ) :   2.3061
B(  5-C , 16-H ) :  -0.1237 B(  6-C , 16-H ) :   1.1144

FINAL SINGLE POINT ENERGY      -272.089089502439

DIPOLE MOMENT
-------------
                                X             Y             Z
Electronic contribution:      3.53792      -1.79158      -2.68297
Nuclear contribution   :     -3.74350       1.87764       2.75801
                        -----------------------------------------
Total Dipole Moment    :     -0.20558       0.08606       0.07504
                        -----------------------------------------
Magnitude (a.u.)       :      0.23516
Magnitude (Debye)      :      0.59773

                             ****ORCA TERMINATED NORMALLY****
TOTAL RUN TIME: 0 days 0 hours 0 minutes 7 seconds 394 msec
