                         Program Version 3.0.3 - RELEASE   -
|  1> ! RI PBE def2-SVP def2-SVP/J NBO PAL2
|  2> % maxcore 2000
|  3> % output
|  4>     # printlevel mini
|  5>     print[ P_Basis ] 0
|  6>     print[ P_SCFInfo ] 1
|  7>     print[ P_SCFIterInfo ] 1
|  8>     print[ P_OrbEn ] 0
|  9>     print[ P_Cartesian ] 0
| 10> end
| 11> *xyz 0 1
| 12>  C        2.3027060000     0.7616790000     1.1644490000
| 13>  C        2.5827190000    -0.1132730000    -0.0546500000
| 14>  C        3.1006010000    -1.4836790000     0.3083680000
| 15>  C        2.0001810000    -2.4743960000     0.5527640000
| 16>  C        4.4065590000    -1.7667060000     0.4132430000
| 17>  C        5.4912290000    -0.7509080000     0.2022900000
| 18>  C        4.9559340000    -3.1204540000     0.7527680000
| 19>  H        1.8649320000     1.7199170000     0.8727880000
| 20>  H        3.2232850000     0.9628790000     1.7174180000
| 21>  H        1.6068900000     0.2744900000     1.8524260000
| 22>  H        3.2724530000     0.4053950000    -0.7234700000
| 23>  H        1.6537510000    -0.2365400000    -0.6228250000
| 24>  H        1.2361390000    -2.0374250000     1.2043840000
| 25>  H        2.3312200000    -3.4013120000     1.0165510000
| 26>  H        1.4942500000    -2.7280650000    -0.3860880000
| 27>  H        5.1229900000     0.2603900000     0.0420940000
| 28>  H        6.1175890000    -1.0248150000    -0.6546670000
| 29>  H        6.1574160000    -0.7259450000     1.0718510000
| 30>  H        4.2006820000    -3.9000150000     0.8236270000
| 31>  H        5.5017620000    -3.0905760000     1.7028950000
| 32>  H        5.6818000000    -3.4318300000    -0.0068050000
| 33> *
| 34>
| 35>                          ****END OF INPUT****
 Total Charge           Charge          ....    0
 Multiplicity           Mult            ....    1
 Number of Electrons    NEL             ....   56
 Basis Dimension        Dim             ....  168

MULLIKEN ATOMIC CHARGES
-----------------------
   0 C :   -0.001639
   1 C :   -0.000300
   2 C :   -0.174115
   3 C :    0.059913
   4 C :   -0.199871
   5 C :    0.046000
   6 C :    0.047545
   7 H :    0.018496
   8 H :    0.018156
   9 H :    0.015000
  10 H :    0.013526
  11 H :   -0.002430
  12 H :    0.017353
  13 H :    0.010902
  14 H :    0.024219
  15 H :    0.012392
  16 H :    0.021856
  17 H :    0.022479
  18 H :    0.009207
  19 H :    0.020714
  20 H :    0.020597
Sum of atomic charges:    0.0000000

LOEWDIN ATOMIC CHARGES
----------------------
   0 C :   -0.060065
   1 C :   -0.041239
   2 C :   -0.055433
   3 C :   -0.058635
   4 C :   -0.058394
   5 C :   -0.060175
   6 C :   -0.060123
   7 H :    0.024914
   8 H :    0.024283
   9 H :    0.023456
  10 H :    0.024794
  11 H :    0.025537
  12 H :    0.030663
  13 H :    0.024707
  14 H :    0.034238
  15 H :    0.025125
  16 H :    0.033136
  17 H :    0.033287
  18 H :    0.024682
  19 H :    0.032634
  20 H :    0.032609

  Mayer bond orders larger than 0.1
B(  0-C ,  1-C ) :   1.1166 B(  0-C ,  7-H ) :   0.9577 B(  0-C ,  8-H ) :   0.9647
B(  0-C ,  9-H ) :   0.9598 B(  1-C ,  2-C ) :   1.0668 B(  1-C , 10-H ) :   0.9202
B(  1-C , 11-H ) :   0.9142 B(  2-C ,  3-C ) :   1.1099 B(  2-C ,  4-C ) :   1.8675
B(  3-C , 12-H ) :   0.9377 B(  3-C , 13-H ) :   0.9446 B(  3-C , 14-H ) :   0.9349
B(  4-C ,  5-C ) :   1.0968 B(  4-C ,  6-C ) :   1.0994 B(  5-C , 15-H ) :   0.9422
B(  5-C , 16-H ) :   0.9431 B(  5-C , 17-H ) :   0.9446 B(  6-C , 18-H ) :   0.9457
B(  6-C , 19-H ) :   0.9412 B(  6-C , 20-H ) :   0.9430

FINAL SINGLE POINT ENERGY      -274.565335627729

DIPOLE MOMENT
-------------
                                X             Y             Z
Electronic contribution:      0.18980      -0.75886      -0.98865
Nuclear contribution   :     -0.17248       0.75676       0.98948
                        -----------------------------------------
Total Dipole Moment    :      0.01732      -0.00210       0.00083
                        -----------------------------------------
Magnitude (a.u.)       :      0.01747
Magnitude (Debye)      :      0.04439

                             ****ORCA TERMINATED NORMALLY****
TOTAL RUN TIME: 0 days 0 hours 0 minutes 8 seconds 945 msec
