                         Program Version 3.0.3 - RELEASE   -
|  1> ! RI PBE def2-SVP def2-SVP/J NBO PAL2
|  2> % maxcore 2000
|  3> % output
|  4>     # printlevel mini
|  5>     print[ P_Basis ] 0
|  6>     print[ P_SCFInfo ] 1
|  7>     print[ P_SCFIterInfo ] 1
|  8>     print[ P_OrbEn ] 0
|  9>     print[ P_Cartesian ] 0
| 10> end
| 11> *xyz 0 1
| 12>  C        2.6532210000    -1.2628810000    -0.7371250000
| 13>  C        3.0174200000     0.0774790000    -0.1028330000
| 14>  C        2.8432210000     1.2538720000    -1.0198540000
| 15>  C        1.4409100000     1.5297880000    -1.4616570000
| 16>  C        3.9078930000     1.9823080000    -1.3906790000
| 17>  C        3.9260310000     3.1337310000    -2.2666310000
| 18>  C        5.0353390000     3.8010080000    -2.5902600000
| 19>  H        2.8248520000    -2.0810100000    -0.0339720000
| 20>  H        3.2592340000    -1.4494610000    -1.6270810000
| 21>  H        1.6026110000    -1.3003390000    -1.0330120000
| 22>  H        4.0534960000     0.0446710000     0.2448030000
| 23>  H        2.3922540000     0.2262950000     0.7874620000
| 24>  H        1.0684890000     0.7306590000    -2.1104460000
| 25>  H        1.3402650000     2.4685770000    -2.0031360000
| 26>  H        0.7708930000     1.5655600000    -0.5960240000
| 27>  H        4.8793490000     1.6861610000    -0.9978550000
| 28>  H        2.9822950000     3.4695190000    -2.6864530000
| 29>  H        6.0051640000     3.5054260000    -2.2023360000
| 30>  H        5.0093700000     4.6588460000    -3.2508940000
| 31> *
| 32>
| 33>                          ****END OF INPUT****
 Total Charge           Charge          ....    0
 Multiplicity           Mult            ....    1
 Number of Electrons    NEL             ....   54
 Basis Dimension        Dim             ....  158

MULLIKEN ATOMIC CHARGES
-----------------------
   0 C :   -0.039811
   1 C :    0.041413
   2 C :   -0.185280
   3 C :    0.073235
   4 C :    0.008505
   5 C :   -0.010747
   6 C :   -0.038399
   7 H :    0.026314
   8 H :    0.025146
   9 H :    0.022667
  10 H :    0.001226
  11 H :    0.018856
  12 H :    0.035711
  13 H :    0.012006
  14 H :    0.023535
  15 H :   -0.035231
  16 H :   -0.014293
  17 H :    0.013074
  18 H :    0.022075
Sum of atomic charges:    0.0000000

LOEWDIN ATOMIC CHARGES
----------------------
   0 C :   -0.063554
   1 C :   -0.036295
   2 C :   -0.025283
   3 C :   -0.057423
   4 C :   -0.057198
   5 C :   -0.034860
   6 C :   -0.059216
   7 H :    0.028738
   8 H :    0.027601
   9 H :    0.023254
  10 H :    0.026833
  11 H :    0.030925
  12 H :    0.038098
  13 H :    0.028665
  14 H :    0.036578
  15 H :    0.024236
  16 H :    0.025205
  17 H :    0.020334
  18 H :    0.023361

  Mayer bond orders larger than 0.1
B(  0-C ,  1-C ) :   1.1021 B(  0-C ,  7-H ) :   0.9599 B(  0-C ,  8-H ) :   0.9660
B(  0-C ,  9-H ) :   0.9645 B(  1-C ,  2-C ) :   1.0735 B(  1-C , 10-H ) :   0.9239
B(  1-C , 11-H ) :   0.9137 B(  2-C ,  3-C ) :   1.1034 B(  2-C ,  4-C ) :   1.7590
B(  2-C ,  6-C ) :   0.1295 B(  3-C , 12-H ) :   0.9377 B(  3-C , 13-H ) :   0.9382
B(  3-C , 14-H ) :   0.9361 B(  4-C ,  5-C ) :   1.1339 B(  4-C , 15-H ) :   0.9453
B(  5-C ,  6-C ) :   1.8899 B(  5-C , 16-H ) :   0.9528 B(  6-C , 17-H ) :   0.9495
B(  6-C , 18-H ) :   0.9422

FINAL SINGLE POINT ENERGY      -273.350209636743

DIPOLE MOMENT
-------------
                                X             Y             Z
Electronic contribution:      2.14218       3.46600      -0.62958
Nuclear contribution   :     -2.41021      -3.69190       0.73416
                        -----------------------------------------
Total Dipole Moment    :     -0.26803      -0.22589       0.10459
                        -----------------------------------------
Magnitude (a.u.)       :      0.36580
Magnitude (Debye)      :      0.92978

                             ****ORCA TERMINATED NORMALLY****
TOTAL RUN TIME: 0 days 0 hours 0 minutes 8 seconds 405 msec
