                         Program Version 3.0.3 - RELEASE   -
|  1> ! RI PBE def2-SVP def2-SVP/J NBO PAL2
|  2> % maxcore 2000
|  3> % output
|  4>     # printlevel mini
|  5>     print[ P_Basis ] 0
|  6>     print[ P_SCFInfo ] 1
|  7>     print[ P_SCFIterInfo ] 1
|  8>     print[ P_OrbEn ] 0
|  9>     print[ P_Cartesian ] 0
| 10> end
| 11> *xyz 0 1
| 12>  C        2.0924350000    -1.5869890000    -0.1560370000
| 13>  C        2.7291200000    -0.2202250000     0.0827360000
| 14>  C        3.0860670000     0.5099150000    -1.1770160000
| 15>  C        1.9677170000     0.8786120000    -2.0930540000
| 16>  C        4.3663750000     0.8105950000    -1.4448060000
| 17>  C        4.8200300000     1.4949420000    -2.5988630000
| 18>  C        5.2440040000     2.0734760000    -3.5667340000
| 19>  H        1.8790000000    -2.0810580000     0.7942210000
| 20>  H        2.7602770000    -2.2332580000    -0.7305610000
| 21>  H        1.1508730000    -1.5055790000    -0.7029640000
| 22>  H        3.6255300000    -0.3366600000     0.6976840000
| 23>  H        2.0300290000     0.3986260000     0.6599640000
| 24>  H        1.4946690000    -0.0149930000    -2.5122270000
| 25>  H        2.3135870000     1.4988020000    -2.9193290000
| 26>  H        1.1875400000     1.4194590000    -1.5471580000
| 27>  H        5.1354870000     0.5161140000    -0.7350000000
| 28>  H        5.6141610000     2.5841200000    -4.4236550000
| 29> *
| 30>
| 31>                          ****END OF INPUT****
 Total Charge           Charge          ....    0
 Multiplicity           Mult            ....    1
 Number of Electrons    NEL             ....   52
 Basis Dimension        Dim             ....  148

MULLIKEN ATOMIC CHARGES
-----------------------
   0 C :   -0.038412
   1 C :    0.024375
   2 C :   -0.181760
   3 C :    0.078033
   4 C :   -0.061365
   5 C :    0.381360
   6 C :   -0.428014
   7 H :    0.025939
   8 H :    0.031627
   9 H :    0.027470
  10 H :    0.008442
  11 H :    0.026808
  12 H :    0.032368
  13 H :    0.035380
  14 H :    0.027706
  15 H :    0.009068
  16 H :    0.000974
Sum of atomic charges:   -0.0000000

LOEWDIN ATOMIC CHARGES
----------------------
   0 C :   -0.062278
   1 C :   -0.038284
   2 C :   -0.002059
   3 C :   -0.056564
   4 C :   -0.077746
   5 C :   -0.019514
   6 C :   -0.081676
   7 H :    0.029773
   8 H :    0.029378
   9 H :    0.025131
  10 H :    0.028685
  11 H :    0.034559
  12 H :    0.040066
  13 H :    0.038797
  14 H :    0.038393
  15 H :    0.039417
  16 H :    0.033922

  Mayer bond orders larger than 0.1
B(  0-C ,  1-C ) :   1.1078 B(  0-C ,  7-H ) :   0.9581 B(  0-C ,  8-H ) :   0.9662
B(  0-C ,  9-H ) :   0.9638 B(  1-C ,  2-C ) :   1.0679 B(  1-C , 10-H ) :   0.9224
B(  1-C , 11-H ) :   0.9159 B(  2-C ,  3-C ) :   1.1144 B(  2-C ,  4-C ) :   1.7749
B(  2-C ,  6-C ) :   0.1251 B(  3-C , 12-H ) :   0.9312 B(  3-C , 13-H ) :   0.9315
B(  3-C , 14-H ) :   0.9377 B(  4-C ,  5-C ) :   1.0214 B(  4-C , 15-H ) :   0.9387
B(  5-C ,  6-C ) :   2.2486 B(  6-C , 16-H ) :   1.0876

FINAL SINGLE POINT ENERGY      -272.107103999148

DIPOLE MOMENT
-------------
                                X             Y             Z
Electronic contribution:      5.90961       4.32636      -3.32161
Nuclear contribution   :     -6.30931      -4.53388       3.54299
                        -----------------------------------------
Total Dipole Moment    :     -0.39969      -0.20751       0.22138
                        -----------------------------------------
Magnitude (a.u.)       :      0.50182
Magnitude (Debye)      :      1.27552

                             ****ORCA TERMINATED NORMALLY****
TOTAL RUN TIME: 0 days 0 hours 0 minutes 7 seconds 359 msec
