                         Program Version 3.0.3 - RELEASE   -
|  1> ! RI PBE def2-SVP def2-SVP/J NBO PAL2
|  2> % maxcore 2000
|  3> % output
|  4>     # printlevel mini
|  5>     print[ P_Basis ] 0
|  6>     print[ P_SCFInfo ] 1
|  7>     print[ P_SCFIterInfo ] 1
|  8>     print[ P_OrbEn ] 0
|  9>     print[ P_Cartesian ] 0
| 10> end
| 11> *xyz 0 1
| 12>  C        2.8649380000    -0.8437040000    -1.3065230000
| 13>  C        2.5129760000    -0.1022440000    -0.0278690000
| 14>  C        3.0663260000    -0.7116870000     1.2766970000
| 15>  C        2.5909130000     0.1649930000     2.4411910000
| 16>  C        2.5438830000    -2.1284700000     1.4776420000
| 17>  C        4.5696090000    -0.6497670000     1.2420690000
| 18>  C        5.4264040000    -1.6539810000     1.3644410000
| 19>  H        2.4861640000    -0.3059150000    -2.1788020000
| 20>  H        2.4308820000    -1.8458740000    -1.3284150000
| 21>  H        3.9465490000    -0.9483160000    -1.4217030000
| 22>  H        1.4231040000    -0.0335490000     0.0699670000
| 23>  H        2.8754260000     0.9302980000    -0.0979810000
| 24>  H        1.4980030000     0.1886920000     2.4809220000
| 25>  H        2.9455770000     1.1933930000     2.3298500000
| 26>  H        2.9603660000    -0.2180690000     3.3953150000
| 27>  H        1.4504960000    -2.1307970000     1.4701490000
| 28>  H        2.8715540000    -2.5335520000     2.4382870000
| 29>  H        2.8860120000    -2.8082760000     0.6949410000
| 30>  H        4.9687510000     0.3563110000     1.1079730000
| 31>  H        5.1019490000    -2.6797700000     1.4998910000
| 32>  H        6.4963070000    -1.4820080000     1.3349700000
| 33> *
| 34>
| 35>                          ****END OF INPUT****
 Total Charge           Charge          ....    0
 Multiplicity           Mult            ....    1
 Number of Electrons    NEL             ....   56
 Basis Dimension        Dim             ....  168

MULLIKEN ATOMIC CHARGES
-----------------------
   0 C :    0.008426
   1 C :    0.000772
   2 C :   -0.278147
   3 C :    0.068372
   4 C :    0.041833
   5 C :    0.005570
   6 C :   -0.034989
   7 H :    0.015836
   8 H :    0.015631
   9 H :    0.022501
  10 H :    0.007926
  11 H :    0.001687
  12 H :    0.014922
  13 H :    0.008246
  14 H :    0.015336
  15 H :    0.014517
  16 H :    0.019432
  17 H :    0.028459
  18 H :   -0.011462
  19 H :    0.014656
  20 H :    0.020477
Sum of atomic charges:   -0.0000000

LOEWDIN ATOMIC CHARGES
----------------------
   0 C :   -0.067926
   1 C :   -0.030247
   2 C :   -0.065379
   3 C :   -0.042119
   4 C :   -0.051354
   5 C :   -0.011583
   6 C :   -0.073273
   7 H :    0.027733
   8 H :    0.023459
   9 H :    0.026631
  10 H :    0.022481
  11 H :    0.021422
  12 H :    0.024240
  13 H :    0.022951
  14 H :    0.025582
  15 H :    0.027243
  16 H :    0.026608
  17 H :    0.024889
  18 H :    0.023061
  19 H :    0.020683
  20 H :    0.024899

  Mayer bond orders larger than 0.1
B(  0-C ,  1-C ) :   1.1184 B(  0-C ,  7-H ) :   0.9548 B(  0-C ,  8-H ) :   0.9560
B(  0-C ,  9-H ) :   0.9583 B(  1-C ,  2-C ) :   1.0172 B(  1-C , 10-H ) :   0.9327
B(  1-C , 11-H ) :   0.9300 B(  2-C ,  3-C ) :   1.0350 B(  2-C ,  4-C ) :   1.0771
B(  2-C ,  5-C ) :   0.9803 B(  3-C , 12-H ) :   0.9549 B(  3-C , 13-H ) :   0.9544
B(  3-C , 14-H ) :   0.9584 B(  4-C , 15-H ) :   0.9539 B(  4-C , 16-H ) :   0.9472
B(  4-C , 17-H ) :   0.9437 B(  5-C ,  6-C ) :   2.0124 B(  5-C , 18-H ) :   0.9529
B(  6-C , 19-H ) :   0.9281 B(  6-C , 20-H ) :   0.9374

FINAL SINGLE POINT ENERGY      -274.556466390770

DIPOLE MOMENT
-------------
                                X             Y             Z
Electronic contribution:      2.12903       0.43453       0.90428
Nuclear contribution   :     -2.25655      -0.37573      -0.91575
                        -----------------------------------------
Total Dipole Moment    :     -0.12752       0.05879      -0.01147
                        -----------------------------------------
Magnitude (a.u.)       :      0.14089
Magnitude (Debye)      :      0.35811

                             ****ORCA TERMINATED NORMALLY****
TOTAL RUN TIME: 0 days 0 hours 0 minutes 9 seconds 109 msec
