                         Program Version 3.0.3 - RELEASE   -
|  1> ! RI PBE def2-SVP def2-SVP/J NBO PAL2
|  2> % maxcore 2000
|  3> % output
|  4>     # printlevel mini
|  5>     print[ P_Basis ] 0
|  6>     print[ P_SCFInfo ] 1
|  7>     print[ P_SCFIterInfo ] 1
|  8>     print[ P_OrbEn ] 0
|  9>     print[ P_Cartesian ] 0
| 10> end
| 11> *xyz 0 1
| 12>  C        2.8532740000    -0.1896680000     1.3899840000
| 13>  C        2.4468040000     0.0599370000    -0.0511570000
| 14>  C        2.9787620000     1.3644230000    -0.6805280000
| 15>  C        2.4931060000     1.4425110000    -2.1328050000
| 16>  C        2.4756750000     2.5916070000     0.0880240000
| 17>  C        4.4428460000     1.3554790000    -0.6726910000
| 18>  C        5.6444090000     1.3493840000    -0.6743460000
| 19>  H        2.4895980000    -1.1634570000     1.7252750000
| 20>  H        2.4427780000     0.5622140000     2.0675020000
| 21>  H        3.9404920000    -0.1826290000     1.4970740000
| 22>  H        1.3540750000     0.0846560000    -0.1321360000
| 23>  H        2.7860230000    -0.7738170000    -0.6740040000
| 24>  H        1.4000540000     1.4570190000    -2.1580000000
| 25>  H        2.8405400000     0.5810960000    -2.7064940000
| 26>  H        2.8619720000     2.3476270000    -2.6188110000
| 27>  H        1.3822490000     2.5907140000     0.1133950000
| 28>  H        2.8077070000     3.5099440000    -0.3998200000
| 29>  H        2.8471600000     2.6038120000     1.1130660000
| 30>  H        6.7085870000     1.3464980000    -0.6771580000
| 31> *
| 32>
| 33>                          ****END OF INPUT****
 Total Charge           Charge          ....    0
 Multiplicity           Mult            ....    1
 Number of Electrons    NEL             ....   54
 Basis Dimension        Dim             ....  158

MULLIKEN ATOMIC CHARGES
-----------------------
   0 C :   -0.000579
   1 C :    0.013689
   2 C :   -0.328939
   3 C :    0.072956
   4 C :    0.068982
   5 C :    0.516134
   6 C :   -0.556340
   7 H :    0.016047
   8 H :    0.019812
   9 H :    0.033806
  10 H :    0.011915
  11 H :    0.013936
  12 H :    0.017782
  13 H :    0.023460
  14 H :    0.023323
  15 H :    0.017325
  16 H :    0.020900
  17 H :    0.026183
  18 H :   -0.010390
Sum of atomic charges:   -0.0000000

LOEWDIN ATOMIC CHARGES
----------------------
   0 C :   -0.067751
   1 C :   -0.024716
   2 C :   -0.071848
   3 C :   -0.036742
   4 C :   -0.037110
   5 C :    0.000876
   6 C :   -0.099680
   7 H :    0.028903
   8 H :    0.024243
   9 H :    0.031272
  10 H :    0.024185
  11 H :    0.027197
  12 H :    0.025929
  13 H :    0.029033
  14 H :    0.029061
  15 H :    0.026468
  16 H :    0.029703
  17 H :    0.028178
  18 H :    0.032800

  Mayer bond orders larger than 0.1
B(  0-C ,  1-C ) :   1.1179 B(  0-C ,  7-H ) :   0.9543 B(  0-C ,  8-H ) :   0.9571
B(  0-C ,  9-H ) :   0.9586 B(  1-C ,  2-C ) :   1.0226 B(  1-C , 10-H ) :   0.9327
B(  1-C , 11-H ) :   0.9304 B(  2-C ,  3-C ) :   1.0474 B(  2-C ,  4-C ) :   1.0402
B(  2-C ,  5-C ) :   0.9397 B(  3-C , 12-H ) :   0.9545 B(  3-C , 13-H ) :   0.9557
B(  3-C , 14-H ) :   0.9566 B(  4-C , 15-H ) :   0.9562 B(  4-C , 16-H ) :   0.9553
B(  4-C , 17-H ) :   0.9540 B(  5-C ,  6-C ) :   2.2436 B(  5-C , 18-H ) :  -0.1353
B(  6-C , 18-H ) :   1.1250

FINAL SINGLE POINT ENERGY      -273.314106547888

DIPOLE MOMENT
-------------
                                X             Y             Z
Electronic contribution:      4.78170       0.56686      -1.49241
Nuclear contribution   :     -5.03705      -0.57862       1.50578
                        -----------------------------------------
Total Dipole Moment    :     -0.25536      -0.01176       0.01337
                        -----------------------------------------
Magnitude (a.u.)       :      0.25598
Magnitude (Debye)      :      0.65064

                             ****ORCA TERMINATED NORMALLY****
TOTAL RUN TIME: 0 days 0 hours 0 minutes 8 seconds 425 msec
