                         Program Version 3.0.3 - RELEASE   -
|  1> ! RI PBE def2-SVP def2-SVP/J NBO PAL2
|  2> % maxcore 2000
|  3> % output
|  4>     # printlevel mini
|  5>     print[ P_Basis ] 0
|  6>     print[ P_SCFInfo ] 1
|  7>     print[ P_SCFIterInfo ] 1
|  8>     print[ P_OrbEn ] 0
|  9>     print[ P_Cartesian ] 0
| 10> end
| 11> *xyz 0 1
| 12>  C        3.0868340000     0.4819310000     1.3008020000
| 13>  C        2.6126120000     0.0404850000    -0.0723470000
| 14>  C        3.0830160000    -1.3612720000    -0.4747100000
| 15>  C        2.4146290000    -1.7947160000    -1.7774750000
| 16>  C        4.5730960000    -1.4227370000    -0.6058480000
| 17>  C        5.3847750000    -2.1996280000     0.1011510000
| 18>  C        6.8666280000    -2.2604110000    -0.0505050000
| 19>  H        2.7270730000     1.4852610000     1.5405080000
| 20>  H        4.1775990000     0.4913720000     1.3600500000
| 21>  H        2.7222120000    -0.1960240000     2.0781210000
| 22>  H        2.9531770000     0.7553170000    -0.8318170000
| 23>  H        1.5175710000     0.0611810000    -0.1074950000
| 24>  H        2.7836210000    -2.0594800000     0.3177050000
| 25>  H        2.6934330000    -1.1259260000    -2.5977120000
| 26>  H        1.3253740000    -1.7707190000    -1.6850930000
| 27>  H        2.7130550000    -2.8071890000    -2.0572900000
| 28>  H        5.0054410000    -0.7662780000    -1.3641710000
| 29>  H        4.9488930000    -2.8532060000     0.8565750000
| 30>  H        7.2168500000    -1.5753750000    -0.8252950000
| 31>  H        7.1964800000    -3.2704320000    -0.3147860000
| 32>  H        7.3718300000    -2.0026730000     0.8860310000
| 33> *
| 34>
| 35>                          ****END OF INPUT****
 Total Charge           Charge          ....    0
 Multiplicity           Mult            ....    1
 Number of Electrons    NEL             ....   56
 Basis Dimension        Dim             ....  168

MULLIKEN ATOMIC CHARGES
-----------------------
   0 C :    0.006633
   1 C :   -0.038118
   2 C :   -0.083522
   3 C :    0.030871
   4 C :   -0.013003
   5 C :   -0.108741
   6 C :    0.042518
   7 H :    0.014652
   8 H :    0.024707
   9 H :    0.011898
  10 H :    0.006677
  11 H :    0.011771
  12 H :   -0.004314
  13 H :    0.011961
  14 H :    0.019540
  15 H :    0.017284
  16 H :   -0.020893
  17 H :   -0.008216
  18 H :    0.019047
  19 H :    0.029143
  20 H :    0.030104
Sum of atomic charges:   -0.0000000

LOEWDIN ATOMIC CHARGES
----------------------
   0 C :   -0.068326
   1 C :   -0.040819
   2 C :   -0.044624
   3 C :   -0.055607
   4 C :   -0.035182
   5 C :   -0.050420
   6 C :   -0.065386
   7 H :    0.025835
   8 H :    0.025708
   9 H :    0.024066
  10 H :    0.021514
  11 H :    0.023180
  12 H :    0.025324
  13 H :    0.023944
  14 H :    0.025059
  15 H :    0.026225
  16 H :    0.018485
  17 H :    0.020410
  18 H :    0.030158
  19 H :    0.035046
  20 H :    0.035410

  Mayer bond orders larger than 0.1
B(  0-C ,  1-C ) :   1.1197 B(  0-C ,  7-H ) :   0.9572 B(  0-C ,  8-H ) :   0.9602
B(  0-C ,  9-H ) :   0.9599 B(  1-C ,  2-C ) :   1.0480 B(  1-C , 10-H ) :   0.9323
B(  1-C , 11-H ) :   0.9357 B(  2-C ,  3-C ) :   1.0707 B(  2-C ,  4-C ) :   1.0239
B(  2-C , 12-H ) :   0.9088 B(  3-C , 13-H ) :   0.9587 B(  3-C , 14-H ) :   0.9563
B(  3-C , 15-H ) :   0.9583 B(  4-C ,  5-C ) :   1.9052 B(  4-C , 16-H ) :   0.9493
B(  5-C ,  6-C ) :   1.0848 B(  5-C , 17-H ) :   0.9550 B(  6-C , 18-H ) :   0.9615
B(  6-C , 19-H ) :   0.9472 B(  6-C , 20-H ) :   0.9472

FINAL SINGLE POINT ENERGY      -274.563743024337

DIPOLE MOMENT
-------------
                                X             Y             Z
Electronic contribution:      0.60129      -1.15972      -0.31398
Nuclear contribution   :     -0.55476       1.12349       0.33194
                        -----------------------------------------
Total Dipole Moment    :      0.04653      -0.03623       0.01795
                        -----------------------------------------
Magnitude (a.u.)       :      0.06164
Magnitude (Debye)      :      0.15669

                             ****ORCA TERMINATED NORMALLY****
TOTAL RUN TIME: 0 days 0 hours 0 minutes 8 seconds 594 msec
