                         Program Version 3.0.3 - RELEASE   -
|  1> ! RI PBE def2-SVP def2-SVP/J NBO PAL2
|  2> % maxcore 2000
|  3> % output
|  4>     # printlevel mini
|  5>     print[ P_Basis ] 0
|  6>     print[ P_SCFInfo ] 1
|  7>     print[ P_SCFIterInfo ] 1
|  8>     print[ P_OrbEn ] 0
|  9>     print[ P_Cartesian ] 0
| 10> end
| 11> *xyz 0 1
| 12>  C        3.3630780000    -0.1525390000     1.3495680000
| 13>  C        2.7465750000     0.4470010000     0.0981610000
| 14>  C        3.4451970000     0.0360690000    -1.2019530000
| 15>  C        2.6886200000     0.5856220000    -2.4100180000
| 16>  C        4.9033960000     0.4316290000    -1.2316080000
| 17>  C        5.2352360000     1.8878910000    -1.1130450000
| 18>  C        5.8587680000    -0.4839710000    -1.3654500000
| 19>  H        2.8141830000     0.1498110000     2.2444610000
| 20>  H        4.4038910000     0.1566150000     1.4725490000
| 21>  H        3.3534440000    -1.2454020000     1.3064340000
| 22>  H        2.7348440000     1.5405330000     0.1726120000
| 23>  H        1.6962330000     0.1439940000     0.0253840000
| 24>  H        3.4149080000    -1.0588840000    -1.2584160000
| 25>  H        2.6282800000     1.6768260000    -2.3829230000
| 26>  H        1.6649040000     0.2027580000    -2.4251230000
| 27>  H        3.1731380000     0.2970850000    -3.3454370000
| 28>  H        4.8961410000     2.2974620000    -0.1562520000
| 29>  H        4.7477740000     2.4755830000    -1.8964240000
| 30>  H        6.3109270000     2.0517320000    -1.1868460000
| 31>  H        5.6224340000    -1.5398530000    -1.4464070000
| 32>  H        6.9080410000    -0.2099830000    -1.4005780000
| 33> *
| 34>
| 35>                          ****END OF INPUT****
 Total Charge           Charge          ....    0
 Multiplicity           Mult            ....    1
 Number of Electrons    NEL             ....   56
 Basis Dimension        Dim             ....  168

MULLIKEN ATOMIC CHARGES
-----------------------
   0 C :    0.003493
   1 C :   -0.038077
   2 C :   -0.073949
   3 C :    0.035982
   4 C :   -0.155495
   5 C :    0.070929
   6 C :   -0.042199
   7 H :    0.016182
   8 H :    0.023130
   9 H :    0.018623
  10 H :    0.014454
  11 H :    0.004967
  12 H :   -0.006639
  13 H :    0.019832
  14 H :    0.011742
  15 H :    0.019019
  16 H :    0.025766
  17 H :    0.026350
  18 H :    0.012627
  19 H :    0.007737
  20 H :    0.005524
Sum of atomic charges:   -0.0000000

LOEWDIN ATOMIC CHARGES
----------------------
   0 C :   -0.067629
   1 C :   -0.040405
   2 C :   -0.038303
   3 C :   -0.053895
   4 C :   -0.021453
   5 C :   -0.057083
   6 C :   -0.083190
   7 H :    0.026224
   8 H :    0.026017
   9 H :    0.026243
  10 H :    0.020439
  11 H :    0.023906
  12 H :    0.026825
  13 H :    0.022747
  14 H :    0.025905
  15 H :    0.027383
  16 H :    0.033993
  17 H :    0.034465
  18 H :    0.031894
  19 H :    0.018061
  20 H :    0.017855

  Mayer bond orders larger than 0.1
B(  0-C ,  1-C ) :   1.1215 B(  0-C ,  7-H ) :   0.9582 B(  0-C ,  8-H ) :   0.9564
B(  0-C ,  9-H ) :   0.9612 B(  1-C ,  2-C ) :   1.0463 B(  1-C , 10-H ) :   0.9342
B(  1-C , 11-H ) :   0.9302 B(  2-C ,  3-C ) :   1.0737 B(  2-C ,  4-C ) :   1.0270
B(  2-C , 12-H ) :   0.8927 B(  3-C , 13-H ) :   0.9586 B(  3-C , 14-H ) :   0.9527
B(  3-C , 15-H ) :   0.9587 B(  4-C ,  5-C ) :   1.0837 B(  4-C ,  6-C ) :   1.9806
B(  5-C , 16-H ) :   0.9363 B(  5-C , 17-H ) :   0.9405 B(  5-C , 18-H ) :   0.9436
B(  6-C , 19-H ) :   0.9339 B(  6-C , 20-H ) :   0.9311

FINAL SINGLE POINT ENERGY      -274.561543648887

DIPOLE MOMENT
-------------
                                X             Y             Z
Electronic contribution:      1.53953      -0.99744      -1.16266
Nuclear contribution   :     -1.69713       1.15269       1.18229
                        -----------------------------------------
Total Dipole Moment    :     -0.15760       0.15525       0.01963
                        -----------------------------------------
Magnitude (a.u.)       :      0.22210
Magnitude (Debye)      :      0.56452

                             ****ORCA TERMINATED NORMALLY****
TOTAL RUN TIME: 0 days 0 hours 0 minutes 9 seconds 29 msec
