                         Program Version 3.0.3 - RELEASE   -
|  1> ! RI PBE def2-SVP def2-SVP/J NBO PAL2
|  2> % maxcore 2000
|  3> % output
|  4>     # printlevel mini
|  5>     print[ P_Basis ] 0
|  6>     print[ P_SCFInfo ] 1
|  7>     print[ P_SCFIterInfo ] 1
|  8>     print[ P_OrbEn ] 0
|  9>     print[ P_Cartesian ] 0
| 10> end
| 11> *xyz 0 1
| 12>  C        2.9106540000     0.3403660000    -1.3268350000
| 13>  C        2.5238810000    -0.0047700000     0.0991980000
| 14>  C        3.0852340000     0.9646020000     1.1469520000
| 15>  C        2.5570960000     0.6360730000     2.5434070000
| 16>  C        4.5455300000     0.9833420000     1.1346080000
| 17>  C        5.7489090000     0.9824760000     1.1361340000
| 18>  C        7.2006170000     0.9889630000     1.1375730000
| 19>  H        2.4889400000    -0.3773930000    -2.0340210000
| 20>  H        3.9961250000     0.3375960000    -1.4480620000
| 21>  H        2.5472990000     1.3339420000    -1.6050750000
| 22>  H        2.8646930000    -1.0160030000     0.3459350000
| 23>  H        1.4330140000    -0.0090180000     0.1991630000
| 24>  H        2.7401990000     1.9735140000     0.8815440000
| 25>  H        2.8703890000    -0.3662980000     2.8445400000
| 26>  H        1.4648220000     0.6724970000     2.5548140000
| 27>  H        2.9346430000     1.3434640000     3.2833850000
| 28>  H        7.5892970000     1.7667010000     1.8000240000
| 29>  H        7.5948050000     1.1766550000     0.1354570000
| 30>  H        7.5989330000     0.0300610000     1.4790270000
| 31> *
| 32>
| 33>                          ****END OF INPUT****
 Total Charge           Charge          ....    0
 Multiplicity           Mult            ....    1
 Number of Electrons    NEL             ....   54
 Basis Dimension        Dim             ....  158

MULLIKEN ATOMIC CHARGES
-----------------------
   0 C :    0.001773
   1 C :   -0.027081
   2 C :   -0.080984
   3 C :    0.029314
   4 C :   -0.026207
   5 C :   -0.254207
   6 C :    0.056692
   7 H :    0.019843
   8 H :    0.030620
   9 H :    0.010239
  10 H :    0.012343
  11 H :    0.012620
  12 H :    0.016508
  13 H :    0.020297
  14 H :    0.018873
  15 H :    0.027944
  16 H :    0.045205
  17 H :    0.042771
  18 H :    0.043435
Sum of atomic charges:   -0.0000000

LOEWDIN ATOMIC CHARGES
----------------------
   0 C :   -0.066758
   1 C :   -0.032361
   2 C :   -0.050424
   3 C :   -0.047743
   4 C :   -0.056961
   5 C :   -0.077303
   6 C :   -0.068506
   7 H :    0.027151
   8 H :    0.029167
   9 H :    0.024117
  10 H :    0.025057
  11 H :    0.023766
  12 H :    0.040836
  13 H :    0.028043
  14 H :    0.025265
  15 H :    0.029881
  16 H :    0.049329
  17 H :    0.048651
  18 H :    0.048793

  Mayer bond orders larger than 0.1
B(  0-C ,  1-C ) :   1.1231 B(  0-C ,  7-H ) :   0.9584 B(  0-C ,  8-H ) :   0.9604
B(  0-C ,  9-H ) :   0.9600 B(  1-C ,  2-C ) :   1.0530 B(  1-C , 10-H ) :   0.9315
B(  1-C , 11-H ) :   0.9348 B(  2-C ,  3-C ) :   1.0772 B(  2-C ,  4-C ) :   1.0153
B(  2-C , 12-H ) :   0.8746 B(  3-C , 13-H ) :   0.9592 B(  3-C , 14-H ) :   0.9560
B(  3-C , 15-H ) :   0.9599 B(  4-C ,  5-C ) :   2.5772 B(  5-C ,  6-C ) :   1.1413
B(  6-C , 16-H ) :   0.9328 B(  6-C , 17-H ) :   0.9329 B(  6-C , 18-H ) :   0.9313

FINAL SINGLE POINT ENERGY      -273.326931914423

DIPOLE MOMENT
-------------
                                X             Y             Z
Electronic contribution:      2.42470       1.23853       1.33465
Nuclear contribution   :     -2.34348      -1.24580      -1.33517
                        -----------------------------------------
Total Dipole Moment    :      0.08122      -0.00727      -0.00052
                        -----------------------------------------
Magnitude (a.u.)       :      0.08155
Magnitude (Debye)      :      0.20728

                             ****ORCA TERMINATED NORMALLY****
TOTAL RUN TIME: 0 days 0 hours 0 minutes 7 seconds 174 msec
