                         Program Version 3.0.3 - RELEASE   -
|  1> ! RI PBE def2-SVP def2-SVP/J NBO PAL2
|  2> % maxcore 2000
|  3> % output
|  4>     # printlevel mini
|  5>     print[ P_Basis ] 0
|  6>     print[ P_SCFInfo ] 1
|  7>     print[ P_SCFIterInfo ] 1
|  8>     print[ P_OrbEn ] 0
|  9>     print[ P_Cartesian ] 0
| 10> end
| 11> *xyz 0 1
| 12>  C        2.7977310000    -1.1557570000     0.7238390000
| 13>  C        2.4327970000     0.1343480000     0.0075230000
| 14>  C        2.9305860000     0.2402100000    -1.4334160000
| 15>  C        2.3001440000     1.4386660000    -2.1282310000
| 16>  C        4.4615070000     0.3066770000    -1.5045000000
| 17>  C        5.0033530000     0.2176720000    -2.8921100000
| 18>  C        5.7732500000     1.1232530000    -3.4796230000
| 19>  H        2.3494740000    -1.1901740000     1.7195390000
| 20>  H        3.8766420000    -1.2674670000     0.8524940000
| 21>  H        2.4381340000    -2.0280140000     0.1700750000
| 22>  H        2.8101660000     0.9942940000     0.5752290000
| 23>  H        1.3420660000     0.2378640000    -0.0010590000
| 24>  H        2.6126860000    -0.6695290000    -1.9627940000
| 25>  H        2.5653750000     2.3668020000    -1.6110390000
| 26>  H        1.2098970000     1.3615480000    -2.1331660000
| 27>  H        2.6402330000     1.5298230000    -3.1617610000
| 28>  H        4.8804530000    -0.5204520000    -0.9195810000
| 29>  H        4.8053240000     1.2343330000    -1.0315260000
| 30>  H        4.7303580000    -0.6782970000    -3.4493890000
| 31>  H        6.0693510000     2.0329630000    -2.9658000000
| 32>  H        6.1389940000     0.9889470000    -4.4911850000
| 33> *
| 34>
| 35>                          ****END OF INPUT****
 Total Charge           Charge          ....    0
 Multiplicity           Mult            ....    1
 Number of Electrons    NEL             ....   56
 Basis Dimension        Dim             ....  168

MULLIKEN ATOMIC CHARGES
-----------------------
   0 C :   -0.011771
   1 C :   -0.010231
   2 C :   -0.163423
   3 C :    0.037243
   4 C :    0.104363
   5 C :   -0.087703
   6 C :   -0.027124
   7 H :    0.017266
   8 H :    0.024592
   9 H :    0.016584
  10 H :    0.002574
  11 H :    0.011375
  12 H :   -0.000589
  13 H :    0.007312
  14 H :    0.018050
  15 H :    0.019370
  16 H :    0.015970
  17 H :   -0.008782
  18 H :    0.000793
  19 H :    0.013629
  20 H :    0.020501
Sum of atomic charges:   -0.0000000

LOEWDIN ATOMIC CHARGES
----------------------
   0 C :   -0.068768
   1 C :   -0.042816
   2 C :   -0.041169
   3 C :   -0.059494
   4 C :   -0.035673
   5 C :   -0.027315
   6 C :   -0.069486
   7 H :    0.028698
   8 H :    0.022702
   9 H :    0.025039
  10 H :    0.021989
  11 H :    0.024913
  12 H :    0.020465
  13 H :    0.023684
  14 H :    0.024646
  15 H :    0.026192
  16 H :    0.033203
  17 H :    0.025103
  18 H :    0.024430
  19 H :    0.020333
  20 H :    0.023325

  Mayer bond orders larger than 0.1
B(  0-C ,  1-C ) :   1.1218 B(  0-C ,  7-H ) :   0.9542 B(  0-C ,  8-H ) :   0.9610
B(  0-C ,  9-H ) :   0.9630 B(  1-C ,  2-C ) :   1.0603 B(  1-C , 10-H ) :   0.9280
B(  1-C , 11-H ) :   0.9360 B(  2-C ,  3-C ) :   1.0812 B(  2-C ,  4-C ) :   1.0453
B(  2-C , 12-H ) :   0.9126 B(  3-C , 13-H ) :   0.9578 B(  3-C , 14-H ) :   0.9584
B(  3-C , 15-H ) :   0.9516 B(  4-C ,  5-C ) :   1.0621 B(  4-C , 16-H ) :   0.9049
B(  4-C , 17-H ) :   0.9237 B(  5-C ,  6-C ) :   2.0072 B(  5-C , 18-H ) :   0.9512
B(  6-C , 19-H ) :   0.9467 B(  6-C , 20-H ) :   0.9411

FINAL SINGLE POINT ENERGY      -274.557234692633

DIPOLE MOMENT
-------------
                                X             Y             Z
Electronic contribution:      2.24141       0.08625      -2.29211
Nuclear contribution   :     -2.35345      -0.17472       2.41249
                        -----------------------------------------
Total Dipole Moment    :     -0.11204      -0.08847       0.12038
                        -----------------------------------------
Magnitude (a.u.)       :      0.18674
Magnitude (Debye)      :      0.47465

                             ****ORCA TERMINATED NORMALLY****
TOTAL RUN TIME: 0 days 0 hours 0 minutes 8 seconds 806 msec
