                         Program Version 3.0.3 - RELEASE   -
|  1> ! RI PBE def2-SVP def2-SVP/J NBO PAL2
|  2> % maxcore 2000
|  3> % output
|  4>     # printlevel mini
|  5>     print[ P_Basis ] 0
|  6>     print[ P_SCFInfo ] 1
|  7>     print[ P_SCFIterInfo ] 1
|  8>     print[ P_OrbEn ] 0
|  9>     print[ P_Cartesian ] 0
| 10> end
| 11> *xyz 0 1
| 12>  C        3.0374320000     0.1413760000     1.3358960000
| 13>  C        2.5258200000     0.2714670000    -0.0891530000
| 14>  C        2.9568660000    -0.8497360000    -1.0311900000
| 15>  C        2.3071250000    -0.6914230000    -2.3972210000
| 16>  C        4.4860080000    -0.9639020000    -1.1589170000
| 17>  C        5.1282770000     0.2341920000    -1.6756720000
| 18>  C        5.6517510000     1.2284340000    -2.1002820000
| 19>  H        2.6118500000     0.9183210000     1.9749160000
| 20>  H        4.1240000000     0.2416420000     1.3898890000
| 21>  H        2.7675920000    -0.8263340000     1.7698280000
| 22>  H        2.8502510000     1.2293530000    -0.5112030000
| 23>  H        1.4307860000     0.2977490000    -0.0788850000
| 24>  H        2.6227380000    -1.8010760000    -0.5968950000
| 25>  H        2.6392810000     0.2331650000    -2.8770690000
| 26>  H        1.2185840000    -0.6533590000    -2.3090640000
| 27>  H        2.5619740000    -1.5221730000    -3.0606840000
| 28>  H        4.7256770000    -1.8043460000    -1.8195080000
| 29>  H        4.9241240000    -1.2059210000    -0.1856400000
| 30>  H        6.1221550000     2.1051620000    -2.4777460000
| 31> *
| 32>
| 33>                          ****END OF INPUT****
 Total Charge           Charge          ....    0
 Multiplicity           Mult            ....    1
 Number of Electrons    NEL             ....   54
 Basis Dimension        Dim             ....  158

MULLIKEN ATOMIC CHARGES
-----------------------
   0 C :   -0.023711
   1 C :   -0.016171
   2 C :   -0.139450
   3 C :    0.019118
   4 C :    0.111062
   5 C :    0.326402
   6 C :   -0.499018
   7 H :    0.020859
   8 H :    0.031997
   9 H :    0.015791
  10 H :    0.019107
  11 H :    0.013809
  12 H :    0.000196
  13 H :    0.029029
  14 H :    0.021577
  15 H :    0.015324
  16 H :    0.028784
  17 H :    0.031336
  18 H :   -0.006041
Sum of atomic charges:    0.0000000

LOEWDIN ATOMIC CHARGES
----------------------
   0 C :   -0.069831
   1 C :   -0.043189
   2 C :   -0.034983
   3 C :   -0.060415
   4 C :   -0.042023
   5 C :   -0.017437
   6 C :   -0.097240
   7 H :    0.029868
   8 H :    0.026245
   9 H :    0.023589
  10 H :    0.027445
  11 H :    0.025574
  12 H :    0.023566
  13 H :    0.030146
  14 H :    0.026710
  15 H :    0.025546
  16 H :    0.047633
  17 H :    0.045595
  18 H :    0.033201

  Mayer bond orders larger than 0.1
B(  0-C ,  1-C ) :   1.1161 B(  0-C ,  7-H ) :   0.9560 B(  0-C ,  8-H ) :   0.9615
B(  0-C ,  9-H ) :   0.9638 B(  1-C ,  2-C ) :   1.0595 B(  1-C , 10-H ) :   0.9294
B(  1-C , 11-H ) :   0.9361 B(  2-C ,  3-C ) :   1.0792 B(  2-C ,  4-C ) :   1.0521
B(  2-C , 12-H ) :   0.9045 B(  3-C , 13-H ) :   0.9579 B(  3-C , 14-H ) :   0.9589
B(  3-C , 15-H ) :   0.9561 B(  4-C ,  5-C ) :   1.0694 B(  4-C , 16-H ) :   0.8906
B(  4-C , 17-H ) :   0.8910 B(  5-C ,  6-C ) :   2.3107 B(  5-C , 18-H ) :  -0.1148
B(  6-C , 18-H ) :   1.1058

FINAL SINGLE POINT ENERGY      -273.315391742300

DIPOLE MOMENT
-------------
                                X             Y             Z
Electronic contribution:      4.85460       1.22643      -2.69094
Nuclear contribution   :     -5.02960      -1.40129       2.80314
                        -----------------------------------------
Total Dipole Moment    :     -0.17500      -0.17486       0.11221
                        -----------------------------------------
Magnitude (a.u.)       :      0.27164
Magnitude (Debye)      :      0.69046

                             ****ORCA TERMINATED NORMALLY****
TOTAL RUN TIME: 0 days 0 hours 0 minutes 8 seconds 50 msec
