                         Program Version 3.0.3 - RELEASE   -
|  1> ! RI PBE def2-SVP def2-SVP/J NBO PAL2
|  2> % maxcore 2000
|  3> % output
|  4>     # printlevel mini
|  5>     print[ P_Basis ] 0
|  6>     print[ P_SCFInfo ] 1
|  7>     print[ P_SCFIterInfo ] 1
|  8>     print[ P_OrbEn ] 0
|  9>     print[ P_Cartesian ] 0
| 10> end
| 11> *xyz 0 1
| 12>  C        2.7687520000     0.5832270000     1.4884550000
| 13>  C        2.4049020000     0.0112180000     0.1321350000
| 14>  C        2.9824410000    -1.4015320000    -0.0981020000
| 15>  C        2.4868680000    -1.9756240000    -1.3476030000
| 16>  C        2.0541060000    -2.4278120000    -2.3705750000
| 17>  C        4.4444420000    -1.4068090000    -0.0599830000
| 18>  C        5.6429860000    -1.3919950000    -0.0174390000
| 19>  H        2.3388040000     1.5789970000     1.6131890000
| 20>  H        3.8512300000     0.6658930000     1.6050850000
| 21>  H        2.3904500000    -0.0461460000     2.2989240000
| 22>  H        2.7631800000     0.6605710000    -0.6704980000
| 23>  H        1.3196410000    -0.0607610000     0.0239050000
| 24>  H        2.6300960000    -2.0416960000     0.7230310000
| 25>  H        1.6783690000    -2.8339770000    -3.2796970000
| 26>  H        6.7068430000    -1.3873750000     0.0133250000
| 27> *
| 28>
| 29>                          ****END OF INPUT****
 Total Charge           Charge          ....    0
 Multiplicity           Mult            ....    1
 Number of Electrons    NEL             ....   50
 Basis Dimension        Dim             ....  138

MULLIKEN ATOMIC CHARGES
-----------------------
   0 C :    0.007290
   1 C :   -0.041018
   2 C :    0.019703
   3 C :    0.432291
   4 C :   -0.520613
   5 C :    0.410873
   6 C :   -0.504491
   7 H :    0.025931
   8 H :    0.035159
   9 H :    0.016093
  10 H :    0.035419
  11 H :    0.033644
  12 H :    0.051159
  13 H :   -0.000422
  14 H :   -0.001019
Sum of atomic charges:   -0.0000000

LOEWDIN ATOMIC CHARGES
----------------------
   0 C :   -0.066105
   1 C :   -0.020040
   2 C :   -0.051398
   3 C :   -0.005519
   4 C :   -0.074127
   5 C :   -0.004791
   6 C :   -0.074288
   7 H :    0.031971
   8 H :    0.032046
   9 H :    0.026649
  10 H :    0.033843
  11 H :    0.032796
  12 H :    0.066609
  13 H :    0.036362
  14 H :    0.035993

  Mayer bond orders larger than 0.1
B(  0-C ,  1-C ) :   1.1232 B(  0-C ,  7-H ) :   0.9567 B(  0-C ,  8-H ) :   0.9583
B(  0-C ,  9-H ) :   0.9581 B(  1-C ,  2-C ) :   1.0484 B(  1-C , 10-H ) :   0.9306
B(  1-C , 11-H ) :   0.9366 B(  2-C ,  3-C ) :   0.9769 B(  2-C ,  5-C ) :   0.9746
B(  2-C , 12-H ) :   0.8471 B(  3-C ,  4-C ) :   2.3194 B(  3-C , 13-H ) :  -0.1177
B(  4-C , 13-H ) :   1.1074 B(  5-C ,  6-C ) :   2.3275 B(  5-C , 14-H ) :  -0.1222
B(  6-C , 14-H ) :   1.1130

FINAL SINGLE POINT ENERGY      -270.842045603225

DIPOLE MOMENT
-------------
                                X             Y             Z
Electronic contribution:      1.87936      -4.69575      -4.01690
Nuclear contribution   :     -2.02102       4.87020       4.21623
                        -----------------------------------------
Total Dipole Moment    :     -0.14165       0.17444       0.19933
                        -----------------------------------------
Magnitude (a.u.)       :      0.30038
Magnitude (Debye)      :      0.76350

                             ****ORCA TERMINATED NORMALLY****
TOTAL RUN TIME: 0 days 0 hours 0 minutes 6 seconds 824 msec
