                         Program Version 3.0.3 - RELEASE   -
|  1> ! RI PBE def2-SVP def2-SVP/J NBO PAL2
|  2> % maxcore 2000
|  3> % output
|  4>     # printlevel mini
|  5>     print[ P_Basis ] 0
|  6>     print[ P_SCFInfo ] 1
|  7>     print[ P_SCFIterInfo ] 1
|  8>     print[ P_OrbEn ] 0
|  9>     print[ P_Cartesian ] 0
| 10> end
| 11> *xyz 0 1
| 12>  C        2.0864700000     0.2529360000    -1.2329060000
| 13>  C        2.5887510000     0.0320950000     0.1915230000
| 14>  C        3.2935130000     1.2293490000     0.7706100000
| 15>  C        2.4113280000     2.3768700000     1.1829970000
| 16>  C        1.8450830000     2.2035500000     2.5907530000
| 17>  C        4.6202650000     1.2272680000     0.9116620000
| 18>  C        5.4858340000     2.3133390000     1.4557210000
| 19>  H        1.5595630000    -0.6301500000    -1.6027730000
| 20>  H        2.9198860000     0.4588940000    -1.9085670000
| 21>  H        1.3949150000     1.0966340000    -1.2927390000
| 22>  H        3.2659400000    -0.8265950000     0.2054340000
| 23>  H        1.7377780000    -0.2344960000     0.8307360000
| 24>  H        1.5810220000     2.4652540000     0.4744180000
| 25>  H        2.9552690000     3.3224540000     1.1260610000
| 26>  H        1.2875070000     1.2682570000     2.6831840000
| 27>  H        1.1665220000     3.0214370000     2.8459120000
| 28>  H        2.6470890000     2.1829110000     3.3321330000
| 29>  H        5.1506410000     0.3272220000     0.6026330000
| 30>  H        4.9241910000     3.2034360000     1.7402150000
| 31>  H        6.2437000000     2.6130110000     0.7242210000
| 32>  H        6.0307410000     1.9687240000     2.3410810000
| 33> *
| 34>
| 35>                          ****END OF INPUT****
 Total Charge           Charge          ....    0
 Multiplicity           Mult            ....    1
 Number of Electrons    NEL             ....   56
 Basis Dimension        Dim             ....  168

MULLIKEN ATOMIC CHARGES
-----------------------
   0 C :   -0.022723
   1 C :    0.029359
   2 C :   -0.141568
   3 C :    0.036457
   4 C :   -0.022270
   5 C :   -0.127340
   6 C :    0.056099
   7 H :    0.020717
   8 H :    0.021089
   9 H :    0.021292
  10 H :    0.003122
  11 H :    0.008109
  12 H :    0.001820
  13 H :    0.005052
  14 H :    0.018424
  15 H :    0.023051
  16 H :    0.023115
  17 H :   -0.021566
  18 H :    0.012239
  19 H :    0.028997
  20 H :    0.026527
Sum of atomic charges:   -0.0000000

LOEWDIN ATOMIC CHARGES
----------------------
   0 C :   -0.063409
   1 C :   -0.038314
   2 C :   -0.041085
   3 C :   -0.040224
   4 C :   -0.060701
   5 C :   -0.059520
   6 C :   -0.069279
   7 H :    0.026074
   8 H :    0.026336
   9 H :    0.022148
  10 H :    0.026672
  11 H :    0.026182
  12 H :    0.026381
  13 H :    0.025113
  14 H :    0.023782
  15 H :    0.025808
  16 H :    0.026488
  17 H :    0.018906
  18 H :    0.026663
  19 H :    0.035880
  20 H :    0.036097

  Mayer bond orders larger than 0.1
B(  0-C ,  1-C ) :   1.1082 B(  0-C ,  7-H ) :   0.9587 B(  0-C ,  8-H ) :   0.9628
B(  0-C ,  9-H ) :   0.9633 B(  1-C ,  2-C ) :   1.0700 B(  1-C , 10-H ) :   0.9231
B(  1-C , 11-H ) :   0.9132 B(  2-C ,  3-C ) :   1.0702 B(  2-C ,  5-C ) :   1.9092
B(  3-C ,  4-C ) :   1.1125 B(  3-C , 12-H ) :   0.9100 B(  3-C , 13-H ) :   0.9153
B(  4-C , 14-H ) :   0.9627 B(  4-C , 15-H ) :   0.9600 B(  4-C , 16-H ) :   0.9647
B(  5-C ,  6-C ) :   1.0931 B(  5-C , 17-H ) :   0.9315 B(  6-C , 18-H ) :   0.9511
B(  6-C , 19-H ) :   0.9455 B(  6-C , 20-H ) :   0.9421

FINAL SINGLE POINT ENERGY      -274.563719795787

DIPOLE MOMENT
-------------
                                X             Y             Z
Electronic contribution:      1.41218      -0.72404      -0.25933
Nuclear contribution   :     -1.44418       0.77617       0.29019
                        -----------------------------------------
Total Dipole Moment    :     -0.03200       0.05213       0.03086
                        -----------------------------------------
Magnitude (a.u.)       :      0.06851
Magnitude (Debye)      :      0.17415

                             ****ORCA TERMINATED NORMALLY****
TOTAL RUN TIME: 0 days 0 hours 0 minutes 8 seconds 701 msec
