                         Program Version 3.0.3 - RELEASE   -
|  1> ! RI PBE def2-SVP def2-SVP/J NBO PAL2
|  2> % maxcore 2000
|  3> % output
|  4>     # printlevel mini
|  5>     print[ P_Basis ] 0
|  6>     print[ P_SCFInfo ] 1
|  7>     print[ P_SCFIterInfo ] 1
|  8>     print[ P_OrbEn ] 0
|  9>     print[ P_Cartesian ] 0
| 10> end
| 11> *xyz 0 1
| 12>  C        3.1644970000    -0.6225520000    -1.2132920000
| 13>  C        2.8531960000    -0.3486820000     0.2475980000
| 14>  C        3.3626870000     1.0051740000     0.7537210000
| 15>  C        2.8434000000     1.2783550000     2.1694830000
| 16>  C        3.1446390000     2.6755620000     2.6824960000
| 17>  C        4.8574400000     1.0595990000     0.7152640000
| 18>  C        5.5912710000     1.9040830000     0.0040780000
| 19>  H        2.7743430000    -1.5945420000    -1.5239200000
| 20>  H        4.2404780000    -0.6156510000    -1.4010030000
| 21>  H        2.7146170000     0.1373790000    -1.8588860000
| 22>  H        3.2795320000    -1.1417440000     0.8743140000
| 23>  H        1.7696760000    -0.3882930000     0.4051050000
| 24>  H        2.9733910000     1.7883800000     0.0886860000
| 25>  H        3.2694580000     0.5315020000     2.8507800000
| 26>  H        1.7606490000     1.1110250000     2.1761260000
| 27>  H        4.2195080000     2.8672450000     2.7130510000
| 28>  H        2.7477670000     2.8195520000     3.6900830000
| 29>  H        2.6947590000     3.4354470000     2.0368500000
| 30>  H        5.3625940000     0.3226240000     1.3417500000
| 31>  H        5.1328510000     2.6542390000    -0.6333280000
| 32>  H        6.6748280000     1.8785170000     0.0312450000
| 33> *
| 34>
| 35>                          ****END OF INPUT****
 Total Charge           Charge          ....    0
 Multiplicity           Mult            ....    1
 Number of Electrons    NEL             ....   56
 Basis Dimension        Dim             ....  168

MULLIKEN ATOMIC CHARGES
-----------------------
   0 C :    0.012459
   1 C :   -0.021756
   2 C :   -0.073358
   3 C :   -0.022582
   4 C :    0.010991
   5 C :   -0.024921
   6 C :   -0.039941
   7 H :    0.014715
   8 H :    0.022788
   9 H :    0.013631
  10 H :    0.004779
  11 H :    0.009500
  12 H :   -0.009481
  13 H :    0.005869
  14 H :    0.009772
  15 H :    0.023185
  16 H :    0.015944
  17 H :    0.013241
  18 H :   -0.008143
  19 H :    0.017238
  20 H :    0.026068
Sum of atomic charges:   -0.0000000

LOEWDIN ATOMIC CHARGES
----------------------
   0 C :   -0.066713
   1 C :   -0.037502
   2 C :   -0.042448
   3 C :   -0.037785
   4 C :   -0.066909
   5 C :   -0.014938
   6 C :   -0.071486
   7 H :    0.026071
   8 H :    0.025705
   9 H :    0.024558
  10 H :    0.022133
  11 H :    0.023437
  12 H :    0.024347
  13 H :    0.022243
  14 H :    0.023324
  15 H :    0.025760
  16 H :    0.026375
  17 H :    0.024607
  18 H :    0.023341
  19 H :    0.021193
  20 H :    0.024688

  Mayer bond orders larger than 0.1
B(  0-C ,  1-C ) :   1.1184 B(  0-C ,  7-H ) :   0.9580 B(  0-C ,  8-H ) :   0.9602
B(  0-C ,  9-H ) :   0.9600 B(  1-C ,  2-C ) :   1.0489 B(  1-C , 10-H ) :   0.9291
B(  1-C , 11-H ) :   0.9321 B(  2-C ,  3-C ) :   1.0494 B(  2-C ,  5-C ) :   1.0246
B(  2-C , 12-H ) :   0.9060 B(  3-C ,  4-C ) :   1.1196 B(  3-C , 13-H ) :   0.9288
B(  3-C , 14-H ) :   0.9326 B(  4-C , 15-H ) :   0.9602 B(  4-C , 16-H ) :   0.9574
B(  4-C , 17-H ) :   0.9597 B(  5-C ,  6-C ) :   1.9860 B(  5-C , 18-H ) :   0.9498
B(  6-C , 19-H ) :   0.9486 B(  6-C , 20-H ) :   0.9413

FINAL SINGLE POINT ENERGY      -274.557868145353

DIPOLE MOMENT
-------------
                                X             Y             Z
Electronic contribution:      1.51735       0.02084      -0.00584
Nuclear contribution   :     -1.62259      -0.07824       0.05797
                        -----------------------------------------
Total Dipole Moment    :     -0.10524      -0.05740       0.05212
                        -----------------------------------------
Magnitude (a.u.)       :      0.13072
Magnitude (Debye)      :      0.33225

                             ****ORCA TERMINATED NORMALLY****
TOTAL RUN TIME: 0 days 0 hours 0 minutes 8 seconds 839 msec
