                         Program Version 3.0.3 - RELEASE   -
|  1> ! RI PBE def2-SVP def2-SVP/J NBO PAL2
|  2> % maxcore 2000
|  3> % output
|  4>     # printlevel mini
|  5>     print[ P_Basis ] 0
|  6>     print[ P_SCFInfo ] 1
|  7>     print[ P_SCFIterInfo ] 1
|  8>     print[ P_OrbEn ] 0
|  9>     print[ P_Cartesian ] 0
| 10> end
| 11> *xyz 0 1
| 12>  C        2.8159140000     0.1629570000    -1.3385250000
| 13>  C        2.4212150000    -0.0162300000     0.1157860000
| 14>  C        2.9675650000     1.0722020000     1.0488520000
| 15>  C        2.4236550000     0.9127570000     2.4745080000
| 16>  C        2.8210280000     2.0351830000     3.4153460000
| 17>  C        4.4260450000     1.0891970000     1.0406370000
| 18>  C        5.6276040000     1.0787170000     1.0436220000
| 19>  H        2.3979350000    -0.6332200000    -1.9584030000
| 20>  H        3.9015300000     0.1475320000    -1.4562660000
| 21>  H        2.4515310000     1.1163180000    -1.7317860000
| 22>  H        2.7639080000    -0.9900060000     0.4806630000
| 23>  H        1.3299940000    -0.0132430000     0.2083040000
| 24>  H        2.6275300000     2.0451820000     0.6660030000
| 25>  H        2.7662760000    -0.0486010000     2.8710080000
| 26>  H        1.3322600000     0.8527570000     2.4067800000
| 27>  H        3.9068830000     2.1033210000     3.5099280000
| 28>  H        2.4048170000     1.8758380000     4.4124560000
| 29>  H        2.4567290000     3.0009740000     3.0536010000
| 30>  H        6.6918100000     1.0765280000     1.0434170000
| 31> *
| 32>
| 33>                          ****END OF INPUT****
 Total Charge           Charge          ....    0
 Multiplicity           Mult            ....    1
 Number of Electrons    NEL             ....   54
 Basis Dimension        Dim             ....  158

MULLIKEN ATOMIC CHARGES
-----------------------
   0 C :    0.000923
   1 C :   -0.014041
   2 C :   -0.068116
   3 C :   -0.012472
   4 C :    0.005798
   5 C :    0.419208
   6 C :   -0.534303
   7 H :    0.021099
   8 H :    0.034374
   9 H :    0.012898
  10 H :    0.013097
  11 H :    0.015223
  12 H :    0.021305
  13 H :    0.013660
  14 H :    0.014373
  15 H :    0.035231
  16 H :    0.018224
  17 H :    0.011041
  18 H :   -0.007523
Sum of atomic charges:   -0.0000000

LOEWDIN ATOMIC CHARGES
----------------------
   0 C :   -0.066232
   1 C :   -0.029948
   2 C :   -0.049600
   3 C :   -0.030000
   4 C :   -0.065410
   5 C :   -0.007537
   6 C :   -0.097553
   7 H :    0.028282
   8 H :    0.030593
   9 H :    0.024744
  10 H :    0.026615
  11 H :    0.025444
  12 H :    0.042705
  13 H :    0.026684
  14 H :    0.025253
  15 H :    0.030658
  16 H :    0.027940
  17 H :    0.024389
  18 H :    0.032972

  Mayer bond orders larger than 0.1
B(  0-C ,  1-C ) :   1.1200 B(  0-C ,  7-H ) :   0.9581 B(  0-C ,  8-H ) :   0.9603
B(  0-C ,  9-H ) :   0.9610 B(  1-C ,  2-C ) :   1.0489 B(  1-C , 10-H ) :   0.9312
B(  1-C , 11-H ) :   0.9315 B(  2-C ,  3-C ) :   1.0481 B(  2-C ,  5-C ) :   1.0103
B(  2-C , 12-H ) :   0.8765 B(  3-C ,  4-C ) :   1.1184 B(  3-C , 13-H ) :   0.9314
B(  3-C , 14-H ) :   0.9315 B(  4-C , 15-H ) :   0.9613 B(  4-C , 16-H ) :   0.9573
B(  4-C , 17-H ) :   0.9611 B(  5-C ,  6-C ) :   2.2770 B(  5-C , 18-H ) :  -0.1264
B(  6-C , 18-H ) :   1.1172

FINAL SINGLE POINT ENERGY      -273.315599752001

DIPOLE MOMENT
-------------
                                X             Y             Z
Electronic contribution:      4.05611       0.23923      -0.09796
Nuclear contribution   :     -4.31389      -0.26758       0.10981
                        -----------------------------------------
Total Dipole Moment    :     -0.25778      -0.02835       0.01186
                        -----------------------------------------
Magnitude (a.u.)       :      0.25961
Magnitude (Debye)      :      0.65987

                             ****ORCA TERMINATED NORMALLY****
TOTAL RUN TIME: 0 days 0 hours 0 minutes 8 seconds 213 msec
