                         Program Version 3.0.3 - RELEASE   -
|  1> ! RI PBE def2-SVP def2-SVP/J NBO PAL2
|  2> % maxcore 2000
|  3> % output
|  4>     # printlevel mini
|  5>     print[ P_Basis ] 0
|  6>     print[ P_SCFInfo ] 1
|  7>     print[ P_SCFIterInfo ] 1
|  8>     print[ P_OrbEn ] 0
|  9>     print[ P_Cartesian ] 0
| 10> end
| 11> *xyz 0 1
| 12>  C        1.0146460000    -0.0548080000     0.1102570000
| 13>  C        2.5381900000     0.0166880000     0.0277160000
| 14>  C        3.0411850000     1.3752880000    -0.0887530000
| 15>  C        3.4350740000     2.5125550000    -0.1760660000
| 16>  C        3.9243980000     3.8346710000    -0.3213900000
| 17>  C        3.7035250000     4.8269870000     0.5451280000
| 18>  C        4.2187800000     6.2121170000     0.3854390000
| 19>  H        0.6859180000    -1.0926890000     0.1971460000
| 20>  H        0.5573590000     0.3779750000    -0.7810230000
| 21>  H        0.6470740000     0.4961990000     0.9775380000
| 22>  H        2.8902780000    -0.5677680000    -0.8292200000
| 23>  H        2.9778090000    -0.4522780000     0.9152770000
| 24>  H        4.5199670000     4.0337520000    -1.2110240000
| 25>  H        3.1075870000     4.6182270000     1.4302480000
| 26>  H        4.8034350000     6.3202890000    -0.5300830000
| 27>  H        4.8517100000     6.4959640000     1.2327460000
| 28>  H        3.3976670000     6.9360330000     0.3559630000
| 29> *
| 30>
| 31>                          ****END OF INPUT****
 Total Charge           Charge          ....    0
 Multiplicity           Mult            ....    1
 Number of Electrons    NEL             ....   52
 Basis Dimension        Dim             ....  148

MULLIKEN ATOMIC CHARGES
-----------------------
   0 C :   -0.028140
   1 C :    0.029221
   2 C :   -0.103560
   3 C :   -0.045135
   4 C :   -0.073671
   5 C :   -0.089129
   6 C :    0.027710
   7 H :    0.020307
   8 H :    0.033372
   9 H :    0.033894
  10 H :    0.036909
  11 H :    0.036060
  12 H :    0.012872
  13 H :    0.007138
  14 H :    0.021753
  15 H :    0.039004
  16 H :    0.041395
Sum of atomic charges:    0.0000000

LOEWDIN ATOMIC CHARGES
----------------------
   0 C :   -0.053085
   1 C :   -0.051376
   2 C :   -0.046852
   3 C :   -0.062470
   4 C :   -0.063357
   5 C :   -0.014770
   6 C :   -0.065983
   7 H :    0.026754
   8 H :    0.030262
   9 H :    0.030179
  10 H :    0.046762
  11 H :    0.046989
  12 H :    0.036843
  13 H :    0.028339
  14 H :    0.031686
  15 H :    0.039572
  16 H :    0.040509

  Mayer bond orders larger than 0.1
B(  0-C ,  1-C ) :   1.1018 B(  0-C ,  7-H ) :   0.9602 B(  0-C ,  8-H ) :   0.9702
B(  0-C ,  9-H ) :   0.9706 B(  1-C ,  2-C ) :   1.0781 B(  1-C , 10-H ) :   0.9073
B(  1-C , 11-H ) :   0.9027 B(  2-C ,  3-C ) :   2.4485 B(  2-C ,  5-C ) :   0.1211
B(  3-C ,  4-C ) :   1.0468 B(  4-C ,  5-C ) :   1.8290 B(  4-C , 12-H ) :   0.9392
B(  5-C ,  6-C ) :   1.0876 B(  5-C , 13-H ) :   0.9603 B(  6-C , 14-H ) :   0.9583
B(  6-C , 15-H ) :   0.9454 B(  6-C , 16-H ) :   0.9437

FINAL SINGLE POINT ENERGY      -272.113446422611

DIPOLE MOMENT
-------------
                                X             Y             Z
Electronic contribution:      2.27556      -0.33208      -0.80914
Nuclear contribution   :     -2.35601       0.35005       0.89514
                        -----------------------------------------
Total Dipole Moment    :     -0.08045       0.01797       0.08601
                        -----------------------------------------
Magnitude (a.u.)       :      0.11913
Magnitude (Debye)      :      0.30280

                             ****ORCA TERMINATED NORMALLY****
TOTAL RUN TIME: 0 days 0 hours 0 minutes 7 seconds 105 msec
