                         Program Version 3.0.3 - RELEASE   -
|  1> ! RI PBE def2-SVP def2-SVP/J NBO PAL2
|  2> % maxcore 2000
|  3> % output
|  4>     # printlevel mini
|  5>     print[ P_Basis ] 0
|  6>     print[ P_SCFInfo ] 1
|  7>     print[ P_SCFIterInfo ] 1
|  8>     print[ P_OrbEn ] 0
|  9>     print[ P_Cartesian ] 0
| 10> end
| 11> *xyz 0 1
| 12>  C        1.0240140000    -0.1271690000    -0.0176470000
| 13>  C        2.5496290000    -0.0724310000    -0.0496800000
| 14>  C        3.0633550000     1.1008930000    -0.7411200000
| 15>  C        3.4605320000     2.0799490000    -1.3182540000
| 16>  C        3.9657750000     3.2601840000    -2.0140390000
| 17>  C        4.8031810000     4.1343350000    -1.0802500000
| 18>  C        4.7548830000     2.8681050000    -3.2633880000
| 19>  H        0.6837970000    -1.0212130000     0.5095110000
| 20>  H        0.6159700000    -0.1482790000    -1.0296310000
| 21>  H        0.6156910000     0.7481420000     0.4904380000
| 22>  H        2.9409710000    -0.9737020000    -0.5340140000
| 23>  H        2.9408180000    -0.0849040000     0.9734640000
| 24>  H        3.0961100000     3.8477070000    -2.3355780000
| 25>  H        5.6860880000     3.5899180000    -0.7370670000
| 26>  H        4.2291910000     4.4352140000    -0.2024240000
| 27>  H        5.1368760000     5.0348660000    -1.6019780000
| 28>  H        5.6359490000     2.2825260000    -2.9904600000
| 29>  H        5.0887460000     3.7617170000    -3.7967700000
| 30>  H        4.1463230000     2.2673430000    -3.9411110000
| 31> *
| 32>
| 33>                          ****END OF INPUT****
 Total Charge           Charge          ....    0
 Multiplicity           Mult            ....    1
 Number of Electrons    NEL             ....   54
 Basis Dimension        Dim             ....  158

MULLIKEN ATOMIC CHARGES
-----------------------
   0 C :   -0.032958
   1 C :    0.053269
   2 C :   -0.180733
   3 C :   -0.069964
   4 C :   -0.107324
   5 C :    0.023461
   6 C :    0.013126
   7 H :    0.019874
   8 H :    0.030771
   9 H :    0.033276
  10 H :    0.026309
  11 H :    0.028952
  12 H :    0.026396
  13 H :    0.021082
  14 H :    0.027157
  15 H :    0.015544
  16 H :    0.025190
  17 H :    0.015655
  18 H :    0.030916
Sum of atomic charges:   -0.0000000

LOEWDIN ATOMIC CHARGES
----------------------
   0 C :   -0.054549
   1 C :   -0.050361
   2 C :   -0.069142
   3 C :   -0.058319
   4 C :   -0.053961
   5 C :   -0.046976
   6 C :   -0.048932
   7 H :    0.026359
   8 H :    0.029032
   9 H :    0.029600
  10 H :    0.044241
  11 H :    0.044507
  12 H :    0.043988
  13 H :    0.027477
  14 H :    0.029296
  15 H :    0.024858
  16 H :    0.028067
  17 H :    0.024912
  18 H :    0.029902

  Mayer bond orders larger than 0.1
B(  0-C ,  1-C ) :   1.1059 B(  0-C ,  7-H ) :   0.9599 B(  0-C ,  8-H ) :   0.9702
B(  0-C ,  9-H ) :   0.9709 B(  1-C ,  2-C ) :   1.0943 B(  1-C , 10-H ) :   0.8982
B(  1-C , 11-H ) :   0.9006 B(  2-C ,  3-C ) :   2.5974 B(  3-C ,  4-C ) :   1.0154
B(  4-C ,  5-C ) :   1.0816 B(  4-C ,  6-C ) :   1.0795 B(  4-C , 12-H ) :   0.8769
B(  5-C , 13-H ) :   0.9606 B(  5-C , 14-H ) :   0.9632 B(  5-C , 15-H ) :   0.9578
B(  6-C , 16-H ) :   0.9615 B(  6-C , 17-H ) :   0.9571 B(  6-C , 18-H ) :   0.9632

FINAL SINGLE POINT ENERGY      -273.325758108305

DIPOLE MOMENT
-------------
                                X             Y             Z
Electronic contribution:     -0.29802      -0.86123       0.54554
Nuclear contribution   :      0.26472       0.84935      -0.53391
                        -----------------------------------------
Total Dipole Moment    :     -0.03330      -0.01188       0.01163
                        -----------------------------------------
Magnitude (a.u.)       :      0.03722
Magnitude (Debye)      :      0.09461

                             ****ORCA TERMINATED NORMALLY****
TOTAL RUN TIME: 0 days 0 hours 0 minutes 7 seconds 556 msec
