                         Program Version 3.0.3 - RELEASE   -
|  1> ! RI PBE def2-SVP def2-SVP/J NBO PAL2
|  2> % maxcore 2000
|  3> % output
|  4>     # printlevel mini
|  5>     print[ P_Basis ] 0
|  6>     print[ P_SCFInfo ] 1
|  7>     print[ P_SCFIterInfo ] 1
|  8>     print[ P_OrbEn ] 0
|  9>     print[ P_Cartesian ] 0
| 10> end
| 11> *xyz 0 1
| 12>  C        0.9088080000     0.1421800000     0.0182250000
| 13>  C        2.4348230000     0.0702210000     0.0052820000
| 14>  C        2.9407610000    -1.2663900000    -0.2429560000
| 15>  C        3.3444010000    -2.3869180000    -0.4509710000
| 16>  C        3.8057490000    -3.6487880000    -0.6850120000
| 17>  C        4.2146610000    -4.7668160000    -0.8920420000
| 18>  C        4.7055850000    -6.1044210000    -1.1401580000
| 19>  H        0.5799520000     1.1658890000     0.2082470000
| 20>  H        0.4966670000    -0.5023650000     0.7962230000
| 21>  H        0.4971530000    -0.1800230000    -0.9395360000
| 22>  H        2.8321950000     0.4272200000     0.9622250000
| 23>  H        2.8326950000     0.7470930000    -0.7593060000
| 24>  H        4.3720270000    -6.4696010000    -2.1153160000
| 25>  H        4.3454410000    -6.8014480000    -0.3785730000
| 26>  H        5.7986920000    -6.1285330000    -1.1280530000
| 27> *
| 28>
| 29>                          ****END OF INPUT****
 Total Charge           Charge          ....    0
 Multiplicity           Mult            ....    1
 Number of Electrons    NEL             ....   50
 Basis Dimension        Dim             ....  138

MULLIKEN ATOMIC CHARGES
-----------------------
   0 C :   -0.031051
   1 C :    0.037418
   2 C :   -0.113982
   3 C :   -0.061155
   4 C :   -0.034037
   5 C :   -0.187378
   6 C :    0.055095
   7 H :    0.023199
   8 H :    0.038916
   9 H :    0.035867
  10 H :    0.036706
  11 H :    0.041548
  12 H :    0.049550
  13 H :    0.053555
  14 H :    0.055748
Sum of atomic charges:   -0.0000000

LOEWDIN ATOMIC CHARGES
----------------------
   0 C :   -0.052261
   1 C :   -0.050290
   2 C :   -0.015646
   3 C :   -0.073373
   4 C :   -0.071677
   5 C :   -0.024786
   6 C :   -0.067647
   7 H :    0.028379
   8 H :    0.032116
   9 H :    0.031500
  10 H :    0.049663
  11 H :    0.050490
  12 H :    0.053932
  13 H :    0.054578
  14 H :    0.055021

  Mayer bond orders larger than 0.1
B(  0-C ,  1-C ) :   1.1019 B(  0-C ,  7-H ) :   0.9597 B(  0-C ,  8-H ) :   0.9705
B(  0-C ,  9-H ) :   0.9700 B(  1-C ,  2-C ) :   1.0986 B(  1-C , 10-H ) :   0.8970
B(  1-C , 11-H ) :   0.8988 B(  2-C ,  3-C ) :   2.3459 B(  2-C ,  5-C ) :   0.2271
B(  3-C ,  4-C ) :   0.9723 B(  4-C ,  5-C ) :   2.3408 B(  5-C ,  6-C ) :   1.1630
B(  6-C , 12-H ) :   0.9246 B(  6-C , 13-H ) :   0.9257 B(  6-C , 14-H ) :   0.9255

FINAL SINGLE POINT ENERGY      -270.882861465180

DIPOLE MOMENT
-------------
                                X             Y             Z
Electronic contribution:      3.20835      -2.40099      -0.44447
Nuclear contribution   :     -3.24750       2.38416       0.44301
                        -----------------------------------------
Total Dipole Moment    :     -0.03915      -0.01683      -0.00146
                        -----------------------------------------
Magnitude (a.u.)       :      0.04264
Magnitude (Debye)      :      0.10838

                             ****ORCA TERMINATED NORMALLY****
TOTAL RUN TIME: 0 days 0 hours 0 minutes 5 seconds 924 msec
