                         Program Version 3.0.3 - RELEASE   -
|  1> ! RI PBE def2-SVP def2-SVP/J NBO PAL2
|  2> % maxcore 2000
|  3> % output
|  4>     # printlevel mini
|  5>     print[ P_Basis ] 0
|  6>     print[ P_SCFInfo ] 1
|  7>     print[ P_SCFIterInfo ] 1
|  8>     print[ P_OrbEn ] 0
|  9>     print[ P_Cartesian ] 0
| 10> end
| 11> *xyz 0 1
| 12>  C        1.0293050000    -0.1289150000    -0.0027120000
| 13>  C        2.5373400000     0.0607750000    -0.1464370000
| 14>  C        2.9966120000     1.3596610000     0.3223150000
| 15>  C        3.3520020000     2.4387530000     0.7178920000
| 16>  C        3.7914410000     3.7518280000     1.1731070000
| 17>  C        3.9408610000     4.7376920000     0.0501610000
| 18>  C        3.3468510000     5.9200750000     0.0102370000
| 19>  H        0.7312590000    -1.1139380000    -0.3683870000
| 20>  H        0.4875050000     0.6281040000    -0.5721930000
| 21>  H        0.7254900000    -0.0439290000     1.0420620000
| 22>  H        2.8266270000    -0.0607750000    -1.1959680000
| 23>  H        3.0637740000    -0.7256600000     0.4052470000
| 24>  H        4.7558190000     3.6406460000     1.6860270000
| 25>  H        3.0893220000     4.1438880000     1.9160470000
| 26>  H        4.5876710000     4.4268320000    -0.7663770000
| 27>  H        2.6864640000     6.2509900000     0.8059990000
| 28>  H        3.4967580000     6.6004610000    -0.8198210000
| 29> *
| 30>
| 31>                          ****END OF INPUT****
 Total Charge           Charge          ....    0
 Multiplicity           Mult            ....    1
 Number of Electrons    NEL             ....   52
 Basis Dimension        Dim             ....  148

MULLIKEN ATOMIC CHARGES
-----------------------
   0 C :   -0.031872
   1 C :    0.050347
   2 C :   -0.154785
   3 C :   -0.162750
   4 C :    0.137545
   5 C :   -0.080207
   6 C :   -0.042572
   7 H :    0.018531
   8 H :    0.035954
   9 H :    0.030740
  10 H :    0.031407
  11 H :    0.030862
  12 H :    0.043183
  13 H :    0.029934
  14 H :    0.013741
  15 H :    0.019825
  16 H :    0.030117
Sum of atomic charges:    0.0000000

LOEWDIN ATOMIC CHARGES
----------------------
   0 C :   -0.054066
   1 C :   -0.050838
   2 C :   -0.061777
   3 C :   -0.066833
   4 C :   -0.045868
   5 C :   -0.016901
   6 C :   -0.065028
   7 H :    0.026414
   8 H :    0.030683
   9 H :    0.029105
  10 H :    0.045856
  11 H :    0.045385
  12 H :    0.055944
  13 H :    0.049262
  14 H :    0.029408
  15 H :    0.022356
  16 H :    0.026897

  Mayer bond orders larger than 0.1
B(  0-C ,  1-C ) :   1.1033 B(  0-C ,  7-H ) :   0.9590 B(  0-C ,  8-H ) :   0.9706
B(  0-C ,  9-H ) :   0.9715 B(  1-C ,  2-C ) :   1.0939 B(  1-C , 10-H ) :   0.9000
B(  1-C , 11-H ) :   0.9002 B(  2-C ,  3-C ) :   2.6432 B(  3-C ,  4-C ) :   1.0461
B(  4-C ,  5-C ) :   1.0463 B(  4-C , 12-H ) :   0.8857 B(  4-C , 13-H ) :   0.8961
B(  5-C ,  6-C ) :   2.0185 B(  5-C , 14-H ) :   0.9579 B(  6-C , 15-H ) :   0.9474
B(  6-C , 16-H ) :   0.9461

FINAL SINGLE POINT ENERGY      -272.099529243564

DIPOLE MOMENT
-------------
                                X             Y             Z
Electronic contribution:      2.96211       1.67991       0.76327
Nuclear contribution   :     -2.96671      -1.81578      -0.75602
                        -----------------------------------------
Total Dipole Moment    :     -0.00460      -0.13587       0.00725
                        -----------------------------------------
Magnitude (a.u.)       :      0.13614
Magnitude (Debye)      :      0.34604

                             ****ORCA TERMINATED NORMALLY****
TOTAL RUN TIME: 0 days 0 hours 0 minutes 7 seconds 197 msec
