                         Program Version 3.0.3 - RELEASE   -
|  1> ! RI PBE def2-SVP def2-SVP/J NBO PAL2
|  2> % maxcore 2000
|  3> % output
|  4>     # printlevel mini
|  5>     print[ P_Basis ] 0
|  6>     print[ P_SCFInfo ] 1
|  7>     print[ P_SCFIterInfo ] 1
|  8>     print[ P_OrbEn ] 0
|  9>     print[ P_Cartesian ] 0
| 10> end
| 11> *xyz 0 1
| 12>  C        1.0567320000    -0.1819040000    -0.0871190000
| 13>  C        2.5793290000    -0.0708160000    -0.1061110000
| 14>  C        3.0633910000     1.1744250000     0.4696550000
| 15>  C        3.4362610000     2.2100200000     0.9512970000
| 16>  C        3.9074150000     3.4631450000     1.5316620000
| 17>  C        2.8498710000     4.2583670000     2.1465730000
| 18>  C        1.9913410000     4.9224070000     2.6558100000
| 19>  H        0.7390240000    -1.1302920000    -0.5253710000
| 20>  H        0.6013030000     0.6302740000    -0.6560290000
| 21>  H        0.6767700000    -0.1298820000     0.9344320000
| 22>  H        2.9447430000    -0.1531510000    -1.1353490000
| 23>  H        3.0196850000    -0.9111710000     0.4411880000
| 24>  H        4.3993570000     4.0639260000     0.7575300000
| 25>  H        4.6764400000     3.2522110000     2.2842130000
| 26>  H        1.2250360000     5.5074400000     3.1063200000
| 27> *
| 28>
| 29>                          ****END OF INPUT****
 Total Charge           Charge          ....    0
 Multiplicity           Mult            ....    1
 Number of Electrons    NEL             ....   50
 Basis Dimension        Dim             ....  138

MULLIKEN ATOMIC CHARGES
-----------------------
   0 C :   -0.032082
   1 C :    0.050151
   2 C :   -0.152168
   3 C :   -0.152630
   4 C :    0.174716
   5 C :    0.298824
   6 C :   -0.461345
   7 H :    0.020465
   8 H :    0.037785
   9 H :    0.034812
  10 H :    0.032251
  11 H :    0.031773
  12 H :    0.057926
  13 H :    0.059398
  14 H :    0.000125
Sum of atomic charges:   -0.0000000

LOEWDIN ATOMIC CHARGES
----------------------
   0 C :   -0.052459
   1 C :   -0.049960
   2 C :   -0.049005
   3 C :   -0.063847
   4 C :   -0.046964
   5 C :   -0.015441
   6 C :   -0.077788
   7 H :    0.027222
   8 H :    0.031452
   9 H :    0.030844
  10 H :    0.046130
  11 H :    0.046305
  12 H :    0.069053
  13 H :    0.069209
  14 H :    0.035249

  Mayer bond orders larger than 0.1
B(  0-C ,  1-C ) :   1.1008 B(  0-C ,  7-H ) :   0.9595 B(  0-C ,  8-H ) :   0.9710
B(  0-C ,  9-H ) :   0.9709 B(  1-C ,  2-C ) :   1.0914 B(  1-C , 10-H ) :   0.9029
B(  1-C , 11-H ) :   0.9001 B(  2-C ,  3-C ) :   2.6745 B(  3-C ,  4-C ) :   1.0356
B(  4-C ,  5-C ) :   1.0469 B(  4-C , 12-H ) :   0.8707 B(  4-C , 13-H ) :   0.8732
B(  5-C ,  6-C ) :   2.3993 B(  5-C , 14-H ) :  -0.1075 B(  6-C , 14-H ) :   1.0989

FINAL SINGLE POINT ENERGY      -270.852795773812

DIPOLE MOMENT
-------------
                                X             Y             Z
Electronic contribution:      2.91656       5.67394       2.79458
Nuclear contribution   :     -2.82481      -5.90684      -2.94067
                        -----------------------------------------
Total Dipole Moment    :      0.09175      -0.23289      -0.14609
                        -----------------------------------------
Magnitude (a.u.)       :      0.28983
Magnitude (Debye)      :      0.73668

                             ****ORCA TERMINATED NORMALLY****
TOTAL RUN TIME: 0 days 0 hours 0 minutes 6 seconds 494 msec
