                         Program Version 3.0.3 - RELEASE   -
|  1> ! RI PBE def2-SVP def2-SVP/J NBO PAL2
|  2> % maxcore 2000
|  3> % output
|  4>     # printlevel mini
|  5>     print[ P_Basis ] 0
|  6>     print[ P_SCFInfo ] 1
|  7>     print[ P_SCFIterInfo ] 1
|  8>     print[ P_OrbEn ] 0
|  9>     print[ P_Cartesian ] 0
| 10> end
| 11> *xyz 0 1
| 12>  C        0.8949390000    -1.0217490000     1.3738370000
| 13>  C        2.4123760000    -0.9582430000     1.3530200000
| 14>  C        3.0174160000    -1.6413070000     0.1288620000
| 15>  C        4.5061370000    -1.5465230000     0.0809380000
| 16>  C        5.3433430000    -2.5772400000     0.0788360000
| 17>  C        6.8334200000    -2.4832970000     0.0539400000
| 18>  C        7.4847010000    -3.1422230000     1.2653020000
| 19>  H        0.4852530000    -0.5285300000     2.2582930000
| 20>  H        0.5433870000    -2.0574290000     1.3788520000
| 21>  H        0.4669850000    -0.5342510000     0.4931480000
| 22>  H        2.8190200000    -1.4246700000     2.2565290000
| 23>  H        2.7387700000     0.0876910000     1.3786000000
| 24>  H        2.5922120000    -1.1781150000    -0.7718920000
| 25>  H        2.7150790000    -2.6940980000     0.1073720000
| 26>  H        4.9221440000    -0.5382950000     0.0578450000
| 27>  H        4.9280720000    -3.5857290000     0.1085560000
| 28>  H        7.1313270000    -1.4319350000    -0.0062890000
| 29>  H        7.2110580000    -2.9662480000    -0.8560930000
| 30>  H        7.1713610000    -2.6529730000     2.1905590000
| 31>  H        8.5744340000    -3.0909950000     1.2053860000
| 32>  H        7.2043880000    -4.1966520000     1.3374790000
| 33> *
| 34>
| 35>                          ****END OF INPUT****
 Total Charge           Charge          ....    0
 Multiplicity           Mult            ....    1
 Number of Electrons    NEL             ....   56
 Basis Dimension        Dim             ....  168

MULLIKEN ATOMIC CHARGES
-----------------------
   0 C :   -0.003117
   1 C :   -0.064815
   2 C :    0.061368
   3 C :   -0.064493
   4 C :   -0.077222
   5 C :    0.044890
   6 C :   -0.049387
   7 H :    0.019106
   8 H :    0.015488
   9 H :    0.015084
  10 H :    0.013113
  11 H :    0.011602
  12 H :    0.011101
  13 H :   -0.000439
  14 H :   -0.013886
  15 H :   -0.013925
  16 H :    0.004513
  17 H :    0.017680
  18 H :    0.023642
  19 H :    0.027184
  20 H :    0.022512
Sum of atomic charges:   -0.0000000

LOEWDIN ATOMIC CHARGES
----------------------
   0 C :   -0.066333
   1 C :   -0.043851
   2 C :   -0.041744
   3 C :   -0.043047
   4 C :   -0.044209
   5 C :   -0.044976
   6 C :   -0.065829
   7 H :    0.026602
   8 H :    0.023962
   9 H :    0.023892
  10 H :    0.023665
  11 H :    0.022068
  12 H :    0.030029
  13 H :    0.025365
  14 H :    0.019324
  15 H :    0.019086
  16 H :    0.026592
  17 H :    0.031778
  18 H :    0.025789
  19 H :    0.026853
  20 H :    0.024983

  Mayer bond orders larger than 0.1
B(  0-C ,  1-C ) :   1.1119 B(  0-C ,  7-H ) :   0.9621 B(  0-C ,  8-H ) :   0.9659
B(  0-C ,  9-H ) :   0.9652 B(  1-C ,  2-C ) :   1.0764 B(  1-C , 10-H ) :   0.9412
B(  1-C , 11-H ) :   0.9420 B(  2-C ,  3-C ) :   1.0537 B(  2-C , 12-H ) :   0.9123
B(  2-C , 13-H ) :   0.9313 B(  3-C ,  4-C ) :   1.9223 B(  3-C , 14-H ) :   0.9513
B(  4-C ,  5-C ) :   1.0570 B(  4-C , 15-H ) :   0.9527 B(  5-C ,  6-C ) :   1.1000
B(  5-C , 16-H ) :   0.9339 B(  5-C , 17-H ) :   0.9183 B(  6-C , 18-H ) :   0.9680
B(  6-C , 19-H ) :   0.9619 B(  6-C , 20-H ) :   0.9687

FINAL SINGLE POINT ENERGY      -274.562923956435

DIPOLE MOMENT
-------------
                                X             Y             Z
Electronic contribution:      1.18790       0.05252      -1.96653
Nuclear contribution   :     -1.18988      -0.04102       1.98334
                        -----------------------------------------
Total Dipole Moment    :     -0.00198       0.01150       0.01681
                        -----------------------------------------
Magnitude (a.u.)       :      0.02046
Magnitude (Debye)      :      0.05201

                             ****ORCA TERMINATED NORMALLY****
TOTAL RUN TIME: 0 days 0 hours 0 minutes 8 seconds 800 msec
