                         Program Version 3.0.3 - RELEASE   -
|  1> ! RI PBE def2-SVP def2-SVP/J NBO PAL2
|  2> % maxcore 2000
|  3> % output
|  4>     # printlevel mini
|  5>     print[ P_Basis ] 0
|  6>     print[ P_SCFInfo ] 1
|  7>     print[ P_SCFIterInfo ] 1
|  8>     print[ P_OrbEn ] 0
|  9>     print[ P_Cartesian ] 0
| 10> end
| 11> *xyz 0 1
| 12>  C        0.7259020000     0.2194380000    -2.3497890000
| 13>  C        1.9628910000    -0.3200940000    -1.6526450000
| 14>  C        2.7885360000    -1.2474800000    -2.5427210000
| 15>  C        3.9648540000    -1.8324680000    -1.8334710000
| 16>  C        5.2612970000    -1.7006940000    -2.1197490000
| 17>  C        6.3048150000    -2.3635370000    -1.2730260000
| 18>  C        5.8081520000    -0.9152870000    -3.2707920000
| 19>  H        0.1523760000     0.8797980000    -1.6952230000
| 20>  H        0.0644810000    -0.5928760000    -2.6646310000
| 21>  H        0.9936010000     0.7897250000    -3.2439370000
| 22>  H        1.6702740000    -0.8606790000    -0.7453960000
| 23>  H        2.5964290000     0.5085790000    -1.3191250000
| 24>  H        3.0947790000    -0.7052950000    -3.4412830000
| 25>  H        2.1376510000    -2.0622670000    -2.8881920000
| 26>  H        3.7130940000    -2.4337240000    -0.9597210000
| 27>  H        5.8612950000    -2.9242260000    -0.4488850000
| 28>  H        6.9960720000    -1.6245500000    -0.8526750000
| 29>  H        6.9130040000    -3.0532910000    -1.8689040000
| 30>  H        5.0381430000    -0.4224150000    -3.8622300000
| 31>  H        6.3830320000    -1.5655720000    -3.9393280000
| 32>  H        6.5038510000    -0.1481950000    -2.9135770000
| 33> *
| 34>
| 35>                          ****END OF INPUT****
 Total Charge           Charge          ....    0
 Multiplicity           Mult            ....    1
 Number of Electrons    NEL             ....   56
 Basis Dimension        Dim             ....  168

MULLIKEN ATOMIC CHARGES
-----------------------
   0 C :   -0.015637
   1 C :   -0.064442
   2 C :    0.070840
   3 C :   -0.083348
   4 C :   -0.190236
   5 C :    0.047657
   6 C :    0.058602
   7 H :    0.023765
   8 H :    0.015902
   9 H :    0.017998
  10 H :    0.010574
  11 H :    0.014104
  12 H :   -0.004403
  13 H :    0.008732
  14 H :   -0.024116
  15 H :    0.010985
  16 H :    0.022370
  17 H :    0.023569
  18 H :    0.008001
  19 H :    0.024995
  20 H :    0.024087
Sum of atomic charges:   -0.0000000

LOEWDIN ATOMIC CHARGES
----------------------
   0 C :   -0.070552
   1 C :   -0.042367
   2 C :   -0.043412
   3 C :   -0.059193
   4 C :   -0.048317
   5 C :   -0.055888
   6 C :   -0.059973
   7 H :    0.027206
   8 H :    0.024474
   9 H :    0.024279
  10 H :    0.021817
  11 H :    0.023835
  12 H :    0.022249
  13 H :    0.030655
  14 H :    0.019189
  15 H :    0.027504
  16 H :    0.031568
  17 H :    0.031640
  18 H :    0.025764
  19 H :    0.035116
  20 H :    0.034408

  Mayer bond orders larger than 0.1
B(  0-C ,  1-C ) :   1.1177 B(  0-C ,  7-H ) :   0.9617 B(  0-C ,  8-H ) :   0.9617
B(  0-C ,  9-H ) :   0.9636 B(  1-C ,  2-C ) :   1.0788 B(  1-C , 10-H ) :   0.9411
B(  1-C , 11-H ) :   0.9409 B(  2-C ,  3-C ) :   1.0626 B(  2-C , 12-H ) :   0.9244
B(  2-C , 13-H ) :   0.9045 B(  3-C ,  4-C ) :   1.9041 B(  3-C , 14-H ) :   0.9305
B(  4-C ,  5-C ) :   1.0751 B(  4-C ,  6-C ) :   1.0989 B(  5-C , 15-H ) :   0.9538
B(  5-C , 16-H ) :   0.9472 B(  5-C , 17-H ) :   0.9480 B(  6-C , 18-H ) :   0.9446
B(  6-C , 19-H ) :   0.9421 B(  6-C , 20-H ) :   0.9426

FINAL SINGLE POINT ENERGY      -274.566466809249

DIPOLE MOMENT
-------------
                                X             Y             Z
Electronic contribution:      1.29963      -1.64441       0.56057
Nuclear contribution   :     -1.21691       1.69123      -0.60951
                        -----------------------------------------
Total Dipole Moment    :      0.08272       0.04682      -0.04894
                        -----------------------------------------
Magnitude (a.u.)       :      0.10691
Magnitude (Debye)      :      0.27175

                             ****ORCA TERMINATED NORMALLY****
TOTAL RUN TIME: 0 days 0 hours 0 minutes 9 seconds 15 msec
