                         Program Version 3.0.3 - RELEASE   -
|  1> ! RI PBE def2-SVP def2-SVP/J NBO PAL2
|  2> % maxcore 2000
|  3> % output
|  4>     # printlevel mini
|  5>     print[ P_Basis ] 0
|  6>     print[ P_SCFInfo ] 1
|  7>     print[ P_SCFIterInfo ] 1
|  8>     print[ P_OrbEn ] 0
|  9>     print[ P_Cartesian ] 0
| 10> end
| 11> *xyz 0 1
| 12>  C        1.0488310000    -0.2936960000    -0.2063990000
| 13>  C        2.5537750000    -0.2161940000    -0.0163830000
| 14>  C        2.9747470000     0.9389760000     0.8909220000
| 15>  C        4.4450300000     0.9964300000     1.1199010000
| 16>  C        5.2375620000     2.0221380000     0.7999580000
| 17>  C        6.6672200000     2.0456080000     1.0257950000
| 18>  C        7.4642460000     3.0667350000     0.7111190000
| 19>  H        0.7708570000    -1.1241340000    -0.8592450000
| 20>  H        0.6598420000     0.6250050000    -0.6543440000
| 21>  H        0.5366500000    -0.4360340000     0.7494250000
| 22>  H        3.0487240000    -0.1042380000    -0.9865500000
| 23>  H        2.9227850000    -1.1574170000     0.4063320000
| 24>  H        2.4611740000     0.8246340000     1.8553920000
| 25>  H        2.6293240000     1.8874010000     0.4657560000
| 26>  H        4.8977670000     0.1156780000     1.5759550000
| 27>  H        4.8004830000     2.9080010000     0.3408880000
| 28>  H        7.0971200000     1.1574140000     1.4848920000
| 29>  H        7.0707450000     3.9684190000     0.2526010000
| 30>  H        8.5300490000     3.0348830000     0.9007750000
| 31> *
| 32>
| 33>                          ****END OF INPUT****
 Total Charge           Charge          ....    0
 Multiplicity           Mult            ....    1
 Number of Electrons    NEL             ....   54
 Basis Dimension        Dim             ....  158

MULLIKEN ATOMIC CHARGES
-----------------------
   0 C :   -0.003713
   1 C :   -0.068144
   2 C :    0.062537
   3 C :   -0.068084
   4 C :    0.012799
   5 C :   -0.011416
   6 C :   -0.036142
   7 H :    0.023052
   8 H :    0.017989
   9 H :    0.015180
  10 H :    0.017734
  11 H :    0.012001
  12 H :    0.017498
  13 H :    0.001140
  14 H :   -0.007953
  15 H :   -0.016827
  16 H :   -0.009551
  17 H :    0.015869
  18 H :    0.026033
Sum of atomic charges:   -0.0000000

LOEWDIN ATOMIC CHARGES
----------------------
   0 C :   -0.066444
   1 C :   -0.042373
   2 C :   -0.041516
   3 C :   -0.022045
   4 C :   -0.045192
   5 C :   -0.032394
   6 C :   -0.059958
   7 H :    0.027719
   8 H :    0.024920
   9 H :    0.024373
  10 H :    0.025414
  11 H :    0.022698
  12 H :    0.033921
  13 H :    0.026694
  14 H :    0.022470
  15 H :    0.026025
  16 H :    0.028422
  17 H :    0.022112
  18 H :    0.025155

  Mayer bond orders larger than 0.1
B(  0-C ,  1-C ) :   1.1156 B(  0-C ,  7-H ) :   0.9625 B(  0-C ,  8-H ) :   0.9653
B(  0-C ,  9-H ) :   0.9632 B(  1-C ,  2-C ) :   1.0722 B(  1-C , 10-H ) :   0.9410
B(  1-C , 11-H ) :   0.9418 B(  2-C ,  3-C ) :   1.0568 B(  2-C , 12-H ) :   0.9064
B(  2-C , 13-H ) :   0.9326 B(  3-C ,  4-C ) :   1.7934 B(  3-C ,  6-C ) :   0.1374
B(  3-C , 14-H ) :   0.9533 B(  4-C ,  5-C ) :   1.1358 B(  4-C , 15-H ) :   0.9591
B(  5-C ,  6-C ) :   1.8890 B(  5-C , 16-H ) :   0.9606 B(  6-C , 17-H ) :   0.9457
B(  6-C , 18-H ) :   0.9416

FINAL SINGLE POINT ENERGY      -273.347863412957

DIPOLE MOMENT
-------------
                                X             Y             Z
Electronic contribution:      5.23683       2.28593       1.53849
Nuclear contribution   :     -5.47391      -2.43976      -1.54379
                        -----------------------------------------
Total Dipole Moment    :     -0.23708      -0.15383      -0.00530
                        -----------------------------------------
Magnitude (a.u.)       :      0.28266
Magnitude (Debye)      :      0.71846

                             ****ORCA TERMINATED NORMALLY****
TOTAL RUN TIME: 0 days 0 hours 0 minutes 7 seconds 985 msec
