                         Program Version 3.0.3 - RELEASE   -
|  1> ! RI PBE def2-SVP def2-SVP/J NBO PAL2
|  2> % maxcore 2000
|  3> % output
|  4>     # printlevel mini
|  5>     print[ P_Basis ] 0
|  6>     print[ P_SCFInfo ] 1
|  7>     print[ P_SCFIterInfo ] 1
|  8>     print[ P_OrbEn ] 0
|  9>     print[ P_Cartesian ] 0
| 10> end
| 11> *xyz 0 1
| 12>  C        1.0301170000     0.3320960000    -0.1485170000
| 13>  C        2.5436880000     0.2288670000    -0.0772990000
| 14>  C        3.0198220000    -1.1803570000     0.2734330000
| 15>  C        4.5022960000    -1.3029660000     0.2976820000
| 16>  C        5.2162610000    -1.6712900000     1.3646080000
| 17>  C        6.6293640000    -1.7767110000     1.3814250000
| 18>  C        7.8281640000    -1.8756990000     1.4287640000
| 19>  H        0.7114190000     1.3463020000    -0.3988220000
| 20>  H        0.5706890000     0.0663430000     0.8076320000
| 21>  H        0.6233860000    -0.3416730000    -0.9079060000
| 22>  H        2.9328630000     0.9312460000     0.6668160000
| 23>  H        2.9814380000     0.5276230000    -1.0361960000
| 24>  H        2.6144840000    -1.8779680000    -0.4719870000
| 25>  H        2.6056650000    -1.4823160000     1.2412300000
| 26>  H        5.0310160000    -1.0609930000    -0.6220640000
| 27>  H        4.7040940000    -1.9139470000     2.2936550000
| 28>  H        8.8883240000    -1.9598480000     1.4617480000
| 29> *
| 30>
| 31>                          ****END OF INPUT****
 Total Charge           Charge          ....    0
 Multiplicity           Mult            ....    1
 Number of Electrons    NEL             ....   52
 Basis Dimension        Dim             ....  148

MULLIKEN ATOMIC CHARGES
-----------------------
   0 C :   -0.001491
   1 C :   -0.070787
   2 C :    0.049053
   3 C :   -0.037352
   4 C :   -0.067393
   5 C :    0.383149
   6 C :   -0.412577
   7 H :    0.022133
   8 H :    0.018021
   9 H :    0.017476
  10 H :    0.023921
  11 H :    0.014251
  12 H :    0.026429
  13 H :    0.002475
  14 H :    0.007839
  15 H :    0.022086
  16 H :    0.002767
Sum of atomic charges:   -0.0000000

LOEWDIN ATOMIC CHARGES
----------------------
   0 C :   -0.065166
   1 C :   -0.041951
   2 C :   -0.041522
   3 C :    0.003877
   4 C :   -0.062794
   5 C :   -0.019148
   6 C :   -0.072510
   7 H :    0.028362
   8 H :    0.025242
   9 H :    0.025000
  10 H :    0.026875
  11 H :    0.024035
  12 H :    0.036999
  13 H :    0.027497
  14 H :    0.030158
  15 H :    0.040795
  16 H :    0.034250

  Mayer bond orders larger than 0.1
B(  0-C ,  1-C ) :   1.1150 B(  0-C ,  7-H ) :   0.9621 B(  0-C ,  8-H ) :   0.9649
B(  0-C ,  9-H ) :   0.9650 B(  1-C ,  2-C ) :   1.0722 B(  1-C , 10-H ) :   0.9424
B(  1-C , 11-H ) :   0.9402 B(  2-C ,  3-C ) :   1.0625 B(  2-C , 12-H ) :   0.9095
B(  2-C , 13-H ) :   0.9285 B(  3-C ,  4-C ) :   1.8234 B(  3-C ,  6-C ) :   0.1299
B(  3-C , 14-H ) :   0.9560 B(  4-C ,  5-C ) :   1.0461 B(  4-C , 15-H ) :   0.9369
B(  5-C ,  6-C ) :   2.2799 B(  6-C , 16-H ) :   1.0887

FINAL SINGLE POINT ENERGY      -272.101350207153

DIPOLE MOMENT
-------------
                                X             Y             Z
Electronic contribution:      9.88929      -3.72203       2.71967
Nuclear contribution   :    -10.29863       3.84211      -2.86773
                        -----------------------------------------
Total Dipole Moment    :     -0.40934       0.12008      -0.14806
                        -----------------------------------------
Magnitude (a.u.)       :      0.45155
Magnitude (Debye)      :      1.14776

                             ****ORCA TERMINATED NORMALLY****
TOTAL RUN TIME: 0 days 0 hours 0 minutes 7 seconds 334 msec
