                         Program Version 3.0.3 - RELEASE   -
|  1> ! RI PBE def2-SVP def2-SVP/J NBO PAL2
|  2> % maxcore 2000
|  3> % output
|  4>     # printlevel mini
|  5>     print[ P_Basis ] 0
|  6>     print[ P_SCFInfo ] 1
|  7>     print[ P_SCFIterInfo ] 1
|  8>     print[ P_OrbEn ] 0
|  9>     print[ P_Cartesian ] 0
| 10> end
| 11> *xyz 0 1
| 12>  C        1.1943230000     2.0592590000    -0.9149240000
| 13>  C        2.7098640000     1.9541770000    -0.9099490000
| 14>  C        3.1964950000     0.5490890000    -1.2637300000
| 15>  C        4.6902580000     0.3820840000    -1.2246100000
| 16>  C        5.2734410000    -0.3488230000    -0.2786160000
| 17>  C        5.4568440000     1.0829380000    -2.3114030000
| 18>  C        6.9621680000     0.9007730000    -2.3032150000
| 19>  H        0.8623740000     3.0681000000    -0.6591590000
| 20>  H        0.7488530000     1.3696980000    -0.1923240000
| 21>  H        0.7842450000     1.8138790000    -1.8987850000
| 22>  H        3.0992610000     2.2241100000     0.0773760000
| 23>  H        3.1261590000     2.6816340000    -1.6138440000
| 24>  H        2.8295340000     0.2948230000    -2.2671430000
| 25>  H        2.7379620000    -0.1663630000    -0.5738370000
| 26>  H        4.6840710000    -0.8496210000     0.4820770000
| 27>  H        6.3478110000    -0.4765160000    -0.2247220000
| 28>  H        5.2214100000     2.1534140000    -2.2685670000
| 29>  H        5.0511570000     0.7467070000    -3.2751520000
| 30>  H        7.4064820000     1.2828240000    -1.3809540000
| 31>  H        7.4175460000     1.4381620000    -3.1377540000
| 32>  H        7.2375320000    -0.1525480000    -2.3954640000
| 33> *
| 34>
| 35>                          ****END OF INPUT****
 Total Charge           Charge          ....    0
 Multiplicity           Mult            ....    1
 Number of Electrons    NEL             ....   56
 Basis Dimension        Dim             ....  168

MULLIKEN ATOMIC CHARGES
-----------------------
   0 C :   -0.000111
   1 C :   -0.059709
   2 C :    0.061585
   3 C :   -0.161068
   4 C :   -0.040683
   5 C :    0.033260
   6 C :   -0.019606
   7 H :    0.017852
   8 H :    0.017259
   9 H :    0.013488
  10 H :    0.010740
  11 H :    0.018189
  12 H :    0.001855
  13 H :   -0.003656
  14 H :    0.001087
  15 H :    0.005305
  16 H :    0.025514
  17 H :    0.009897
  18 H :    0.026906
  19 H :    0.015772
  20 H :    0.026123
Sum of atomic charges:    0.0000000

LOEWDIN ATOMIC CHARGES
----------------------
   0 C :   -0.064934
   1 C :   -0.042613
   2 C :   -0.032941
   3 C :   -0.026200
   4 C :   -0.084959
   5 C :   -0.042958
   6 C :   -0.064310
   7 H :    0.026476
   8 H :    0.024468
   9 H :    0.023675
  10 H :    0.024699
  11 H :    0.021267
  12 H :    0.026160
  13 H :    0.026565
  14 H :    0.018961
  15 H :    0.017452
  16 H :    0.033871
  17 H :    0.033564
  18 H :    0.027048
  19 H :    0.028086
  20 H :    0.026623

  Mayer bond orders larger than 0.1
B(  0-C ,  1-C ) :   1.1168 B(  0-C ,  7-H ) :   0.9616 B(  0-C ,  8-H ) :   0.9652
B(  0-C ,  9-H ) :   0.9644 B(  1-C ,  2-C ) :   1.0868 B(  1-C , 10-H ) :   0.9375
B(  1-C , 11-H ) :   0.9353 B(  2-C ,  3-C ) :   1.0648 B(  2-C , 12-H ) :   0.9134
B(  2-C , 13-H ) :   0.9180 B(  3-C ,  4-C ) :   1.9908 B(  3-C ,  5-C ) :   1.0289
B(  4-C , 14-H ) :   0.9285 B(  4-C , 15-H ) :   0.9234 B(  5-C ,  6-C ) :   1.1434
B(  5-C , 16-H ) :   0.9127 B(  5-C , 17-H ) :   0.9078 B(  6-C , 18-H ) :   0.9586
B(  6-C , 19-H ) :   0.9544 B(  6-C , 20-H ) :   0.9601

FINAL SINGLE POINT ENERGY      -274.561359109148

DIPOLE MOMENT
-------------
                                X             Y             Z
Electronic contribution:      1.04649      -1.64972       0.57722
Nuclear contribution   :     -1.13463       1.82302      -0.73534
                        -----------------------------------------
Total Dipole Moment    :     -0.08814       0.17330      -0.15812
                        -----------------------------------------
Magnitude (a.u.)       :      0.25061
Magnitude (Debye)      :      0.63699

                             ****ORCA TERMINATED NORMALLY****
TOTAL RUN TIME: 0 days 0 hours 0 minutes 8 seconds 694 msec
