                         Program Version 3.0.3 - RELEASE   -
|  1> ! RI PBE def2-SVP def2-SVP/J NBO PAL2
|  2> % maxcore 2000
|  3> % output
|  4>     # printlevel mini
|  5>     print[ P_Basis ] 0
|  6>     print[ P_SCFInfo ] 1
|  7>     print[ P_SCFIterInfo ] 1
|  8>     print[ P_OrbEn ] 0
|  9>     print[ P_Cartesian ] 0
| 10> end
| 11> *xyz 0 1
| 12>  C        0.7319690000     0.2168340000    -0.2812720000
| 13>  C        2.0810690000    -0.1662520000     0.3020220000
| 14>  C        3.2467900000     0.4455210000    -0.4758550000
| 15>  C        4.5952880000     0.0523620000     0.0562560000
| 16>  C        5.3107650000     0.8870720000     0.8171480000
| 17>  C        5.1330570000    -1.2718320000    -0.2482590000
| 18>  C        4.5799420000    -2.1871410000    -1.0424030000
| 19>  H       -0.0893820000    -0.2158480000     0.2944080000
| 20>  H        0.6336970000    -0.1319310000    -1.3133970000
| 21>  H        0.5973570000     1.3023340000    -0.2878290000
| 22>  H        2.1834060000    -1.2550260000     0.3217970000
| 23>  H        2.1447220000     0.1634450000     1.3439900000
| 24>  H        3.1581330000     1.5356670000    -0.4474490000
| 25>  H        3.1665210000     0.1572860000    -1.5303450000
| 26>  H        4.9568460000     1.8842780000     1.0539190000
| 27>  H        6.2734070000     0.5951160000     1.2229160000
| 28>  H        6.0857800000    -1.5012110000     0.2240800000
| 29>  H        3.6341810000    -2.0227420000    -1.5463550000
| 30>  H        5.0651620000    -3.1396330000    -1.2177730000
| 31> *
| 32>
| 33>                          ****END OF INPUT****
 Total Charge           Charge          ....    0
 Multiplicity           Mult            ....    1
 Number of Electrons    NEL             ....   54
 Basis Dimension        Dim             ....  158

MULLIKEN ATOMIC CHARGES
-----------------------
   0 C :   -0.002229
   1 C :   -0.051823
   2 C :    0.037395
   3 C :   -0.077007
   4 C :   -0.026500
   5 C :    0.004673
   6 C :   -0.039423
   7 H :    0.021577
   8 H :    0.013637
   9 H :    0.019119
  10 H :    0.024150
  11 H :    0.010558
  12 H :    0.001707
  13 H :    0.009654
  14 H :    0.011906
  15 H :    0.010422
  16 H :   -0.017702
  17 H :    0.023990
  18 H :    0.025897
Sum of atomic charges:    0.0000000

LOEWDIN ATOMIC CHARGES
----------------------
   0 C :   -0.067303
   1 C :   -0.041735
   2 C :   -0.034614
   3 C :   -0.029597
   4 C :   -0.048450
   5 C :   -0.023469
   6 C :   -0.057183
   7 H :    0.027935
   8 H :    0.024058
   9 H :    0.024765
  10 H :    0.025106
  11 H :    0.025297
  12 H :    0.029044
  13 H :    0.027539
  14 H :    0.021042
  15 H :    0.020616
  16 H :    0.028765
  17 H :    0.021569
  18 H :    0.026617

  Mayer bond orders larger than 0.1
B(  0-C ,  1-C ) :   1.1192 B(  0-C ,  7-H ) :   0.9593 B(  0-C ,  8-H ) :   0.9617
B(  0-C ,  9-H ) :   0.9648 B(  1-C ,  2-C ) :   1.0886 B(  1-C , 10-H ) :   0.9409
B(  1-C , 11-H ) :   0.9329 B(  2-C ,  3-C ) :   1.0674 B(  2-C , 12-H ) :   0.9142
B(  2-C , 13-H ) :   0.9002 B(  3-C ,  4-C ) :   1.8867 B(  3-C ,  5-C ) :   1.1176
B(  4-C ,  6-C ) :   0.1379 B(  4-C , 14-H ) :   0.9308 B(  4-C , 15-H ) :   0.9362
B(  5-C ,  6-C ) :   1.9018 B(  5-C , 16-H ) :   0.9516 B(  6-C , 17-H ) :   0.9327
B(  6-C , 18-H ) :   0.9405

FINAL SINGLE POINT ENERGY      -273.343991873098

DIPOLE MOMENT
-------------
                                X             Y             Z
Electronic contribution:      4.98298      -0.67996       0.32095
Nuclear contribution   :     -5.09422       0.68935      -0.31705
                        -----------------------------------------
Total Dipole Moment    :     -0.11124       0.00939       0.00391
                        -----------------------------------------
Magnitude (a.u.)       :      0.11170
Magnitude (Debye)      :      0.28392

                             ****ORCA TERMINATED NORMALLY****
TOTAL RUN TIME: 0 days 0 hours 0 minutes 8 seconds 525 msec
