                         Program Version 3.0.3 - RELEASE   -
|  1> ! RI PBE def2-SVP def2-SVP/J NBO PAL2
|  2> % maxcore 2000
|  3> % output
|  4>     # printlevel mini
|  5>     print[ P_Basis ] 0
|  6>     print[ P_SCFInfo ] 1
|  7>     print[ P_SCFIterInfo ] 1
|  8>     print[ P_OrbEn ] 0
|  9>     print[ P_Cartesian ] 0
| 10> end
| 11> *xyz 0 1
| 12>  C        1.3918010000    -0.3273870000    -0.0277600000
| 13>  C        2.8796100000    -0.1328130000     0.2079390000
| 14>  C        3.4818410000     0.9174790000    -0.7204310000
| 15>  C        4.9639240000     1.1020250000    -0.5343680000
| 16>  C        5.5027940000     2.2394930000    -0.0883100000
| 17>  C        5.7899730000    -0.0162290000    -0.8547410000
| 18>  C        6.4509180000    -0.9797380000    -1.1428270000
| 19>  H        0.9770220000    -1.0770800000     0.6496270000
| 20>  H        1.1944350000    -0.6589460000    -1.0510560000
| 21>  H        0.8393950000     0.6034680000     0.1294040000
| 22>  H        3.4071600000    -1.0810150000     0.0657590000
| 23>  H        3.0584380000     0.1663590000     1.2460230000
| 24>  H        2.9873680000     1.8806610000    -0.5623080000
| 25>  H        3.2898940000     0.6249020000    -1.7595360000
| 26>  H        4.8762180000     3.0910320000     0.1513120000
| 27>  H        6.5722200000     2.3456320000     0.0436240000
| 28>  H        7.0487700000    -1.8237360000    -1.3935200000
| 29> *
| 30>
| 31>                          ****END OF INPUT****
 Total Charge           Charge          ....    0
 Multiplicity           Mult            ....    1
 Number of Electrons    NEL             ....   52
 Basis Dimension        Dim             ....  148

MULLIKEN ATOMIC CHARGES
-----------------------
   0 C :   -0.005387
   1 C :   -0.059682
   2 C :    0.086635
   3 C :   -0.162550
   4 C :    0.011710
   5 C :    0.445090
   6 C :   -0.473598
   7 H :    0.024114
   8 H :    0.017534
   9 H :    0.015736
  10 H :    0.027506
  11 H :    0.014533
  12 H :   -0.004044
  13 H :    0.020003
  14 H :    0.017290
  15 H :    0.021723
  16 H :    0.003387
Sum of atomic charges:    0.0000000

LOEWDIN ATOMIC CHARGES
----------------------
   0 C :   -0.065989
   1 C :   -0.042202
   2 C :   -0.022827
   3 C :   -0.045396
   4 C :   -0.030870
   5 C :   -0.005826
   6 C :   -0.071601
   7 H :    0.028541
   8 H :    0.025405
   9 H :    0.024135
  10 H :    0.028693
  11 H :    0.026091
  12 H :    0.027638
  13 H :    0.034946
  14 H :    0.024356
  15 H :    0.029050
  16 H :    0.035856

  Mayer bond orders larger than 0.1
B(  0-C ,  1-C ) :   1.1203 B(  0-C ,  7-H ) :   0.9618 B(  0-C ,  8-H ) :   0.9643
B(  0-C ,  9-H ) :   0.9643 B(  1-C ,  2-C ) :   1.0874 B(  1-C , 10-H ) :   0.9377
B(  1-C , 11-H ) :   0.9353 B(  2-C ,  3-C ) :   1.0554 B(  2-C , 12-H ) :   0.9111
B(  2-C , 13-H ) :   0.9135 B(  3-C ,  4-C ) :   1.9177 B(  3-C ,  5-C ) :   0.9953
B(  4-C ,  6-C ) :   0.1250 B(  4-C , 14-H ) :   0.9298 B(  4-C , 15-H ) :   0.9376
B(  5-C ,  6-C ) :   2.2426 B(  5-C , 16-H ) :  -0.1082 B(  6-C , 16-H ) :   1.0983

FINAL SINGLE POINT ENERGY      -272.099173969973

DIPOLE MOMENT
-------------
                                X             Y             Z
Electronic contribution:      7.55642      -0.04698      -1.66690
Nuclear contribution   :     -7.76132       0.05632       1.70424
                        -----------------------------------------
Total Dipole Moment    :     -0.20490       0.00934       0.03734
                        -----------------------------------------
Magnitude (a.u.)       :      0.20849
Magnitude (Debye)      :      0.52993

                             ****ORCA TERMINATED NORMALLY****
TOTAL RUN TIME: 0 days 0 hours 0 minutes 7 seconds 81 msec
