                         Program Version 3.0.3 - RELEASE   -
|  1> ! RI PBE def2-SVP def2-SVP/J NBO PAL2
|  2> % maxcore 2000
|  3> % output
|  4>     # printlevel mini
|  5>     print[ P_Basis ] 0
|  6>     print[ P_SCFInfo ] 1
|  7>     print[ P_SCFIterInfo ] 1
|  8>     print[ P_OrbEn ] 0
|  9>     print[ P_Cartesian ] 0
| 10> end
| 11> *xyz 0 1
| 12>  C        1.7525440000    -0.7897140000     1.4267160000
| 13>  C        3.2630230000    -0.7432460000     1.2695450000
| 14>  C        3.7963070000     0.6864300000     1.1914800000
| 15>  C        5.2910690000     0.7894210000     1.0625560000
| 16>  C        5.8678940000     0.2406350000    -0.2064510000
| 17>  C        6.0124870000     1.3448920000     2.0382950000
| 18>  C        7.4902670000     1.5335260000     2.1075290000
| 19>  H        1.3864870000    -1.8174520000     1.4837880000
| 20>  H        1.2534750000    -0.3055210000     0.5824040000
| 21>  H        1.4342960000    -0.2725920000     2.3363930000
| 22>  H        3.5510850000    -1.2975780000     0.3705690000
| 23>  H        3.7414760000    -1.2541690000     2.1121320000
| 24>  H        3.4733750000     1.2338840000     2.0829140000
| 25>  H        3.3249740000     1.1847230000     0.3326340000
| 26>  H        5.3488030000     0.6621990000    -1.0739430000
| 27>  H        5.7384510000    -0.8447250000    -0.2636080000
| 28>  H        6.9304350000     0.4517130000    -0.3166280000
| 29>  H        5.4645580000     1.7126510000     2.9049180000
| 30>  H        8.0120540000     1.1669720000     1.2237390000
| 31>  H        7.9069650000     1.0133730000     2.9765970000
| 32>  H        7.7422730000     2.5920590000     2.2307110000
| 33> *
| 34>
| 35>                          ****END OF INPUT****
 Total Charge           Charge          ....    0
 Multiplicity           Mult            ....    1
 Number of Electrons    NEL             ....   56
 Basis Dimension        Dim             ....  168

MULLIKEN ATOMIC CHARGES
-----------------------
   0 C :   -0.001170
   1 C :   -0.059730
   2 C :    0.049716
   3 C :   -0.147469
   4 C :    0.065406
   5 C :   -0.131623
   6 C :    0.055425
   7 H :    0.017221
   8 H :    0.014490
   9 H :    0.014476
  10 H :    0.014089
  11 H :    0.010601
  12 H :   -0.004330
  13 H :    0.004220
  14 H :    0.015567
  15 H :    0.035214
  16 H :    0.005434
  17 H :   -0.021258
  18 H :    0.011858
  19 H :    0.025840
  20 H :    0.026022
Sum of atomic charges:   -0.0000000

LOEWDIN ATOMIC CHARGES
----------------------
   0 C :   -0.065190
   1 C :   -0.044562
   2 C :   -0.033061
   3 C :   -0.045366
   4 C :   -0.060397
   5 C :   -0.062604
   6 C :   -0.067643
   7 H :    0.025694
   8 H :    0.023897
   9 H :    0.023702
  10 H :    0.020921
  11 H :    0.023901
  12 H :    0.024265
  13 H :    0.025145
  14 H :    0.033549
  15 H :    0.035295
  16 H :    0.026478
  17 H :    0.019262
  18 H :    0.026087
  19 H :    0.035689
  20 H :    0.034939

  Mayer bond orders larger than 0.1
B(  0-C ,  1-C ) :   1.1188 B(  0-C ,  7-H ) :   0.9625 B(  0-C ,  8-H ) :   0.9634
B(  0-C ,  9-H ) :   0.9653 B(  1-C ,  2-C ) :   1.0798 B(  1-C , 10-H ) :   0.9362
B(  1-C , 11-H ) :   0.9383 B(  2-C ,  3-C ) :   1.0606 B(  2-C , 12-H ) :   0.9218
B(  2-C , 13-H ) :   0.9118 B(  3-C ,  4-C ) :   1.0992 B(  3-C ,  5-C ) :   1.9051
B(  4-C , 14-H ) :   0.9359 B(  4-C , 15-H ) :   0.9387 B(  4-C , 16-H ) :   0.9404
B(  5-C ,  6-C ) :   1.0950 B(  5-C , 17-H ) :   0.9318 B(  6-C , 18-H ) :   0.9535
B(  6-C , 19-H ) :   0.9427 B(  6-C , 20-H ) :   0.9442

FINAL SINGLE POINT ENERGY      -274.565538703619

DIPOLE MOMENT
-------------
                                X             Y             Z
Electronic contribution:      1.34802       1.45982       0.57685
Nuclear contribution   :     -1.31625      -1.52502      -0.64004
                        -----------------------------------------
Total Dipole Moment    :      0.03177      -0.06520      -0.06318
                        -----------------------------------------
Magnitude (a.u.)       :      0.09619
Magnitude (Debye)      :      0.24450

                             ****ORCA TERMINATED NORMALLY****
TOTAL RUN TIME: 0 days 0 hours 0 minutes 8 seconds 658 msec
