                         Program Version 3.0.3 - RELEASE   -
|  1> ! RI PBE def2-SVP def2-SVP/J NBO PAL2
|  2> % maxcore 2000
|  3> % output
|  4>     # printlevel mini
|  5>     print[ P_Basis ] 0
|  6>     print[ P_SCFInfo ] 1
|  7>     print[ P_SCFIterInfo ] 1
|  8>     print[ P_OrbEn ] 0
|  9>     print[ P_Cartesian ] 0
| 10> end
| 11> *xyz 0 1
| 12>  C        1.3149210000     1.1920240000     3.2051530000
| 13>  C        2.7893760000     0.8289190000     3.1552690000
| 14>  C        3.4461620000     1.2107950000     1.8388970000
| 15>  C        4.9329700000     0.8566910000     1.7430700000
| 16>  C        5.4532600000     1.1096540000     0.3296280000
| 17>  C        5.7438390000     1.6280740000     2.7368090000
| 18>  C        6.4890320000     1.1063430000     3.7009660000
| 19>  H        0.8632550000     0.9050950000     4.1576250000
| 20>  H        0.7553620000     0.6923260000     2.4089820000
| 21>  H        1.1696820000     2.2690550000     3.0811540000
| 22>  H        2.9083820000    -0.2493770000     3.3149410000
| 23>  H        3.3192220000     1.3143540000     3.9810700000
| 24>  H        3.3271390000     2.2894050000     1.6692430000
| 25>  H        2.9174420000     0.7165880000     1.0146700000
| 26>  H        5.0458520000    -0.2112030000     1.9696410000
| 27>  H        5.3652890000     2.1685360000     0.0674790000
| 28>  H        4.8799410000     0.5368810000    -0.4041030000
| 29>  H        6.5046650000     0.8293890000     0.2384770000
| 30>  H        5.7067120000     2.7127890000     2.6265790000
| 31>  H        6.5543660000     0.0321070000     3.8464030000
| 32>  H        7.0613510000     1.7293550000     4.3788370000
| 33> *
| 34>
| 35>                          ****END OF INPUT****
 Total Charge           Charge          ....    0
 Multiplicity           Mult            ....    1
 Number of Electrons    NEL             ....   56
 Basis Dimension        Dim             ....  168

MULLIKEN ATOMIC CHARGES
-----------------------
   0 C :   -0.010136
   1 C :   -0.023447
   2 C :   -0.013089
   3 C :   -0.072237
   4 C :    0.036978
   5 C :   -0.038098
   6 C :   -0.035918
   7 H :    0.016474
   8 H :    0.015854
   9 H :    0.018008
  10 H :    0.008925
  11 H :    0.012974
  12 H :    0.001342
  13 H :    0.000245
  14 H :   -0.003743
  15 H :    0.013615
  16 H :    0.016921
  17 H :    0.020070
  18 H :   -0.002354
  19 H :    0.015942
  20 H :    0.021672
Sum of atomic charges:   -0.0000000

LOEWDIN ATOMIC CHARGES
----------------------
   0 C :   -0.066663
   1 C :   -0.048432
   2 C :   -0.034679
   3 C :   -0.044809
   4 C :   -0.052479
   5 C :   -0.018340
   6 C :   -0.070388
   7 H :    0.025934
   8 H :    0.023451
   9 H :    0.024320
  10 H :    0.023315
  11 H :    0.024257
  12 H :    0.020627
  13 H :    0.021812
  14 H :    0.026125
  15 H :    0.024377
  16 H :    0.025523
  17 H :    0.027220
  18 H :    0.023895
  19 H :    0.021035
  20 H :    0.023899

  Mayer bond orders larger than 0.1
B(  0-C ,  1-C ) :   1.1189 B(  0-C ,  7-H ) :   0.9608 B(  0-C ,  8-H ) :   0.9651
B(  0-C ,  9-H ) :   0.9663 B(  1-C ,  2-C ) :   1.0913 B(  1-C , 10-H ) :   0.9341
B(  1-C , 11-H ) :   0.9280 B(  2-C ,  3-C ) :   1.0445 B(  2-C , 12-H ) :   0.9329
B(  2-C , 13-H ) :   0.9287 B(  3-C ,  4-C ) :   1.0665 B(  3-C ,  5-C ) :   1.0279
B(  3-C , 14-H ) :   0.9069 B(  4-C , 15-H ) :   0.9614 B(  4-C , 16-H ) :   0.9551
B(  4-C , 17-H ) :   0.9583 B(  5-C ,  6-C ) :   2.0017 B(  5-C , 18-H ) :   0.9502
B(  6-C , 19-H ) :   0.9475 B(  6-C , 20-H ) :   0.9410

FINAL SINGLE POINT ENERGY      -274.558046784553

DIPOLE MOMENT
-------------
                                X             Y             Z
Electronic contribution:      3.10961       0.08846       0.76783
Nuclear contribution   :     -3.18159      -0.10419      -0.85844
                        -----------------------------------------
Total Dipole Moment    :     -0.07198      -0.01573      -0.09061
                        -----------------------------------------
Magnitude (a.u.)       :      0.11678
Magnitude (Debye)      :      0.29684

                             ****ORCA TERMINATED NORMALLY****
TOTAL RUN TIME: 0 days 0 hours 0 minutes 8 seconds 787 msec
