                         Program Version 3.0.3 - RELEASE   -
|  1> ! RI PBE def2-SVP def2-SVP/J NBO PAL2
|  2> % maxcore 2000
|  3> % output
|  4>     # printlevel mini
|  5>     print[ P_Basis ] 0
|  6>     print[ P_SCFInfo ] 1
|  7>     print[ P_SCFIterInfo ] 1
|  8>     print[ P_OrbEn ] 0
|  9>     print[ P_Cartesian ] 0
| 10> end
| 11> *xyz 0 1
| 12>  C        0.9236850000    -0.0441310000    -0.0334750000
| 13>  C        2.4229760000     0.1749010000     0.0784250000
| 14>  C        3.2191280000    -0.7642150000    -0.8112240000
| 15>  C        4.7389810000    -0.5811010000    -0.7250930000
| 16>  C        5.4763140000    -1.6506060000    -1.5315830000
| 17>  C        5.1427830000     0.7538990000    -1.1529530000
| 18>  C        5.4768960000     1.8453910000    -1.5276060000
| 19>  H        0.3706230000     0.6386330000     0.6154420000
| 20>  H        0.6489300000    -1.0648370000     0.2479580000
| 21>  H        0.5774160000     0.1189750000    -1.0579320000
| 22>  H        2.7383250000     0.0383870000     1.1196480000
| 23>  H        2.6681140000     1.2094510000    -0.1812970000
| 24>  H        2.9099020000    -0.6371140000    -1.8551390000
| 25>  H        2.9926940000    -1.8029340000    -0.5433200000
| 26>  H        5.0291700000    -0.6861040000     0.3289570000
| 27>  H        5.2074340000    -1.5861430000    -2.5882530000
| 28>  H        5.2090830000    -2.6459970000    -1.1690050000
| 29>  H        6.5575770000    -1.5305240000    -1.4500410000
| 30>  H        5.7752690000     2.8132780000    -1.8541100000
| 31> *
| 32>
| 33>                          ****END OF INPUT****
 Total Charge           Charge          ....    0
 Multiplicity           Mult            ....    1
 Number of Electrons    NEL             ....   54
 Basis Dimension        Dim             ....  158

MULLIKEN ATOMIC CHARGES
-----------------------
   0 C :   -0.003555
   1 C :   -0.029720
   2 C :   -0.003376
   3 C :   -0.060532
   4 C :    0.029626
   5 C :    0.397860
   6 C :   -0.522689
   7 H :    0.020840
   8 H :    0.013729
   9 H :    0.016340
  10 H :    0.004350
  11 H :    0.023289
  12 H :    0.011180
  13 H :    0.003232
  14 H :    0.025506
  15 H :    0.028325
  16 H :    0.016938
  17 H :    0.035406
  18 H :   -0.006750
Sum of atomic charges:    0.0000000

LOEWDIN ATOMIC CHARGES
----------------------
   0 C :   -0.064454
   1 C :   -0.047132
   2 C :   -0.026174
   3 C :   -0.050664
   4 C :   -0.045484
   5 C :   -0.010860
   6 C :   -0.096350
   7 H :    0.027393
   8 H :    0.022911
   9 H :    0.024665
  10 H :    0.022372
  11 H :    0.028422
  12 H :    0.025433
  13 H :    0.022916
  14 H :    0.045198
  15 H :    0.030297
  16 H :    0.026228
  17 H :    0.031938
  18 H :    0.033343

  Mayer bond orders larger than 0.1
B(  0-C ,  1-C ) :   1.1194 B(  0-C ,  7-H ) :   0.9608 B(  0-C ,  8-H ) :   0.9654
B(  0-C ,  9-H ) :   0.9659 B(  1-C ,  2-C ) :   1.0898 B(  1-C , 10-H ) :   0.9344
B(  1-C , 11-H ) :   0.9313 B(  2-C ,  3-C ) :   1.0465 B(  2-C , 12-H ) :   0.9317
B(  2-C , 13-H ) :   0.9306 B(  3-C ,  4-C ) :   1.0740 B(  3-C ,  5-C ) :   1.0124
B(  3-C , 14-H ) :   0.8727 B(  4-C , 15-H ) :   0.9598 B(  4-C , 16-H ) :   0.9553
B(  4-C , 17-H ) :   0.9616 B(  5-C ,  6-C ) :   2.3009 B(  5-C , 18-H ) :  -0.1186
B(  6-C , 18-H ) :   1.1089

FINAL SINGLE POINT ENERGY      -273.315305893360

DIPOLE MOMENT
-------------
                                X             Y             Z
Electronic contribution:      5.05888       3.61603      -1.06291
Nuclear contribution   :     -5.15745      -3.83775       1.14034
                        -----------------------------------------
Total Dipole Moment    :     -0.09857      -0.22172       0.07743
                        -----------------------------------------
Magnitude (a.u.)       :      0.25470
Magnitude (Debye)      :      0.64739

                             ****ORCA TERMINATED NORMALLY****
TOTAL RUN TIME: 0 days 0 hours 0 minutes 8 seconds 229 msec
