                         Program Version 3.0.3 - RELEASE   -
|  1> ! RI PBE def2-SVP def2-SVP/J NBO PAL2
|  2> % maxcore 2000
|  3> % output
|  4>     # printlevel mini
|  5>     print[ P_Basis ] 0
|  6>     print[ P_SCFInfo ] 1
|  7>     print[ P_SCFIterInfo ] 1
|  8>     print[ P_OrbEn ] 0
|  9>     print[ P_Cartesian ] 0
| 10> end
| 11> *xyz 0 1
| 12>  C        0.9700430000    -0.0191280000    -0.0761270000
| 13>  C        2.4882810000    -0.0204450000    -0.0717280000
| 14>  C        3.0702460000     0.0997690000    -1.4809630000
| 15>  C        4.5246820000     0.1036990000    -1.5075880000
| 16>  C        5.7281460000     0.1042120000    -1.5112050000
| 17>  C        7.1835970000     0.1077610000    -1.4970130000
| 18>  C        7.7674300000     0.2246490000    -0.0911540000
| 19>  H        0.5703100000    -0.1027830000     0.9367820000
| 20>  H        0.5742710000    -0.8557280000    -0.6590190000
| 21>  H        0.5759640000     0.9028750000    -0.5131760000
| 22>  H        2.8646790000    -0.9384540000     0.3889580000
| 23>  H        2.8653460000     0.8059820000     0.5378270000
| 24>  H        2.6966500000     1.0178590000    -1.9500120000
| 25>  H        2.6989820000    -0.7270400000    -2.0983120000
| 26>  H        7.5455990000     0.9354890000    -2.1166330000
| 27>  H        7.5489090000    -0.8087440000    -1.9731110000
| 28>  H        7.4408220000     1.1490600000     0.3884160000
| 29>  H        8.8590360000     0.2231160000    -0.1284250000
| 30>  H        7.4434190000    -0.6096490000     0.5334840000
| 31> *
| 32>
| 33>                          ****END OF INPUT****
 Total Charge           Charge          ....    0
 Multiplicity           Mult            ....    1
 Number of Electrons    NEL             ....   54
 Basis Dimension        Dim             ....  158

MULLIKEN ATOMIC CHARGES
-----------------------
   0 C :    0.009470
   1 C :   -0.079484
   2 C :    0.054105
   3 C :   -0.096516
   4 C :   -0.183752
   5 C :    0.032856
   6 C :   -0.045588
   7 H :    0.020530
   8 H :    0.015787
   9 H :    0.014394
  10 H :    0.022161
  11 H :    0.025308
  12 H :    0.023868
  13 H :    0.026667
  14 H :    0.033673
  15 H :    0.031262
  16 H :    0.032038
  17 H :    0.027618
  18 H :    0.035604
Sum of atomic charges:   -0.0000000

LOEWDIN ATOMIC CHARGES
----------------------
   0 C :   -0.065777
   1 C :   -0.036847
   2 C :   -0.048341
   3 C :   -0.065713
   4 C :   -0.068530
   5 C :   -0.051540
   6 C :   -0.057822
   7 H :    0.028173
   8 H :    0.024750
   9 H :    0.024481
  10 H :    0.026908
  11 H :    0.027672
  12 H :    0.042441
  13 H :    0.043317
  14 H :    0.045250
  15 H :    0.044465
  16 H :    0.029319
  17 H :    0.027714
  18 H :    0.030079

  Mayer bond orders larger than 0.1
B(  0-C ,  1-C ) :   1.1190 B(  0-C ,  7-H ) :   0.9620 B(  0-C ,  8-H ) :   0.9630
B(  0-C ,  9-H ) :   0.9625 B(  1-C ,  2-C ) :   1.0775 B(  1-C , 10-H ) :   0.9428
B(  1-C , 11-H ) :   0.9427 B(  2-C ,  3-C ) :   1.0708 B(  2-C , 12-H ) :   0.8980
B(  2-C , 13-H ) :   0.8965 B(  3-C ,  4-C ) :   2.5684 B(  4-C ,  5-C ) :   1.0937
B(  5-C ,  6-C ) :   1.1030 B(  5-C , 14-H ) :   0.9038 B(  5-C , 15-H ) :   0.9046
B(  6-C , 16-H ) :   0.9694 B(  6-C , 17-H ) :   0.9606 B(  6-C , 18-H ) :   0.9695

FINAL SINGLE POINT ENERGY      -273.326048407047

DIPOLE MOMENT
-------------
                                X             Y             Z
Electronic contribution:      2.20884       0.02691      -3.24219
Nuclear contribution   :     -2.22634      -0.03074       3.31080
                        -----------------------------------------
Total Dipole Moment    :     -0.01750      -0.00383       0.06861
                        -----------------------------------------
Magnitude (a.u.)       :      0.07091
Magnitude (Debye)      :      0.18024

                             ****ORCA TERMINATED NORMALLY****
TOTAL RUN TIME: 0 days 0 hours 0 minutes 7 seconds 950 msec
