                         Program Version 3.0.3 - RELEASE   -
|  1> ! RI PBE def2-SVP def2-SVP/J NBO PAL2
|  2> % maxcore 2000
|  3> % output
|  4>     # printlevel mini
|  5>     print[ P_Basis ] 0
|  6>     print[ P_SCFInfo ] 1
|  7>     print[ P_SCFIterInfo ] 1
|  8>     print[ P_OrbEn ] 0
|  9>     print[ P_Cartesian ] 0
| 10> end
| 11> *xyz 0 1
| 12>  C        0.8846800000    -0.1013340000    -0.0750140000
| 13>  C        2.4025720000    -0.0909400000    -0.0572570000
| 14>  C        2.9594050000     0.3992780000     1.2803170000
| 15>  C        4.4103070000     0.4228730000     1.3302730000
| 16>  C        5.6161850000     0.4406030000     1.3611840000
| 17>  C        7.0337750000     0.4409640000     1.3643040000
| 18>  C        7.7923750000     0.9996670000     2.3075060000
| 19>  H        0.5026310000    -0.4525310000    -1.0357820000
| 20>  H        0.4792670000     0.8997530000     0.0972570000
| 21>  H        0.4831750000    -0.7583070000     0.7017160000
| 22>  H        2.7861290000     0.5504340000    -0.8559540000
| 23>  H        2.7905610000    -1.0943170000    -0.2550710000
| 24>  H        2.5826930000    -0.2395840000     2.0886350000
| 25>  H        2.5759790000     1.4053410000     1.4896620000
| 26>  H        7.5118320000    -0.0581080000     0.5242870000
| 27>  H        7.3547160000     1.5057360000     3.1597240000
| 28>  H        8.8727990000     0.9606600000     2.2442330000
| 29> *
| 30>
| 31>                          ****END OF INPUT****
 Total Charge           Charge          ....    0
 Multiplicity           Mult            ....    1
 Number of Electrons    NEL             ....   52
 Basis Dimension        Dim             ....  148

MULLIKEN ATOMIC CHARGES
-----------------------
   0 C :    0.006104
   1 C :   -0.079163
   2 C :    0.056905
   3 C :   -0.036559
   4 C :   -0.093738
   5 C :   -0.098497
   6 C :   -0.018599
   7 H :    0.023012
   8 H :    0.016579
   9 H :    0.018092
  10 H :    0.027694
  11 H :    0.025578
  12 H :    0.033122
  13 H :    0.029772
  14 H :    0.028315
  15 H :    0.028497
  16 H :    0.032884
Sum of atomic charges:   -0.0000000

LOEWDIN ATOMIC CHARGES
----------------------
   0 C :   -0.065680
   1 C :   -0.036290
   2 C :   -0.047858
   3 C :   -0.034451
   4 C :   -0.063085
   5 C :   -0.047033
   6 C :   -0.034928
   7 H :    0.029610
   8 H :    0.025118
   9 H :    0.025507
  10 H :    0.028983
  11 H :    0.028470
  12 H :    0.047589
  13 H :    0.046546
  14 H :    0.042152
  15 H :    0.028158
  16 H :    0.027192

  Mayer bond orders larger than 0.1
B(  0-C ,  1-C ) :   1.1177 B(  0-C ,  7-H ) :   0.9612 B(  0-C ,  8-H ) :   0.9634
B(  0-C ,  9-H ) :   0.9634 B(  1-C ,  2-C ) :   1.0818 B(  1-C , 10-H ) :   0.9429
B(  1-C , 11-H ) :   0.9425 B(  2-C ,  3-C ) :   1.0667 B(  2-C , 12-H ) :   0.8927
B(  2-C , 13-H ) :   0.8937 B(  3-C ,  4-C ) :   2.4429 B(  3-C ,  6-C ) :   0.1292
B(  4-C ,  5-C ) :   1.0602 B(  5-C ,  6-C ) :   1.9192 B(  5-C , 14-H ) :   0.9449
B(  6-C , 15-H ) :   0.9522 B(  6-C , 16-H ) :   0.9431

FINAL SINGLE POINT ENERGY      -272.107053095917

DIPOLE MOMENT
-------------
                                X             Y             Z
Electronic contribution:      6.79220       0.68775       2.06723
Nuclear contribution   :     -7.11056      -0.72735      -2.15445
                        -----------------------------------------
Total Dipole Moment    :     -0.31836      -0.03959      -0.08722
                        -----------------------------------------
Magnitude (a.u.)       :      0.33246
Magnitude (Debye)      :      0.84504

                             ****ORCA TERMINATED NORMALLY****
TOTAL RUN TIME: 0 days 0 hours 0 minutes 7 seconds 191 msec
