                         Program Version 3.0.3 - RELEASE   -
|  1> ! RI PBE def2-SVP def2-SVP/J NBO PAL2
|  2> % maxcore 2000
|  3> % output
|  4>     # printlevel mini
|  5>     print[ P_Basis ] 0
|  6>     print[ P_SCFInfo ] 1
|  7>     print[ P_SCFIterInfo ] 1
|  8>     print[ P_OrbEn ] 0
|  9>     print[ P_Cartesian ] 0
| 10> end
| 11> *xyz 0 1
| 12>  C        0.9229870000     0.0866510000     0.0465630000
| 13>  C        2.4409070000     0.0829420000     0.0509940000
| 14>  C        3.0193150000     0.7605990000    -1.1942550000
| 15>  C        4.4676780000     0.7732320000    -1.2197970000
| 16>  C        5.6761220000     0.7716760000    -1.2189320000
| 17>  C        7.0395680000     0.7724640000    -1.2226710000
| 18>  C        8.2454770000     0.7726930000    -1.2250170000
| 19>  H        0.5262180000    -0.3995170000     0.9400130000
| 20>  H        0.5268230000    -0.4442160000    -0.8235320000
| 21>  H        0.5281470000     1.1060920000     0.0206530000
| 22>  H        2.8176990000    -0.9423470000     0.1020950000
| 23>  H        2.8190110000     0.5957620000     0.9397320000
| 24>  H        2.6524200000     1.7923080000    -1.2554780000
| 25>  H        2.6510630000     0.2528240000    -2.0938880000
| 26>  H        9.3094550000     0.7731760000    -1.2276090000
| 27> *
| 28>
| 29>                          ****END OF INPUT****
 Total Charge           Charge          ....    0
 Multiplicity           Mult            ....    1
 Number of Electrons    NEL             ....   50
 Basis Dimension        Dim             ....  138

MULLIKEN ATOMIC CHARGES
-----------------------
   0 C :    0.002899
   1 C :   -0.079811
   2 C :    0.056135
   3 C :   -0.070062
   4 C :   -0.036767
   5 C :    0.354424
   6 C :   -0.437691
   7 H :    0.027270
   8 H :    0.020197
   9 H :    0.018861
  10 H :    0.032034
  11 H :    0.030186
  12 H :    0.036684
  13 H :    0.036809
  14 H :    0.008831
Sum of atomic charges:    0.0000000

LOEWDIN ATOMIC CHARGES
----------------------
   0 C :   -0.065177
   1 C :   -0.033425
   2 C :   -0.046492
   3 C :    0.004225
   4 C :   -0.073584
   5 C :   -0.030602
   6 C :   -0.039002
   7 H :    0.031483
   8 H :    0.026379
   9 H :    0.026007
  10 H :    0.030544
  11 H :    0.030348
  12 H :    0.050704
  13 H :    0.050638
  14 H :    0.037952

  Mayer bond orders larger than 0.1
B(  0-C ,  1-C ) :   1.1175 B(  0-C ,  7-H ) :   0.9611 B(  0-C ,  8-H ) :   0.9637
B(  0-C ,  9-H ) :   0.9636 B(  1-C ,  2-C ) :   1.0753 B(  1-C , 10-H ) :   0.9433
B(  1-C , 11-H ) :   0.9427 B(  2-C ,  3-C ) :   1.0779 B(  2-C , 12-H ) :   0.8900
B(  2-C , 13-H ) :   0.8925 B(  3-C ,  4-C ) :   2.3279 B(  3-C ,  6-C ) :   0.2628
B(  4-C ,  5-C ) :   0.9411 B(  5-C ,  6-C ) :   2.1420 B(  5-C , 14-H ) :  -0.1099
B(  6-C , 14-H ) :   1.0992

FINAL SINGLE POINT ENERGY      -270.869438887175

DIPOLE MOMENT
-------------
                                X             Y             Z
Electronic contribution:     11.85578       1.54539      -2.85653
Nuclear contribution   :    -12.43509      -1.59271       2.94473
                        -----------------------------------------
Total Dipole Moment    :     -0.57930      -0.04733       0.08821
                        -----------------------------------------
Magnitude (a.u.)       :      0.58789
Magnitude (Debye)      :      1.49429

                             ****ORCA TERMINATED NORMALLY****
TOTAL RUN TIME: 0 days 0 hours 0 minutes 6 seconds 521 msec
