                         Program Version 3.0.3 - RELEASE   -
|  1> ! RI PBE def2-SVP def2-SVP/J NBO PAL2
|  2> % maxcore 2000
|  3> % output
|  4>     # printlevel mini
|  5>     print[ P_Basis ] 0
|  6>     print[ P_SCFInfo ] 1
|  7>     print[ P_SCFIterInfo ] 1
|  8>     print[ P_OrbEn ] 0
|  9>     print[ P_Cartesian ] 0
| 10> end
| 11> *xyz 0 1
| 12>  C        0.6951040000     1.1875760000     1.0664320000
| 13>  C        2.1320830000     0.8141420000     0.7446760000
| 14>  C        3.1496900000     1.6418340000     1.5134280000
| 15>  C        4.5945970000     1.2714600000     1.1901450000
| 16>  C        5.5930980000     2.1167520000     1.9085930000
| 17>  C        6.5150610000     1.6679650000     2.7520620000
| 18>  C        7.5068490000     2.5153200000     3.4733700000
| 19>  H       -0.0148730000     0.5781750000     0.5023730000
| 20>  H        0.4969640000     2.2359650000     0.8259100000
| 21>  H        0.4798630000     1.0490520000     2.1297800000
| 22>  H        2.3111090000     0.9318130000    -0.3305820000
| 23>  H        2.2938100000    -0.2481040000     0.9622890000
| 24>  H        2.9814840000     1.5249640000     2.5903850000
| 25>  H        2.9907240000     2.7055240000     1.2965780000
| 26>  H        4.7444960000     1.3725570000     0.1066840000
| 27>  H        4.7676020000     0.2164330000     1.4288080000
| 28>  H        5.5379180000     3.1896990000     1.7197230000
| 29>  H        6.5666860000     0.5957510000     2.9408750000
| 30>  H        7.3824670000     3.5718250000     3.2273180000
| 31>  H        8.5324870000     2.2259580000     3.2219670000
| 32>  H        7.4085900000     2.4044260000     4.5581660000
| 33> *
| 34>
| 35>                          ****END OF INPUT****
 Total Charge           Charge          ....    0
 Multiplicity           Mult            ....    1
 Number of Electrons    NEL             ....   56
 Basis Dimension        Dim             ....  168

MULLIKEN ATOMIC CHARGES
-----------------------
   0 C :    0.002148
   1 C :   -0.053141
   2 C :   -0.056386
   3 C :    0.065899
   4 C :   -0.048237
   5 C :   -0.108502
   6 C :    0.026093
   7 H :    0.018322
   8 H :    0.015618
   9 H :    0.017016
  10 H :    0.011359
  11 H :    0.011507
  12 H :    0.012082
  13 H :    0.007199
  14 H :    0.015144
  15 H :    0.000625
  16 H :   -0.015477
  17 H :   -0.009128
  18 H :    0.020803
  19 H :    0.030065
  20 H :    0.036991
Sum of atomic charges:   -0.0000000

LOEWDIN ATOMIC CHARGES
----------------------
   0 C :   -0.066342
   1 C :   -0.050466
   2 C :   -0.041030
   3 C :   -0.042329
   4 C :   -0.044429
   5 C :   -0.050792
   6 C :   -0.068808
   7 H :    0.026470
   8 H :    0.024185
   9 H :    0.024581
  10 H :    0.022584
  11 H :    0.022861
  12 H :    0.023368
  13 H :    0.021324
  14 H :    0.031436
  15 H :    0.026083
  16 H :    0.019027
  17 H :    0.020311
  18 H :    0.030420
  19 H :    0.035300
  20 H :    0.036247

  Mayer bond orders larger than 0.1
B(  0-C ,  1-C ) :   1.1231 B(  0-C ,  7-H ) :   0.9581 B(  0-C ,  8-H ) :   0.9639
B(  0-C ,  9-H ) :   0.9651 B(  1-C ,  2-C ) :   1.0892 B(  1-C , 10-H ) :   0.9365
B(  1-C , 11-H ) :   0.9357 B(  2-C ,  3-C ) :   1.0787 B(  2-C , 12-H ) :   0.9392
B(  2-C , 13-H ) :   0.9366 B(  3-C ,  4-C ) :   1.0572 B(  3-C , 14-H ) :   0.9094
B(  3-C , 15-H ) :   0.9279 B(  4-C ,  5-C ) :   1.9339 B(  4-C , 16-H ) :   0.9464
B(  5-C ,  6-C ) :   1.0823 B(  5-C , 17-H ) :   0.9518 B(  6-C , 18-H ) :   0.9608
B(  6-C , 19-H ) :   0.9469 B(  6-C , 20-H ) :   0.9491

FINAL SINGLE POINT ENERGY      -274.563379062689

DIPOLE MOMENT
-------------
                                X             Y             Z
Electronic contribution:      3.12244       0.05031       0.10469
Nuclear contribution   :     -3.12791      -0.06110      -0.09410
                        -----------------------------------------
Total Dipole Moment    :     -0.00547      -0.01080       0.01059
                        -----------------------------------------
Magnitude (a.u.)       :      0.01608
Magnitude (Debye)      :      0.04087

                             ****ORCA TERMINATED NORMALLY****
TOTAL RUN TIME: 0 days 0 hours 0 minutes 8 seconds 907 msec
