                         Program Version 3.0.3 - RELEASE   -
|  1> ! RI PBE def2-SVP def2-SVP/J NBO PAL2
|  2> % maxcore 2000
|  3> % output
|  4>     # printlevel mini
|  5>     print[ P_Basis ] 0
|  6>     print[ P_SCFInfo ] 1
|  7>     print[ P_SCFIterInfo ] 1
|  8>     print[ P_OrbEn ] 0
|  9>     print[ P_Cartesian ] 0
| 10> end
| 11> *xyz 0 1
| 12>  C        1.3044060000     0.3975820000    -0.0934470000
| 13>  C        2.7566170000    -0.0483060000    -0.0750910000
| 14>  C        2.9138050000    -1.5590730000     0.0107920000
| 15>  C        4.3662460000    -1.9975640000     0.0287110000
| 16>  C        4.6380620000    -3.4722080000     0.1119620000
| 17>  C        6.0897670000    -3.8403850000     0.1258810000
| 18>  C        3.6849140000    -4.3973190000     0.1697500000
| 19>  H        1.2182990000     1.4848810000    -0.1554110000
| 20>  H        0.7815040000     0.0739810000     0.8109720000
| 21>  H        0.7727400000    -0.0270500000    -0.9496810000
| 22>  H        3.2732080000     0.4174070000     0.7723470000
| 23>  H        3.2645170000     0.3171520000    -0.9753050000
| 24>  H        2.3991050000    -2.0240380000    -0.8380730000
| 25>  H        2.4078230000    -1.9236290000     0.9123250000
| 26>  H        4.8814570000    -1.5104350000     0.8687080000
| 27>  H        4.8728030000    -1.6099980000    -0.8665700000
| 28>  H        6.6015980000    -3.3767230000     0.9759440000
| 29>  H        6.5929370000    -3.4771530000    -0.7765850000
| 30>  H        6.2325770000    -4.9198960000     0.1870380000
| 31>  H        2.6318430000    -4.1443030000     0.1604560000
| 32>  H        3.9336740000    -5.4513130000     0.2289660000
| 33> *
| 34>
| 35>                          ****END OF INPUT****
 Total Charge           Charge          ....    0
 Multiplicity           Mult            ....    1
 Number of Electrons    NEL             ....   56
 Basis Dimension        Dim             ....  168

MULLIKEN ATOMIC CHARGES
-----------------------
   0 C :   -0.005860
   1 C :   -0.036482
   2 C :   -0.056381
   3 C :    0.079009
   4 C :   -0.190385
   5 C :    0.053337
   6 C :   -0.036397
   7 H :    0.022900
   8 H :    0.016258
   9 H :    0.015438
  10 H :    0.006742
  11 H :    0.005730
  12 H :    0.015073
  13 H :    0.014530
  14 H :    0.008690
  15 H :    0.007891
  16 H :    0.025221
  17 H :    0.025582
  18 H :    0.015316
  19 H :    0.012200
  20 H :    0.001587
Sum of atomic charges:   -0.0000000

LOEWDIN ATOMIC CHARGES
----------------------
   0 C :   -0.067645
   1 C :   -0.044521
   2 C :   -0.043000
   3 C :   -0.037353
   4 C :   -0.030091
   5 C :   -0.056620
   6 C :   -0.088507
   7 H :    0.026922
   8 H :    0.024359
   9 H :    0.024334
  10 H :    0.021850
  11 H :    0.021564
  12 H :    0.023951
  13 H :    0.023740
  14 H :    0.032527
  15 H :    0.032232
  16 H :    0.033914
  17 H :    0.033866
  18 H :    0.030240
  19 H :    0.018914
  20 H :    0.019322

  Mayer bond orders larger than 0.1
B(  0-C ,  1-C ) :   1.1173 B(  0-C ,  7-H ) :   0.9609 B(  0-C ,  8-H ) :   0.9641
B(  0-C ,  9-H ) :   0.9635 B(  1-C ,  2-C ) :   1.1000 B(  1-C , 10-H ) :   0.9356
B(  1-C , 11-H ) :   0.9364 B(  2-C ,  3-C ) :   1.1098 B(  2-C , 12-H ) :   0.9267
B(  2-C , 13-H ) :   0.9280 B(  3-C ,  4-C ) :   1.0246 B(  3-C , 14-H ) :   0.9067
B(  3-C , 15-H ) :   0.9082 B(  4-C ,  5-C ) :   1.0856 B(  4-C ,  6-C ) :   1.9961
B(  5-C , 16-H ) :   0.9465 B(  5-C , 17-H ) :   0.9475 B(  5-C , 18-H ) :   0.9499
B(  6-C , 19-H ) :   0.9234 B(  6-C , 20-H ) :   0.9262

FINAL SINGLE POINT ENERGY      -274.562728973919

DIPOLE MOMENT
-------------
                                X             Y             Z
Electronic contribution:      1.47465      -2.74371       0.15190
Nuclear contribution   :     -1.32033       2.94298      -0.16226
                        -----------------------------------------
Total Dipole Moment    :      0.15433       0.19927      -0.01036
                        -----------------------------------------
Magnitude (a.u.)       :      0.25226
Magnitude (Debye)      :      0.64118

                             ****ORCA TERMINATED NORMALLY****
TOTAL RUN TIME: 0 days 0 hours 0 minutes 9 seconds 162 msec
