                         Program Version 3.0.3 - RELEASE   -
|  1> ! RI PBE def2-SVP def2-SVP/J NBO PAL2
|  2> % maxcore 2000
|  3> % output
|  4>     # printlevel mini
|  5>     print[ P_Basis ] 0
|  6>     print[ P_SCFInfo ] 1
|  7>     print[ P_SCFIterInfo ] 1
|  8>     print[ P_OrbEn ] 0
|  9>     print[ P_Cartesian ] 0
| 10> end
| 11> *xyz 0 1
| 12>  C        0.6239590000     0.6368370000    -0.2224330000
| 13>  C        2.1289550000     0.4337780000    -0.1763180000
| 14>  C        2.8988780000     1.4988020000    -0.9411250000
| 15>  C        4.4056610000     1.3032390000    -0.9022070000
| 16>  C        5.1705200000     2.3733920000    -1.6768200000
| 17>  C        6.6508030000     2.2047850000    -1.5953530000
| 18>  C        7.4598260000     2.0193860000    -2.6291840000
| 19>  H        0.0960330000    -0.1403750000     0.3349680000
| 20>  H        0.2545600000     0.6159350000    -1.2516980000
| 21>  H        0.3428370000     1.6025070000     0.2073880000
| 22>  H        2.3794650000    -0.5529550000    -0.5827840000
| 23>  H        2.4667080000     0.4244400000     0.8665980000
| 24>  H        2.6499910000     2.4874810000    -0.5348030000
| 25>  H        2.5607160000     1.5092510000    -1.9851250000
| 26>  H        4.6605790000     0.3174010000    -1.3076220000
| 27>  H        4.7456690000     1.2991890000     0.1407440000
| 28>  H        4.8975120000     3.3576230000    -1.2734650000
| 29>  H        4.8574080000     2.3683130000    -2.7262740000
| 30>  H        7.0773400000     2.2278450000    -0.5929290000
| 31>  H        7.0798210000     1.9864820000    -3.6460680000
| 32>  H        8.5290270000     1.8963450000    -2.5003110000
| 33> *
| 34>
| 35>                          ****END OF INPUT****
 Total Charge           Charge          ....    0
 Multiplicity           Mult            ....    1
 Number of Electrons    NEL             ....   56
 Basis Dimension        Dim             ....  168

MULLIKEN ATOMIC CHARGES
-----------------------
   0 C :   -0.002016
   1 C :   -0.034016
   2 C :   -0.021564
   3 C :   -0.035795
   4 C :    0.079191
   5 C :   -0.079029
   6 C :   -0.039820
   7 H :    0.019093
   8 H :    0.015052
   9 H :    0.014699
  10 H :    0.006075
  11 H :    0.007433
  12 H :   -0.000171
  13 H :    0.003415
  14 H :    0.009807
  15 H :    0.005975
  16 H :    0.011647
  17 H :    0.000907
  18 H :    0.000594
  19 H :    0.014070
  20 H :    0.024454
Sum of atomic charges:    0.0000000

LOEWDIN ATOMIC CHARGES
----------------------
   0 C :   -0.065815
   1 C :   -0.046277
   2 C :   -0.043014
   3 C :   -0.037310
   4 C :   -0.040297
   5 C :   -0.027203
   6 C :   -0.070832
   7 H :    0.026318
   8 H :    0.023679
   9 H :    0.023759
  10 H :    0.022038
  11 H :    0.021847
  12 H :    0.020404
  13 H :    0.021288
  14 H :    0.023788
  15 H :    0.021668
  16 H :    0.031951
  17 H :    0.026418
  18 H :    0.023577
  19 H :    0.020227
  20 H :    0.023785

  Mayer bond orders larger than 0.1
B(  0-C ,  1-C ) :   1.1163 B(  0-C ,  7-H ) :   0.9608 B(  0-C ,  8-H ) :   0.9658
B(  0-C ,  9-H ) :   0.9655 B(  1-C ,  2-C ) :   1.0944 B(  1-C , 10-H ) :   0.9369
B(  1-C , 11-H ) :   0.9369 B(  2-C ,  3-C ) :   1.0897 B(  2-C , 12-H ) :   0.9340
B(  2-C , 13-H ) :   0.9332 B(  3-C ,  4-C ) :   1.0733 B(  3-C , 14-H ) :   0.9360
B(  3-C , 15-H ) :   0.9348 B(  4-C ,  5-C ) :   1.0588 B(  4-C , 16-H ) :   0.9096
B(  4-C , 17-H ) :   0.9286 B(  5-C ,  6-C ) :   2.0166 B(  5-C , 18-H ) :   0.9534
B(  6-C , 19-H ) :   0.9482 B(  6-C , 20-H ) :   0.9432

FINAL SINGLE POINT ENERGY      -274.557721848901

DIPOLE MOMENT
-------------
                                X             Y             Z
Electronic contribution:      4.72168       1.22409      -1.05748
Nuclear contribution   :     -4.88393      -1.23791       1.15319
                        -----------------------------------------
Total Dipole Moment    :     -0.16225      -0.01382       0.09571
                        -----------------------------------------
Magnitude (a.u.)       :      0.18888
Magnitude (Debye)      :      0.48009

                             ****ORCA TERMINATED NORMALLY****
TOTAL RUN TIME: 0 days 0 hours 0 minutes 8 seconds 755 msec
