                         Program Version 3.0.3 - RELEASE   -
|  1> ! RI PBE def2-SVP def2-SVP/J NBO PAL2
|  2> % maxcore 2000
|  3> % output
|  4>     # printlevel mini
|  5>     print[ P_Basis ] 0
|  6>     print[ P_SCFInfo ] 1
|  7>     print[ P_SCFIterInfo ] 1
|  8>     print[ P_OrbEn ] 0
|  9>     print[ P_Cartesian ] 0
| 10> end
| 11> *xyz 0 1
| 12>  C        0.9156940000     0.0718650000    -0.0323720000
| 13>  C        2.4346190000     0.0573350000    -0.0596450000
| 14>  C        3.0026440000    -0.5748110000    -1.3204920000
| 15>  C        4.5214320000    -0.5919560000    -1.3518010000
| 16>  C        5.0728820000    -1.2305050000    -2.6269090000
| 17>  C        6.5249030000    -1.2567180000    -2.6750180000
| 18>  C        7.7254830000    -1.2688980000    -2.6961710000
| 19>  H        0.5355810000     0.5310830000     0.8829940000
| 20>  H        0.5100240000    -0.9422710000    -0.0878270000
| 21>  H        0.5109060000     0.6344050000    -0.8784310000
| 22>  H        2.8130230000    -0.4830710000     0.8157210000
| 23>  H        2.8139180000     1.0816860000     0.0315950000
| 24>  H        2.6252700000    -0.0340090000    -2.1978100000
| 25>  H        2.6237860000    -1.6007130000    -1.4129860000
| 26>  H        4.9070500000    -1.1380090000    -0.4848720000
| 27>  H        4.9085780000     0.4286670000    -1.2687620000
| 28>  H        4.6971930000    -0.6882570000    -3.5022910000
| 29>  H        4.6949120000    -2.2553020000    -2.7185410000
| 30>  H        8.7892030000    -1.2820310000    -2.7191820000
| 31> *
| 32>
| 33>                          ****END OF INPUT****
 Total Charge           Charge          ....    0
 Multiplicity           Mult            ....    1
 Number of Electrons    NEL             ....   54
 Basis Dimension        Dim             ....  158

MULLIKEN ATOMIC CHARGES
-----------------------
   0 C :   -0.002081
   1 C :   -0.032439
   2 C :   -0.019641
   3 C :   -0.043174
   4 C :    0.084843
   5 C :    0.352125
   6 C :   -0.510227
   7 H :    0.018329
   8 H :    0.015638
   9 H :    0.017119
  10 H :    0.009368
  11 H :    0.009648
  12 H :    0.002334
  13 H :    0.002952
  14 H :    0.018771
  15 H :    0.020491
  16 H :    0.030995
  17 H :    0.030685
  18 H :   -0.005736
Sum of atomic charges:   -0.0000000

LOEWDIN ATOMIC CHARGES
----------------------
   0 C :   -0.065310
   1 C :   -0.045480
   2 C :   -0.043997
   3 C :   -0.029871
   4 C :   -0.046478
   5 C :   -0.020264
   6 C :   -0.095408
   7 H :    0.026834
   8 H :    0.023922
   9 H :    0.024308
  10 H :    0.023289
  11 H :    0.023142
  12 H :    0.021555
  13 H :    0.021474
  14 H :    0.027917
  15 H :    0.028074
  16 H :    0.047030
  17 H :    0.046978
  18 H :    0.032287

  Mayer bond orders larger than 0.1
B(  0-C ,  1-C ) :   1.1140 B(  0-C ,  7-H ) :   0.9607 B(  0-C ,  8-H ) :   0.9660
B(  0-C ,  9-H ) :   0.9663 B(  1-C ,  2-C ) :   1.0970 B(  1-C , 10-H ) :   0.9364
B(  1-C , 11-H ) :   0.9368 B(  2-C ,  3-C ) :   1.0901 B(  2-C , 12-H ) :   0.9315
B(  2-C , 13-H ) :   0.9320 B(  3-C ,  4-C ) :   1.0762 B(  3-C , 14-H ) :   0.9359
B(  3-C , 15-H ) :   0.9367 B(  4-C ,  5-C ) :   1.0620 B(  4-C , 16-H ) :   0.8933
B(  4-C , 17-H ) :   0.8922 B(  5-C ,  6-C ) :   2.3257 B(  5-C , 18-H ) :  -0.1144
B(  6-C , 18-H ) :   1.1055

FINAL SINGLE POINT ENERGY      -273.315376610955

DIPOLE MOMENT
-------------
                                X             Y             Z
Electronic contribution:      8.94434      -1.98130      -3.93877
Nuclear contribution   :     -9.29916       2.02578       4.02663
                        -----------------------------------------
Total Dipole Moment    :     -0.35483       0.04448       0.08785
                        -----------------------------------------
Magnitude (a.u.)       :      0.36824
Magnitude (Debye)      :      0.93598

                             ****ORCA TERMINATED NORMALLY****
TOTAL RUN TIME: 0 days 0 hours 0 minutes 7 seconds 808 msec
