                         Program Version 3.0.3 - RELEASE   -
|  1> ! RI PBE def2-SVP def2-SVP/J NBO PAL2
|  2> % maxcore 2000
|  3> % output
|  4>     # printlevel mini
|  5>     print[ P_Basis ] 0
|  6>     print[ P_SCFInfo ] 1
|  7>     print[ P_SCFIterInfo ] 1
|  8>     print[ P_OrbEn ] 0
|  9>     print[ P_Cartesian ] 0
| 10> end
| 11> *xyz 0 1
| 12>  C        0.5610290000     1.1403540000     0.6574650000
| 13>  C       -0.8948150000     0.7520120000     0.4457900000
| 14>  C       -0.9052320000     0.0062070000    -0.8594090000
| 15>  C        0.5452960000     0.0118920000    -1.3190520000
| 16>  N        1.2308520000     0.0067240000    -0.0111390000
| 17>  C        0.5658340000    -1.1358630000     0.6464100000
| 18>  C       -0.8916270000    -0.7514090000     0.4391370000
| 19>  H        0.8529420000     1.1840180000     1.7092810000
| 20>  H        0.8369580000     2.0800820000     0.1736070000
| 21>  H       -1.7361460000     1.3339760000     0.7941550000
| 22>  H       -1.7546780000     0.0073140000    -1.5274690000
| 23>  H        0.8205560000     0.9044340000    -1.8856520000
| 24>  H        0.8244660000    -0.8736200000    -1.8946660000
| 25>  H        0.8582390000    -1.1883790000     1.6976850000
| 26>  H        0.8455050000    -2.0698470000     0.1536120000
| 27>  H       -1.7305890000    -1.3399150000     0.7821630000
| 28> *
| 29>
| 30>                          ****END OF INPUT****
 Total Charge           Charge          ....    0
 Multiplicity           Mult            ....    1
 Number of Electrons    NEL             ....   52
 Basis Dimension        Dim             ....  143

MULLIKEN ATOMIC CHARGES
-----------------------
   0 C :    0.250444
   1 C :   -0.149265
   2 C :   -0.159978
   3 C :    0.250607
   4 N :   -0.377786
   5 C :    0.250272
   6 C :   -0.149107
   7 H :    0.008914
   8 H :    0.011008
   9 H :    0.006171
  10 H :    0.009050
  11 H :    0.011755
  12 H :    0.011683
  13 H :    0.008937
  14 H :    0.011059
  15 H :    0.006235
Sum of atomic charges:   -0.0000000

LOEWDIN ATOMIC CHARGES
----------------------
   0 C :    0.029845
   1 C :   -0.054031
   2 C :   -0.055663
   3 C :    0.029230
   4 N :   -0.115482
   5 C :    0.029746
   6 C :   -0.054002
   7 H :    0.020177
   8 H :    0.020521
   9 H :    0.022403
  10 H :    0.022776
  11 H :    0.020675
  12 H :    0.020656
  13 H :    0.020183
  14 H :    0.020543
  15 H :    0.022423

  Mayer bond orders larger than 0.1
B(  0-C ,  1-C ) :   1.0344 B(  0-C ,  4-N ) :   0.9930 B(  0-C ,  7-H ) :   0.9229
B(  0-C ,  8-H ) :   0.9234 B(  1-C ,  2-C ) :   0.9221 B(  1-C ,  6-C ) :   0.9292
B(  1-C ,  9-H ) :   0.9712 B(  2-C ,  3-C ) :   1.0335 B(  2-C ,  6-C ) :   0.9225
B(  2-C , 10-H ) :   0.9726 B(  3-C ,  4-N ) :   0.9920 B(  3-C , 11-H ) :   0.9231
B(  3-C , 12-H ) :   0.9230 B(  4-N ,  5-C ) :   0.9932 B(  5-C ,  6-C ) :   1.0341
B(  5-C , 13-H ) :   0.9229 B(  5-C , 14-H ) :   0.9234 B(  6-C , 15-H ) :   0.9712

FINAL SINGLE POINT ENERGY      -288.170299433375

DIPOLE MOMENT
-------------
                                X             Y             Z
Electronic contribution:      0.10668      -0.00017       0.00448
Nuclear contribution   :     -0.59189      -0.00076       0.00507
                        -----------------------------------------
Total Dipole Moment    :     -0.48521      -0.00093       0.00954
                        -----------------------------------------
Magnitude (a.u.)       :      0.48531
Magnitude (Debye)      :      1.23355

                             ****ORCA TERMINATED NORMALLY****
TOTAL RUN TIME: 0 days 0 hours 0 minutes 7 seconds 359 msec
