                         Program Version 3.0.3 - RELEASE   -
|  1> ! RI PBE def2-SVP def2-SVP/J NBO PAL2
|  2> % maxcore 2000
|  3> % output
|  4>     # printlevel mini
|  5>     print[ P_Basis ] 0
|  6>     print[ P_SCFInfo ] 1
|  7>     print[ P_SCFIterInfo ] 1
|  8>     print[ P_OrbEn ] 0
|  9>     print[ P_Cartesian ] 0
| 10> end
| 11> *xyz 0 1
| 12>  C        1.7268470000     0.0081900000    -0.5312170000
| 13>  C        0.8225080000     0.8010450000     0.3680480000
| 14>  C        0.7617110000    -0.7080910000     0.3558590000
| 15>  N       -0.6227320000    -1.0101330000    -0.0756230000
| 16>  C       -0.8556800000     0.0086540000    -1.1550060000
| 17>  C       -0.6206300000     1.0636990000    -0.0720930000
| 18>  C       -1.3353290000    -0.0005810000     0.8048830000
| 19>  H        2.7587930000    -0.0534650000    -0.2029310000
| 20>  H        1.6274790000     0.0263660000    -1.6083890000
| 21>  H        1.2318030000     1.3697390000     1.1936310000
| 22>  H        1.1244110000    -1.3294680000     1.1641060000
| 23>  H       -1.8975570000    -0.0473290000    -1.4708030000
| 24>  H       -0.2141430000    -0.0543920000    -2.0320130000
| 25>  H       -0.9494060000     2.0999200000    -0.1645230000
| 26>  H       -2.4164420000    -0.0622800000     0.6624260000
| 27>  H       -1.0759140000    -0.0582750000     1.8640550000
| 28> *
| 29>
| 30>                          ****END OF INPUT****
 Total Charge           Charge          ....    0
 Multiplicity           Mult            ....    1
 Number of Electrons    NEL             ....   52
 Basis Dimension        Dim             ....  143

MULLIKEN ATOMIC CHARGES
-----------------------
   0 C :    0.082080
   1 C :   -0.076021
   2 C :   -0.020424
   3 N :   -0.265646
   4 C :    0.125321
   5 C :   -0.158603
   6 C :    0.147839
   7 H :    0.022258
   8 H :    0.026541
   9 H :    0.017095
  10 H :    0.018373
  11 H :    0.022564
  12 H :    0.020271
  13 H :   -0.005779
  14 H :    0.023874
  15 H :    0.020257
Sum of atomic charges:    0.0000000

LOEWDIN ATOMIC CHARGES
----------------------
   0 C :   -0.041758
   1 C :   -0.055034
   2 C :   -0.001482
   3 N :   -0.121558
   4 C :    0.032480
   5 C :   -0.032151
   6 C :    0.041994
   7 H :    0.036808
   8 H :    0.025321
   9 H :    0.020740
  10 H :    0.019272
  11 H :    0.023944
  12 H :    0.010507
  13 H :    0.011448
  14 H :    0.016304
  15 H :    0.013165

  Mayer bond orders larger than 0.1
B(  0-C ,  1-C ) :   1.0143 B(  0-C ,  2-C ) :   0.9947 B(  0-C ,  7-H ) :   0.9256
B(  0-C ,  8-H ) :   0.9021 B(  1-C ,  2-C ) :   0.8911 B(  1-C ,  5-C ) :   0.9769
B(  1-C ,  9-H ) :   0.9640 B(  2-C ,  3-N ) :   1.0100 B(  2-C , 10-H ) :   0.9438
B(  3-N ,  4-C ) :   0.9759 B(  3-N ,  6-C ) :   0.9610 B(  4-C ,  5-C ) :   1.0167
B(  4-C , 11-H ) :   0.9390 B(  4-C , 12-H ) :   0.9272 B(  5-C ,  6-C ) :   0.9932
B(  5-C , 13-H ) :   0.9621 B(  6-C , 14-H ) :   0.9437 B(  6-C , 15-H ) :   0.9361

FINAL SINGLE POINT ENERGY      -288.106024974253

DIPOLE MOMENT
-------------
                                X             Y             Z
Electronic contribution:     -0.28825      -1.05282       0.25163
Nuclear contribution   :      0.39889       1.60452      -0.16602
                        -----------------------------------------
Total Dipole Moment    :      0.11063       0.55170       0.08561
                        -----------------------------------------
Magnitude (a.u.)       :      0.56916
Magnitude (Debye)      :      1.44669

                             ****ORCA TERMINATED NORMALLY****
TOTAL RUN TIME: 0 days 0 hours 0 minutes 7 seconds 313 msec
