                         Program Version 3.0.3 - RELEASE   -
|  1> ! RI PBE def2-SVP def2-SVP/J NBO PAL2
|  2> % maxcore 2000
|  3> % output
|  4>     # printlevel mini
|  5>     print[ P_Basis ] 0
|  6>     print[ P_SCFInfo ] 1
|  7>     print[ P_SCFIterInfo ] 1
|  8>     print[ P_OrbEn ] 0
|  9>     print[ P_Cartesian ] 0
| 10> end
| 11> *xyz 0 1
| 12>  C       -0.8535440000     0.0002800000    -1.2227380000
| 13>  C       -0.5958290000     1.0185760000    -0.0990810000
| 14>  C       -1.3351780000    -0.0004090000     0.8182810000
| 15>  C       -0.5956040000    -1.0186600000    -0.0997160000
| 16>  C        0.8543490000    -0.7400750000     0.3303920000
| 17>  N        1.7603650000     0.0003600000    -0.5289910000
| 18>  C        0.8541790000     0.7400360000     0.3308640000
| 19>  H       -0.2318320000     0.0006280000    -2.1208510000
| 20>  H       -1.9014650000     0.0002560000    -1.5226270000
| 21>  H       -0.9057580000     2.0594130000    -0.1834910000
| 22>  H       -2.4203300000    -0.0004870000     0.6889440000
| 23>  H       -1.0729210000    -0.0007110000     1.8791550000
| 24>  H       -0.9053030000    -2.0595130000    -0.1847760000
| 25>  H        1.3084630000    -1.3510490000     1.1018300000
| 26>  H        1.4833730000     0.0006420000    -1.5030820000
| 27>  H        1.3081560000     1.3506230000     1.1026890000
| 28> *
| 29>
| 30>                          ****END OF INPUT****
 Total Charge           Charge          ....    0
 Multiplicity           Mult            ....    1
 Number of Electrons    NEL             ....   52
 Basis Dimension        Dim             ....  143

MULLIKEN ATOMIC CHARGES
-----------------------
   0 C :    0.035457
   1 C :   -0.077524
   2 C :    0.065156
   3 C :   -0.077577
   4 C :   -0.021168
   5 N :   -0.085873
   6 C :   -0.021212
   7 H :    0.011403
   8 H :    0.017531
   9 H :   -0.008131
  10 H :    0.018412
  11 H :    0.019424
  12 H :   -0.008128
  13 H :    0.015687
  14 H :    0.100858
  15 H :    0.015685
Sum of atomic charges:   -0.0000000

LOEWDIN ATOMIC CHARGES
----------------------
   0 C :   -0.026080
   1 C :   -0.026766
   2 C :   -0.011549
   3 C :   -0.026770
   4 C :   -0.007020
   5 N :   -0.069805
   6 C :   -0.007022
   7 H :    0.007018
   8 H :    0.030189
   9 H :    0.011846
  10 H :    0.017337
  11 H :    0.015697
  12 H :    0.011846
  13 H :    0.018633
  14 H :    0.043813
  15 H :    0.018633

  Mayer bond orders larger than 0.1
B(  0-C ,  1-C ) :   0.9934 B(  0-C ,  3-C ) :   0.9934 B(  0-C ,  7-H ) :   0.9293
B(  0-C ,  8-H ) :   0.9221 B(  1-C ,  2-C ) :   0.9722 B(  1-C ,  6-C ) :   0.9398
B(  1-C ,  9-H ) :   0.9699 B(  2-C ,  3-C ) :   0.9722 B(  2-C , 10-H ) :   0.9384
B(  2-C , 11-H ) :   0.9370 B(  3-C ,  4-C ) :   0.9398 B(  3-C , 12-H ) :   0.9699
B(  4-C ,  5-N ) :   1.0432 B(  4-C ,  6-C ) :   0.9548 B(  4-C , 13-H ) :   0.9503
B(  5-N ,  6-C ) :   1.0432 B(  5-N , 14-H ) :   0.9216 B(  6-C , 15-H ) :   0.9503

FINAL SINGLE POINT ENERGY      -288.127789958085

DIPOLE MOMENT
-------------
                                X             Y             Z
Electronic contribution:      2.57537       0.00030      -0.04007
Nuclear contribution   :     -3.22949      -0.00035      -0.03668
                        -----------------------------------------
Total Dipole Moment    :     -0.65412      -0.00005      -0.07675
                        -----------------------------------------
Magnitude (a.u.)       :      0.65861
Magnitude (Debye)      :      1.67404

                             ****ORCA TERMINATED NORMALLY****
TOTAL RUN TIME: 0 days 0 hours 0 minutes 7 seconds 357 msec
