                         Program Version 3.0.3 - RELEASE   -
|  1> ! RI PBE def2-SVP def2-SVP/J NBO PAL2
|  2> % maxcore 2000
|  3> % output
|  4>     # printlevel mini
|  5>     print[ P_Basis ] 0
|  6>     print[ P_SCFInfo ] 1
|  7>     print[ P_SCFIterInfo ] 1
|  8>     print[ P_OrbEn ] 0
|  9>     print[ P_Cartesian ] 0
| 10> end
| 11> *xyz 0 1
| 12>  C       -1.0219890000    -0.0007090000    -1.0778200000
| 13>  C       -0.6174970000     1.0290420000     0.0026550000
| 14>  C       -1.0544420000    -0.0350280000     1.0361940000
| 15>  C       -0.5949750000    -1.0621440000    -0.0309610000
| 16>  C        0.9066620000    -1.0740290000    -0.0082690000
| 17>  N        1.5693890000     0.0238320000     0.0195770000
| 18>  N        0.8181290000     1.1313390000     0.0266850000
| 19>  H       -0.4953660000     0.0260640000    -2.0323980000
| 20>  H       -2.1013180000    -0.0022310000    -1.2291910000
| 21>  H       -1.0616240000     2.0242370000     0.0119880000
| 22>  H       -2.1379040000    -0.0409340000     1.1542660000
| 23>  H       -0.5573500000    -0.0394610000     2.0068340000
| 24>  H       -1.0389960000    -2.0563700000    -0.0539170000
| 25>  H        1.4781070000    -1.9950630000    -0.0146630000
| 26>  H        1.3068940000     2.0038660000     0.0462310000
| 27> *
| 28>
| 29>                          ****END OF INPUT****
 Total Charge           Charge          ....    0
 Multiplicity           Mult            ....    1
 Number of Electrons    NEL             ....   52
 Basis Dimension        Dim             ....  138

MULLIKEN ATOMIC CHARGES
-----------------------
   0 C :    0.126925
   1 C :   -0.087950
   2 C :    0.125642
   3 C :   -0.159473
   4 C :   -0.027612
   5 N :   -0.053297
   6 N :   -0.087377
   7 H :    0.019270
   8 H :    0.018402
   9 H :   -0.006191
  10 H :    0.019073
  11 H :    0.019645
  12 H :   -0.009337
  13 H :   -0.009457
  14 H :    0.111738
Sum of atomic charges:   -0.0000000

LOEWDIN ATOMIC CHARGES
----------------------
   0 C :   -0.026774
   1 C :    0.014344
   2 C :   -0.026944
   3 C :   -0.047512
   4 C :   -0.081677
   5 N :   -0.045034
   6 N :    0.017041
   7 H :    0.018050
   8 H :    0.026260
   9 H :    0.013549
  10 H :    0.026319
  11 H :    0.018174
  12 H :    0.016335
  13 H :    0.013716
  14 H :    0.064153

  Mayer bond orders larger than 0.1
B(  0-C ,  1-C ) :   0.9829 B(  0-C ,  3-C ) :   0.9750 B(  0-C ,  7-H ) :   0.9337
B(  0-C ,  8-H ) :   0.9384 B(  1-C ,  2-C ) :   0.9831 B(  1-C ,  6-N ) :   1.0072
B(  1-C ,  9-H ) :   0.9323 B(  2-C ,  3-C ) :   0.9747 B(  2-C , 10-H ) :   0.9387
B(  2-C , 11-H ) :   0.9335 B(  3-C ,  4-C ) :   0.9763 B(  3-C , 12-H ) :   0.9260
B(  4-C ,  5-N ) :   1.8324 B(  4-C ,  6-N ) :   0.1439 B(  4-C , 13-H ) :   0.9791
B(  5-N ,  6-N ) :   1.1316 B(  6-N , 14-H ) :   0.9634

FINAL SINGLE POINT ENERGY      -304.169352990428

DIPOLE MOMENT
-------------
                                X             Y             Z
Electronic contribution:      3.60168       0.69044       0.06724
Nuclear contribution   :     -4.32398      -0.25413      -0.07223
                        -----------------------------------------
Total Dipole Moment    :     -0.72230       0.43631      -0.00500
                        -----------------------------------------
Magnitude (a.u.)       :      0.84387
Magnitude (Debye)      :      2.14494

                             ****ORCA TERMINATED NORMALLY****
TOTAL RUN TIME: 0 days 0 hours 0 minutes 7 seconds 244 msec
