                         Program Version 3.0.3 - RELEASE   -
|  1> ! RI PBE def2-SVP def2-SVP/J NBO PAL2
|  2> % maxcore 2000
|  3> % output
|  4>     # printlevel mini
|  5>     print[ P_Basis ] 0
|  6>     print[ P_SCFInfo ] 1
|  7>     print[ P_SCFIterInfo ] 1
|  8>     print[ P_OrbEn ] 0
|  9>     print[ P_Cartesian ] 0
| 10> end
| 11> *xyz 0 1
| 12>  C        1.7167970000     0.0788040000    -0.4276130000
| 13>  C        0.7699400000     0.8883060000     0.3637440000
| 14>  C       -0.6632130000     1.0857830000    -0.1184330000
| 15>  C       -1.3662370000     0.0861390000     0.8516290000
| 16>  C       -0.5296630000    -0.9224300000     0.0297120000
| 17>  C       -0.8427910000    -0.0166830000    -1.1773390000
| 18>  N        0.8310410000    -0.5792860000     0.5286130000
| 19>  H        2.7561530000     0.0671610000    -0.1157520000
| 20>  H        1.5766840000    -0.0570960000    -1.4925650000
| 21>  H        1.1249940000     1.4946700000     1.1915300000
| 22>  H       -1.0135870000     2.1055210000    -0.2705160000
| 23>  H       -2.4412070000     0.0043610000     0.6861360000
| 24>  H       -1.1301560000     0.1591860000     1.9146880000
| 25>  H       -0.7172350000    -1.9946790000     0.0312200000
| 26>  H       -1.8873720000    -0.1132370000    -1.4717880000
| 27>  H       -0.2167460000    -0.0330300000    -2.0685570000
| 28> *
| 29>
| 30>                          ****END OF INPUT****
 Total Charge           Charge          ....    0
 Multiplicity           Mult            ....    1
 Number of Electrons    NEL             ....   52
 Basis Dimension        Dim             ....  143

MULLIKEN ATOMIC CHARGES
-----------------------
   0 C :    0.122735
   1 C :   -0.033631
   2 C :   -0.090416
   3 C :    0.063826
   4 C :   -0.026771
   5 C :    0.051064
   6 N :   -0.236986
   7 H :    0.025457
   8 H :    0.026763
   9 H :    0.018071
  10 H :   -0.008221
  11 H :    0.023143
  12 H :    0.026250
  13 H :    0.001330
  14 H :    0.021488
  15 H :    0.015897
Sum of atomic charges:   -0.0000000

LOEWDIN ATOMIC CHARGES
----------------------
   0 C :    0.005328
   1 C :   -0.000312
   2 C :   -0.022845
   3 C :   -0.018828
   4 C :    0.026431
   5 C :   -0.037510
   6 N :   -0.118903
   7 H :    0.026626
   8 H :    0.015812
   9 H :    0.017617
  10 H :    0.013399
  11 H :    0.021270
  12 H :    0.019765
  13 H :    0.010111
  14 H :    0.029492
  15 H :    0.012546

  Mayer bond orders larger than 0.1
B(  0-C ,  1-C ) :   1.0607 B(  0-C ,  6-N ) :   0.9835 B(  0-C ,  7-H ) :   0.9405
B(  0-C ,  8-H ) :   0.8996 B(  1-C ,  2-C ) :   0.9833 B(  1-C ,  6-N ) :   0.9236
B(  1-C ,  9-H ) :   0.9471 B(  2-C ,  3-C ) :   0.9867 B(  2-C ,  5-C ) :   0.9898
B(  2-C , 10-H ) :   0.9649 B(  3-C ,  4-C ) :   0.9760 B(  3-C , 11-H ) :   0.9451
B(  3-C , 12-H ) :   0.9278 B(  4-C ,  5-C ) :   0.9758 B(  4-C ,  6-N ) :   0.9854
B(  4-C , 13-H ) :   0.9588 B(  5-C , 14-H ) :   0.9319 B(  5-C , 15-H ) :   0.9168

FINAL SINGLE POINT ENERGY      -288.120564303555

DIPOLE MOMENT
-------------
                                X             Y             Z
Electronic contribution:      1.42637      -0.52556       1.09808
Nuclear contribution   :     -1.70659       0.82326      -1.49858
                        -----------------------------------------
Total Dipole Moment    :     -0.28023       0.29771      -0.40050
                        -----------------------------------------
Magnitude (a.u.)       :      0.57233
Magnitude (Debye)      :      1.45474

                             ****ORCA TERMINATED NORMALLY****
TOTAL RUN TIME: 0 days 0 hours 0 minutes 7 seconds 341 msec
