                         Program Version 3.0.3 - RELEASE   -
|  1> ! RI PBE def2-SVP def2-SVP/J NBO PAL2
|  2> % maxcore 2000
|  3> % output
|  4>     # printlevel mini
|  5>     print[ P_Basis ] 0
|  6>     print[ P_SCFInfo ] 1
|  7>     print[ P_SCFIterInfo ] 1
|  8>     print[ P_OrbEn ] 0
|  9>     print[ P_Cartesian ] 0
| 10> end
| 11> *xyz 0 1
| 12>  C       -0.9927770000     0.0076590000    -1.0778400000
| 13>  C       -0.6238360000     1.0477410000     0.0026910000
| 14>  C       -1.0302060000    -0.0269090000     1.0348710000
| 15>  C       -0.5494310000    -1.0438030000    -0.0302170000
| 16>  N        0.9039640000    -1.1516930000    -0.0062630000
| 17>  C        1.4937080000    -0.0203900000     0.0226290000
| 18>  N        0.8201650000     1.1603080000     0.0302900000
| 19>  H       -0.4503890000     0.0413460000    -2.0236910000
| 20>  H       -2.0692510000    -0.0215150000    -1.2472250000
| 21>  H       -1.0875550000     2.0332990000     0.0106220000
| 22>  H       -2.1119850000    -0.0609710000     1.1649960000
| 23>  H       -0.5216630000    -0.0244580000     1.9999230000
| 24>  H       -0.9972070000    -2.0360940000    -0.0543880000
| 25>  H        2.5808960000     0.0374900000     0.0426370000
| 26>  H        1.2893470000     2.0458800000     0.0516530000
| 27> *
| 28>
| 29>                          ****END OF INPUT****
 Total Charge           Charge          ....    0
 Multiplicity           Mult            ....    1
 Number of Electrons    NEL             ....   52
 Basis Dimension        Dim             ....  138

MULLIKEN ATOMIC CHARGES
-----------------------
   0 C :    0.130623
   1 C :   -0.115901
   2 C :    0.128711
   3 C :   -0.115549
   4 N :   -0.137245
   5 C :    0.020439
   6 N :   -0.081458
   7 H :    0.015938
   8 H :    0.019661
   9 H :   -0.001789
  10 H :    0.020458
  11 H :    0.016345
  12 H :   -0.004768
  13 H :    0.003171
  14 H :    0.101365
Sum of atomic charges:   -0.0000000

LOEWDIN ATOMIC CHARGES
----------------------
   0 C :   -0.037266
   1 C :    0.027514
   2 C :   -0.037520
   3 C :    0.010030
   4 N :   -0.160260
   5 C :    0.011336
   6 N :   -0.006605
   7 H :    0.017512
   8 H :    0.026720
   9 H :    0.012256
  10 H :    0.026822
  11 H :    0.017643
  12 H :    0.007531
  13 H :    0.013771
  14 H :    0.070516

  Mayer bond orders larger than 0.1
B(  0-C ,  1-C ) :   0.9843 B(  0-C ,  3-C ) :   0.9572 B(  0-C ,  7-H ) :   0.9201
B(  0-C ,  8-H ) :   0.9401 B(  1-C ,  2-C ) :   0.9846 B(  1-C ,  6-N ) :   0.9979
B(  1-C ,  9-H ) :   0.9363 B(  2-C ,  3-C ) :   0.9571 B(  2-C , 10-H ) :   0.9404
B(  2-C , 11-H ) :   0.9199 B(  3-C ,  4-N ) :   1.0524 B(  3-C , 12-H ) :   0.9371
B(  4-N ,  5-C ) :   1.8217 B(  4-N ,  6-N ) :   0.1180 B(  5-C ,  6-N ) :   1.1706
B(  5-C , 13-H ) :   0.9547 B(  6-N , 14-H ) :   0.9479

FINAL SINGLE POINT ENERGY      -304.196938679054

DIPOLE MOMENT
-------------
                                X             Y             Z
Electronic contribution:      2.89938      -0.50284       0.04440
Nuclear contribution   :     -3.17402       1.75574      -0.02890
                        -----------------------------------------
Total Dipole Moment    :     -0.27464       1.25289       0.01550
                        -----------------------------------------
Magnitude (a.u.)       :      1.28274
Magnitude (Debye)      :      3.26045

                             ****ORCA TERMINATED NORMALLY****
TOTAL RUN TIME: 0 days 0 hours 0 minutes 6 seconds 647 msec
