                         Program Version 3.0.3 - RELEASE   -
|  1> ! RI PBE def2-SVP def2-SVP/J NBO PAL2
|  2> % maxcore 2000
|  3> % output
|  4>     # printlevel mini
|  5>     print[ P_Basis ] 0
|  6>     print[ P_SCFInfo ] 1
|  7>     print[ P_SCFIterInfo ] 1
|  8>     print[ P_OrbEn ] 0
|  9>     print[ P_Cartesian ] 0
| 10> end
| 11> *xyz 0 1
| 12>  C       -1.6073800000     0.9359730000     0.3507270000
| 13>  C       -1.2277260000    -0.4263700000    -0.1591440000
| 14>  C       -0.2003150000    -1.3249370000     0.6074490000
| 15>  C        1.0341860000    -0.7488110000    -0.0789230000
| 16>  N        2.1892500000     0.0948860000     0.1236070000
| 17>  C        0.8415290000     0.7170850000     0.1174250000
| 18>  C       -0.4923180000     0.8465950000    -0.6424740000
| 19>  H       -1.3636950000     1.2045230000     1.3734210000
| 20>  H       -2.5577160000     1.3318400000     0.0090920000
| 21>  H       -1.9465550000    -0.9248370000    -0.8007380000
| 22>  H       -0.3801260000    -2.3847110000     0.4076120000
| 23>  H       -0.2208930000    -1.1638510000     1.6866810000
| 24>  H        0.9289570000    -0.9921510000    -1.1386640000
| 25>  H        2.7063900000     0.1253500000    -0.7501020000
| 26>  H        0.6739350000     0.9911050000     1.1549530000
| 27>  H       -0.6060230000     1.2465230000    -1.6424300000
| 28> *
| 29>
| 30>                          ****END OF INPUT****
 Total Charge           Charge          ....    0
 Multiplicity           Mult            ....    1
 Number of Electrons    NEL             ....   52
 Basis Dimension        Dim             ....  143

MULLIKEN ATOMIC CHARGES
-----------------------
   0 C :    0.072860
   1 C :   -0.206797
   2 C :    0.136263
   3 C :   -0.030245
   4 N :   -0.119654
   5 C :    0.003831
   6 C :   -0.118890
   7 H :    0.029737
   8 H :    0.021551
   9 H :    0.015311
  10 H :    0.007287
  11 H :    0.014654
  12 H :    0.018504
  13 H :    0.120043
  14 H :    0.017717
  15 H :    0.017828
Sum of atomic charges:   -0.0000000

LOEWDIN ATOMIC CHARGES
----------------------
   0 C :   -0.026238
   1 C :   -0.047961
   2 C :   -0.027617
   3 C :   -0.012015
   4 N :   -0.045877
   5 C :   -0.052851
   6 C :   -0.032107
   7 H :    0.024952
   8 H :    0.031195
   9 H :    0.019483
  10 H :    0.023320
  11 H :    0.030463
  12 H :    0.012425
  13 H :    0.065257
  14 H :    0.016779
  15 H :    0.020792

  Mayer bond orders larger than 0.1
B(  0-C ,  1-C ) :   0.9859 B(  0-C ,  6-C ) :   0.9871 B(  0-C ,  7-H ) :   0.9293
B(  0-C ,  8-H ) :   0.9273 B(  1-C ,  2-C ) :   1.0675 B(  1-C ,  6-C ) :   0.9279
B(  1-C ,  9-H ) :   0.9388 B(  2-C ,  3-C ) :   1.0529 B(  2-C , 10-H ) :   0.9165
B(  2-C , 11-H ) :   0.9122 B(  3-C ,  4-N ) :   1.0187 B(  3-C ,  5-C ) :   0.9073
B(  3-C , 12-H ) :   0.9462 B(  4-N ,  5-C ) :   1.0390 B(  4-N , 13-H ) :   0.9199
B(  5-C ,  6-C ) :   0.9758 B(  5-C , 14-H ) :   0.9318 B(  6-C , 15-H ) :   0.9733

FINAL SINGLE POINT ENERGY      -288.042476321314

DIPOLE MOMENT
-------------
                                X             Y             Z
Electronic contribution:      2.92066       0.46424      -0.40710
Nuclear contribution   :     -3.29617      -0.59753      -0.10667
                        -----------------------------------------
Total Dipole Moment    :     -0.37551      -0.13329      -0.51377
                        -----------------------------------------
Magnitude (a.u.)       :      0.65018
Magnitude (Debye)      :      1.65263

                             ****ORCA TERMINATED NORMALLY****
TOTAL RUN TIME: 0 days 0 hours 0 minutes 7 seconds 756 msec
