                         Program Version 3.0.3 - RELEASE   -
|  1> ! RI PBE def2-SVP def2-SVP/J NBO PAL2
|  2> % maxcore 2000
|  3> % output
|  4>     # printlevel mini
|  5>     print[ P_Basis ] 0
|  6>     print[ P_SCFInfo ] 1
|  7>     print[ P_SCFIterInfo ] 1
|  8>     print[ P_OrbEn ] 0
|  9>     print[ P_Cartesian ] 0
| 10> end
| 11> *xyz 0 1
| 12>  C       -1.1794170000     0.8982490000     0.5729060000
| 13>  C       -1.3126130000    -0.4476660000    -0.0735520000
| 14>  C       -0.2799260000    -1.5146670000     0.2500520000
| 15>  C        1.0282170000    -1.0000530000    -0.3284730000
| 16>  C        1.6543710000     0.2191100000     0.2190880000
| 17>  N        0.8153730000     0.3026560000    -0.9677240000
| 18>  C       -0.5812330000     0.6570140000    -0.7809170000
| 19>  H       -0.5485040000     1.0085910000     1.4452470000
| 20>  H       -2.0654190000     1.5219450000     0.5986860000
| 21>  H       -2.2969090000    -0.7686590000    -0.3931410000
| 22>  H       -0.5532520000    -2.4485780000    -0.2464540000
| 23>  H       -0.2103150000    -1.7291820000     1.3206500000
| 24>  H        1.6463470000    -1.7056090000    -0.8764380000
| 25>  H        2.7072520000     0.4104140000     0.0368480000
| 26>  H        1.2906970000     0.6133160000     1.1609840000
| 27>  H       -1.0112780000     1.1718180000    -1.6309420000
| 28> *
| 29>
| 30>                          ****END OF INPUT****
 Total Charge           Charge          ....    0
 Multiplicity           Mult            ....    1
 Number of Electrons    NEL             ....   52
 Basis Dimension        Dim             ....  143

MULLIKEN ATOMIC CHARGES
-----------------------
   0 C :    0.035567
   1 C :   -0.191969
   2 C :    0.206175
   3 C :   -0.141344
   4 C :    0.107893
   5 N :   -0.225696
   6 C :    0.016566
   7 H :    0.019416
   8 H :    0.030328
   9 H :    0.016950
  10 H :    0.014287
  11 H :    0.022228
  12 H :    0.022409
  13 H :    0.029947
  14 H :    0.015796
  15 H :    0.021447
Sum of atomic charges:    0.0000000

LOEWDIN ATOMIC CHARGES
----------------------
   0 C :   -0.049388
   1 C :   -0.044767
   2 C :   -0.032404
   3 C :    0.001482
   4 C :    0.009556
   5 N :   -0.104601
   6 C :    0.003797
   7 H :    0.021677
   8 H :    0.032322
   9 H :    0.023031
  10 H :    0.035574
  11 H :    0.032432
  12 H :    0.017889
  13 H :    0.021923
  14 H :    0.010579
  15 H :    0.020899

  Mayer bond orders larger than 0.1
B(  0-C ,  1-C ) :   0.9923 B(  0-C ,  6-C ) :   0.9886 B(  0-C ,  7-H ) :   0.9203
B(  0-C ,  8-H ) :   0.9315 B(  1-C ,  2-C ) :   1.0812 B(  1-C ,  6-C ) :   0.9278
B(  1-C ,  9-H ) :   0.9460 B(  2-C ,  3-C ) :   1.0604 B(  2-C , 10-H ) :   0.9216
B(  2-C , 11-H ) :   0.9091 B(  3-C ,  4-C ) :   1.0512 B(  3-C ,  5-N ) :   0.9420
B(  3-C , 12-H ) :   0.9403 B(  4-C ,  5-N ) :   0.9804 B(  4-C , 13-H ) :   0.9383
B(  4-C , 14-H ) :   0.9157 B(  5-N ,  6-C ) :   1.0614 B(  6-C , 15-H ) :   0.9584

FINAL SINGLE POINT ENERGY      -288.136612853844

DIPOLE MOMENT
-------------
                                X             Y             Z
Electronic contribution:      0.90013       0.49694      -2.11115
Nuclear contribution   :     -1.17823      -0.74213       2.54989
                        -----------------------------------------
Total Dipole Moment    :     -0.27810      -0.24519       0.43874
                        -----------------------------------------
Magnitude (a.u.)       :      0.57442
Magnitude (Debye)      :      1.46005

                             ****ORCA TERMINATED NORMALLY****
TOTAL RUN TIME: 0 days 0 hours 0 minutes 7 seconds 260 msec
