                         Program Version 3.0.3 - RELEASE   -
|  1> ! RI PBE def2-SVP def2-SVP/J NBO PAL2
|  2> % maxcore 2000
|  3> % output
|  4>     # printlevel mini
|  5>     print[ P_Basis ] 0
|  6>     print[ P_SCFInfo ] 1
|  7>     print[ P_SCFIterInfo ] 1
|  8>     print[ P_OrbEn ] 0
|  9>     print[ P_Cartesian ] 0
| 10> end
| 11> *xyz 0 1
| 12>  C        0.5584130000     1.2116830000     0.6925490000
| 13>  C       -0.8700660000     0.7775470000     0.4505220000
| 14>  C       -0.8701820000     0.0167280000    -0.8608600000
| 15>  C        0.5536110000     0.0206010000    -1.3730440000
| 16>  C        1.2166820000    -0.0007620000     0.0069980000
| 17>  N        0.5551310000    -1.1699240000     0.6092680000
| 18>  C       -0.8185550000    -0.7348550000     0.4345210000
| 19>  H        0.8113480000     1.2770280000     1.7553460000
| 20>  H        0.8137810000     2.1586360000     0.2099450000
| 21>  H       -1.7316610000     1.3301600000     0.7983170000
| 22>  H       -1.7364580000    -0.0154010000    -1.5064050000
| 23>  H        0.8065110000     0.9158930000    -1.9453030000
| 24>  H        0.7988550000    -0.8698410000    -1.9547740000
| 25>  H        2.3028350000    -0.0620710000     0.0344790000
| 26>  H        0.7806240000    -1.2216620000     1.5988660000
| 27>  H       -1.6189700000    -1.3706690000     0.7850760000
| 28> *
| 29>
| 30>                          ****END OF INPUT****
 Total Charge           Charge          ....    0
 Multiplicity           Mult            ....    1
 Number of Electrons    NEL             ....   52
 Basis Dimension        Dim             ....  143

MULLIKEN ATOMIC CHARGES
-----------------------
   0 C :    0.220032
   1 C :   -0.126977
   2 C :   -0.169755
   3 C :    0.254754
   4 C :   -0.263989
   5 N :   -0.112083
   6 C :    0.061986
   7 H :    0.002084
   8 H :    0.009989
   9 H :   -0.005533
  10 H :    0.002758
  11 H :    0.011905
  12 H :    0.018733
  13 H :    0.004334
  14 H :    0.093817
  15 H :   -0.002055
Sum of atomic charges:   -0.0000000

LOEWDIN ATOMIC CHARGES
----------------------
   0 C :   -0.035808
   1 C :   -0.058034
   2 C :   -0.044752
   3 C :   -0.023067
   4 C :    0.008952
   5 N :   -0.077086
   6 C :    0.003762
   7 H :    0.018990
   8 H :    0.024801
   9 H :    0.019419
  10 H :    0.022475
  11 H :    0.024553
  12 H :    0.028327
  13 H :    0.017379
  14 H :    0.052008
  15 H :    0.018081

  Mayer bond orders larger than 0.1
B(  0-C ,  1-C ) :   1.0311 B(  0-C ,  4-C ) :   0.9699 B(  0-C ,  7-H ) :   0.9268
B(  0-C ,  8-H ) :   0.9215 B(  1-C ,  2-C ) :   0.9004 B(  1-C ,  6-C ) :   0.8748
B(  1-C ,  9-H ) :   0.9635 B(  2-C ,  3-C ) :   1.0341 B(  2-C ,  6-C ) :   0.9092
B(  2-C , 10-H ) :   0.9623 B(  3-C ,  4-C ) :   0.9823 B(  3-C , 11-H ) :   0.9298
B(  3-C , 12-H ) :   0.9190 B(  4-C ,  5-N ) :   1.0295 B(  4-C , 13-H ) :   0.9426
B(  5-N ,  6-C ) :   1.0684 B(  5-N , 14-H ) :   0.9444 B(  6-C , 15-H ) :   0.9675

FINAL SINGLE POINT ENERGY      -288.179590061621

DIPOLE MOMENT
-------------
                                X             Y             Z
Electronic contribution:     -0.64409      -1.56202       0.48819
Nuclear contribution   :      0.59917       1.88975      -0.25241
                        -----------------------------------------
Total Dipole Moment    :     -0.04492       0.32773       0.23579
                        -----------------------------------------
Magnitude (a.u.)       :      0.40623
Magnitude (Debye)      :      1.03254

                             ****ORCA TERMINATED NORMALLY****
TOTAL RUN TIME: 0 days 0 hours 0 minutes 7 seconds 371 msec
