                         Program Version 3.0.3 - RELEASE   -
|  1> ! RI PBE def2-SVP def2-SVP/J NBO PAL2
|  2> % maxcore 2000
|  3> % output
|  4>     # printlevel mini
|  5>     print[ P_Basis ] 0
|  6>     print[ P_SCFInfo ] 1
|  7>     print[ P_SCFIterInfo ] 1
|  8>     print[ P_OrbEn ] 0
|  9>     print[ P_Cartesian ] 0
| 10> end
| 11> *xyz 0 1
| 12>  C        0.5881260000     1.2073120000     0.6821680000
| 13>  C       -0.8370380000     0.7687190000     0.4238450000
| 14>  C       -0.8433170000     0.0336770000    -0.8631760000
| 15>  C        0.5780530000     0.0280310000    -1.3826640000
| 16>  C        1.2572590000     0.0145080000    -0.0090570000
| 17>  C        0.4944420000    -1.1338640000     0.6505110000
| 18>  N       -0.8926070000    -0.7038390000     0.4116950000
| 19>  H        0.8298230000     1.2726890000     1.7461980000
| 20>  H        0.8237580000     2.1630930000     0.2066400000
| 21>  H       -1.6990050000     1.2917710000     0.8169020000
| 22>  H       -1.7103440000    -0.0354750000    -1.5070280000
| 23>  H        0.8131610000     0.9222380000    -1.9659990000
| 24>  H        0.8116390000    -0.8562040000    -1.9813450000
| 25>  H        2.3443400000    -0.0250140000     0.0082110000
| 26>  H        0.6781220000    -1.2213180000     1.7240730000
| 27>  H        0.6705780000    -2.1037150000     0.1790350000
| 28> *
| 29>
| 30>                          ****END OF INPUT****
 Total Charge           Charge          ....    0
 Multiplicity           Mult            ....    1
 Number of Electrons    NEL             ....   52
 Basis Dimension        Dim             ....  143

MULLIKEN ATOMIC CHARGES
-----------------------
   0 C :    0.194219
   1 C :   -0.066162
   2 C :   -0.077897
   3 C :    0.195493
   4 C :   -0.330587
   5 C :    0.218455
   6 N :   -0.236261
   7 H :    0.013854
   8 H :    0.015658
   9 H :    0.005316
  10 H :    0.007705
  11 H :    0.016532
  12 H :    0.015859
  13 H :    0.005968
  14 H :    0.010638
  15 H :    0.011210
Sum of atomic charges:   -0.0000000

LOEWDIN ATOMIC CHARGES
----------------------
   0 C :   -0.030769
   1 C :   -0.002193
   2 C :   -0.003629
   3 C :   -0.031142
   4 C :   -0.051161
   5 C :    0.024555
   6 N :   -0.112068
   7 H :    0.025917
   8 H :    0.027610
   9 H :    0.018544
  10 H :    0.018893
  11 H :    0.027873
  12 H :    0.026136
  13 H :    0.021866
  14 H :    0.019831
  15 H :    0.019735

  Mayer bond orders larger than 0.1
B(  0-C ,  1-C ) :   1.0190 B(  0-C ,  4-C ) :   0.9955 B(  0-C ,  7-H ) :   0.9240
B(  0-C ,  8-H ) :   0.9189 B(  1-C ,  2-C ) :   0.9435 B(  1-C ,  6-N ) :   0.9567
B(  1-C ,  9-H ) :   0.9648 B(  2-C ,  3-C ) :   1.0177 B(  2-C ,  6-N ) :   0.9558
B(  2-C , 10-H ) :   0.9664 B(  3-C ,  4-C ) :   0.9972 B(  3-C , 11-H ) :   0.9181
B(  3-C , 12-H ) :   0.9251 B(  4-C ,  5-C ) :   0.9893 B(  4-C , 13-H ) :   0.9315
B(  5-C ,  6-N ) :   1.0225 B(  5-C , 14-H ) :   0.9396 B(  5-C , 15-H ) :   0.9416

FINAL SINGLE POINT ENERGY      -288.179439234297

DIPOLE MOMENT
-------------
                                X             Y             Z
Electronic contribution:     -2.29352      -0.73041       0.43218
Nuclear contribution   :      2.80841       1.08702      -0.63454
                        -----------------------------------------
Total Dipole Moment    :      0.51489       0.35661      -0.20236
                        -----------------------------------------
Magnitude (a.u.)       :      0.65820
Magnitude (Debye)      :      1.67301

                             ****ORCA TERMINATED NORMALLY****
TOTAL RUN TIME: 0 days 0 hours 0 minutes 7 seconds 356 msec
