                         Program Version 3.0.3 - RELEASE   -
|  1> ! RI PBE def2-SVP def2-SVP/J NBO PAL2
|  2> % maxcore 2000
|  3> % output
|  4>     # printlevel mini
|  5>     print[ P_Basis ] 0
|  6>     print[ P_SCFInfo ] 1
|  7>     print[ P_SCFIterInfo ] 1
|  8>     print[ P_OrbEn ] 0
|  9>     print[ P_Cartesian ] 0
| 10> end
| 11> *xyz 0 1
| 12>  C       -1.4895960000     0.6828550000     0.3943800000
| 13>  C       -1.2220400000    -0.6322680000    -0.2158640000
| 14>  C       -0.2471940000    -1.5379580000     0.3714060000
| 15>  C        0.9957780000    -1.1105810000     0.6165750000
| 16>  C        1.3970550000     0.1869360000     0.1079240000
| 17>  N        0.6776190000     0.9659880000    -0.6051780000
| 18>  N       -0.6763260000     0.6793580000    -0.8030850000
| 19>  H       -0.9857640000     0.8991570000     1.3317570000
| 20>  H       -2.4657020000     1.1377710000     0.2671170000
| 21>  H       -1.9993920000    -1.0726150000    -0.8311960000
| 22>  H       -0.5414980000    -2.5661240000     0.5541790000
| 23>  H        1.7496920000    -1.7584980000     1.0458280000
| 24>  H        2.4341770000     0.4959800000     0.2178450000
| 25> *
| 26>
| 27>                          ****END OF INPUT****
 Total Charge           Charge          ....    0
 Multiplicity           Mult            ....    1
 Number of Electrons    NEL             ....   50
 Basis Dimension        Dim             ....  128

MULLIKEN ATOMIC CHARGES
-----------------------
   0 C :    0.128102
   1 C :   -0.072014
   2 C :    0.090326
   3 C :   -0.046284
   4 C :   -0.025661
   5 N :   -0.025842
   6 N :   -0.196356
   7 H :    0.043581
   8 H :    0.046849
   9 H :    0.034171
  10 H :    0.003458
  11 H :    0.003527
  12 H :    0.016143
Sum of atomic charges:    0.0000000

LOEWDIN ATOMIC CHARGES
----------------------
   0 C :    0.023752
   1 C :   -0.004516
   2 C :    0.001991
   3 C :   -0.077807
   4 C :   -0.020435
   5 N :   -0.034613
   6 N :   -0.066994
   7 H :    0.022645
   8 H :    0.029476
   9 H :    0.029672
  10 H :    0.035655
  11 H :    0.033707
  12 H :    0.027468

  Mayer bond orders larger than 0.1
B(  0-C ,  1-C ) :   1.0165 B(  0-C ,  6-N ) :   0.9301 B(  0-C ,  7-H ) :   0.9348
B(  0-C ,  8-H ) :   0.9399 B(  1-C ,  2-C ) :   1.0853 B(  1-C ,  6-N ) :   0.8448
B(  1-C ,  9-H ) :   0.9379 B(  2-C ,  3-C ) :   1.7034 B(  2-C ,  5-N ) :   0.1026
B(  2-C , 10-H ) :   0.9761 B(  3-C ,  4-C ) :   1.0713 B(  3-C , 11-H ) :   0.9651
B(  4-C ,  5-N ) :   1.8779 B(  4-C , 12-H ) :   0.9614 B(  5-N ,  6-N ) :   1.0119

FINAL SINGLE POINT ENERGY      -302.940568270587

DIPOLE MOMENT
-------------
                                X             Y             Z
Electronic contribution:      0.97004       1.29119      -1.68170
Nuclear contribution   :     -1.18113      -2.15086       2.52653
                        -----------------------------------------
Total Dipole Moment    :     -0.21109      -0.85967       0.84483
                        -----------------------------------------
Magnitude (a.u.)       :      1.22366
Magnitude (Debye)      :      3.11029

                             ****ORCA TERMINATED NORMALLY****
TOTAL RUN TIME: 0 days 0 hours 0 minutes 6 seconds 925 msec
