                         Program Version 3.0.3 - RELEASE   -
|  1> ! RI PBE def2-SVP def2-SVP/J NBO PAL2
|  2> % maxcore 2000
|  3> % output
|  4>     # printlevel mini
|  5>     print[ P_Basis ] 0
|  6>     print[ P_SCFInfo ] 1
|  7>     print[ P_SCFIterInfo ] 1
|  8>     print[ P_OrbEn ] 0
|  9>     print[ P_Cartesian ] 0
| 10> end
| 11> *xyz 0 1
| 12>  C       -1.4426510000     0.8042950000     0.5914370000
| 13>  C       -1.1619210000    -0.3859530000    -0.2677750000
| 14>  C       -0.1962450000    -1.3692810000     0.2166240000
| 15>  N        1.0184770000    -1.1514930000     0.5469230000
| 16>  N        1.6020840000     0.0911040000     0.2675060000
| 17>  C        0.9149770000     0.9967550000    -0.3153990000
| 18>  C       -0.5226630000     0.9750850000    -0.5738160000
| 19>  H       -1.0121100000     0.8256750000     1.5844210000
| 20>  H       -2.4260530000     1.2450120000     0.4965070000
| 21>  H       -1.9667420000    -0.7484950000    -0.8960260000
| 22>  H       -0.5260520000    -2.4029480000     0.3129390000
| 23>  H        1.4794560000     1.8672430000    -0.6472560000
| 24>  H       -0.8847670000     1.5556120000    -1.4138950000
| 25> *
| 26>
| 27>                          ****END OF INPUT****
 Total Charge           Charge          ....    0
 Multiplicity           Mult            ....    1
 Number of Electrons    NEL             ....   50
 Basis Dimension        Dim             ....  128

MULLIKEN ATOMIC CHARGES
-----------------------
   0 C :    0.044901
   1 C :   -0.079201
   2 C :    0.032004
   3 N :   -0.080648
   4 N :   -0.078166
   5 C :    0.029014
   6 C :   -0.082351
   7 H :    0.060844
   8 H :    0.051101
   9 H :    0.034335
  10 H :    0.016428
  11 H :    0.016779
  12 H :    0.034959
Sum of atomic charges:   -0.0000000

LOEWDIN ATOMIC CHARGES
----------------------
   0 C :   -0.003975
   1 C :   -0.043619
   2 C :    0.006695
   3 N :   -0.063117
   4 N :   -0.063004
   5 C :    0.006650
   6 C :   -0.044635
   7 H :    0.036885
   8 H :    0.039006
   9 H :    0.035896
  10 H :    0.028654
  11 H :    0.028819
  12 H :    0.035746

  Mayer bond orders larger than 0.1
B(  0-C ,  1-C ) :   0.9748 B(  0-C ,  6-C ) :   0.9743 B(  0-C ,  7-H ) :   0.9510
B(  0-C ,  8-H ) :   0.9401 B(  1-C ,  2-C ) :   1.0472 B(  1-C ,  6-C ) :   0.8390
B(  1-C ,  9-H ) :   0.9359 B(  2-C ,  3-N ) :   1.8933 B(  2-C , 10-H ) :   0.9711
B(  3-N ,  4-N ) :   1.0344 B(  4-N ,  5-C ) :   1.8982 B(  5-C ,  6-C ) :   1.0458
B(  5-C , 11-H ) :   0.9700 B(  6-C , 12-H ) :   0.9365

FINAL SINGLE POINT ENERGY      -302.956031729173

DIPOLE MOMENT
-------------
                                X             Y             Z
Electronic contribution:      3.53558      -1.58269       0.36277
Nuclear contribution   :     -5.13568       2.20525      -0.92244
                        -----------------------------------------
Total Dipole Moment    :     -1.60010       0.62255      -0.55968
                        -----------------------------------------
Magnitude (a.u.)       :      1.80586
Magnitude (Debye)      :      4.59013

                             ****ORCA TERMINATED NORMALLY****
TOTAL RUN TIME: 0 days 0 hours 0 minutes 5 seconds 962 msec
