                         Program Version 3.0.3 - RELEASE   -
|  1> ! RI PBE def2-SVP def2-SVP/J NBO PAL2
|  2> % maxcore 2000
|  3> % output
|  4>     # printlevel mini
|  5>     print[ P_Basis ] 0
|  6>     print[ P_SCFInfo ] 1
|  7>     print[ P_SCFIterInfo ] 1
|  8>     print[ P_OrbEn ] 0
|  9>     print[ P_Cartesian ] 0
| 10> end
| 11> *xyz 0 1
| 12>  C        1.7474990000    -0.0003730000    -0.5205700000
| 13>  C        0.8075300000     0.7547370000     0.3671820000
| 14>  C        0.8072380000    -0.7550880000     0.3672100000
| 15>  C       -0.6356590000    -0.9856660000    -0.0772880000
| 16>  C       -0.8642450000     0.0001160000    -1.2336930000
| 17>  C       -0.6352740000     0.9858630000    -0.0773320000
| 18>  N       -1.3286560000     0.0002550000     0.8420830000
| 19>  H        2.7833390000    -0.0005630000    -0.2006480000
| 20>  H        1.6323860000    -0.0003700000    -1.5968170000
| 21>  H        1.1857630000     1.3212240000     1.2076450000
| 22>  H        1.1852530000    -1.3216910000     1.2076930000
| 23>  H       -1.0044260000    -2.0109530000    -0.0931510000
| 24>  H       -1.9107620000     0.0003130000    -1.5412560000
| 25>  H       -0.2241470000    -0.0000300000    -2.1178980000
| 26>  H       -1.0036400000     2.0112930000    -0.0932430000
| 27>  H       -2.3194990000     0.0004430000     0.5930540000
| 28> *
| 29>
| 30>                          ****END OF INPUT****
 Total Charge           Charge          ....    0
 Multiplicity           Mult            ....    1
 Number of Electrons    NEL             ....   52
 Basis Dimension        Dim             ....  143

MULLIKEN ATOMIC CHARGES
-----------------------
   0 C :    0.092773
   1 C :   -0.023494
   2 C :   -0.023513
   3 C :   -0.046104
   4 C :    0.053128
   5 C :   -0.046120
   6 N :   -0.164514
   7 H :    0.020434
   8 H :    0.019156
   9 H :    0.011647
  10 H :    0.011647
  11 H :   -0.006916
  12 H :    0.011140
  13 H :    0.013623
  14 H :   -0.006915
  15 H :    0.084027
Sum of atomic charges:   -0.0000000

LOEWDIN ATOMIC CHARGES
----------------------
   0 C :   -0.036828
   1 C :   -0.038263
   2 C :   -0.038264
   3 C :    0.034607
   4 C :   -0.042058
   5 C :    0.034606
   6 N :   -0.110071
   7 H :    0.034277
   8 H :    0.023100
   9 H :    0.024038
  10 H :    0.024038
  11 H :    0.009569
  12 H :    0.022700
  13 H :    0.010396
  14 H :    0.009570
  15 H :    0.038582

  Mayer bond orders larger than 0.1
B(  0-C ,  1-C ) :   1.0177 B(  0-C ,  2-C ) :   1.0177 B(  0-C ,  7-H ) :   0.9308
B(  0-C ,  8-H ) :   0.8891 B(  1-C ,  2-C ) :   0.9315 B(  1-C ,  5-C ) :   0.9886
B(  1-C ,  9-H ) :   0.9454 B(  2-C ,  3-C ) :   0.9886 B(  2-C , 10-H ) :   0.9454
B(  3-C ,  4-C ) :   1.0220 B(  3-C ,  6-N ) :   0.9860 B(  3-C , 11-H ) :   0.9729
B(  4-C ,  5-C ) :   1.0220 B(  4-C , 12-H ) :   0.9217 B(  4-C , 13-H ) :   0.9014
B(  5-C ,  6-N ) :   0.9860 B(  5-C , 14-H ) :   0.9729 B(  6-N , 15-H ) :   0.9444

FINAL SINGLE POINT ENERGY      -288.119026751857

DIPOLE MOMENT
-------------
                                X             Y             Z
Electronic contribution:     -0.70724       0.00017       1.57769
Nuclear contribution   :      0.61171      -0.00016      -2.02598
                        -----------------------------------------
Total Dipole Moment    :     -0.09553       0.00001      -0.44829
                        -----------------------------------------
Magnitude (a.u.)       :      0.45836
Magnitude (Debye)      :      1.16506

                             ****ORCA TERMINATED NORMALLY****
TOTAL RUN TIME: 0 days 0 hours 0 minutes 7 seconds 280 msec
