                         Program Version 3.0.3 - RELEASE   -
|  1> ! RI PBE def2-SVP def2-SVP/J NBO PAL2
|  2> % maxcore 2000
|  3> % output
|  4>     # printlevel mini
|  5>     print[ P_Basis ] 0
|  6>     print[ P_SCFInfo ] 1
|  7>     print[ P_SCFIterInfo ] 1
|  8>     print[ P_OrbEn ] 0
|  9>     print[ P_Cartesian ] 0
| 10> end
| 11> *xyz 0 1
| 12>  C       -0.8390290000     0.0001830000    -1.2604220000
| 13>  C       -0.6017820000     0.9850680000    -0.1063010000
| 14>  N       -1.2806710000    -0.0004670000     0.8210800000
| 15>  C       -0.6014740000    -0.9852730000    -0.1068500000
| 16>  C        0.8510120000    -0.7396980000     0.3270100000
| 17>  N        1.7579360000     0.0003850000    -0.5288780000
| 18>  C        0.8507800000     0.7397040000     0.3274230000
| 19>  H       -0.2122570000     0.0005310000    -2.1574150000
| 20>  H       -1.8867280000     0.0001030000    -1.5619230000
| 21>  H       -0.9653030000     2.0118510000    -0.1159670000
| 22>  H       -2.2779200000    -0.0005590000     0.5993730000
| 23>  H       -0.9646740000    -2.0121630000    -0.1170900000
| 24>  H        1.2887080000    -1.3496210000     1.1067130000
| 25>  H        1.4894250000     0.0006170000    -1.5050170000
| 26>  H        1.2882860000     1.3493290000     1.1074660000
| 27> *
| 28>
| 29>                          ****END OF INPUT****
 Total Charge           Charge          ....    0
 Multiplicity           Mult            ....    1
 Number of Electrons    NEL             ....   52
 Basis Dimension        Dim             ....  138

MULLIKEN ATOMIC CHARGES
-----------------------
   0 C :    0.033820
   1 C :   -0.037626
   2 N :   -0.162877
   3 C :   -0.037696
   4 C :    0.021451
   5 N :   -0.080582
   6 C :    0.021403
   7 H :    0.012663
   8 H :    0.014010
   9 H :   -0.003751
  10 H :    0.087561
  11 H :   -0.003744
  12 H :    0.017192
  13 H :    0.100985
  14 H :    0.017191
Sum of atomic charges:   -0.0000000

LOEWDIN ATOMIC CHARGES
----------------------
   0 C :   -0.046492
   1 C :    0.022694
   2 N :   -0.102652
   3 C :    0.022687
   4 C :   -0.005849
   5 N :   -0.065658
   6 C :   -0.005853
   7 H :    0.006839
   8 H :    0.027103
   9 H :    0.010995
  10 H :    0.039795
  11 H :    0.010996
  12 H :    0.021412
  13 H :    0.042572
  14 H :    0.021411

  Mayer bond orders larger than 0.1
B(  0-C ,  1-C ) :   1.0011 B(  0-C ,  3-C ) :   1.0011 B(  0-C ,  7-H ) :   0.9099
B(  0-C ,  8-H ) :   0.9114 B(  1-C ,  2-N ) :   0.9647 B(  1-C ,  6-C ) :   0.9219
B(  1-C ,  9-H ) :   0.9764 B(  2-N ,  3-C ) :   0.9647 B(  2-N , 10-H ) :   0.9418
B(  3-C ,  4-C ) :   0.9219 B(  3-C , 11-H ) :   0.9764 B(  4-C ,  5-N ) :   1.0480
B(  4-C ,  6-C ) :   0.9539 B(  4-C , 12-H ) :   0.9460 B(  5-N ,  6-C ) :   1.0480
B(  5-N , 13-H ) :   0.9174 B(  6-C , 14-H ) :   0.9460

FINAL SINGLE POINT ENERGY      -304.130489441582

DIPOLE MOMENT
-------------
                                X             Y             Z
Electronic contribution:      1.38379      -0.00013       1.23500
Nuclear contribution   :     -2.12567       0.00018      -1.82117
                        -----------------------------------------
Total Dipole Moment    :     -0.74188       0.00005      -0.58618
                        -----------------------------------------
Magnitude (a.u.)       :      0.94551
Magnitude (Debye)      :      2.40329

                             ****ORCA TERMINATED NORMALLY****
TOTAL RUN TIME: 0 days 0 hours 0 minutes 7 seconds 221 msec
