                         Program Version 3.0.3 - RELEASE   -
|  1> ! RI PBE def2-SVP def2-SVP/J NBO PAL2
|  2> % maxcore 2000
|  3> % output
|  4>     # printlevel mini
|  5>     print[ P_Basis ] 0
|  6>     print[ P_SCFInfo ] 1
|  7>     print[ P_SCFIterInfo ] 1
|  8>     print[ P_OrbEn ] 0
|  9>     print[ P_Cartesian ] 0
| 10> end
| 11> *xyz 0 1
| 12>  C       -1.6529650000     0.6694030000     0.6087410000
| 13>  C       -1.1227820000    -0.3644990000    -0.2975860000
| 14>  C       -0.0036020000    -1.1965440000     0.2285110000
| 15>  N        1.1963610000    -1.2560270000    -0.5983170000
| 16>  C        1.1259930000    -0.2784820000     0.4820470000
| 17>  C        0.6913500000     1.1217060000     0.1045190000
| 18>  N       -0.6835980000     1.0340760000    -0.4163950000
| 19>  H       -1.3154640000     0.6459990000     1.6425300000
| 20>  H       -2.6516700000     1.0643710000     0.4582730000
| 21>  H       -1.7332860000    -0.7480030000    -1.1105520000
| 22>  H       -0.2098810000    -2.0743060000     0.8319820000
| 23>  H        1.0321550000    -0.8040300000    -1.4944510000
| 24>  H        1.8330790000    -0.4263180000     1.2905790000
| 25>  H        1.3343370000     1.5432160000    -0.6756150000
| 26>  H        0.7299750000     1.8003380000     0.9617450000
| 27> *
| 28>
| 29>                          ****END OF INPUT****
 Total Charge           Charge          ....    0
 Multiplicity           Mult            ....    1
 Number of Electrons    NEL             ....   52
 Basis Dimension        Dim             ....  138

MULLIKEN ATOMIC CHARGES
-----------------------
   0 C :    0.101621
   1 C :   -0.033276
   2 C :    0.002569
   3 N :   -0.131385
   4 C :   -0.160589
   5 C :    0.208820
   6 N :   -0.284113
   7 H :    0.026732
   8 H :    0.033047
   9 H :    0.034641
  10 H :    0.028708
  11 H :    0.102827
  12 H :    0.023609
  13 H :    0.027575
  14 H :    0.019213
Sum of atomic charges:    0.0000000

LOEWDIN ATOMIC CHARGES
----------------------
   0 C :    0.012521
   1 C :   -0.010355
   2 C :   -0.006402
   3 N :   -0.082007
   4 C :   -0.015793
   5 C :    0.009059
   6 N :   -0.116098
   7 H :    0.016592
   8 H :    0.024140
   9 H :    0.023084
  10 H :    0.023148
  11 H :    0.050922
  12 H :    0.021173
  13 H :    0.025339
  14 H :    0.024675

  Mayer bond orders larger than 0.1
B(  0-C ,  1-C ) :   1.0357 B(  0-C ,  6-N ) :   0.9661 B(  0-C ,  7-H ) :   0.9216
B(  0-C ,  8-H ) :   0.9389 B(  1-C ,  2-C ) :   1.0129 B(  1-C ,  6-N ) :   0.9543
B(  1-C ,  9-H ) :   0.9408 B(  2-C ,  3-N ) :   1.0107 B(  2-C ,  4-C ) :   0.9895
B(  2-C , 10-H ) :   0.9504 B(  3-N ,  4-C ) :   1.0082 B(  3-N , 11-H ) :   0.9430
B(  4-C ,  5-C ) :   1.0218 B(  4-C , 12-H ) :   0.9432 B(  5-C ,  6-N ) :   1.0337
B(  5-C , 13-H ) :   0.9133 B(  5-C , 14-H ) :   0.9295

FINAL SINGLE POINT ENERGY      -304.155955684195

DIPOLE MOMENT
-------------
                                X             Y             Z
Electronic contribution:      0.24228      -0.98705      -1.27311
Nuclear contribution   :     -0.49813       1.14777       1.68469
                        -----------------------------------------
Total Dipole Moment    :     -0.25585       0.16072       0.41158
                        -----------------------------------------
Magnitude (a.u.)       :      0.51058
Magnitude (Debye)      :      1.29778

                             ****ORCA TERMINATED NORMALLY****
TOTAL RUN TIME: 0 days 0 hours 0 minutes 7 seconds 114 msec
