                         Program Version 3.0.3 - RELEASE   -
|  1> ! RI PBE def2-SVP def2-SVP/J NBO PAL2
|  2> % maxcore 2000
|  3> % output
|  4>     # printlevel mini
|  5>     print[ P_Basis ] 0
|  6>     print[ P_SCFInfo ] 1
|  7>     print[ P_SCFIterInfo ] 1
|  8>     print[ P_OrbEn ] 0
|  9>     print[ P_Cartesian ] 0
| 10> end
| 11> *xyz 0 1
| 12>  C       -1.3305710000     0.6582460000     0.0045830000
| 13>  C       -1.0614760000    -0.8298380000    -0.1408630000
| 14>  N       -0.2258040000    -1.4125850000     0.9057450000
| 15>  C        0.3878530000    -1.0391280000    -0.3681620000
| 16>  C        1.0576340000     0.3102880000    -0.3807900000
| 17>  N        0.9942110000     1.0446250000     0.8821180000
| 18>  C        0.0162410000     1.3415110000    -0.1612820000
| 19>  H       -1.7964900000     0.8980500000     0.9635940000
| 20>  H       -2.0032650000     0.9852010000    -0.7934940000
| 21>  H       -1.8095730000    -1.4558170000    -0.6168860000
| 22>  H       -0.3648940000    -2.4177910000     0.9288970000
| 23>  H        0.7629470000    -1.8132300000    -1.0276160000
| 24>  H        1.8952570000     0.4704200000    -1.0498570000
| 25>  H        1.7101720000     1.7640930000     0.8887830000
| 26>  H        0.0583680000     2.3082650000    -0.6528600000
| 27> *
| 28>
| 29>                          ****END OF INPUT****
 Total Charge           Charge          ....    0
 Multiplicity           Mult            ....    1
 Number of Electrons    NEL             ....   52
 Basis Dimension        Dim             ....  138

MULLIKEN ATOMIC CHARGES
-----------------------
   0 C :    0.272723
   1 C :   -0.151561
   2 N :   -0.130731
   3 C :    0.015945
   4 C :    0.015718
   5 N :   -0.130002
   6 C :   -0.150491
   7 H :    0.024450
   8 H :    0.008980
   9 H :    0.013200
  10 H :    0.104105
  11 H :   -0.004257
  12 H :   -0.004570
  13 H :    0.105331
  14 H :    0.011160
Sum of atomic charges:   -0.0000000

LOEWDIN ATOMIC CHARGES
----------------------
   0 C :   -0.038376
   1 C :   -0.002214
   2 N :   -0.086168
   3 C :   -0.009957
   4 C :   -0.010143
   5 N :   -0.086505
   6 C :   -0.001703
   7 H :    0.037952
   8 H :    0.031685
   9 H :    0.011276
  10 H :    0.056790
  11 H :    0.014698
  12 H :    0.014673
  13 H :    0.057056
  14 H :    0.010935

  Mayer bond orders larger than 0.1
B(  0-C ,  1-C ) :   1.0279 B(  0-C ,  6-C ) :   1.0285 B(  0-C ,  7-H ) :   0.8867
B(  0-C ,  8-H ) :   0.9260 B(  1-C ,  2-N ) :   0.9713 B(  1-C ,  3-C ) :   0.9898
B(  1-C ,  9-H ) :   0.9394 B(  2-N ,  3-C ) :   1.0252 B(  2-N , 10-H ) :   0.9367
B(  3-C ,  4-C ) :   0.9350 B(  3-C , 11-H ) :   0.9885 B(  4-C ,  5-N ) :   1.0270
B(  4-C ,  6-C ) :   0.9889 B(  4-C , 12-H ) :   0.9894 B(  5-N ,  6-C ) :   0.9717
B(  5-N , 13-H ) :   0.9355 B(  6-C , 14-H ) :   0.9397

FINAL SINGLE POINT ENERGY      -304.154051878441

DIPOLE MOMENT
-------------
                                X             Y             Z
Electronic contribution:      1.31260      -0.64315       1.21207
Nuclear contribution   :     -1.29348       0.62197      -2.13364
                        -----------------------------------------
Total Dipole Moment    :      0.01912      -0.02118      -0.92157
                        -----------------------------------------
Magnitude (a.u.)       :      0.92201
Magnitude (Debye)      :      2.34356

                             ****ORCA TERMINATED NORMALLY****
TOTAL RUN TIME: 0 days 0 hours 0 minutes 7 seconds 46 msec
