                         Program Version 3.0.3 - RELEASE   -
|  1> ! RI PBE def2-SVP def2-SVP/J NBO PAL2
|  2> % maxcore 2000
|  3> % output
|  4>     # printlevel mini
|  5>     print[ P_Basis ] 0
|  6>     print[ P_SCFInfo ] 1
|  7>     print[ P_SCFIterInfo ] 1
|  8>     print[ P_OrbEn ] 0
|  9>     print[ P_Cartesian ] 0
| 10> end
| 11> *xyz 0 1
| 12>  C       -1.3469430000     0.6751450000     0.8209120000
| 13>  C       -1.2744800000    -0.4269130000    -0.1841950000
| 14>  N       -0.2479360000    -1.4366620000    -0.0408090000
| 15>  C        1.0374120000    -0.8371370000    -0.3278670000
| 16>  C        1.6034090000     0.1516660000     0.6375170000
| 17>  C        0.8528690000     0.6434230000    -0.5714560000
| 18>  C       -0.6241560000     0.9054880000    -0.4795850000
| 19>  H       -0.7840580000     0.5852550000     1.7409490000
| 20>  H       -2.3063070000     1.1661480000     0.9359960000
| 21>  H       -2.1905090000    -0.7558180000    -0.6614660000
| 22>  H       -0.4214210000    -2.1846950000    -0.6964330000
| 23>  H        1.7208780000    -1.4499710000    -0.9043930000
| 24>  H        2.6794110000     0.2812880000     0.6261620000
| 25>  H        1.1585230000     0.2407930000     1.6201230000
| 26>  H        1.4000560000     1.1705340000    -1.3427440000
| 27>  H       -1.0461280000     1.6045370000    -1.1905110000
| 28> *
| 29>
| 30>                          ****END OF INPUT****
 Total Charge           Charge          ....    0
 Multiplicity           Mult            ....    1
 Number of Electrons    NEL             ....   52
 Basis Dimension        Dim             ....  143

MULLIKEN ATOMIC CHARGES
-----------------------
   0 C :    0.046078
   1 C :   -0.032573
   2 N :   -0.127537
   3 C :   -0.036812
   4 C :    0.043058
   5 C :   -0.059097
   6 C :   -0.060344
   7 H :    0.021453
   8 H :    0.022202
   9 H :    0.011502
  10 H :    0.101941
  11 H :    0.015450
  12 H :    0.027370
  13 H :    0.018847
  14 H :    0.003719
  15 H :    0.004743
Sum of atomic charges:   -0.0000000

LOEWDIN ATOMIC CHARGES
----------------------
   0 C :   -0.050967
   1 C :    0.008459
   2 N :   -0.066219
   3 C :    0.007337
   4 C :   -0.051958
   5 C :   -0.049260
   6 C :   -0.049709
   7 H :    0.023268
   8 H :    0.028921
   9 H :    0.016107
  10 H :    0.063990
  11 H :    0.016783
  12 H :    0.029748
  13 H :    0.023235
  14 H :    0.025129
  15 H :    0.025137

  Mayer bond orders larger than 0.1
B(  0-C ,  1-C ) :   1.0150 B(  0-C ,  6-C ) :   0.9701 B(  0-C ,  7-H ) :   0.9091
B(  0-C ,  8-H ) :   0.9336 B(  1-C ,  2-N ) :   1.0870 B(  1-C ,  6-C ) :   0.9009
B(  1-C ,  9-H ) :   0.9440 B(  2-N ,  3-C ) :   1.0860 B(  2-N , 10-H ) :   0.9431
B(  3-C ,  4-C ) :   1.0180 B(  3-C ,  5-C ) :   0.9018 B(  3-C , 11-H ) :   0.9441
B(  4-C ,  5-C ) :   0.9708 B(  4-C , 12-H ) :   0.9334 B(  4-C , 13-H ) :   0.9071
B(  5-C ,  6-C ) :   1.0833 B(  5-C , 14-H ) :   0.9634 B(  6-C , 15-H ) :   0.9638

FINAL SINGLE POINT ENERGY      -288.140664728546

DIPOLE MOMENT
-------------
                                X             Y             Z
Electronic contribution:     -0.27154      -1.21789      -0.80625
Nuclear contribution   :      0.22099       1.15185       0.27054
                        -----------------------------------------
Total Dipole Moment    :     -0.05055      -0.06604      -0.53571
                        -----------------------------------------
Magnitude (a.u.)       :      0.54213
Magnitude (Debye)      :      1.37798

                             ****ORCA TERMINATED NORMALLY****
TOTAL RUN TIME: 0 days 0 hours 0 minutes 7 seconds 531 msec
