                         Program Version 3.0.3 - RELEASE   -
|  1> ! RI PBE def2-SVP def2-SVP/J NBO PAL2
|  2> % maxcore 2000
|  3> % output
|  4>     # printlevel mini
|  5>     print[ P_Basis ] 0
|  6>     print[ P_SCFInfo ] 1
|  7>     print[ P_SCFIterInfo ] 1
|  8>     print[ P_OrbEn ] 0
|  9>     print[ P_Cartesian ] 0
| 10> end
| 11> *xyz 0 1
| 12>  C       -2.4597820000     0.4199090000     0.7284330000
| 13>  C       -2.6197240000     0.3313680000    -0.7699140000
| 14>  C       -1.2781810000     0.1668490000    -0.1572690000
| 15>  C       -0.4966200000    -1.1311910000    -0.1259610000
| 16>  C        0.8554540000    -0.5950440000     0.2448650000
| 17>  N        0.9479770000     0.6713310000     0.1396570000
| 18>  N       -0.2437580000     1.1720430000    -0.3362820000
| 19>  H       -2.8304680000    -0.3975060000     1.3366650000
| 20>  H       -2.5527690000     1.3991540000     1.1854280000
| 21>  H       -2.8116150000     1.2513270000    -1.3097300000
| 22>  H       -3.1059960000    -0.5431690000    -1.1861070000
| 23>  H       -0.4657490000    -1.6116860000    -1.1129100000
| 24>  H       -0.8913670000    -1.8594220000     0.5856690000
| 25>  H        1.7177840000    -1.1826090000     0.5328300000
| 26>  H       -0.4328760000     2.0784470000     0.0688170000
| 27> *
| 28>
| 29>                          ****END OF INPUT****
 Total Charge           Charge          ....    0
 Multiplicity           Mult            ....    1
 Number of Electrons    NEL             ....   52
 Basis Dimension        Dim             ....  138

MULLIKEN ATOMIC CHARGES
-----------------------
   0 C :   -0.010357
   1 C :    0.008880
   2 C :   -0.186565
   3 C :    0.108549
   4 C :   -0.052245
   5 N :   -0.090357
   6 N :   -0.076160
   7 H :    0.034772
   8 H :    0.027859
   9 H :    0.033195
  10 H :    0.031914
  11 H :    0.032153
  12 H :    0.024374
  13 H :    0.004790
  14 H :    0.109199
Sum of atomic charges:   -0.0000000

LOEWDIN ATOMIC CHARGES
----------------------
   0 C :   -0.049434
   1 C :   -0.043411
   2 C :   -0.023816
   3 C :   -0.047701
   4 C :   -0.057131
   5 N :   -0.040264
   6 N :   -0.002776
   7 H :    0.027713
   8 H :    0.025162
   9 H :    0.030896
  10 H :    0.029782
  11 H :    0.037835
  12 H :    0.035229
  13 H :    0.017703
  14 H :    0.060215

  Mayer bond orders larger than 0.1
B(  0-C ,  1-C ) :   1.0283 B(  0-C ,  2-C ) :   0.9742 B(  0-C ,  7-H ) :   0.9363
B(  0-C ,  8-H ) :   0.9387 B(  1-C ,  2-C ) :   0.9796 B(  1-C ,  9-H ) :   0.9378
B(  1-C , 10-H ) :   0.9396 B(  2-C ,  3-C ) :   1.0416 B(  2-C ,  6-N ) :   0.9974
B(  3-C ,  4-C ) :   1.0129 B(  3-C , 11-H ) :   0.8902 B(  3-C , 12-H ) :   0.9230
B(  4-C ,  5-N ) :   1.8792 B(  4-C ,  6-N ) :   0.1032 B(  4-C , 13-H ) :   0.9771
B(  5-N ,  6-N ) :   1.0919 B(  6-N , 14-H ) :   0.9285

FINAL SINGLE POINT ENERGY      -304.169542343141

DIPOLE MOMENT
-------------
                                X             Y             Z
Electronic contribution:      4.14882       1.67597      -0.19320
Nuclear contribution   :     -4.90735      -1.99351       0.37575
                        -----------------------------------------
Total Dipole Moment    :     -0.75853      -0.31754       0.18254
                        -----------------------------------------
Magnitude (a.u.)       :      0.84233
Magnitude (Debye)      :      2.14104

                             ****ORCA TERMINATED NORMALLY****
TOTAL RUN TIME: 0 days 0 hours 0 minutes 7 seconds 233 msec
