                         Program Version 3.0.3 - RELEASE   -
|  1> ! RI PBE def2-SVP def2-SVP/J NBO PAL2
|  2> % maxcore 2000
|  3> % output
|  4>     # printlevel mini
|  5>     print[ P_Basis ] 0
|  6>     print[ P_SCFInfo ] 1
|  7>     print[ P_SCFIterInfo ] 1
|  8>     print[ P_OrbEn ] 0
|  9>     print[ P_Cartesian ] 0
| 10> end
| 11> *xyz 0 1
| 12>  C       -2.6504310000     0.3621270000     0.6606110000
| 13>  C       -2.4639480000     0.3973200000    -0.8375880000
| 14>  C       -1.2944400000     0.2073340000     0.0730530000
| 15>  C       -0.4768140000    -1.0823290000     0.1388210000
| 16>  N        0.9129190000    -0.6808610000    -0.0707400000
| 17>  C        0.9199400000     0.5890780000    -0.0305020000
| 18>  N       -0.2782150000     1.2270980000     0.2154310000
| 19>  H       -3.1169870000    -0.5116830000     1.1013830000
| 20>  H       -2.8824740000     1.2957500000     1.1594470000
| 21>  H       -2.5807950000     1.3544860000    -1.3345160000
| 22>  H       -2.7959870000    -0.4541410000    -1.4210350000
| 23>  H       -0.7849320000    -1.8170320000    -0.6101150000
| 24>  H       -0.5678470000    -1.5582920000     1.1227680000
| 25>  H        1.8230500000     1.1832580000    -0.1382570000
| 26>  H       -0.4344400000     2.1285870000    -0.2085610000
| 27> *
| 28>
| 29>                          ****END OF INPUT****
 Total Charge           Charge          ....    0
 Multiplicity           Mult            ....    1
 Number of Electrons    NEL             ....   52
 Basis Dimension        Dim             ....  138

MULLIKEN ATOMIC CHARGES
-----------------------
   0 C :    0.002575
   1 C :   -0.015898
   2 C :   -0.217817
   3 C :    0.219262
   4 N :   -0.233158
   5 C :    0.101760
   6 N :   -0.131684
   7 H :    0.036127
   8 H :    0.029783
   9 H :    0.026582
  10 H :    0.037705
  11 H :    0.011716
  12 H :    0.018146
  13 H :    0.007605
  14 H :    0.107296
Sum of atomic charges:    0.0000000

LOEWDIN ATOMIC CHARGES
----------------------
   0 C :   -0.045364
   1 C :   -0.050701
   2 C :   -0.023427
   3 C :    0.018762
   4 N :   -0.148401
   5 C :    0.021202
   6 N :   -0.019713
   7 H :    0.029298
   8 H :    0.028726
   9 H :    0.024273
  10 H :    0.028564
  11 H :    0.025722
  12 H :    0.026724
  13 H :    0.015200
  14 H :    0.069135

  Mayer bond orders larger than 0.1
B(  0-C ,  1-C ) :   1.0250 B(  0-C ,  2-C ) :   0.9716 B(  0-C ,  7-H ) :   0.9451
B(  0-C ,  8-H ) :   0.9373 B(  1-C ,  2-C ) :   0.9777 B(  1-C ,  9-H ) :   0.9398
B(  1-C , 10-H ) :   0.9393 B(  2-C ,  3-C ) :   1.0059 B(  2-C ,  6-N ) :   1.0364
B(  3-C ,  4-N ) :   1.0864 B(  3-C , 11-H ) :   0.9262 B(  3-C , 12-H ) :   0.9165
B(  4-N ,  5-C ) :   1.8565 B(  4-N ,  6-N ) :   0.1226 B(  5-C ,  6-N ) :   1.1326
B(  5-C , 13-H ) :   0.9599 B(  6-N , 14-H ) :   0.9264

FINAL SINGLE POINT ENERGY      -304.194646036467

DIPOLE MOMENT
-------------
                                X             Y             Z
Electronic contribution:      4.10854       0.45791       0.26122
Nuclear contribution   :     -4.83469       0.35305      -0.44443
                        -----------------------------------------
Total Dipole Moment    :     -0.72615       0.81096      -0.18320
                        -----------------------------------------
Magnitude (a.u.)       :      1.10386
Magnitude (Debye)      :      2.80580

                             ****ORCA TERMINATED NORMALLY****
TOTAL RUN TIME: 0 days 0 hours 0 minutes 6 seconds 800 msec
