                         Program Version 3.0.3 - RELEASE   -
|  1> ! RI PBE def2-SVP def2-SVP/J NBO PAL2
|  2> % maxcore 2000
|  3> % output
|  4>     # printlevel mini
|  5>     print[ P_Basis ] 0
|  6>     print[ P_SCFInfo ] 1
|  7>     print[ P_SCFIterInfo ] 1
|  8>     print[ P_OrbEn ] 0
|  9>     print[ P_Cartesian ] 0
| 10> end
| 11> *xyz 0 1
| 12>  C       -0.3965190000    -0.9389730000    -0.5351580000
| 13>  C        0.9230480000    -1.1121370000    -1.2259610000
| 14>  C        0.8256930000    -0.2608340000     0.0031500000
| 15>  C        1.4789540000    -0.6779300000     1.2856090000
| 16>  C        0.7639600000    -0.4276580000     2.6276720000
| 17>  N        1.2876920000    -1.7162640000     3.1075160000
| 18>  C        1.5192010000    -2.1546750000     1.7219480000
| 19>  H       -0.7976390000    -1.7888420000     0.0041410000
| 20>  H       -1.1485820000    -0.3242320000    -1.0139110000
| 21>  H        1.0744660000    -0.6298450000    -2.1835410000
| 22>  H        1.4125970000    -2.0743120000    -1.1283870000
| 23>  H        0.8674320000     0.8104440000    -0.1737800000
| 24>  H        2.4909070000    -0.2654360000     1.3266450000
| 25>  H       -0.3262600000    -0.4057890000     2.4943520000
| 26>  H        1.0692050000     0.4409920000     3.2176060000
| 27>  H        0.6396060000    -2.2809150000     3.6408850000
| 28>  H        0.6919440000    -2.7375590000     1.2947410000
| 29>  H        2.4518050000    -2.7030550000     1.5640830000
| 30> *
| 31>
| 32>                          ****END OF INPUT****
 Total Charge           Charge          ....    0
 Multiplicity           Mult            ....    1
 Number of Electrons    NEL             ....   54
 Basis Dimension        Dim             ....  153

MULLIKEN ATOMIC CHARGES
-----------------------
   0 C :   -0.043163
   1 C :   -0.029741
   2 C :   -0.092856
   3 C :   -0.134591
   4 C :    0.160918
   5 N :   -0.275241
   6 C :    0.146508
   7 H :    0.028078
   8 H :    0.031326
   9 H :    0.029710
  10 H :    0.036678
  11 H :    0.025270
  12 H :    0.015389
  13 H :   -0.002535
  14 H :    0.007371
  15 H :    0.092045
  16 H :   -0.005096
  17 H :    0.009930
Sum of atomic charges:   -0.0000000

LOEWDIN ATOMIC CHARGES
----------------------
   0 C :   -0.050453
   1 C :   -0.042139
   2 C :   -0.046253
   3 C :   -0.033291
   4 C :    0.028752
   5 N :   -0.113491
   6 C :    0.026483
   7 H :    0.019255
   8 H :    0.027070
   9 H :    0.025875
  10 H :    0.025958
  11 H :    0.029533
  12 H :    0.032201
  13 H :    0.004537
  14 H :    0.008282
  15 H :    0.045125
  16 H :    0.002496
  17 H :    0.010060

  Mayer bond orders larger than 0.1
B(  0-C ,  1-C ) :   1.0387 B(  0-C ,  2-C ) :   0.9958 B(  0-C ,  7-H ) :   0.9453
B(  0-C ,  8-H ) :   0.9438 B(  1-C ,  2-C ) :   0.9966 B(  1-C ,  9-H ) :   0.9473
B(  1-C , 10-H ) :   0.9466 B(  2-C ,  3-C ) :   1.0433 B(  2-C , 11-H ) :   0.9405
B(  3-C ,  4-C ) :   1.0655 B(  3-C ,  6-C ) :   1.0784 B(  3-C , 12-H ) :   0.8934
B(  4-C ,  5-N ) :   1.0524 B(  4-C , 13-H ) :   0.9251 B(  4-C , 14-H ) :   0.9353
B(  5-N ,  6-C ) :   1.0493 B(  5-N , 15-H ) :   0.9408 B(  6-C , 16-H ) :   0.9200
B(  6-C , 17-H ) :   0.9310

FINAL SINGLE POINT ENERGY      -289.338505851287

DIPOLE MOMENT
-------------
                                X             Y             Z
Electronic contribution:      1.07929       0.26373       1.80704
Nuclear contribution   :     -1.43574      -0.28041      -2.04252
                        -----------------------------------------
Total Dipole Moment    :     -0.35645      -0.01668      -0.23548
                        -----------------------------------------
Magnitude (a.u.)       :      0.42753
Magnitude (Debye)      :      1.08670

                             ****ORCA TERMINATED NORMALLY****
TOTAL RUN TIME: 0 days 0 hours 0 minutes 7 seconds 811 msec
