                         Program Version 3.0.3 - RELEASE   -
|  1> ! RI PBE def2-SVP def2-SVP/J NBO PAL2
|  2> % maxcore 2000
|  3> % output
|  4>     # printlevel mini
|  5>     print[ P_Basis ] 0
|  6>     print[ P_SCFInfo ] 1
|  7>     print[ P_SCFIterInfo ] 1
|  8>     print[ P_OrbEn ] 0
|  9>     print[ P_Cartesian ] 0
| 10> end
| 11> *xyz 0 1
| 12>  C        1.2517240000     0.3155300000     0.1771060000
| 13>  C        0.9415820000     1.6702330000     0.7568290000
| 14>  C       -0.4277380000     2.2568220000     0.6131890000
| 15>  C        0.0559730000     1.7989730000     1.9571060000
| 16>  C        2.4153190000    -0.3630140000     0.8468780000
| 17>  C        2.2024650000    -1.3246350000     1.9432800000
| 18>  N        2.6631470000    -1.7840080000     0.6330360000
| 19>  H        1.4652650000     0.4195320000    -0.8943370000
| 20>  H        0.3654950000    -0.3269590000     0.2577130000
| 21>  H        1.7634400000     2.3783560000     0.7006800000
| 22>  H       -1.1813750000     1.6564190000     0.1164410000
| 23>  H       -0.5186400000     3.3211570000     0.4354560000
| 24>  H       -0.3719720000     0.8906780000     2.3650520000
| 25>  H        0.2952750000     2.5499620000     2.6995650000
| 26>  H        3.3299400000     0.2260500000     0.8679050000
| 27>  H        1.1768580000    -1.5316230000     2.2350320000
| 28>  H        2.9288410000    -1.4179040000     2.7433310000
| 29>  H        1.8903900000    -2.1942590000     0.1177370000
| 30> *
| 31>
| 32>                          ****END OF INPUT****
 Total Charge           Charge          ....    0
 Multiplicity           Mult            ....    1
 Number of Electrons    NEL             ....   54
 Basis Dimension        Dim             ....  153

MULLIKEN ATOMIC CHARGES
-----------------------
   0 C :    0.165192
   1 C :   -0.159712
   2 C :   -0.026210
   3 C :   -0.031722
   4 C :   -0.115990
   5 C :    0.039322
   6 N :   -0.188507
   7 H :    0.021716
   8 H :   -0.029405
   9 H :    0.023552
  10 H :    0.028213
  11 H :    0.033149
  12 H :    0.025389
  13 H :    0.036929
  14 H :    0.020856
  15 H :    0.018754
  16 H :    0.035475
  17 H :    0.102999
Sum of atomic charges:   -0.0000000

LOEWDIN ATOMIC CHARGES
----------------------
   0 C :   -0.039014
   1 C :   -0.042392
   2 C :   -0.046452
   3 C :   -0.047648
   4 C :   -0.007816
   5 C :   -0.000886
   6 N :   -0.104380
   7 H :    0.032299
   8 H :    0.022160
   9 H :    0.027441
  10 H :    0.024883
  11 H :    0.027256
  12 H :    0.022983
  13 H :    0.028319
  14 H :    0.021166
  15 H :    0.011065
  16 H :    0.021030
  17 H :    0.049985

  Mayer bond orders larger than 0.1
B(  0-C ,  1-C ) :   1.0764 B(  0-C ,  4-C ) :   1.0682 B(  0-C ,  7-H ) :   0.9122
B(  0-C ,  8-H ) :   0.8938 B(  1-C ,  2-C ) :   0.9889 B(  1-C ,  3-C ) :   1.0049
B(  1-C ,  9-H ) :   0.9407 B(  2-C ,  3-C ) :   1.0482 B(  2-C , 10-H ) :   0.9473
B(  2-C , 11-H ) :   0.9436 B(  3-C , 12-H ) :   0.9465 B(  3-C , 13-H ) :   0.9457
B(  4-C ,  5-C ) :   1.0591 B(  4-C ,  6-N ) :   0.9885 B(  4-C , 14-H ) :   0.9277
B(  5-C ,  6-N ) :   1.0144 B(  5-C , 15-H ) :   0.9388 B(  5-C , 16-H ) :   0.9415
B(  6-N , 17-H ) :   0.9497

FINAL SINGLE POINT ENERGY      -289.337770021313

DIPOLE MOMENT
-------------
                                X             Y             Z
Electronic contribution:      2.34997      -1.74427      -0.67138
Nuclear contribution   :     -2.90801       2.05087       0.70413
                        -----------------------------------------
Total Dipole Moment    :     -0.55804       0.30660       0.03276
                        -----------------------------------------
Magnitude (a.u.)       :      0.63756
Magnitude (Debye)      :      1.62055

                             ****ORCA TERMINATED NORMALLY****
TOTAL RUN TIME: 0 days 0 hours 0 minutes 7 seconds 899 msec
