                         Program Version 3.0.3 - RELEASE   -
|  1> ! RI PBE def2-SVP def2-SVP/J NBO PAL2
|  2> % maxcore 2000
|  3> % output
|  4>     # printlevel mini
|  5>     print[ P_Basis ] 0
|  6>     print[ P_SCFInfo ] 1
|  7>     print[ P_SCFIterInfo ] 1
|  8>     print[ P_OrbEn ] 0
|  9>     print[ P_Cartesian ] 0
| 10> end
| 11> *xyz 0 1
| 12>  C        0.9994650000     0.2926010000     0.1534890000
| 13>  C        0.9085760000     1.6413730000     0.8047100000
| 14>  C        1.7825180000     2.7701370000     0.3507370000
| 15>  C        0.3142440000     2.7890730000     0.0504410000
| 16>  N        1.9711660000    -0.5559260000     0.8139450000
| 17>  C        2.4664820000    -1.6738170000     0.0425640000
| 18>  C        3.3248170000    -0.4973390000     0.3068170000
| 19>  H        1.2301050000     0.4198480000    -0.9205140000
| 20>  H        0.0288910000    -0.2124020000     0.2140360000
| 21>  H        0.6957660000     1.6005980000     1.8678180000
| 22>  H        2.4598910000     2.5862210000    -0.4749540000
| 23>  H        2.1639830000     3.4570720000     1.0956930000
| 24>  H        0.0082500000     2.6145890000    -0.9749350000
| 25>  H       -0.3133220000     3.4877910000     0.5890570000
| 26>  H        2.0932060000    -1.7935080000    -0.9725520000
| 27>  H        2.6159570000    -2.5994190000     0.5879520000
| 28>  H        3.5219680000     0.1662010000    -0.5318200000
| 29>  H        4.1149500000    -0.5464740000     1.0480290000
| 30> *
| 31>
| 32>                          ****END OF INPUT****
 Total Charge           Charge          ....    0
 Multiplicity           Mult            ....    1
 Number of Electrons    NEL             ....   54
 Basis Dimension        Dim             ....  153

MULLIKEN ATOMIC CHARGES
-----------------------
   0 C :    0.197967
   1 C :   -0.141960
   2 C :   -0.036172
   3 C :   -0.033137
   4 N :   -0.286818
   5 C :    0.031210
   6 C :    0.025146
   7 H :   -0.040165
   8 H :    0.011236
   9 H :    0.027725
  10 H :    0.029807
  11 H :    0.035594
  12 H :    0.026970
  13 H :    0.035175
  14 H :    0.020789
  15 H :    0.035613
  16 H :    0.023513
  17 H :    0.037506
Sum of atomic charges:    0.0000000

LOEWDIN ATOMIC CHARGES
----------------------
   0 C :    0.021115
   1 C :   -0.046313
   2 C :   -0.048124
   3 C :   -0.046079
   4 N :   -0.106655
   5 C :    0.002435
   6 C :    0.001949
   7 H :   -0.000805
   8 H :    0.024971
   9 H :    0.030211
  10 H :    0.023004
  11 H :    0.028161
  12 H :    0.024211
  13 H :    0.027726
  14 H :    0.011849
  15 H :    0.020232
  16 H :    0.010610
  17 H :    0.021500

  Mayer bond orders larger than 0.1
B(  0-C ,  1-C ) :   1.0900 B(  0-C ,  4-N ) :   1.0172 B(  0-C ,  7-H ) :   0.8856
B(  0-C ,  8-H ) :   0.9264 B(  1-C ,  2-C ) :   0.9995 B(  1-C ,  3-C ) :   0.9851
B(  1-C ,  9-H ) :   0.9365 B(  2-C ,  3-C ) :   1.0435 B(  2-C , 10-H ) :   0.9461
B(  2-C , 11-H ) :   0.9471 B(  3-C , 12-H ) :   0.9464 B(  3-C , 13-H ) :   0.9469
B(  4-N ,  5-C ) :   0.9623 B(  4-N ,  6-C ) :   0.9715 B(  5-C ,  6-C ) :   1.0920
B(  5-C , 14-H ) :   0.9311 B(  5-C , 15-H ) :   0.9511 B(  6-C , 16-H ) :   0.9308
B(  6-C , 17-H ) :   0.9495

FINAL SINGLE POINT ENERGY      -289.330934476907

DIPOLE MOMENT
-------------
                                X             Y             Z
Electronic contribution:      0.01284      -1.61864       1.76587
Nuclear contribution   :      0.04662       1.66079      -2.11852
                        -----------------------------------------
Total Dipole Moment    :      0.05946       0.04215      -0.35265
                        -----------------------------------------
Magnitude (a.u.)       :      0.36011
Magnitude (Debye)      :      0.91532

                             ****ORCA TERMINATED NORMALLY****
TOTAL RUN TIME: 0 days 0 hours 0 minutes 7 seconds 432 msec
