                         Program Version 3.0.3 - RELEASE   -
|  1> ! RI PBE def2-SVP def2-SVP/J NBO PAL2
|  2> % maxcore 2000
|  3> % output
|  4>     # printlevel mini
|  5>     print[ P_Basis ] 0
|  6>     print[ P_SCFInfo ] 1
|  7>     print[ P_SCFIterInfo ] 1
|  8>     print[ P_OrbEn ] 0
|  9>     print[ P_Cartesian ] 0
| 10> end
| 11> *xyz 0 1
| 12>  C       -0.1146120000     0.4686670000    -0.5731690000
| 13>  C       -0.7887200000    -0.7790110000    -0.0851230000
| 14>  C        0.6903770000    -0.7613100000    -0.2938330000
| 15>  N        1.5237280000    -0.7775310000     0.8683080000
| 16>  C        2.8683540000    -0.3476390000     0.6392820000
| 17>  C        3.1963020000     1.0977670000     0.8444980000
| 18>  C        3.6733550000     0.0695120000     1.8265400000
| 19>  H       -0.0156230000     1.2838360000     0.1312890000
| 20>  H       -0.2578540000     0.7650990000    -1.6046420000
| 21>  H       -1.3983260000    -1.3459330000    -0.7774020000
| 22>  H       -1.1332180000    -0.7847610000     0.9415040000
| 23>  H        1.0585840000    -1.2954740000    -1.1727910000
| 24>  H        1.5195090000    -1.7000330000     1.2870810000
| 25>  H        3.4168960000    -0.8480700000    -0.1620620000
| 26>  H        2.3839830000     1.7399750000     1.1579700000
| 27>  H        3.9203320000     1.5585690000     0.1843710000
| 28>  H        3.1741510000     0.0349800000     2.7868900000
| 29>  H        4.7263920000    -0.1814320000     1.8469000000
| 30> *
| 31>
| 32>                          ****END OF INPUT****
 Total Charge           Charge          ....    0
 Multiplicity           Mult            ....    1
 Number of Electrons    NEL             ....   54
 Basis Dimension        Dim             ....  153

MULLIKEN ATOMIC CHARGES
-----------------------
   0 C :   -0.022289
   1 C :   -0.035615
   2 C :   -0.048109
   3 N :   -0.155747
   4 C :   -0.053343
   5 C :   -0.026015
   6 C :   -0.031893
   7 H :    0.034093
   8 H :    0.028130
   9 H :    0.033658
  10 H :    0.032700
  11 H :    0.002190
  12 H :    0.106506
  13 H :    0.003511
  14 H :    0.034288
  15 H :    0.032527
  16 H :    0.032569
  17 H :    0.032838
Sum of atomic charges:   -0.0000000

LOEWDIN ATOMIC CHARGES
----------------------
   0 C :   -0.048432
   1 C :   -0.052086
   2 C :   -0.004650
   3 N :   -0.071638
   4 C :   -0.004765
   5 C :   -0.049785
   6 C :   -0.051615
   7 H :    0.027873
   8 H :    0.024807
   9 H :    0.026220
  10 H :    0.027871
  11 H :    0.004057
  12 H :    0.060180
  13 H :    0.004306
  14 H :    0.028037
  15 H :    0.025644
  16 H :    0.027999
  17 H :    0.025977

  Mayer bond orders larger than 0.1
B(  0-C ,  1-C ) :   1.0552 B(  0-C ,  2-C ) :   1.0038 B(  0-C ,  7-H ) :   0.9396
B(  0-C ,  8-H ) :   0.9483 B(  1-C ,  2-C ) :   0.9927 B(  1-C ,  9-H ) :   0.9450
B(  1-C , 10-H ) :   0.9449 B(  2-C ,  3-N ) :   1.0843 B(  2-C , 11-H ) :   0.9235
B(  3-N ,  4-C ) :   1.0844 B(  3-N , 12-H ) :   0.9369 B(  4-C ,  5-C ) :   1.0050
B(  4-C ,  6-C ) :   0.9922 B(  4-C , 13-H ) :   0.9241 B(  5-C ,  6-C ) :   1.0555
B(  5-C , 14-H ) :   0.9388 B(  5-C , 15-H ) :   0.9481 B(  6-C , 16-H ) :   0.9452
B(  6-C , 17-H ) :   0.9444

FINAL SINGLE POINT ENERGY      -289.340633918304

DIPOLE MOMENT
-------------
                                X             Y             Z
Electronic contribution:      0.06909      -1.13812       0.34107
Nuclear contribution   :      0.03826       0.83218      -0.45907
                        -----------------------------------------
Total Dipole Moment    :      0.10736      -0.30594      -0.11800
                        -----------------------------------------
Magnitude (a.u.)       :      0.34504
Magnitude (Debye)      :      0.87701

                             ****ORCA TERMINATED NORMALLY****
TOTAL RUN TIME: 0 days 0 hours 0 minutes 7 seconds 893 msec
