                         Program Version 3.0.3 - RELEASE   -
|  1> ! RI PBE def2-SVP def2-SVP/J NBO PAL2
|  2> % maxcore 2000
|  3> % output
|  4>     # printlevel mini
|  5>     print[ P_Basis ] 0
|  6>     print[ P_SCFInfo ] 1
|  7>     print[ P_SCFIterInfo ] 1
|  8>     print[ P_OrbEn ] 0
|  9>     print[ P_Cartesian ] 0
| 10> end
| 11> *xyz 0 1
| 12>  C       -1.2545090000    -0.7841640000    -0.5198260000
| 13>  C       -1.2567810000     0.7678100000    -0.5194530000
| 14>  C        0.0011290000     1.0936210000     0.2972700000
| 15>  C       -0.0144150000    -0.0092550000     1.3510420000
| 16>  C       -0.0064040000    -1.1297950000     0.3049060000
| 17>  C        1.2272540000    -0.7386870000    -0.5071140000
| 18>  N        1.2117050000     0.7397780000    -0.4509380000
| 19>  H       -1.2084720000    -1.2081300000    -1.5258860000
| 20>  H       -2.1542910000    -1.1797520000    -0.0422700000
| 21>  H       -2.1574530000     1.1710550000    -0.0470020000
| 22>  H       -1.2013640000     1.1941680000    -1.5244870000
| 23>  H        0.0519420000     2.1185750000     0.6689810000
| 24>  H       -0.9159250000    -0.0008480000     1.9670690000
| 25>  H        0.8721810000     0.0044610000     1.9873830000
| 26>  H        0.0162410000    -2.1523250000     0.6832820000
| 27>  H        1.1738570000    -1.1194140000    -1.5327840000
| 28>  H        2.1481090000    -1.1280330000    -0.0575330000
| 29>  H        1.1999960000     1.1453570000    -1.3771290000
| 30> *
| 31>
| 32>                          ****END OF INPUT****
 Total Charge           Charge          ....    0
 Multiplicity           Mult            ....    1
 Number of Electrons    NEL             ....   54
 Basis Dimension        Dim             ....  153

MULLIKEN ATOMIC CHARGES
-----------------------
   0 C :    0.083763
   1 C :    0.113304
   2 C :   -0.110740
   3 C :    0.072197
   4 C :   -0.235454
   5 C :    0.199153
   6 N :   -0.204244
   7 H :   -0.005828
   8 H :    0.002649
   9 H :   -0.001098
  10 H :   -0.011648
  11 H :   -0.007118
  12 H :    0.011970
  13 H :    0.021749
  14 H :   -0.005362
  15 H :   -0.011428
  16 H :   -0.000549
  17 H :    0.088686
Sum of atomic charges:   -0.0000000

LOEWDIN ATOMIC CHARGES
----------------------
   0 C :   -0.031920
   1 C :   -0.049235
   2 C :    0.007366
   3 C :   -0.030934
   4 C :   -0.044344
   5 C :    0.026145
   6 N :   -0.102023
   7 H :    0.018892
   8 H :    0.023479
   9 H :    0.020582
  10 H :    0.016377
  11 H :    0.013816
  12 H :    0.021575
  13 H :    0.025637
  14 H :    0.018789
  15 H :    0.008500
  16 H :    0.010726
  17 H :    0.046573

  Mayer bond orders larger than 0.1
B(  0-C ,  1-C ) :   1.0927 B(  0-C ,  4-C ) :   1.0700 B(  0-C ,  7-H ) :   0.9132
B(  0-C ,  8-H ) :   0.9187 B(  1-C ,  2-C ) :   1.0578 B(  1-C ,  9-H ) :   0.9133
B(  1-C , 10-H ) :   0.9088 B(  2-C ,  3-C ) :   1.0020 B(  2-C ,  6-N ) :   1.0643
B(  2-C , 11-H ) :   0.9424 B(  3-C ,  4-C ) :   1.0071 B(  3-C , 12-H ) :   0.9459
B(  3-C , 13-H ) :   0.9327 B(  4-C ,  5-C ) :   1.0309 B(  4-C , 14-H ) :   0.9412
B(  5-C ,  6-N ) :   1.0451 B(  5-C , 15-H ) :   0.9296 B(  5-C , 16-H ) :   0.9273
B(  6-N , 17-H ) :   0.9440

FINAL SINGLE POINT ENERGY      -289.396535023108

DIPOLE MOMENT
-------------
                                X             Y             Z
Electronic contribution:      1.60082       0.91308       0.30133
Nuclear contribution   :     -1.94059      -1.03515      -0.51568
                        -----------------------------------------
Total Dipole Moment    :     -0.33977      -0.12207      -0.21435
                        -----------------------------------------
Magnitude (a.u.)       :      0.41987
Magnitude (Debye)      :      1.06722

                             ****ORCA TERMINATED NORMALLY****
TOTAL RUN TIME: 0 days 0 hours 0 minutes 8 seconds 170 msec
