                         Program Version 3.0.3 - RELEASE   -
|  1> ! RI PBE def2-SVP def2-SVP/J NBO PAL2
|  2> % maxcore 2000
|  3> % output
|  4>     # printlevel mini
|  5>     print[ P_Basis ] 0
|  6>     print[ P_SCFInfo ] 1
|  7>     print[ P_SCFIterInfo ] 1
|  8>     print[ P_OrbEn ] 0
|  9>     print[ P_Cartesian ] 0
| 10> end
| 11> *xyz 0 1
| 12>  C       -1.7110990000     0.8419910000     0.5295060000
| 13>  C       -1.1354320000    -0.2596300000    -0.3057170000
| 14>  C       -0.2803060000    -1.3370680000     0.3151510000
| 15>  C        1.1384830000    -1.3004300000    -0.2556470000
| 16>  N        1.7524570000     0.0302490000    -0.1815910000
| 17>  C        0.8863320000     1.0816020000     0.3378100000
| 18>  C       -0.4877890000     1.0986690000    -0.2962210000
| 19>  H       -1.5919480000     0.7784220000     1.6064680000
| 20>  H       -2.6443940000     1.2883680000     0.2091910000
| 21>  H       -1.6896540000    -0.5418660000    -1.1947830000
| 22>  H       -0.7086890000    -2.3281060000     0.1467290000
| 23>  H       -0.2387100000    -1.2052720000     1.4004810000
| 24>  H        1.1013850000    -1.6391370000    -1.2981580000
| 25>  H        1.7603370000    -2.0247050000     0.2844330000
| 26>  H        2.0872710000     0.3006340000    -1.0943810000
| 27>  H        1.3977310000     2.0357300000     0.1922470000
| 28>  H        0.7908300000     0.9559490000     1.4213880000
| 29>  H       -0.6052950000     1.7203100000    -1.1779970000
| 30> *
| 31>
| 32>                          ****END OF INPUT****
 Total Charge           Charge          ....    0
 Multiplicity           Mult            ....    1
 Number of Electrons    NEL             ....   54
 Basis Dimension        Dim             ....  153

MULLIKEN ATOMIC CHARGES
-----------------------
   0 C :    0.028699
   1 C :   -0.130310
   2 C :    0.041850
   3 C :    0.122258
   4 N :   -0.257772
   5 C :    0.190855
   6 C :   -0.171801
   7 H :    0.027869
   8 H :    0.018826
   9 H :    0.011528
  10 H :    0.012781
  11 H :    0.005711
  12 H :   -0.008218
  13 H :    0.004364
  14 H :    0.092961
  15 H :    0.010545
  16 H :   -0.010714
  17 H :    0.010568
Sum of atomic charges:   -0.0000000

LOEWDIN ATOMIC CHARGES
----------------------
   0 C :   -0.038134
   1 C :   -0.043259
   2 C :   -0.046162
   3 C :    0.015374
   4 N :   -0.106260
   5 C :    0.011366
   6 C :   -0.065442
   7 H :    0.023018
   8 H :    0.025906
   9 H :    0.022544
  10 H :    0.032344
  11 H :    0.027331
  12 H :    0.010936
  13 H :    0.013217
  14 H :    0.051862
  15 H :    0.026805
  16 H :    0.018633
  17 H :    0.019921

  Mayer bond orders larger than 0.1
B(  0-C ,  1-C ) :   1.0045 B(  0-C ,  6-C ) :   0.9979 B(  0-C ,  7-H ) :   0.9369
B(  0-C ,  8-H ) :   0.9325 B(  1-C ,  2-C ) :   1.1049 B(  1-C ,  6-C ) :   0.9326
B(  1-C ,  9-H ) :   0.9407 B(  2-C ,  3-C ) :   1.0921 B(  2-C , 10-H ) :   0.9295
B(  2-C , 11-H ) :   0.9010 B(  3-C ,  4-N ) :   1.0582 B(  3-C , 12-H ) :   0.9369
B(  3-C , 13-H ) :   0.9296 B(  4-N ,  5-C ) :   1.1002 B(  4-N , 14-H ) :   0.9520
B(  5-C ,  6-C ) :   1.0702 B(  5-C , 15-H ) :   0.9430 B(  5-C , 16-H ) :   0.9017
B(  6-C , 17-H ) :   0.9363

FINAL SINGLE POINT ENERGY      -289.368092775270

DIPOLE MOMENT
-------------
                                X             Y             Z
Electronic contribution:      0.61537       0.76365      -0.62320
Nuclear contribution   :     -0.85319      -0.75281       0.26650
                        -----------------------------------------
Total Dipole Moment    :     -0.23781       0.01084      -0.35669
                        -----------------------------------------
Magnitude (a.u.)       :      0.42884
Magnitude (Debye)      :      1.09002

                             ****ORCA TERMINATED NORMALLY****
TOTAL RUN TIME: 0 days 0 hours 0 minutes 7 seconds 995 msec
