                         Program Version 3.0.3 - RELEASE   -
|  1> ! RI PBE def2-SVP def2-SVP/J NBO PAL2
|  2> % maxcore 2000
|  3> % output
|  4>     # printlevel mini
|  5>     print[ P_Basis ] 0
|  6>     print[ P_SCFInfo ] 1
|  7>     print[ P_SCFIterInfo ] 1
|  8>     print[ P_OrbEn ] 0
|  9>     print[ P_Cartesian ] 0
| 10> end
| 11> *xyz 0 1
| 12>  C        1.8623870000     0.0861820000    -0.7310650000
| 13>  C        1.8308640000    -0.0921000000     0.7590820000
| 14>  C        0.5541350000     0.0190470000    -0.0102710000
| 15>  C       -0.3512740000     1.2365140000     0.1436080000
| 16>  C       -1.7247020000     0.6983410000    -0.2394110000
| 17>  N       -1.6610400000    -0.6721420000     0.2437850000
| 18>  C       -0.3701700000    -1.1771170000    -0.2004890000
| 19>  H        2.1524830000    -0.7650840000    -1.3374040000
| 20>  H        2.1812370000     1.0446960000    -1.1245650000
| 21>  H        2.1216750000     0.7494540000     1.3779800000
| 22>  H        2.1039300000    -1.0607550000     1.1618500000
| 23>  H       -0.0415890000     2.0769450000    -0.4809940000
| 24>  H       -0.3629490000     1.5705260000     1.1844200000
| 25>  H       -1.8588960000     0.7617050000    -1.3334340000
| 26>  H       -2.5457900000     1.2423730000     0.2331170000
| 27>  H       -2.4299030000    -1.2379150000    -0.0904510000
| 28>  H       -0.3738090000    -1.4737210000    -1.2637400000
| 29>  H       -0.0654690000    -2.0458580000     0.3898720000
| 30> *
| 31>
| 32>                          ****END OF INPUT****
 Total Charge           Charge          ....    0
 Multiplicity           Mult            ....    1
 Number of Electrons    NEL             ....   54
 Basis Dimension        Dim             ....  153

MULLIKEN ATOMIC CHARGES
-----------------------
   0 C :   -0.003847
   1 C :    0.003728
   2 C :   -0.404719
   3 C :    0.153883
   4 C :    0.088639
   5 N :   -0.281898
   6 C :    0.288922
   7 H :    0.026888
   8 H :    0.024290
   9 H :    0.027405
  10 H :    0.024096
  11 H :   -0.001927
  12 H :    0.005902
  13 H :   -0.014566
  14 H :    0.003654
  15 H :    0.095024
  16 H :   -0.026922
  17 H :   -0.008551
Sum of atomic charges:    0.0000000

LOEWDIN ATOMIC CHARGES
----------------------
   0 C :   -0.040704
   1 C :   -0.036976
   2 C :   -0.066086
   3 C :   -0.025932
   4 C :    0.015526
   5 N :   -0.105446
   6 C :    0.030322
   7 H :    0.024080
   8 H :    0.023697
   9 H :    0.024800
  10 H :    0.023735
  11 H :    0.023891
  12 H :    0.027965
  13 H :   -0.003415
  14 H :    0.017040
  15 H :    0.052656
  16 H :   -0.001967
  17 H :    0.016814

  Mayer bond orders larger than 0.1
B(  0-C ,  1-C ) :   1.0482 B(  0-C ,  2-C ) :   0.9739 B(  0-C ,  7-H ) :   0.9415
B(  0-C ,  8-H ) :   0.9410 B(  1-C ,  2-C ) :   0.9872 B(  1-C ,  9-H ) :   0.9435
B(  1-C , 10-H ) :   0.9405 B(  2-C ,  3-C ) :   1.0743 B(  2-C ,  6-C ) :   1.0457
B(  3-C ,  4-C ) :   1.1303 B(  3-C , 11-H ) :   0.9217 B(  3-C , 12-H ) :   0.9033
B(  4-C ,  5-N ) :   1.0534 B(  4-C , 13-H ) :   0.9105 B(  4-C , 14-H ) :   0.9337
B(  5-N ,  6-C ) :   1.0550 B(  5-N , 15-H ) :   0.9391 B(  6-C , 16-H ) :   0.9022
B(  6-C , 17-H ) :   0.9204

FINAL SINGLE POINT ENERGY      -289.368583018465

DIPOLE MOMENT
-------------
                                X             Y             Z
Electronic contribution:     -1.00115      -0.75828       0.75992
Nuclear contribution   :      0.89633       0.72953      -1.07253
                        -----------------------------------------
Total Dipole Moment    :     -0.10482      -0.02875      -0.31261
                        -----------------------------------------
Magnitude (a.u.)       :      0.33097
Magnitude (Debye)      :      0.84125

                             ****ORCA TERMINATED NORMALLY****
TOTAL RUN TIME: 0 days 0 hours 0 minutes 7 seconds 931 msec
