                         Program Version 3.0.3 - RELEASE   -
|  1> ! RI PBE def2-SVP def2-SVP/J NBO PAL2
|  2> % maxcore 2000
|  3> % output
|  4>     # printlevel mini
|  5>     print[ P_Basis ] 0
|  6>     print[ P_SCFInfo ] 1
|  7>     print[ P_SCFIterInfo ] 1
|  8>     print[ P_OrbEn ] 0
|  9>     print[ P_Cartesian ] 0
| 10> end
| 11> *xyz 0 1
| 12>  C       -1.2365820000    -0.7755120000    -0.5202870000
| 13>  C       -1.2395160000     0.7737960000    -0.5141130000
| 14>  C        0.0040810000     1.0864320000     0.3220510000
| 15>  C        1.2576100000     0.7772120000    -0.5180230000
| 16>  C        1.2605210000    -0.7703910000    -0.5233730000
| 17>  C        0.0078570000    -1.0901150000     0.3139620000
| 18>  N       -0.0584070000    -0.0056200000     1.3042140000
| 19>  H       -1.1748640000    -1.2008800000    -1.5236590000
| 20>  H       -2.1311550000    -1.1720620000    -0.0383640000
| 21>  H       -2.1352120000     1.1629410000    -0.0282350000
| 22>  H       -1.1802580000     1.2074780000    -1.5140570000
| 23>  H        0.0001380000     2.0739070000     0.7847660000
| 24>  H        2.1535580000     1.1769420000    -0.0362300000
| 25>  H        1.2072860000     1.2085770000    -1.5203730000
| 26>  H        2.1576330000    -1.1699330000    -0.0435610000
| 27>  H        1.2126380000    -1.1951040000    -1.5286730000
| 28>  H        0.0071670000    -2.0810180000     0.7693070000
| 29>  H        0.7745050000    -0.0063610000     1.8867480000
| 30> *
| 31>
| 32>                          ****END OF INPUT****
 Total Charge           Charge          ....    0
 Multiplicity           Mult            ....    1
 Number of Electrons    NEL             ....   54
 Basis Dimension        Dim             ....  153

MULLIKEN ATOMIC CHARGES
-----------------------
   0 C :    0.114820
   1 C :    0.114114
   2 C :   -0.137907
   3 C :    0.084105
   4 C :    0.084546
   5 C :   -0.138278
   6 N :   -0.187116
   7 H :   -0.006238
   8 H :    0.004498
   9 H :    0.004479
  10 H :   -0.006031
  11 H :   -0.004244
  12 H :   -0.000540
  13 H :   -0.004595
  14 H :   -0.000614
  15 H :   -0.004767
  16 H :   -0.004259
  17 H :    0.088029
Sum of atomic charges:   -0.0000000

LOEWDIN ATOMIC CHARGES
----------------------
   0 C :   -0.033757
   1 C :   -0.033821
   2 C :    0.006181
   3 C :   -0.049875
   4 C :   -0.049810
   5 C :    0.006183
   6 N :   -0.092378
   7 H :    0.019395
   8 H :    0.025917
   9 H :    0.025909
  10 H :    0.019438
  11 H :    0.014921
  12 H :    0.019452
  13 H :    0.020402
  14 H :    0.019438
  15 H :    0.020352
  16 H :    0.014916
  17 H :    0.047137

  Mayer bond orders larger than 0.1
B(  0-C ,  1-C ) :   1.1290 B(  0-C ,  5-C ) :   1.0786 B(  0-C ,  7-H ) :   0.9137
B(  0-C ,  8-H ) :   0.9058 B(  1-C ,  2-C ) :   1.0785 B(  1-C ,  9-H ) :   0.9059
B(  1-C , 10-H ) :   0.9137 B(  2-C ,  3-C ) :   1.0504 B(  2-C ,  6-N ) :   1.0197
B(  2-C , 11-H ) :   0.9453 B(  3-C ,  4-C ) :   1.1285 B(  3-C , 12-H ) :   0.9152
B(  3-C , 13-H ) :   0.9068 B(  4-C ,  5-C ) :   1.0505 B(  4-C , 14-H ) :   0.9151
B(  4-C , 15-H ) :   0.9068 B(  5-C ,  6-N ) :   1.0198 B(  5-C , 16-H ) :   0.9453
B(  6-N , 17-H ) :   0.9467

FINAL SINGLE POINT ENERGY      -289.399786900020

DIPOLE MOMENT
-------------
                                X             Y             Z
Electronic contribution:     -0.39943      -0.00901       2.24823
Nuclear contribution   :      0.75856       0.01025      -2.41700
                        -----------------------------------------
Total Dipole Moment    :      0.35913       0.00124      -0.16877
                        -----------------------------------------
Magnitude (a.u.)       :      0.39681
Magnitude (Debye)      :      1.00861

                             ****ORCA TERMINATED NORMALLY****
TOTAL RUN TIME: 0 days 0 hours 0 minutes 8 seconds 164 msec
