                         Program Version 3.0.3 - RELEASE   -
|  1> ! RI PBE def2-SVP def2-SVP/J NBO PAL2
|  2> % maxcore 2000
|  3> % output
|  4>     # printlevel mini
|  5>     print[ P_Basis ] 0
|  6>     print[ P_SCFInfo ] 1
|  7>     print[ P_SCFIterInfo ] 1
|  8>     print[ P_OrbEn ] 0
|  9>     print[ P_Cartesian ] 0
| 10> end
| 11> *xyz 0 1
| 12>  C       -1.2122870000    -0.1035730000     0.8753900000
| 13>  C       -0.5922180000    -1.0268220000    -0.1826270000
| 14>  C        0.8804410000    -1.2713100000     0.1453620000
| 15>  C        1.6686960000     0.0454230000     0.0538790000
| 16>  C        0.8102830000     1.2828950000     0.3625730000
| 17>  C       -0.6483660000     1.0173630000    -0.0087880000
| 18>  N       -0.7818880000     0.0805980000    -1.1512790000
| 19>  H       -0.8426220000    -0.1804730000     1.8990410000
| 20>  H       -2.3014570000    -0.1319090000     0.8568090000
| 21>  H       -1.1197580000    -1.9508890000    -0.4331860000
| 22>  H        0.9508530000    -1.7111910000     1.1460190000
| 23>  H        1.3119090000    -2.0037620000    -0.5442920000
| 24>  H        2.0527530000     0.1426650000    -0.9655570000
| 25>  H        2.5535940000     0.0153390000     0.6934470000
| 26>  H        1.1979910000     2.1436220000    -0.1915960000
| 27>  H        0.8612540000     1.5507980000     1.4234200000
| 28>  H       -1.2266410000     1.9403130000    -0.1022740000
| 29>  H       -0.0565370000     0.1606110000    -1.8578610000
| 30> *
| 31>
| 32>                          ****END OF INPUT****
 Total Charge           Charge          ....    0
 Multiplicity           Mult            ....    1
 Number of Electrons    NEL             ....   54
 Basis Dimension        Dim             ....  153

MULLIKEN ATOMIC CHARGES
-----------------------
   0 C :    0.087657
   1 C :   -0.103288
   2 C :    0.089471
   3 C :   -0.044172
   4 C :    0.102484
   5 C :   -0.114234
   6 N :   -0.171817
   7 H :    0.004870
   8 H :    0.022244
   9 H :   -0.001952
  10 H :    0.006508
  11 H :    0.011816
  12 H :    0.008779
  13 H :    0.009305
  14 H :    0.006010
  15 H :    0.005787
  16 H :    0.000417
  17 H :    0.080116
Sum of atomic charges:   -0.0000000

LOEWDIN ATOMIC CHARGES
----------------------
   0 C :   -0.033667
   1 C :    0.019920
   2 C :   -0.052503
   3 C :   -0.044139
   4 C :   -0.050939
   5 C :    0.018741
   6 N :   -0.097214
   7 H :    0.011547
   8 H :    0.029630
   9 H :    0.008454
  10 H :    0.023613
  11 H :    0.024233
  12 H :    0.021884
  13 H :    0.028371
  14 H :    0.023208
  15 H :    0.023690
  16 H :    0.008846
  17 H :    0.036328

  Mayer bond orders larger than 0.1
B(  0-C ,  1-C ) :   1.0291 B(  0-C ,  5-C ) :   1.0319 B(  0-C ,  7-H ) :   0.9459
B(  0-C ,  8-H ) :   0.9138 B(  1-C ,  2-C ) :   1.0258 B(  1-C ,  6-N ) :   1.0279
B(  1-C ,  9-H ) :   0.9334 B(  2-C ,  3-C ) :   1.0985 B(  2-C , 10-H ) :   0.9164
B(  2-C , 11-H ) :   0.9268 B(  3-C ,  4-C ) :   1.0978 B(  3-C , 12-H ) :   0.9256
B(  3-C , 13-H ) :   0.9267 B(  4-C ,  5-C ) :   1.0254 B(  4-C , 14-H ) :   0.9253
B(  4-C , 15-H ) :   0.9160 B(  5-C ,  6-N ) :   1.0285 B(  5-C , 16-H ) :   0.9344
B(  6-N , 17-H ) :   0.9483

FINAL SINGLE POINT ENERGY      -289.374359493531

DIPOLE MOMENT
-------------
                                X             Y             Z
Electronic contribution:     -2.33126       0.06579      -1.53392
Nuclear contribution   :      2.81250      -0.06869       1.71616
                        -----------------------------------------
Total Dipole Moment    :      0.48125      -0.00290       0.18224
                        -----------------------------------------
Magnitude (a.u.)       :      0.51461
Magnitude (Debye)      :      1.30802

                             ****ORCA TERMINATED NORMALLY****
TOTAL RUN TIME: 0 days 0 hours 0 minutes 8 seconds 152 msec
