                         Program Version 3.0.3 - RELEASE   -
|  1> ! RI PBE def2-SVP def2-SVP/J NBO PAL2
|  2> % maxcore 2000
|  3> % output
|  4>     # printlevel mini
|  5>     print[ P_Basis ] 0
|  6>     print[ P_SCFInfo ] 1
|  7>     print[ P_SCFIterInfo ] 1
|  8>     print[ P_OrbEn ] 0
|  9>     print[ P_Cartesian ] 0
| 10> end
| 11> *xyz 0 1
| 12>  C       -1.8017890000     0.6928760000     0.3426550000
| 13>  C       -1.7604730000    -0.7112750000    -0.3498850000
| 14>  C       -0.2696190000    -0.7001370000     0.0368570000
| 15>  N        0.9936850000    -1.1189870000    -0.5387670000
| 16>  C        1.8966220000    -0.0749330000     0.0339440000
| 17>  C        1.0419300000     1.1569730000     0.5593420000
| 18>  C       -0.3017320000     0.7982270000    -0.0316600000
| 19>  H       -1.9662710000     0.5942870000     1.4178290000
| 20>  H       -2.4835310000     1.4406500000    -0.0619110000
| 21>  H       -1.9171710000    -0.6106140000    -1.4268470000
| 22>  H       -2.3945540000    -1.5076740000     0.0406250000
| 23>  H       -0.2380710000    -0.9813550000     1.0995580000
| 24>  H        0.9531840000    -0.9886170000    -1.5438760000
| 25>  H        2.6249690000     0.2311080000    -0.7192050000
| 26>  H        2.4553440000    -0.5105400000     0.8651000000
| 27>  H        1.4590190000     2.1099000000     0.2280650000
| 28>  H        1.0224270000     1.1572160000     1.6517710000
| 29>  H       -0.2874690000     1.0562830000    -1.0998040000
| 30> *
| 31>
| 32>                          ****END OF INPUT****
 Total Charge           Charge          ....    0
 Multiplicity           Mult            ....    1
 Number of Electrons    NEL             ....   54
 Basis Dimension        Dim             ....  153

MULLIKEN ATOMIC CHARGES
-----------------------
   0 C :    0.031666
   1 C :    0.045331
   2 C :   -0.083594
   3 N :   -0.172077
   4 C :    0.061049
   5 C :    0.087517
   6 C :   -0.159593
   7 H :    0.018210
   8 H :    0.013383
   9 H :    0.012828
  10 H :    0.015478
  11 H :    0.011805
  12 H :    0.090278
  13 H :    0.012578
  14 H :    0.013276
  15 H :   -0.000260
  16 H :    0.003966
  17 H :   -0.001841
Sum of atomic charges:   -0.0000000

LOEWDIN ATOMIC CHARGES
----------------------
   0 C :   -0.020959
   1 C :   -0.028591
   2 C :   -0.009785
   3 N :   -0.103134
   4 C :    0.020728
   5 C :   -0.053617
   6 C :   -0.060164
   7 H :    0.026062
   8 H :    0.017672
   9 H :    0.024900
  10 H :    0.017333
  11 H :    0.020790
  12 H :    0.048119
  13 H :    0.019321
  14 H :    0.019638
  15 H :    0.019806
  16 H :    0.023843
  17 H :    0.018038

  Mayer bond orders larger than 0.1
B(  0-C ,  1-C ) :   1.0770 B(  0-C ,  6-C ) :   1.0326 B(  0-C ,  7-H ) :   0.9288
B(  0-C ,  8-H ) :   0.9327 B(  1-C ,  2-C ) :   1.0337 B(  1-C ,  9-H ) :   0.9255
B(  1-C , 10-H ) :   0.9351 B(  2-C ,  3-N ) :   1.1045 B(  2-C ,  6-C ) :   0.9924
B(  2-C , 11-H ) :   0.9256 B(  3-N ,  4-C ) :   1.0725 B(  3-N , 12-H ) :   0.9411
B(  4-C ,  5-C ) :   1.0160 B(  4-C , 13-H ) :   0.9468 B(  4-C , 14-H ) :   0.9422
B(  5-C ,  6-C ) :   1.0926 B(  5-C , 15-H ) :   0.9274 B(  5-C , 16-H ) :   0.9227
B(  6-C , 17-H ) :   0.9204

FINAL SINGLE POINT ENERGY      -289.339539864153

DIPOLE MOMENT
-------------
                                X             Y             Z
Electronic contribution:      0.45964      -1.42467      -0.59707
Nuclear contribution   :     -0.58994       1.83097       0.41938
                        -----------------------------------------
Total Dipole Moment    :     -0.13030       0.40630      -0.17769
                        -----------------------------------------
Magnitude (a.u.)       :      0.46221
Magnitude (Debye)      :      1.17484

                             ****ORCA TERMINATED NORMALLY****
TOTAL RUN TIME: 0 days 0 hours 0 minutes 7 seconds 970 msec
