                         Program Version 3.0.3 - RELEASE   -
|  1> ! RI PBE def2-SVP def2-SVP/J NBO PAL2
|  2> % maxcore 2000
|  3> % output
|  4>     # printlevel mini
|  5>     print[ P_Basis ] 0
|  6>     print[ P_SCFInfo ] 1
|  7>     print[ P_SCFIterInfo ] 1
|  8>     print[ P_OrbEn ] 0
|  9>     print[ P_Cartesian ] 0
| 10> end
| 11> *xyz 0 1
| 12>  C       -0.8272340000     0.0269470000    -1.2040060000
| 13>  C       -0.6356660000     1.0599300000    -0.0688040000
| 14>  C       -1.1905050000    -0.0167710000     0.8845830000
| 15>  C       -0.5911350000    -1.0372780000    -0.0981110000
| 16>  N        0.8173420000    -1.2263340000     0.2270330000
| 17>  C        1.6214000000    -0.0451780000    -0.0825390000
| 18>  C        0.8524940000     1.2407300000     0.2305100000
| 19>  H       -0.1581730000     0.0525900000    -2.0674790000
| 20>  H       -1.8618220000     0.0080690000    -1.5518050000
| 21>  H       -1.1578640000     2.0165330000    -0.1369130000
| 22>  H       -2.2823110000    -0.0421690000     0.8813480000
| 23>  H       -0.8116390000    -0.0419840000     1.9084010000
| 24>  H       -1.0705650000    -2.0129420000    -0.1939020000
| 25>  H        1.1841110000    -2.0247800000    -0.2736250000
| 26>  H        1.9040130000    -0.0196700000    -1.1450550000
| 27>  H        2.5540270000    -0.0840590000     0.4871390000
| 28>  H        1.2753810000     2.0547950000    -0.3657190000
| 29>  H        0.9706380000     1.5201830000     1.2824420000
| 30> *
| 31>
| 32>                          ****END OF INPUT****
 Total Charge           Charge          ....    0
 Multiplicity           Mult            ....    1
 Number of Electrons    NEL             ....   54
 Basis Dimension        Dim             ....  153

MULLIKEN ATOMIC CHARGES
-----------------------
   0 C :    0.107721
   1 C :   -0.233160
   2 C :    0.136579
   3 C :   -0.129501
   4 N :   -0.181248
   5 C :    0.094659
   6 C :    0.083861
   7 H :    0.003694
   8 H :    0.009665
   9 H :   -0.004054
  10 H :    0.010237
  11 H :   -0.000184
  12 H :   -0.007157
  13 H :    0.095910
  14 H :   -0.010805
  15 H :    0.004511
  16 H :    0.010314
  17 H :    0.008958
Sum of atomic charges:   -0.0000000

LOEWDIN ATOMIC CHARGES
----------------------
   0 C :   -0.045638
   1 C :   -0.031491
   2 C :   -0.033687
   3 C :    0.015530
   4 N :   -0.097120
   5 C :    0.014638
   6 C :   -0.037962
   7 H :    0.010410
   8 H :    0.024604
   9 H :    0.011259
  10 H :    0.023105
  11 H :    0.010526
  12 H :    0.008289
  13 H :    0.054019
  14 H :    0.002826
  15 H :    0.019956
  16 H :    0.026373
  17 H :    0.024365

  Mayer bond orders larger than 0.1
B(  0-C ,  1-C ) :   1.0077 B(  0-C ,  3-C ) :   0.9808 B(  0-C ,  7-H ) :   0.9269
B(  0-C ,  8-H ) :   0.9297 B(  1-C ,  2-C ) :   1.0037 B(  1-C ,  6-C ) :   1.0550
B(  1-C ,  9-H ) :   0.9311 B(  2-C ,  3-C ) :   1.0026 B(  2-C , 10-H ) :   0.9334
B(  2-C , 11-H ) :   0.9249 B(  3-C ,  4-N ) :   1.0878 B(  3-C , 12-H ) :   0.9304
B(  4-N ,  5-C ) :   1.0540 B(  4-N , 13-H ) :   0.9418 B(  5-C ,  6-C ) :   1.1180
B(  5-C , 14-H ) :   0.9132 B(  5-C , 15-H ) :   0.9316 B(  6-C , 16-H ) :   0.9311
B(  6-C , 17-H ) :   0.9171

FINAL SINGLE POINT ENERGY      -289.369923770059

DIPOLE MOMENT
-------------
                                X             Y             Z
Electronic contribution:     -0.16489      -1.44697       0.48483
Nuclear contribution   :      0.22511       1.43632      -0.88143
                        -----------------------------------------
Total Dipole Moment    :      0.06022      -0.01065      -0.39659
                        -----------------------------------------
Magnitude (a.u.)       :      0.40128
Magnitude (Debye)      :      1.01998

                             ****ORCA TERMINATED NORMALLY****
TOTAL RUN TIME: 0 days 0 hours 0 minutes 8 seconds 120 msec
