                         Program Version 3.0.3 - RELEASE   -
|  1> ! RI PBE def2-SVP def2-SVP/J NBO PAL2
|  2> % maxcore 2000
|  3> % output
|  4>     # printlevel mini
|  5>     print[ P_Basis ] 0
|  6>     print[ P_SCFInfo ] 1
|  7>     print[ P_SCFIterInfo ] 1
|  8>     print[ P_OrbEn ] 0
|  9>     print[ P_Cartesian ] 0
| 10> end
| 11> *xyz 0 1
| 12>  C       -1.7732240000     0.7951430000     0.2892640000
| 13>  C       -1.6997250000    -0.6476200000    -0.2846270000
| 14>  N       -0.2737710000    -0.5946760000     0.0315060000
| 15>  C        0.9570860000    -1.0471350000    -0.5460300000
| 16>  C        1.9247540000     0.0404490000     0.0233410000
| 17>  C        1.0343710000     1.2134050000     0.5551230000
| 18>  C       -0.2783740000     0.8363380000    -0.0930690000
| 19>  H       -1.9341050000     0.7874400000     1.3675920000
| 20>  H       -2.4402030000     1.5049060000    -0.1982200000
| 21>  H       -1.9190910000    -0.6582990000    -1.3656300000
| 22>  H       -2.2631980000    -1.4401690000     0.2119280000
| 23>  H        0.9520420000    -1.0170650000    -1.6500580000
| 24>  H        1.2309480000    -2.0569290000    -0.2315550000
| 25>  H        2.6067750000     0.3877340000    -0.7547200000
| 26>  H        2.5352460000    -0.3714810000     0.8275670000
| 27>  H        1.4243610000     2.1898800000     0.2625480000
| 28>  H        0.9576220000     1.1756640000     1.6432730000
| 29>  H       -0.2327340000     1.1379080000    -1.1642340000
| 30> *
| 31>
| 32>                          ****END OF INPUT****
 Total Charge           Charge          ....    0
 Multiplicity           Mult            ....    1
 Number of Electrons    NEL             ....   54
 Basis Dimension        Dim             ....  153

MULLIKEN ATOMIC CHARGES
-----------------------
   0 C :    0.029453
   1 C :    0.139086
   2 N :   -0.384382
   3 C :    0.187273
   4 C :   -0.085428
   5 C :    0.166617
   6 C :   -0.063186
   7 H :    0.014433
   8 H :    0.014709
   9 H :   -0.006892
  10 H :    0.011731
  11 H :   -0.018237
  12 H :    0.002262
  13 H :    0.012948
  14 H :    0.014677
  15 H :   -0.003897
  16 H :   -0.000177
  17 H :   -0.030989
Sum of atomic charges:    0.0000000

LOEWDIN ATOMIC CHARGES
----------------------
   0 C :   -0.032284
   1 C :    0.039564
   2 N :   -0.114179
   3 C :    0.017606
   4 C :   -0.037798
   5 C :   -0.041496
   6 C :    0.009983
   7 H :    0.027545
   8 H :    0.016514
   9 H :    0.001862
  10 H :    0.010955
  11 H :   -0.002945
  12 H :    0.015960
  13 H :    0.023845
  14 H :    0.027466
  15 H :    0.019954
  16 H :    0.025520
  17 H :   -0.008071

  Mayer bond orders larger than 0.1
B(  0-C ,  1-C ) :   1.0948 B(  0-C ,  6-C ) :   1.0412 B(  0-C ,  7-H ) :   0.9068
B(  0-C ,  8-H ) :   0.9424 B(  1-C ,  2-N ) :   0.9728 B(  1-C ,  9-H ) :   0.9158
B(  1-C , 10-H ) :   0.9464 B(  2-N ,  3-C ) :   1.0321 B(  2-N ,  6-C ) :   0.9472
B(  3-C ,  4-C ) :   1.0940 B(  3-C , 11-H ) :   0.9135 B(  3-C , 12-H ) :   0.9386
B(  4-C ,  5-C ) :   1.1093 B(  4-C , 13-H ) :   0.9308 B(  4-C , 14-H ) :   0.9261
B(  5-C ,  6-C ) :   1.1016 B(  5-C , 15-H ) :   0.9252 B(  5-C , 16-H ) :   0.9014
B(  6-C , 17-H ) :   0.8743

FINAL SINGLE POINT ENERGY      -289.351262136438

DIPOLE MOMENT
-------------
                                X             Y             Z
Electronic contribution:     -0.94596      -0.68984       0.74384
Nuclear contribution   :      0.95817       0.72483      -0.84911
                        -----------------------------------------
Total Dipole Moment    :      0.01221       0.03499      -0.10527
                        -----------------------------------------
Magnitude (a.u.)       :      0.11160
Magnitude (Debye)      :      0.28368

                             ****ORCA TERMINATED NORMALLY****
TOTAL RUN TIME: 0 days 0 hours 0 minutes 8 seconds 263 msec
