                         Program Version 3.0.3 - RELEASE   -
|  1> ! RI PBE def2-SVP def2-SVP/J NBO PAL2
|  2> % maxcore 2000
|  3> % output
|  4>     # printlevel mini
|  5>     print[ P_Basis ] 0
|  6>     print[ P_SCFInfo ] 1
|  7>     print[ P_SCFIterInfo ] 1
|  8>     print[ P_OrbEn ] 0
|  9>     print[ P_Cartesian ] 0
| 10> end
| 11> *xyz 0 1
| 12>  C        1.8583410000     0.0782110000    -0.7631620000
| 13>  N        1.7788990000    -0.1858970000     0.6747910000
| 14>  C        0.5522210000     0.0007980000    -0.0870370000
| 15>  C       -0.3328100000     1.2196610000     0.1355110000
| 16>  C       -1.7218850000     0.7049420000    -0.2184350000
| 17>  N       -1.6566720000    -0.6740040000     0.2388670000
| 18>  C       -0.3843460000    -1.1867920000    -0.2499310000
| 19>  H        2.2116300000    -0.7570820000    -1.3605900000
| 20>  H        2.2010540000     1.0527350000    -1.0990410000
| 21>  H        1.9953370000     0.6566260000     1.1981010000
| 22>  H       -0.0314230000     2.0835410000    -0.4596590000
| 23>  H       -0.3081040000     1.5004420000     1.1929430000
| 24>  H       -1.8858130000     0.7925310000    -1.3068040000
| 25>  H       -2.5218800000     1.2491480000     0.2884180000
| 26>  H       -2.4433290000    -1.2263670000    -0.0745890000
| 27>  H       -0.4227700000    -1.4792030000    -1.3129470000
| 28>  H       -0.0424390000    -2.0443900000     0.3327430000
| 29> *
| 30>
| 31>                          ****END OF INPUT****
 Total Charge           Charge          ....    0
 Multiplicity           Mult            ....    1
 Number of Electrons    NEL             ....   54
 Basis Dimension        Dim             ....  148

MULLIKEN ATOMIC CHARGES
-----------------------
   0 C :    0.076095
   1 N :   -0.166661
   2 C :   -0.402321
   3 C :    0.151521
   4 C :    0.090566
   5 N :   -0.281306
   6 C :    0.309674
   7 H :    0.025749
   8 H :    0.021463
   9 H :    0.102245
  10 H :    0.001934
  11 H :    0.009545
  12 H :   -0.013267
  13 H :    0.005342
  14 H :    0.095957
  15 H :   -0.024876
  16 H :   -0.001661
Sum of atomic charges:   -0.0000000

LOEWDIN ATOMIC CHARGES
----------------------
   0 C :    0.005289
   1 N :   -0.095671
   2 C :   -0.035346
   3 C :   -0.038884
   4 C :    0.016826
   5 N :   -0.105079
   6 C :    0.023543
   7 H :    0.018262
   8 H :    0.013062
   9 H :    0.050987
  10 H :    0.024852
  11 H :    0.030665
  12 H :   -0.003262
  13 H :    0.018160
  14 H :    0.053379
  15 H :    0.000067
  16 H :    0.023150

  Mayer bond orders larger than 0.1
B(  0-C ,  1-N ) :   1.0122 B(  0-C ,  2-C ) :   1.0403 B(  0-C ,  7-H ) :   0.9336
B(  0-C ,  8-H ) :   0.9407 B(  1-N ,  2-C ) :   0.9971 B(  1-N ,  9-H ) :   0.9441
B(  2-C ,  3-C ) :   1.0596 B(  2-C ,  6-C ) :   1.0234 B(  3-C ,  4-C ) :   1.1220
B(  3-C , 10-H ) :   0.9215 B(  3-C , 11-H ) :   0.8921 B(  4-C ,  5-N ) :   1.0504
B(  4-C , 12-H ) :   0.9114 B(  4-C , 13-H ) :   0.9324 B(  5-N ,  6-C ) :   1.0513
B(  5-N , 14-H ) :   0.9375 B(  6-C , 15-H ) :   0.9047 B(  6-C , 16-H ) :   0.9066

FINAL SINGLE POINT ENERGY      -305.381197085241

DIPOLE MOMENT
-------------
                                X             Y             Z
Electronic contribution:      0.89695      -1.23449       1.54299
Nuclear contribution   :     -1.18067       1.74767      -2.04949
                        -----------------------------------------
Total Dipole Moment    :     -0.28372       0.51318      -0.50650
                        -----------------------------------------
Magnitude (a.u.)       :      0.77485
Magnitude (Debye)      :      1.96952

                             ****ORCA TERMINATED NORMALLY****
TOTAL RUN TIME: 0 days 0 hours 0 minutes 8 seconds 26 msec
