                         Program Version 3.0.3 - RELEASE   -
|  1> ! RI PBE def2-SVP def2-SVP/J NBO PAL2
|  2> % maxcore 2000
|  3> % output
|  4>     # printlevel mini
|  5>     print[ P_Basis ] 0
|  6>     print[ P_SCFInfo ] 1
|  7>     print[ P_SCFIterInfo ] 1
|  8>     print[ P_OrbEn ] 0
|  9>     print[ P_Cartesian ] 0
| 10> end
| 11> *xyz 0 1
| 12>  C        0.9053050000    -1.1751730000     0.8260020000
| 13>  C        1.1934470000    -0.3318970000    -0.3451120000
| 14>  C        0.9804970000     1.1539050000    -0.3604740000
| 15>  C       -0.2850030000     1.5536410000     0.3872740000
| 16>  N       -1.4281590000     0.6978930000     0.1388010000
| 17>  C       -1.2219690000    -0.5136290000    -0.1479310000
| 18>  N        0.0088430000    -1.1909760000    -0.3429800000
| 19>  H        0.5300690000    -0.6982360000     1.7258120000
| 20>  H        1.4584770000    -2.0937290000     0.9876060000
| 21>  H        1.9540030000    -0.6958960000    -1.0311360000
| 22>  H        0.8896680000     1.4667310000    -1.4059380000
| 23>  H        1.8513710000     1.6738080000     0.0494910000
| 24>  H       -0.5658100000     2.5775790000     0.1286940000
| 25>  H       -0.1063400000     1.5613830000     1.4689870000
| 26>  H       -2.0840890000    -1.1639130000    -0.2962150000
| 27> *
| 28>
| 29>                          ****END OF INPUT****
 Total Charge           Charge          ....    0
 Multiplicity           Mult            ....    1
 Number of Electrons    NEL             ....   52
 Basis Dimension        Dim             ....  138

MULLIKEN ATOMIC CHARGES
-----------------------
   0 C :    0.094427
   1 C :   -0.121226
   2 C :    0.108523
   3 C :    0.041738
   4 N :   -0.145093
   5 C :    0.020981
   6 N :   -0.238200
   7 H :    0.041169
   8 H :    0.041093
   9 H :    0.032361
  10 H :    0.026630
  11 H :    0.022288
  12 H :    0.017688
  13 H :    0.035843
  14 H :    0.021779
Sum of atomic charges:    0.0000000

LOEWDIN ATOMIC CHARGES
----------------------
   0 C :    0.028549
   1 C :    0.004501
   2 C :   -0.053645
   3 C :   -0.001994
   4 N :   -0.102655
   5 C :    0.019928
   6 N :   -0.116032
   7 H :    0.020950
   8 H :    0.026535
   9 H :    0.028082
  10 H :    0.035622
  11 H :    0.035285
  12 H :    0.028014
  13 H :    0.030437
  14 H :    0.016424

  Mayer bond orders larger than 0.1
B(  0-C ,  1-C ) :   1.0431 B(  0-C ,  6-N ) :   0.9355 B(  0-C ,  7-H ) :   0.9316
B(  0-C ,  8-H ) :   0.9431 B(  1-C ,  2-C ) :   1.0487 B(  1-C ,  6-N ) :   0.9122
B(  1-C ,  9-H ) :   0.9318 B(  2-C ,  3-C ) :   1.0617 B(  2-C , 10-H ) :   0.9182
B(  2-C , 11-H ) :   0.9217 B(  3-C ,  4-N ) :   1.0550 B(  3-C , 12-H ) :   0.9324
B(  3-C , 13-H ) :   0.9234 B(  4-N ,  5-C ) :   1.9676 B(  5-C ,  6-N ) :   1.0971
B(  5-C , 14-H ) :   0.9576

FINAL SINGLE POINT ENERGY      -304.179169914310

DIPOLE MOMENT
-------------
                                X             Y             Z
Electronic contribution:     -2.55694      -1.98790      -0.99838
Nuclear contribution   :      3.44506       2.15044       1.28308
                        -----------------------------------------
Total Dipole Moment    :      0.88812       0.16254       0.28470
                        -----------------------------------------
Magnitude (a.u.)       :      0.94670
Magnitude (Debye)      :      2.40631

                             ****ORCA TERMINATED NORMALLY****
TOTAL RUN TIME: 0 days 0 hours 0 minutes 6 seconds 816 msec
