                         Program Version 3.0.3 - RELEASE   -
|  1> ! RI PBE def2-SVP def2-SVP/J NBO PAL2
|  2> % maxcore 2000
|  3> % output
|  4>     # printlevel mini
|  5>     print[ P_Basis ] 0
|  6>     print[ P_SCFInfo ] 1
|  7>     print[ P_SCFIterInfo ] 1
|  8>     print[ P_OrbEn ] 0
|  9>     print[ P_Cartesian ] 0
| 10> end
| 11> *xyz 0 1
| 12>  C        0.9045770000    -1.1902440000     0.8057670000
| 13>  C        1.2220300000    -0.3071390000    -0.3334440000
| 14>  C        1.0533580000     1.1836760000    -0.3363460000
| 15>  C       -0.2473710000     1.6138430000     0.3230890000
| 16>  C       -1.3406080000     0.6126500000     0.1301690000
| 17>  N       -1.2319620000    -0.6230740000    -0.1325350000
| 18>  N        0.0426350000    -1.1839310000    -0.3783900000
| 19>  H        0.4831510000    -0.7415880000     1.7001100000
| 20>  H        1.4709840000    -2.1003320000     0.9715520000
| 21>  H        1.9884130000    -0.6657870000    -1.0154860000
| 22>  H        1.0462300000     1.5096220000    -1.3811040000
| 23>  H        1.9128590000     1.6698260000     0.1333200000
| 24>  H       -0.5739790000     2.5876820000    -0.0511540000
| 25>  H       -0.1131130000     1.7464260000     1.4036130000
| 26>  H       -2.3652130000     0.9540610000     0.2774300000
| 27> *
| 28>
| 29>                          ****END OF INPUT****
 Total Charge           Charge          ....    0
 Multiplicity           Mult            ....    1
 Number of Electrons    NEL             ....   52
 Basis Dimension        Dim             ....  138

MULLIKEN ATOMIC CHARGES
-----------------------
   0 C :    0.098510
   1 C :   -0.148982
   2 C :    0.149434
   3 C :   -0.023089
   4 C :   -0.082777
   5 N :   -0.045642
   6 N :   -0.189914
   7 H :    0.033314
   8 H :    0.040817
   9 H :    0.031419
  10 H :    0.026847
  11 H :    0.018247
  12 H :    0.022675
  13 H :    0.049779
  14 H :    0.019362
Sum of atomic charges:   -0.0000000

LOEWDIN ATOMIC CHARGES
----------------------
   0 C :    0.014233
   1 C :   -0.016785
   2 C :   -0.037952
   3 C :   -0.066568
   4 C :   -0.024940
   5 N :   -0.044214
   6 N :   -0.075696
   7 H :    0.018937
   8 H :    0.026133
   9 H :    0.028433
  10 H :    0.036715
  11 H :    0.033818
  12 H :    0.039320
  13 H :    0.045591
  14 H :    0.022977

  Mayer bond orders larger than 0.1
B(  0-C ,  1-C ) :   1.0459 B(  0-C ,  6-N ) :   0.9297 B(  0-C ,  7-H ) :   0.9376
B(  0-C ,  8-H ) :   0.9401 B(  1-C ,  2-C ) :   1.0526 B(  1-C ,  6-N ) :   0.9120
B(  1-C ,  9-H ) :   0.9300 B(  2-C ,  3-C ) :   1.0806 B(  2-C , 10-H ) :   0.9257
B(  2-C , 11-H ) :   0.9214 B(  3-C ,  4-C ) :   1.0168 B(  3-C , 12-H ) :   0.9154
B(  3-C , 13-H ) :   0.9094 B(  4-C ,  5-N ) :   1.9765 B(  4-C , 14-H ) :   0.9581
B(  5-N ,  6-N ) :   0.9825

FINAL SINGLE POINT ENERGY      -304.151703735477

DIPOLE MOMENT
-------------
                                X             Y             Z
Electronic contribution:     -2.40177      -3.35496      -1.28184
Nuclear contribution   :      3.10889       4.43508       1.75500
                        -----------------------------------------
Total Dipole Moment    :      0.70712       1.08012       0.47317
                        -----------------------------------------
Magnitude (a.u.)       :      1.37498
Magnitude (Debye)      :      3.49493

                             ****ORCA TERMINATED NORMALLY****
TOTAL RUN TIME: 0 days 0 hours 0 minutes 6 seconds 763 msec
