                         Program Version 3.0.3 - RELEASE   -
|  1> ! RI PBE def2-SVP def2-SVP/J NBO PAL2
|  2> % maxcore 2000
|  3> % output
|  4>     # printlevel mini
|  5>     print[ P_Basis ] 0
|  6>     print[ P_SCFInfo ] 1
|  7>     print[ P_SCFIterInfo ] 1
|  8>     print[ P_OrbEn ] 0
|  9>     print[ P_Cartesian ] 0
| 10> end
| 11> *xyz 0 1
| 12>  C       -0.8184370000     0.0080870000    -1.1455360000
| 13>  C       -0.6328760000     1.0948320000    -0.0728820000
| 14>  C       -1.1464860000     0.0069270000     0.8750330000
| 15>  N       -0.6654480000    -1.0322400000    -0.0814800000
| 16>  C        0.7608010000    -1.2511190000     0.1739140000
| 17>  C        1.6316330000     0.0047280000    -0.0322170000
| 18>  C        0.8522700000     1.3092030000     0.2031210000
| 19>  H       -0.1092500000    -0.0518230000    -1.9746250000
| 20>  H       -1.8356550000    -0.0266330000    -1.5428200000
| 21>  H       -1.1856070000     2.0340080000    -0.1568940000
| 22>  H       -2.2368300000    -0.0330360000     0.9488210000
| 23>  H       -0.7117970000    -0.0497710000     1.8777890000
| 24>  H        1.1131190000    -2.0533600000    -0.4819180000
| 25>  H        0.8450830000    -1.6270580000     1.1978860000
| 26>  H        2.0002810000     0.0050080000    -1.0611720000
| 27>  H        2.5216010000    -0.0409230000     0.6001030000
| 28>  H        1.2550200000     2.0962390000    -0.4417790000
| 29>  H        0.9698770000     1.6604300000     1.2339560000
| 30> *
| 31>
| 32>                          ****END OF INPUT****
 Total Charge           Charge          ....    0
 Multiplicity           Mult            ....    1
 Number of Electrons    NEL             ....   54
 Basis Dimension        Dim             ....  153

MULLIKEN ATOMIC CHARGES
-----------------------
   0 C :    0.171876
   1 C :   -0.285595
   2 C :    0.179871
   3 N :   -0.335755
   4 C :    0.109466
   5 C :   -0.055475
   6 C :    0.118275
   7 H :    0.012244
   8 H :    0.016097
   9 H :   -0.001057
  10 H :    0.013374
  11 H :    0.000879
  12 H :    0.013199
  13 H :    0.003797
  14 H :    0.011547
  15 H :    0.009854
  16 H :    0.012662
  17 H :    0.004740
Sum of atomic charges:   -0.0000000

LOEWDIN ATOMIC CHARGES
----------------------
   0 C :    0.031345
   1 C :   -0.050293
   2 C :    0.031906
   3 N :   -0.130168
   4 C :    0.006519
   5 C :   -0.060259
   6 C :   -0.035115
   7 H :    0.010425
   8 H :    0.020472
   9 H :    0.011248
  10 H :    0.018797
  11 H :    0.006370
  12 H :    0.020024
  13 H :    0.018947
  14 H :    0.024355
  15 H :    0.028256
  16 H :    0.025057
  17 H :    0.022116

  Mayer bond orders larger than 0.1
B(  0-C ,  1-C ) :   1.0251 B(  0-C ,  3-N ) :   0.9930 B(  0-C ,  7-H ) :   0.9404
B(  0-C ,  8-H ) :   0.9374 B(  1-C ,  2-C ) :   1.0257 B(  1-C ,  6-C ) :   1.0356
B(  1-C ,  9-H ) :   0.9246 B(  2-C ,  3-N ) :   0.9886 B(  2-C , 10-H ) :   0.9352
B(  2-C , 11-H ) :   0.9332 B(  3-N ,  4-C ) :   1.0334 B(  4-C ,  5-C ) :   1.0806
B(  4-C , 12-H ) :   0.9441 B(  4-C , 13-H ) :   0.9327 B(  5-C ,  6-C ) :   1.0974
B(  5-C , 14-H ) :   0.9258 B(  5-C , 15-H ) :   0.9246 B(  6-C , 16-H ) :   0.9316
B(  6-C , 17-H ) :   0.9277

FINAL SINGLE POINT ENERGY      -289.357515020740

DIPOLE MOMENT
-------------
                                X             Y             Z
Electronic contribution:     -2.05419      -1.15576      -0.25868
Nuclear contribution   :      2.34338       1.62391       0.28468
                        -----------------------------------------
Total Dipole Moment    :      0.28919       0.46816       0.02600
                        -----------------------------------------
Magnitude (a.u.)       :      0.55089
Magnitude (Debye)      :      1.40025

                             ****ORCA TERMINATED NORMALLY****
TOTAL RUN TIME: 0 days 0 hours 0 minutes 8 seconds 124 msec
