                         Program Version 3.0.3 - RELEASE   -
|  1> ! RI PBE def2-SVP def2-SVP/J NBO PAL2
|  2> % maxcore 2000
|  3> % output
|  4>     # printlevel mini
|  5>     print[ P_Basis ] 0
|  6>     print[ P_SCFInfo ] 1
|  7>     print[ P_SCFIterInfo ] 1
|  8>     print[ P_OrbEn ] 0
|  9>     print[ P_Cartesian ] 0
| 10> end
| 11> *xyz 0 1
| 12>  C       -1.7959360000     0.6328610000     0.2702000000
| 13>  N       -1.7569460000    -0.7659120000    -0.2901880000
| 14>  C       -0.2912570000    -0.7261220000     0.0370590000
| 15>  C        1.0096570000    -1.1135240000    -0.6228730000
| 16>  C        1.9371170000    -0.0108950000     0.0100450000
| 17>  C        1.0324450000     1.1284130000     0.6172600000
| 18>  C       -0.2863730000     0.7686650000    -0.0305470000
| 19>  H       -2.0290440000     0.5827990000     1.3369480000
| 20>  H       -2.4896260000     1.3152090000    -0.2236920000
| 21>  H       -1.8659120000    -0.6911740000    -1.2997000000
| 22>  H       -0.2361180000    -1.0322640000     1.0917440000
| 23>  H        0.9564650000    -0.9971740000    -1.7089500000
| 24>  H        1.3684830000    -2.1212790000    -0.4059330000
| 25>  H        2.6096400000     0.3960500000    -0.7469580000
| 26>  H        2.5685820000    -0.4469870000     0.7860850000
| 27>  H        1.4187870000     2.1209060000     0.3790550000
| 28>  H        0.9846550000     1.0394170000     1.7055760000
| 29>  H       -0.2246180000     1.0335120000    -1.0958400000
| 30> *
| 31>
| 32>                          ****END OF INPUT****
 Total Charge           Charge          ....    0
 Multiplicity           Mult            ....    1
 Number of Electrons    NEL             ....   54
 Basis Dimension        Dim             ....  153

MULLIKEN ATOMIC CHARGES
-----------------------
   0 C :    0.172835
   1 N :   -0.227120
   2 C :   -0.083229
   3 C :    0.141795
   4 C :   -0.079621
   5 C :    0.134367
   6 C :   -0.224579
   7 H :    0.011610
   8 H :    0.009536
   9 H :    0.092889
  10 H :    0.012873
  11 H :   -0.003997
  12 H :    0.008240
  13 H :    0.013569
  14 H :    0.014451
  15 H :    0.001246
  16 H :    0.005546
  17 H :   -0.000413
Sum of atomic charges:    0.0000000

LOEWDIN ATOMIC CHARGES
----------------------
   0 C :    0.035268
   1 N :   -0.118342
   2 C :    0.001280
   3 C :   -0.043856
   4 C :   -0.031056
   5 C :   -0.038522
   6 C :   -0.064762
   7 H :    0.020035
   8 H :    0.012049
   9 H :    0.046321
  10 H :    0.020430
  11 H :    0.021738
  12 H :    0.022637
  13 H :    0.026250
  14 H :    0.026560
  15 H :    0.020475
  16 H :    0.024202
  17 H :    0.019293

  Mayer bond orders larger than 0.1
B(  0-C ,  1-N ) :   1.0347 B(  0-C ,  6-C ) :   1.0457 B(  0-C ,  7-H ) :   0.9249
B(  0-C ,  8-H ) :   0.9367 B(  1-N ,  2-C ) :   1.0267 B(  1-N ,  9-H ) :   0.9400
B(  2-C ,  3-C ) :   1.0832 B(  2-C ,  6-C ) :   1.0186 B(  2-C , 10-H ) :   0.9139
B(  3-C ,  4-C ) :   1.0823 B(  3-C , 11-H ) :   0.9114 B(  3-C , 12-H ) :   0.9288
B(  4-C ,  5-C ) :   1.0844 B(  4-C , 13-H ) :   0.9290 B(  4-C , 14-H ) :   0.9300
B(  5-C ,  6-C ) :   1.0646 B(  5-C , 15-H ) :   0.9267 B(  5-C , 16-H ) :   0.9200
B(  6-C , 17-H ) :   0.9005

FINAL SINGLE POINT ENERGY      -289.334886370002

DIPOLE MOMENT
-------------
                                X             Y             Z
Electronic contribution:     -2.68621      -0.88393      -0.17508
Nuclear contribution   :      3.10022       1.26512      -0.07947
                        -----------------------------------------
Total Dipole Moment    :      0.41401       0.38119      -0.25456
                        -----------------------------------------
Magnitude (a.u.)       :      0.61767
Magnitude (Debye)      :      1.56999

                             ****ORCA TERMINATED NORMALLY****
TOTAL RUN TIME: 0 days 0 hours 0 minutes 7 seconds 979 msec
