                         Program Version 3.0.3 - RELEASE   -
|  1> ! RI PBE def2-SVP def2-SVP/J NBO PAL2
|  2> % maxcore 2000
|  3> % output
|  4>     # printlevel mini
|  5>     print[ P_Basis ] 0
|  6>     print[ P_SCFInfo ] 1
|  7>     print[ P_SCFIterInfo ] 1
|  8>     print[ P_OrbEn ] 0
|  9>     print[ P_Cartesian ] 0
| 10> end
| 11> *xyz 0 1
| 12>  C       -1.7822090000     0.6972880000     0.3463550000
| 13>  C       -1.7819770000    -0.7104740000    -0.3279490000
| 14>  C       -0.2818240000    -0.7520120000     0.0312960000
| 15>  C        1.0501730000    -1.0946800000    -0.5875650000
| 16>  N        1.8946030000    -0.0246180000     0.0184030000
| 17>  C        1.0601500000     1.0957060000     0.5428400000
| 18>  C       -0.2881850000     0.7554420000    -0.0449390000
| 19>  H       -1.9289380000     0.6109670000     1.4256940000
| 20>  H       -2.4490500000     1.4627910000    -0.0519670000
| 21>  H       -1.9531350000    -0.6257760000    -1.4039090000
| 22>  H       -2.4315910000    -1.4831290000     0.0845990000
| 23>  H       -0.2309910000    -1.0189590000     1.0955570000
| 24>  H        1.0098600000    -1.0311560000    -1.6828470000
| 25>  H        1.4432520000    -2.0777050000    -0.3140160000
| 26>  H        2.5777010000     0.3139180000    -0.6416830000
| 27>  H        1.4745470000     2.0574300000     0.2294520000
| 28>  H        1.0468000000     1.0754550000     1.6386940000
| 29>  H       -0.2636980000     1.0189030000    -1.1116170000
| 30> *
| 31>
| 32>                          ****END OF INPUT****
 Total Charge           Charge          ....    0
 Multiplicity           Mult            ....    1
 Number of Electrons    NEL             ....   54
 Basis Dimension        Dim             ....  153

MULLIKEN ATOMIC CHARGES
-----------------------
   0 C :    0.049316
   1 C :    0.054743
   2 C :   -0.230015
   3 C :    0.268465
   4 N :   -0.327357
   5 C :    0.259271
   6 C :   -0.216714
   7 H :    0.015756
   8 H :    0.010077
   9 H :    0.013405
  10 H :    0.011717
  11 H :    0.022520
  12 H :   -0.011378
  13 H :   -0.005483
  14 H :    0.094503
  15 H :   -0.010803
  16 H :   -0.005282
  17 H :    0.007259
Sum of atomic charges:   -0.0000000

LOEWDIN ATOMIC CHARGES
----------------------
   0 C :   -0.024781
   1 C :   -0.022063
   2 C :   -0.049975
   3 C :    0.021738
   4 N :   -0.122930
   5 C :    0.021613
   6 C :   -0.052954
   7 H :    0.025851
   8 H :    0.015624
   9 H :    0.025047
  10 H :    0.016308
  11 H :    0.028662
  12 H :    0.006753
  13 H :    0.013485
  14 H :    0.050452
  15 H :    0.012729
  16 H :    0.011624
  17 H :    0.022817

  Mayer bond orders larger than 0.1
B(  0-C ,  1-C ) :   1.0871 B(  0-C ,  6-C ) :   1.0339 B(  0-C ,  7-H ) :   0.9247
B(  0-C ,  8-H ) :   0.9343 B(  1-C ,  2-C ) :   1.0341 B(  1-C ,  9-H ) :   0.9246
B(  1-C , 10-H ) :   0.9353 B(  2-C ,  3-C ) :   1.0574 B(  2-C ,  6-C ) :   1.0161
B(  2-C , 11-H ) :   0.9203 B(  3-C ,  4-N ) :   1.0109 B(  3-C , 12-H ) :   0.9202
B(  3-C , 13-H ) :   0.9215 B(  4-N ,  5-C ) :   1.0319 B(  4-N , 14-H ) :   0.9422
B(  5-C ,  6-C ) :   1.0644 B(  5-C , 15-H ) :   0.9294 B(  5-C , 16-H ) :   0.9184
B(  6-C , 17-H ) :   0.9146

FINAL SINGLE POINT ENERGY      -289.340245547853

DIPOLE MOMENT
-------------
                                X             Y             Z
Electronic contribution:      1.46886      -0.12378       0.23437
Nuclear contribution   :     -1.64359       0.29925      -0.58465
                        -----------------------------------------
Total Dipole Moment    :     -0.17474       0.17547      -0.35028
                        -----------------------------------------
Magnitude (a.u.)       :      0.42898
Magnitude (Debye)      :      1.09037

                             ****ORCA TERMINATED NORMALLY****
TOTAL RUN TIME: 0 days 0 hours 0 minutes 7 seconds 979 msec
