                         Program Version 3.0.3 - RELEASE   -
|  1> ! RI PBE def2-SVP def2-SVP/J NBO PAL2
|  2> % maxcore 2000
|  3> % output
|  4>     # printlevel mini
|  5>     print[ P_Basis ] 0
|  6>     print[ P_SCFInfo ] 1
|  7>     print[ P_SCFIterInfo ] 1
|  8>     print[ P_OrbEn ] 0
|  9>     print[ P_Cartesian ] 0
| 10> end
| 11> *xyz 0 1
| 12>  C        1.4548790000    -0.7742950000    -0.6177710000
| 13>  C        2.3571810000     0.3051330000     0.0939550000
| 14>  C        3.0575680000     0.4686700000    -1.2369110000
| 15>  C        3.9542210000     0.9632690000    -2.1440750000
| 16>  N        3.6823420000     0.2948570000    -3.3168200000
| 17>  C        2.6464630000    -0.6012690000    -3.1756310000
| 18>  C        2.2559900000    -0.4903010000    -1.8691940000
| 19>  H        0.3943340000    -0.5160100000    -0.6621360000
| 20>  H        1.5517520000    -1.7825740000    -0.2086010000
| 21>  H        2.9693160000    -0.0868040000     0.9094980000
| 22>  H        1.8118570000     1.1797480000     0.4560340000
| 23>  H        4.7425270000     1.6982360000    -2.1034840000
| 24>  H        4.1812290000     0.4435540000    -4.1748100000
| 25>  H        2.3215420000    -1.1981230000    -4.0131530000
| 26> *
| 27>
| 28>                          ****END OF INPUT****
 Total Charge           Charge          ....    0
 Multiplicity           Mult            ....    1
 Number of Electrons    NEL             ....   50
 Basis Dimension        Dim             ....  133

MULLIKEN ATOMIC CHARGES
-----------------------
   0 C :    0.093392
   1 C :    0.110043
   2 C :   -0.057793
   3 C :   -0.084950
   4 N :   -0.073354
   5 C :   -0.080476
   6 C :   -0.054958
   7 H :    0.018437
   8 H :    0.016091
   9 H :    0.014032
  10 H :    0.012746
  11 H :   -0.011141
  12 H :    0.111208
  13 H :   -0.013277
Sum of atomic charges:   -0.0000000

LOEWDIN ATOMIC CHARGES
----------------------
   0 C :   -0.015163
   1 C :   -0.012683
   2 C :   -0.087029
   3 C :   -0.054597
   4 N :    0.098265
   5 C :   -0.053563
   6 C :   -0.087034
   7 H :    0.026602
   8 H :    0.025807
   9 H :    0.025753
  10 H :    0.025477
  11 H :    0.014574
  12 H :    0.079316
  13 H :    0.014277

  Mayer bond orders larger than 0.1
B(  0-C ,  1-C ) :   1.1738 B(  0-C ,  6-C ) :   1.0970 B(  0-C ,  7-H ) :   0.8885
B(  0-C ,  8-H ) :   0.8903 B(  1-C ,  2-C ) :   1.0955 B(  1-C ,  9-H ) :   0.8885
B(  1-C , 10-H ) :   0.8886 B(  2-C ,  3-C ) :   1.4575 B(  2-C ,  6-C ) :   1.3998
B(  3-C ,  4-N ) :   1.2139 B(  3-C ,  5-C ) :   0.1194 B(  3-C , 11-H ) :   0.9922
B(  4-N ,  5-C ) :   1.2145 B(  4-N , 12-H ) :   0.9420 B(  5-C ,  6-C ) :   1.4567
B(  5-C , 13-H ) :   0.9893

FINAL SINGLE POINT ENERGY      -286.963037385684

DIPOLE MOMENT
-------------
                                X             Y             Z
Electronic contribution:      1.67719       0.50154      -2.88504
Nuclear contribution   :     -1.36828      -0.40782       2.35317
                        -----------------------------------------
Total Dipole Moment    :      0.30892       0.09371      -0.53187
                        -----------------------------------------
Magnitude (a.u.)       :      0.62217
Magnitude (Debye)      :      1.58144

                             ****ORCA TERMINATED NORMALLY****
TOTAL RUN TIME: 0 days 0 hours 0 minutes 6 seconds 595 msec
