                         Program Version 3.0.3 - RELEASE   -
|  1> ! RI PBE def2-SVP def2-SVP/J NBO PAL2
|  2> % maxcore 2000
|  3> % output
|  4>     # printlevel mini
|  5>     print[ P_Basis ] 0
|  6>     print[ P_SCFInfo ] 1
|  7>     print[ P_SCFIterInfo ] 1
|  8>     print[ P_OrbEn ] 0
|  9>     print[ P_Cartesian ] 0
| 10> end
| 11> *xyz 0 1
| 12>  C        1.7931100000    -0.1972400000     0.2456470000
| 13>  C        0.8562110000    -1.3857270000     0.5582110000
| 14>  C       -0.1975610000    -0.7923990000    -0.4195390000
| 15>  C       -1.4717150000    -0.2852050000     0.1704560000
| 16>  N       -1.4148410000     0.9345230000     0.5375920000
| 17>  N       -0.1427700000     1.4229250000     0.3336190000
| 18>  C        0.6446460000     0.5067790000    -0.4958690000
| 19>  H        2.6082430000    -0.4737920000    -0.4264560000
| 20>  H        2.2021530000     0.3480320000     1.0970420000
| 21>  H        0.5035710000    -1.4036810000     1.5903480000
| 22>  H        1.2354930000    -2.3758530000     0.3029270000
| 23>  H       -0.3289010000    -1.3669850000    -1.3374700000
| 24>  H       -2.3848590000    -0.8498540000     0.3122820000
| 25>  H       -0.1779660000     2.3869290000     0.0395590000
| 26>  H        0.8768850000     0.9380290000    -1.4745400000
| 27> *
| 28>
| 29>                          ****END OF INPUT****
 Total Charge           Charge          ....    0
 Multiplicity           Mult            ....    1
 Number of Electrons    NEL             ....   52
 Basis Dimension        Dim             ....  138

MULLIKEN ATOMIC CHARGES
-----------------------
   0 C :    0.127836
   1 C :    0.091724
   2 C :   -0.181437
   3 C :    0.018255
   4 N :   -0.096408
   5 N :   -0.103388
   6 C :   -0.040127
   7 H :    0.010829
   8 H :   -0.002358
   9 H :    0.013207
  10 H :    0.011091
  11 H :    0.017980
  12 H :    0.010368
  13 H :    0.116067
  14 H :    0.006362
Sum of atomic charges:    0.0000000

LOEWDIN ATOMIC CHARGES
----------------------
   0 C :   -0.035462
   1 C :   -0.020409
   2 C :   -0.052513
   3 C :   -0.059952
   4 N :   -0.040050
   5 N :   -0.014754
   6 C :    0.012664
   7 H :    0.024513
   8 H :    0.021597
   9 H :    0.028744
  10 H :    0.020648
  11 H :    0.027779
  12 H :    0.018413
  13 H :    0.060035
  14 H :    0.008745

  Mayer bond orders larger than 0.1
B(  0-C ,  1-C ) :   1.1772 B(  0-C ,  6-C ) :   1.1095 B(  0-C ,  7-H ) :   0.9199
B(  0-C ,  8-H ) :   0.8854 B(  1-C ,  2-C ) :   1.0848 B(  1-C ,  9-H ) :   0.8987
B(  1-C , 10-H ) :   0.9264 B(  2-C ,  3-C ) :   0.9733 B(  2-C ,  6-C ) :   1.0547
B(  2-C , 11-H ) :   0.9175 B(  3-C ,  4-N ) :   1.8620 B(  3-C ,  5-N ) :   0.1114
B(  3-C , 12-H ) :   0.9810 B(  4-N ,  5-N ) :   1.0924 B(  5-N ,  6-C ) :   0.9770
B(  5-N , 13-H ) :   0.9404 B(  6-C , 14-H ) :   0.9167

FINAL SINGLE POINT ENERGY      -304.174267395276

DIPOLE MOMENT
-------------
                                X             Y             Z
Electronic contribution:     -3.52900       2.70839       0.31040
Nuclear contribution   :      4.06840      -2.94997      -0.91554
                        -----------------------------------------
Total Dipole Moment    :      0.53940      -0.24159      -0.60514
                        -----------------------------------------
Magnitude (a.u.)       :      0.84588
Magnitude (Debye)      :      2.15006

                             ****ORCA TERMINATED NORMALLY****
TOTAL RUN TIME: 0 days 0 hours 0 minutes 6 seconds 817 msec
