                         Program Version 3.0.3 - RELEASE   -
|  1> ! RI PBE def2-SVP def2-SVP/J NBO PAL2
|  2> % maxcore 2000
|  3> % output
|  4>     # printlevel mini
|  5>     print[ P_Basis ] 0
|  6>     print[ P_SCFInfo ] 1
|  7>     print[ P_SCFIterInfo ] 1
|  8>     print[ P_OrbEn ] 0
|  9>     print[ P_Cartesian ] 0
| 10> end
| 11> *xyz 0 1
| 12>  C        0.3214810000     1.4780040000     0.4549230000
| 13>  C        1.2839320000     0.3746570000    -0.0384060000
| 14>  C        0.3299000000    -0.5209590000    -0.8689810000
| 15>  N       -0.5161680000     0.5239020000    -1.4647350000
| 16>  C       -1.0193840000     1.0258690000    -0.1773690000
| 17>  C       -1.4199640000    -0.2387890000     0.5629040000
| 18>  C       -0.5904840000    -1.1896740000     0.1377790000
| 19>  H        0.6076230000     2.4543590000     0.0617890000
| 20>  H        0.2603850000     1.5466530000     1.5415610000
| 21>  H        1.7635590000    -0.1766680000     0.7710540000
| 22>  H        2.0603400000     0.7890150000    -0.6827630000
| 23>  H        0.8195240000    -1.1640590000    -1.5989480000
| 24>  H       -1.2820140000     0.0798990000    -1.9658090000
| 25>  H       -1.7723270000     1.8072650000    -0.2704310000
| 26>  H       -2.1358720000    -0.2961750000     1.3731360000
| 27>  H       -0.4795120000    -2.1949910000     0.5241950000
| 28> *
| 29>
| 30>                          ****END OF INPUT****
 Total Charge           Charge          ....    0
 Multiplicity           Mult            ....    1
 Number of Electrons    NEL             ....   52
 Basis Dimension        Dim             ....  143

MULLIKEN ATOMIC CHARGES
-----------------------
   0 C :    0.121112
   1 C :    0.122413
   2 C :   -0.073976
   3 N :   -0.165342
   4 C :   -0.085268
   5 C :   -0.013102
   6 C :   -0.004695
   7 H :    0.009537
   8 H :    0.005908
   9 H :    0.001644
  10 H :    0.013396
  11 H :   -0.001823
  12 H :    0.089981
  13 H :    0.002712
  14 H :   -0.009928
  15 H :   -0.012569
Sum of atomic charges:   -0.0000000

LOEWDIN ATOMIC CHARGES
----------------------
   0 C :   -0.028427
   1 C :   -0.027622
   2 C :    0.008983
   3 N :   -0.086857
   4 C :    0.007427
   5 C :   -0.048430
   6 C :   -0.045644
   7 H :    0.028058
   8 H :    0.022100
   9 H :    0.021400
  10 H :    0.028452
  11 H :    0.015627
  12 H :    0.048565
  13 H :    0.016473
  14 H :    0.020127
  15 H :    0.019768

  Mayer bond orders larger than 0.1
B(  0-C ,  1-C ) :   1.1350 B(  0-C ,  4-C ) :   1.0500 B(  0-C ,  7-H ) :   0.9023
B(  0-C ,  8-H ) :   0.9175 B(  1-C ,  2-C ) :   1.0485 B(  1-C ,  9-H ) :   0.9161
B(  1-C , 10-H ) :   0.9057 B(  2-C ,  3-N ) :   1.0202 B(  2-C ,  6-C ) :   0.9423
B(  2-C , 11-H ) :   0.9534 B(  3-N ,  4-C ) :   1.0227 B(  3-N , 12-H ) :   0.9441
B(  4-C ,  5-C ) :   0.9394 B(  4-C , 13-H ) :   0.9535 B(  5-C ,  6-C ) :   1.7989
B(  5-C , 14-H ) :   1.0063 B(  6-C , 15-H ) :   1.0032

FINAL SINGLE POINT ENERGY      -288.170486859086

DIPOLE MOMENT
-------------
                                X             Y             Z
Electronic contribution:     -1.78951      -0.99367      -1.28279
Nuclear contribution   :      1.67228       0.77494       1.52933
                        -----------------------------------------
Total Dipole Moment    :     -0.11723      -0.21873       0.24654
                        -----------------------------------------
Magnitude (a.u.)       :      0.34981
Magnitude (Debye)      :      0.88915

                             ****ORCA TERMINATED NORMALLY****
TOTAL RUN TIME: 0 days 0 hours 0 minutes 7 seconds 333 msec
