                         Program Version 3.0.3 - RELEASE   -
|  1> ! RI PBE def2-SVP def2-SVP/J NBO PAL2
|  2> % maxcore 2000
|  3> % output
|  4>     # printlevel mini
|  5>     print[ P_Basis ] 0
|  6>     print[ P_SCFInfo ] 1
|  7>     print[ P_SCFIterInfo ] 1
|  8>     print[ P_OrbEn ] 0
|  9>     print[ P_Cartesian ] 0
| 10> end
| 11> *xyz 0 1
| 12>  C       -0.3203610000    -0.9148560000     1.1909630000
| 13>  C        0.7811160000    -1.3257200000     0.1884630000
| 14>  C        0.8757330000    -0.0621150000    -0.7040000000
| 15>  N        0.6782030000     0.9694260000     0.3252710000
| 16>  C       -0.6684480000     0.5139070000     0.7014370000
| 17>  C       -1.3670750000     0.3341160000    -0.6355190000
| 18>  C       -0.4177920000    -0.0199280000    -1.4995000000
| 19>  H        0.0691650000    -0.8747920000     2.2089820000
| 20>  H       -1.1876320000    -1.5758400000     1.1778800000
| 21>  H        0.5327970000    -2.2176240000    -0.3877900000
| 22>  H        1.7317350000    -1.4947850000     0.6958510000
| 23>  H        1.8058310000     0.0406020000    -1.2612510000
| 24>  H        0.6028120000     1.8763140000    -0.1292580000
| 25>  H       -1.1604170000     1.1471010000     1.4384530000
| 26>  H       -2.4377920000     0.3498310000    -0.7955580000
| 27>  H       -0.5421940000    -0.3571470000    -2.5208240000
| 28> *
| 29>
| 30>                          ****END OF INPUT****
 Total Charge           Charge          ....    0
 Multiplicity           Mult            ....    1
 Number of Electrons    NEL             ....   52
 Basis Dimension        Dim             ....  143

MULLIKEN ATOMIC CHARGES
-----------------------
   0 C :    0.107818
   1 C :    0.132317
   2 C :   -0.070336
   3 N :   -0.169379
   4 C :   -0.075677
   5 C :   -0.013285
   6 C :   -0.007346
   7 H :    0.013960
   8 H :    0.007578
   9 H :    0.001051
  10 H :    0.009224
  11 H :   -0.003895
  12 H :    0.089713
  13 H :    0.000498
  14 H :   -0.008966
  15 H :   -0.013275
Sum of atomic charges:   -0.0000000

LOEWDIN ATOMIC CHARGES
----------------------
   0 C :   -0.029461
   1 C :   -0.026761
   2 C :    0.009847
   3 N :   -0.087164
   4 C :    0.008244
   5 C :   -0.047886
   6 C :   -0.046380
   7 H :    0.028829
   8 H :    0.022280
   9 H :    0.021289
  10 H :    0.027668
  11 H :    0.015252
  12 H :    0.048417
  13 H :    0.015994
  14 H :    0.020186
  15 H :    0.019647

  Mayer bond orders larger than 0.1
B(  0-C ,  1-C ) :   1.1328 B(  0-C ,  4-C ) :   1.0525 B(  0-C ,  7-H ) :   0.9034
B(  0-C ,  8-H ) :   0.9188 B(  1-C ,  2-C ) :   1.0473 B(  1-C ,  9-H ) :   0.9164
B(  1-C , 10-H ) :   0.9054 B(  2-C ,  3-N ) :   1.0198 B(  2-C ,  6-C ) :   0.9396
B(  2-C , 11-H ) :   0.9541 B(  3-N ,  4-C ) :   1.0196 B(  3-N , 12-H ) :   0.9442
B(  4-C ,  5-C ) :   0.9382 B(  4-C , 13-H ) :   0.9530 B(  5-C ,  6-C ) :   1.8012
B(  5-C , 14-H ) :   1.0059 B(  6-C , 15-H ) :   1.0030

FINAL SINGLE POINT ENERGY      -288.170484957669

DIPOLE MOMENT
-------------
                                X             Y             Z
Electronic contribution:     -0.09693       2.19302      -1.00677
Nuclear contribution   :     -0.14570      -2.26391       0.76780
                        -----------------------------------------
Total Dipole Moment    :     -0.24263      -0.07089      -0.23897
                        -----------------------------------------
Magnitude (a.u.)       :      0.34786
Magnitude (Debye)      :      0.88418

                             ****ORCA TERMINATED NORMALLY****
TOTAL RUN TIME: 0 days 0 hours 0 minutes 7 seconds 338 msec
