                         Program Version 3.0.3 - RELEASE   -
|  1> ! RI PBE def2-SVP def2-SVP/J NBO PAL2
|  2> % maxcore 2000
|  3> % output
|  4>     # printlevel mini
|  5>     print[ P_Basis ] 0
|  6>     print[ P_SCFInfo ] 1
|  7>     print[ P_SCFIterInfo ] 1
|  8>     print[ P_OrbEn ] 0
|  9>     print[ P_Cartesian ] 0
| 10> end
| 11> *xyz 0 1
| 12>  C       -1.5187010000     0.7619130000     0.1208410000
| 13>  C       -1.3827590000    -0.7433510000    -0.1000470000
| 14>  C        0.0072320000    -1.2568200000     0.2132050000
| 15>  N        1.0714040000    -1.1316820000    -0.7855500000
| 16>  C        1.1207890000    -0.2991850000     0.4072590000
| 17>  C        0.8398510000     1.1831210000     0.3195580000
| 18>  N       -0.3921310000     1.5418470000    -0.3532670000
| 19>  H       -1.6123370000     0.9616480000     1.1947450000
| 20>  H       -2.4330520000     1.1365360000    -0.3471120000
| 21>  H       -1.6343070000    -0.9950330000    -1.1379360000
| 22>  H       -2.1124130000    -1.2706190000     0.5219520000
| 23>  H        0.0462140000    -2.2018670000     0.7470760000
| 24>  H        0.7272920000    -0.5871120000    -1.5727020000
| 25>  H        1.9233530000    -0.5646620000     1.0914520000
| 26>  H        1.6724010000     1.6926340000    -0.1763900000
| 27>  H        0.7962610000     1.5802110000     1.3417170000
| 28>  H       -0.2991880000     1.4785110000    -1.3593010000
| 29> *
| 30>
| 31>                          ****END OF INPUT****
 Total Charge           Charge          ....    0
 Multiplicity           Mult            ....    1
 Number of Electrons    NEL             ....   54
 Basis Dimension        Dim             ....  148

MULLIKEN ATOMIC CHARGES
-----------------------
   0 C :    0.086859
   1 C :    0.070653
   2 C :   -0.086908
   3 N :   -0.152977
   4 C :   -0.109240
   5 C :    0.185048
   6 N :   -0.253362
   7 H :    0.009085
   8 H :    0.005828
   9 H :    0.008216
  10 H :    0.008413
  11 H :    0.019464
  12 H :    0.074270
  13 H :    0.018253
  14 H :    0.014646
  15 H :    0.008137
  16 H :    0.093618
Sum of atomic charges:   -0.0000000

LOEWDIN ATOMIC CHARGES
----------------------
   0 C :    0.010512
   1 C :   -0.064747
   2 C :   -0.006404
   3 N :   -0.098051
   4 C :   -0.024766
   5 C :    0.003692
   6 N :   -0.091233
   7 H :    0.022913
   8 H :    0.021530
   9 H :    0.024321
  10 H :    0.032144
  11 H :    0.019503
  12 H :    0.031745
  13 H :    0.019579
  14 H :    0.026946
  15 H :    0.025191
  16 H :    0.047123

  Mayer bond orders larger than 0.1
B(  0-C ,  1-C ) :   1.0860 B(  0-C ,  6-N ) :   1.0781 B(  0-C ,  7-H ) :   0.9329
B(  0-C ,  8-H ) :   0.9377 B(  1-C ,  2-C ) :   1.0511 B(  1-C ,  9-H ) :   0.9085
B(  1-C , 10-H ) :   0.9144 B(  2-C ,  3-N ) :   0.9884 B(  2-C ,  4-C ) :   1.0327
B(  2-C , 11-H ) :   0.9371 B(  3-N ,  4-C ) :   0.9935 B(  3-N , 12-H ) :   0.9471
B(  4-C ,  5-C ) :   1.0054 B(  4-C , 13-H ) :   0.9273 B(  5-C ,  6-N ) :   1.0900
B(  5-C , 14-H ) :   0.9329 B(  5-C , 15-H ) :   0.9235 B(  6-N , 16-H ) :   0.9487

FINAL SINGLE POINT ENERGY      -305.388507938716

DIPOLE MOMENT
-------------
                                X             Y             Z
Electronic contribution:      1.86751      -0.69066      -0.68678
Nuclear contribution   :     -2.29635       0.89524       0.67132
                        -----------------------------------------
Total Dipole Moment    :     -0.42884       0.20457      -0.01546
                        -----------------------------------------
Magnitude (a.u.)       :      0.47539
Magnitude (Debye)      :      1.20835

                             ****ORCA TERMINATED NORMALLY****
TOTAL RUN TIME: 0 days 0 hours 0 minutes 7 seconds 616 msec
