                         Program Version 3.0.3 - RELEASE   -
|  1> ! RI PBE def2-SVP def2-SVP/J NBO PAL2
|  2> % maxcore 2000
|  3> % output
|  4>     # printlevel mini
|  5>     print[ P_Basis ] 0
|  6>     print[ P_SCFInfo ] 1
|  7>     print[ P_SCFIterInfo ] 1
|  8>     print[ P_OrbEn ] 0
|  9>     print[ P_Cartesian ] 0
| 10> end
| 11> *xyz 0 1
| 12>  C       -1.7216150000     0.6446190000     0.3541120000
| 13>  N       -1.7405730000    -0.7374440000    -0.2544360000
| 14>  C       -0.2604910000    -0.7302400000     0.0145830000
| 15>  C        1.0442680000    -1.1063250000    -0.6447120000
| 16>  C        1.9286220000    -0.0052300000     0.0442620000
| 17>  N        1.0251900000     1.0891450000     0.5475360000
| 18>  C       -0.2346830000     0.7530210000    -0.0665130000
| 19>  H       -1.8653200000     0.5627440000     1.4334990000
| 20>  H       -2.4367040000     1.3510650000    -0.0699730000
| 21>  H       -1.8948490000    -0.6266500000    -1.2547440000
| 22>  H       -0.1818500000    -1.0110100000     1.0725160000
| 23>  H        1.0111060000    -0.9645730000    -1.7280630000
| 24>  H        1.4219090000    -2.1079080000    -0.4337790000
| 25>  H        2.6725520000     0.3818170000    -0.6578840000
| 26>  H        2.4704920000    -0.4362340000     0.8899670000
| 27>  H        1.3814170000     1.9923140000     0.2658940000
| 28>  H       -0.2670700000     1.0314990000    -1.1352630000
| 29> *
| 30>
| 31>                          ****END OF INPUT****
 Total Charge           Charge          ....    0
 Multiplicity           Mult            ....    1
 Number of Electrons    NEL             ....   54
 Basis Dimension        Dim             ....  148

MULLIKEN ATOMIC CHARGES
-----------------------
   0 C :    0.153789
   1 N :   -0.229859
   2 C :   -0.045292
   3 C :    0.064034
   4 C :    0.086353
   5 N :   -0.204940
   6 C :   -0.083845
   7 H :    0.016060
   8 H :    0.009442
   9 H :    0.094628
  10 H :    0.022648
  11 H :    0.002425
  12 H :    0.016508
  13 H :    0.005927
  14 H :    0.018358
  15 H :    0.091418
  16 H :   -0.017652
Sum of atomic charges:   -0.0000000

LOEWDIN ATOMIC CHARGES
----------------------
   0 C :    0.029338
   1 N :   -0.111953
   2 C :   -0.003801
   3 C :   -0.048196
   4 C :    0.033014
   5 N :   -0.109073
   6 C :   -0.023222
   7 H :    0.022139
   8 H :    0.011362
   9 H :    0.046621
  10 H :    0.026111
  11 H :    0.022797
  12 H :    0.025227
  13 H :    0.014672
  14 H :    0.018136
  15 H :    0.050443
  16 H :   -0.003616

  Mayer bond orders larger than 0.1
B(  0-C ,  1-N ) :   1.0271 B(  0-C ,  6-C ) :   1.0243 B(  0-C ,  7-H ) :   0.9215
B(  0-C ,  8-H ) :   0.9362 B(  1-N ,  2-C ) :   1.0250 B(  1-N ,  9-H ) :   0.9393
B(  2-C ,  3-C ) :   1.0821 B(  2-C ,  6-C ) :   1.0109 B(  2-C , 10-H ) :   0.9165
B(  3-C ,  4-C ) :   1.0632 B(  3-C , 11-H ) :   0.9169 B(  3-C , 12-H ) :   0.9330
B(  4-C ,  5-N ) :   1.0311 B(  4-C , 13-H ) :   0.9387 B(  4-C , 14-H ) :   0.9436
B(  5-N ,  6-C ) :   1.0770 B(  5-N , 15-H ) :   0.9389 B(  6-C , 16-H ) :   0.9084

FINAL SINGLE POINT ENERGY      -305.339362677670

DIPOLE MOMENT
-------------
                                X             Y             Z
Electronic contribution:     -1.54469       0.25244       0.75359
Nuclear contribution   :      2.03168       0.18670      -1.41018
                        -----------------------------------------
Total Dipole Moment    :      0.48699       0.43914      -0.65659
                        -----------------------------------------
Magnitude (a.u.)       :      0.92796
Magnitude (Debye)      :      2.35869

                             ****ORCA TERMINATED NORMALLY****
TOTAL RUN TIME: 0 days 0 hours 0 minutes 8 seconds 132 msec
