                         Program Version 3.0.3 - RELEASE   -
|  1> ! RI PBE def2-SVP def2-SVP/J NBO PAL2
|  2> % maxcore 2000
|  3> % output
|  4>     # printlevel mini
|  5>     print[ P_Basis ] 0
|  6>     print[ P_SCFInfo ] 1
|  7>     print[ P_SCFIterInfo ] 1
|  8>     print[ P_OrbEn ] 0
|  9>     print[ P_Cartesian ] 0
| 10> end
| 11> *xyz 0 1
| 12>  C        1.7845150000    -0.1797880000     0.2497740000
| 13>  C        0.8248410000    -1.3319720000     0.6297000000
| 14>  C       -0.2083720000    -0.8009320000    -0.3931060000
| 15>  N       -1.4897800000    -0.3877230000     0.1561460000
| 16>  C       -1.3701110000     0.8530190000     0.4122790000
| 17>  N       -0.1520720000     1.4478500000     0.1612250000
| 18>  C        0.6625000000     0.4837010000    -0.5646870000
| 19>  H        2.6080370000    -0.5087900000    -0.3876520000
| 20>  H        2.1904120000     0.4157810000     1.0690630000
| 21>  H        0.4417780000    -1.2666040000     1.6486870000
| 22>  H        1.1953820000    -2.3438780000     0.4609280000
| 23>  H       -0.3414210000    -1.4373300000    -1.2693650000
| 24>  H       -2.1664870000     1.4496460000     0.8489080000
| 25>  H       -0.1224320000     2.4227160000    -0.0874550000
| 26>  H        0.9185080000     0.8412830000    -1.5659150000
| 27> *
| 28>
| 29>                          ****END OF INPUT****
 Total Charge           Charge          ....    0
 Multiplicity           Mult            ....    1
 Number of Electrons    NEL             ....   52
 Basis Dimension        Dim             ....  138

MULLIKEN ATOMIC CHARGES
-----------------------
   0 C :    0.122418
   1 C :    0.127933
   2 C :   -0.131624
   3 N :   -0.152876
   4 C :    0.077767
   5 N :   -0.147801
   6 C :   -0.049618
   7 H :    0.010273
   8 H :   -0.010771
   9 H :    0.000632
  10 H :    0.012171
  11 H :    0.011969
  12 H :    0.012999
  13 H :    0.112545
  14 H :    0.003983
Sum of atomic charges:   -0.0000000

LOEWDIN ATOMIC CHARGES
----------------------
   0 C :   -0.039364
   1 C :   -0.030817
   2 C :    0.007324
   3 N :   -0.147364
   4 C :    0.023163
   5 N :   -0.028069
   6 C :    0.009637
   7 H :    0.024853
   8 H :    0.020150
   9 H :    0.028703
  10 H :    0.021497
  11 H :    0.017915
  12 H :    0.015587
  13 H :    0.068656
  14 H :    0.008129

  Mayer bond orders larger than 0.1
B(  0-C ,  1-C ) :   1.1969 B(  0-C ,  6-C ) :   1.1329 B(  0-C ,  7-H ) :   0.9212
B(  0-C ,  8-H ) :   0.8686 B(  1-C ,  2-C ) :   1.0896 B(  1-C ,  9-H ) :   0.8665
B(  1-C , 10-H ) :   0.9262 B(  2-C ,  3-N ) :   1.0941 B(  2-C ,  6-C ) :   1.0196
B(  2-C , 11-H ) :   0.9216 B(  3-N ,  4-C ) :   1.8261 B(  3-N ,  5-N ) :   0.1249
B(  4-C ,  5-N ) :   1.1495 B(  4-C , 12-H ) :   0.9585 B(  5-N ,  6-C ) :   1.0063
B(  5-N , 13-H ) :   0.9345 B(  6-C , 14-H ) :   0.9119

FINAL SINGLE POINT ENERGY      -304.203360293948

DIPOLE MOMENT
-------------
                                X             Y             Z
Electronic contribution:     -3.61746       1.44080      -0.26173
Nuclear contribution   :      4.25825      -0.60574      -0.04312
                        -----------------------------------------
Total Dipole Moment    :      0.64078       0.83506      -0.30485
                        -----------------------------------------
Magnitude (a.u.)       :      1.09584
Magnitude (Debye)      :      2.78540

                             ****ORCA TERMINATED NORMALLY****
TOTAL RUN TIME: 0 days 0 hours 0 minutes 7 seconds 364 msec
