                         Program Version 3.0.3 - RELEASE   -
|  1> ! RI PBE def2-SVP def2-SVP/J NBO PAL2
|  2> % maxcore 2000
|  3> % output
|  4>     # printlevel mini
|  5>     print[ P_Basis ] 0
|  6>     print[ P_SCFInfo ] 1
|  7>     print[ P_SCFIterInfo ] 1
|  8>     print[ P_OrbEn ] 0
|  9>     print[ P_Cartesian ] 0
| 10> end
| 11> *xyz 0 1
| 12>  C        1.7618140000     0.1349790000    -1.1688380000
| 13>  C        2.3527100000    -0.0003060000     0.2886590000
| 14>  C        2.8943180000    -1.3526220000    -0.1509610000
| 15>  C        2.3808050000    -1.2218310000    -1.3986250000
| 16>  N        2.6970560000    -2.3207160000    -2.1023960000
| 17>  N        3.4102070000    -3.1734890000    -1.3400420000
| 18>  C        3.5414910000    -2.6015340000    -0.1457950000
| 19>  H        2.1782410000     0.9564610000    -1.7557910000
| 20>  H        0.6715920000     0.1778490000    -1.2172000000
| 21>  H        1.5947180000    -0.0213990000     1.0742980000
| 22>  H        3.0999780000     0.7563560000     0.5362070000
| 23>  H        2.4929500000    -2.5813500000    -3.0503370000
| 24>  H        4.0878210000    -3.1267980000     0.6234220000
| 25> *
| 26>
| 27>                          ****END OF INPUT****
 Total Charge           Charge          ....    0
 Multiplicity           Mult            ....    1
 Number of Electrons    NEL             ....   50
 Basis Dimension        Dim             ....  128

MULLIKEN ATOMIC CHARGES
-----------------------
   0 C :    0.102590
   1 C :    0.096642
   2 C :   -0.141933
   3 C :   -0.078600
   4 N :   -0.019099
   5 N :   -0.133991
   6 C :   -0.044430
   7 H :    0.024040
   8 H :    0.029083
   9 H :    0.025765
  10 H :    0.022898
  11 H :    0.125778
  12 H :   -0.008743
Sum of atomic charges:   -0.0000000

LOEWDIN ATOMIC CHARGES
----------------------
   0 C :   -0.015837
   1 C :   -0.005918
   2 C :   -0.107366
   3 C :   -0.055902
   4 N :    0.126368
   5 N :   -0.100997
   6 C :   -0.056281
   7 H :    0.030682
   8 H :    0.031372
   9 H :    0.028485
  10 H :    0.028012
  11 H :    0.079144
  12 H :    0.018238

  Mayer bond orders larger than 0.1
B(  0-C ,  1-C ) :   1.1982 B(  0-C ,  3-C ) :   1.1476 B(  0-C ,  7-H ) :   0.8764
B(  0-C ,  8-H ) :   0.8788 B(  1-C ,  2-C ) :   1.1060 B(  1-C ,  9-H ) :   0.8879
B(  1-C , 10-H ) :   0.8870 B(  2-C ,  3-C ) :   1.4874 B(  2-C ,  6-C ) :   1.3175
B(  3-C ,  4-N ) :   1.2125 B(  3-C ,  5-N ) :   0.1184 B(  4-N ,  5-N ) :   1.1790
B(  4-N , 11-H ) :   0.9522 B(  5-N ,  6-C ) :   1.5855 B(  6-C , 12-H ) :   0.9956

FINAL SINGLE POINT ENERGY      -302.972289183336

DIPOLE MOMENT
-------------
                                X             Y             Z
Electronic contribution:      1.47662      -4.11259      -1.80379
Nuclear contribution   :     -2.00143       4.84045       1.39817
                        -----------------------------------------
Total Dipole Moment    :     -0.52481       0.72786      -0.40562
                        -----------------------------------------
Magnitude (a.u.)       :      0.98475
Magnitude (Debye)      :      2.50304

                             ****ORCA TERMINATED NORMALLY****
TOTAL RUN TIME: 0 days 0 hours 0 minutes 6 seconds 760 msec
