                         Program Version 3.0.3 - RELEASE   -
|  1> ! RI PBE def2-SVP def2-SVP/J NBO PAL2
|  2> % maxcore 2000
|  3> % output
|  4>     # printlevel mini
|  5>     print[ P_Basis ] 0
|  6>     print[ P_SCFInfo ] 1
|  7>     print[ P_SCFIterInfo ] 1
|  8>     print[ P_OrbEn ] 0
|  9>     print[ P_Cartesian ] 0
| 10> end
| 11> *xyz 0 1
| 12>  C       -0.3249200000    -0.9579530000    -0.5857100000
| 13>  N        1.0042910000    -1.2065070000    -1.1377740000
| 14>  C        0.8635250000    -0.3172470000     0.0106150000
| 15>  C        1.4819800000    -0.7528270000     1.3034270000
| 16>  C        0.8040670000    -0.3488390000     2.6308060000
| 17>  C        1.2317390000    -1.7111750000     3.2071740000
| 18>  C        1.4019770000    -2.2213350000     1.7628760000
| 19>  H       -0.7851100000    -1.8150470000    -0.1061740000
| 20>  H       -1.0140400000    -0.3288870000    -1.1407570000
| 21>  H        1.1420270000    -0.6800250000    -1.9925470000
| 22>  H        0.9558560000     0.7506910000    -0.1847360000
| 23>  H        2.5297160000    -0.4317420000     1.3163600000
| 24>  H       -0.2808940000    -0.2918940000     2.5066470000
| 25>  H        1.1485480000     0.5576800000     3.1316550000
| 26>  H        0.5269170000    -2.2350530000     3.8544360000
| 27>  H        2.1919200000    -1.6423090000     3.7234040000
| 28>  H        0.4923930000    -2.7061160000     1.4026140000
| 29>  H        2.2496890000    -2.8675040000     1.5356640000
| 30> *
| 31>
| 32>                          ****END OF INPUT****
 Total Charge           Charge          ....    0
 Multiplicity           Mult            ....    1
 Number of Electrons    NEL             ....   54
 Basis Dimension        Dim             ....  153

MULLIKEN ATOMIC CHARGES
-----------------------
   0 C :    0.035972
   1 N :   -0.195520
   2 C :   -0.074621
   3 C :   -0.066713
   4 C :    0.040370
   5 C :   -0.030270
   6 C :    0.045287
   7 H :    0.027941
   8 H :    0.027096
   9 H :    0.105503
  10 H :    0.016112
  11 H :    0.000872
  12 H :    0.007800
  13 H :    0.007063
  14 H :    0.011056
  15 H :    0.017514
  16 H :    0.005418
  17 H :    0.019122
Sum of atomic charges:    0.0000000

LOEWDIN ATOMIC CHARGES
----------------------
   0 C :   -0.004186
   1 N :   -0.105356
   2 C :   -0.010738
   3 C :   -0.035914
   4 C :   -0.029871
   5 C :   -0.036705
   6 C :   -0.024499
   7 H :    0.014852
   8 H :    0.014860
   9 H :    0.054664
  10 H :    0.015274
  11 H :    0.027667
  12 H :    0.023049
  13 H :    0.013531
  14 H :    0.015877
  15 H :    0.024249
  16 H :    0.023360
  17 H :    0.019887

  Mayer bond orders larger than 0.1
B(  0-C ,  1-N ) :   1.0025 B(  0-C ,  2-C ) :   1.0609 B(  0-C ,  7-H ) :   0.9306
B(  0-C ,  8-H ) :   0.9433 B(  1-N ,  2-C ) :   0.9901 B(  1-N ,  9-H ) :   0.9438
B(  2-C ,  3-C ) :   1.0152 B(  2-C , 10-H ) :   0.9411 B(  3-C ,  4-C ) :   1.0815
B(  3-C ,  6-C ) :   1.0887 B(  3-C , 11-H ) :   0.8956 B(  4-C ,  5-C ) :   1.1258
B(  4-C , 12-H ) :   0.9205 B(  4-C , 13-H ) :   0.9353 B(  5-C ,  6-C ) :   1.1180
B(  5-C , 14-H ) :   0.9342 B(  5-C , 15-H ) :   0.9324 B(  6-C , 16-H ) :   0.9146
B(  6-C , 17-H ) :   0.9299

FINAL SINGLE POINT ENERGY      -289.341350962265

DIPOLE MOMENT
-------------
                                X             Y             Z
Electronic contribution:      0.66123       0.39384      -2.83234
Nuclear contribution   :     -0.84663       0.12755       2.72923
                        -----------------------------------------
Total Dipole Moment    :     -0.18539       0.52140      -0.10311
                        -----------------------------------------
Magnitude (a.u.)       :      0.56290
Magnitude (Debye)      :      1.43078

                             ****ORCA TERMINATED NORMALLY****
TOTAL RUN TIME: 0 days 0 hours 0 minutes 7 seconds 827 msec
