                         Program Version 3.0.3 - RELEASE   -
|  1> ! RI PBE def2-SVP def2-SVP/J NBO PAL2
|  2> % maxcore 2000
|  3> % output
|  4>     # printlevel mini
|  5>     print[ P_Basis ] 0
|  6>     print[ P_SCFInfo ] 1
|  7>     print[ P_SCFIterInfo ] 1
|  8>     print[ P_OrbEn ] 0
|  9>     print[ P_Cartesian ] 0
| 10> end
| 11> *xyz 0 1
| 12>  C        0.3432700000    -1.7587390000    -1.0947700000
| 13>  C        0.6638350000    -0.3182160000    -1.0023140000
| 14>  N        0.1515120000    -1.0369040000     0.1475030000
| 15>  C        1.1060880000    -1.3161570000     1.1886140000
| 16>  C        1.1981040000    -0.3102060000     2.3474730000
| 17>  C        1.3532120000    -1.5070340000     3.3061790000
| 18>  C        0.7330880000    -2.3996940000     2.2133960000
| 19>  H        1.1816570000    -2.4492680000    -1.1529110000
| 20>  H       -0.5605150000    -2.0896190000    -1.5944650000
| 21>  H       -0.0016800000     0.4216150000    -1.4332940000
| 22>  H        1.7166750000    -0.0450550000    -0.9986020000
| 23>  H        2.1113500000    -1.5134300000     0.7764320000
| 24>  H        0.2331280000     0.1834340000     2.4810960000
| 25>  H        1.9873710000     0.4426440000     2.3175560000
| 26>  H        0.8435230000    -1.4553510000     4.2684970000
| 27>  H        2.4029700000    -1.7518790000     3.4810630000
| 28>  H       -0.3533210000    -2.4516980000     2.3120060000
| 29>  H        1.1309310000    -3.4056540000     2.0706200000
| 30> *
| 31>
| 32>                          ****END OF INPUT****
 Total Charge           Charge          ....    0
 Multiplicity           Mult            ....    1
 Number of Electrons    NEL             ....   54
 Basis Dimension        Dim             ....  153

MULLIKEN ATOMIC CHARGES
-----------------------
   0 C :    0.027637
   1 C :    0.039647
   2 N :   -0.230730
   3 C :   -0.127656
   4 C :    0.076203
   5 C :   -0.035748
   6 C :    0.083178
   7 H :    0.026806
   8 H :    0.036405
   9 H :    0.037020
  10 H :    0.021138
  11 H :   -0.021488
  12 H :    0.007167
  13 H :    0.016085
  14 H :    0.011549
  15 H :    0.014908
  16 H :    0.008728
  17 H :    0.009149
Sum of atomic charges:   -0.0000000

LOEWDIN ATOMIC CHARGES
----------------------
   0 C :    0.002403
   1 C :    0.004895
   2 N :   -0.105490
   3 C :    0.005366
   4 C :   -0.036196
   5 C :   -0.032657
   6 C :   -0.034897
   7 H :    0.013666
   8 H :    0.021187
   9 H :    0.021349
  10 H :    0.012609
  11 H :    0.000543
  12 H :    0.028097
  13 H :    0.015797
  14 H :    0.017788
  15 H :    0.022713
  16 H :    0.028338
  17 H :    0.014488

  Mayer bond orders larger than 0.1
B(  0-C ,  1-C ) :   1.0976 B(  0-C ,  2-N ) :   0.9555 B(  0-C ,  7-H ) :   0.9311
B(  0-C ,  8-H ) :   0.9499 B(  1-C ,  2-N ) :   0.9555 B(  1-C ,  9-H ) :   0.9499
B(  1-C , 10-H ) :   0.9310 B(  2-N ,  3-C ) :   1.0756 B(  3-C ,  4-C ) :   1.0776
B(  3-C ,  6-C ) :   1.0780 B(  3-C , 11-H ) :   0.8835 B(  4-C ,  5-C ) :   1.1252
B(  4-C , 12-H ) :   0.8985 B(  4-C , 13-H ) :   0.9340 B(  5-C ,  6-C ) :   1.1230
B(  5-C , 14-H ) :   0.9329 B(  5-C , 15-H ) :   0.9375 B(  6-C , 16-H ) :   0.8999
B(  6-C , 17-H ) :   0.9335

FINAL SINGLE POINT ENERGY      -289.337462326652

DIPOLE MOMENT
-------------
                                X             Y             Z
Electronic contribution:     -1.42135       0.41504      -1.48472
Nuclear contribution   :      1.77137      -0.47828       1.31058
                        -----------------------------------------
Total Dipole Moment    :      0.35003      -0.06325      -0.17414
                        -----------------------------------------
Magnitude (a.u.)       :      0.39603
Magnitude (Debye)      :      1.00664

                             ****ORCA TERMINATED NORMALLY****
TOTAL RUN TIME: 0 days 0 hours 0 minutes 7 seconds 445 msec
