                         Program Version 3.0.3 - RELEASE   -
|  1> ! RI PBE def2-SVP def2-SVP/J NBO PAL2
|  2> % maxcore 2000
|  3> % output
|  4>     # printlevel mini
|  5>     print[ P_Basis ] 0
|  6>     print[ P_SCFInfo ] 1
|  7>     print[ P_SCFIterInfo ] 1
|  8>     print[ P_OrbEn ] 0
|  9>     print[ P_Cartesian ] 0
| 10> end
| 11> *xyz 0 1
| 12>  C        1.8682180000     0.0788820000    -0.7480770000
| 13>  N        1.7716050000    -0.1856210000     0.6886870000
| 14>  C        0.5507150000    -0.0121750000    -0.0937780000
| 15>  C       -0.3346690000     1.2108920000     0.1293830000
| 16>  C       -1.7487140000     0.7266380000    -0.1906180000
| 17>  C       -1.7226510000    -0.7393050000     0.2357000000
| 18>  C       -0.3615830000    -1.2199530000    -0.2626730000
| 19>  H        2.2361440000    -0.7533070000    -1.3410190000
| 20>  H        2.2101300000     1.0563570000    -1.0762170000
| 21>  H        1.9719330000     0.6633310000     1.2084080000
| 22>  H       -0.0272150000     2.0726480000    -0.4672810000
| 23>  H       -0.2805320000     1.5060370000     1.1840870000
| 24>  H       -1.9324970000     0.7922570000    -1.2682740000
| 25>  H       -2.5227270000     1.3123150000     0.3096050000
| 26>  H       -2.5576140000    -1.3197970000    -0.1618460000
| 27>  H       -1.7673360000    -0.8054500000     1.3280980000
| 28>  H       -0.4296170000    -1.4860920000    -1.3229760000
| 29>  H        0.0290100000    -2.0855470000     0.2741920000
| 30> *
| 31>
| 32>                          ****END OF INPUT****
 Total Charge           Charge          ....    0
 Multiplicity           Mult            ....    1
 Number of Electrons    NEL             ....   54
 Basis Dimension        Dim             ....  153

MULLIKEN ATOMIC CHARGES
-----------------------
   0 C :    0.078004
   1 N :   -0.170148
   2 C :   -0.355202
   3 C :    0.141901
   4 C :   -0.023199
   5 C :   -0.026821
   6 C :    0.159311
   7 H :    0.023247
   8 H :    0.019892
   9 H :    0.099418
  10 H :    0.001810
  11 H :    0.001770
  12 H :    0.014174
  13 H :    0.007102
  14 H :    0.005703
  15 H :    0.019423
  16 H :    0.002587
  17 H :    0.001029
Sum of atomic charges:    0.0000000

LOEWDIN ATOMIC CHARGES
----------------------
   0 C :    0.004574
   1 N :   -0.100256
   2 C :   -0.032120
   3 C :   -0.038276
   4 C :   -0.039147
   5 C :   -0.040974
   6 C :   -0.032560
   7 H :    0.017722
   8 H :    0.012341
   9 H :    0.048823
  10 H :    0.024601
  11 H :    0.026169
  12 H :    0.023930
  13 H :    0.022865
  14 H :    0.022212
  15 H :    0.025108
  16 H :    0.025658
  17 H :    0.029328

  Mayer bond orders larger than 0.1
B(  0-C ,  1-N ) :   1.0144 B(  0-C ,  2-C ) :   1.0391 B(  0-C ,  7-H ) :   0.9341
B(  0-C ,  8-H ) :   0.9410 B(  1-N ,  2-C ) :   0.9879 B(  1-N ,  9-H ) :   0.9433
B(  2-C ,  3-C ) :   1.0411 B(  2-C ,  6-C ) :   1.0442 B(  3-C ,  4-C ) :   1.1087
B(  3-C , 10-H ) :   0.9219 B(  3-C , 11-H ) :   0.9035 B(  4-C ,  5-C ) :   1.0915
B(  4-C , 12-H ) :   0.9355 B(  4-C , 13-H ) :   0.9315 B(  5-C ,  6-C ) :   1.1083
B(  5-C , 14-H ) :   0.9316 B(  5-C , 15-H ) :   0.9360 B(  6-C , 16-H ) :   0.9194
B(  6-C , 17-H ) :   0.9089

FINAL SINGLE POINT ENERGY      -289.373725496228

DIPOLE MOMENT
-------------
                                X             Y             Z
Electronic contribution:      2.69128      -0.47517       0.74114
Nuclear contribution   :     -2.94690       1.00966      -0.94217
                        -----------------------------------------
Total Dipole Moment    :     -0.25562       0.53449      -0.20104
                        -----------------------------------------
Magnitude (a.u.)       :      0.62565
Magnitude (Debye)      :      1.59027

                             ****ORCA TERMINATED NORMALLY****
TOTAL RUN TIME: 0 days 0 hours 0 minutes 8 seconds 166 msec
