                         Program Version 3.0.3 - RELEASE   -
|  1> ! RI PBE def2-SVP def2-SVP/J NBO PAL2
|  2> % maxcore 2000
|  3> % output
|  4>     # printlevel mini
|  5>     print[ P_Basis ] 0
|  6>     print[ P_SCFInfo ] 1
|  7>     print[ P_SCFIterInfo ] 1
|  8>     print[ P_OrbEn ] 0
|  9>     print[ P_Cartesian ] 0
| 10> end
| 11> *xyz 0 1
| 12>  C       -1.0244410000    -0.0438890000     1.0896340000
| 13>  C       -0.6508880000     1.0048930000     0.0257340000
| 14>  C        0.8505400000     1.2675850000     0.0027830000
| 15>  C        1.5904000000    -0.0394350000     0.0122020000
| 16>  C        0.8902670000    -1.1672770000     0.0012250000
| 17>  C       -0.6096420000    -1.0334110000    -0.0182980000
| 18>  N       -0.9456000000     0.0053450000    -1.0537260000
| 19>  H       -2.1027790000    -0.0562450000     1.2646360000
| 20>  H       -0.4844130000    -0.0665630000     2.0390540000
| 21>  H       -1.2267030000     1.9316200000    -0.0230690000
| 22>  H        1.1433000000     1.8825040000     0.8627750000
| 23>  H        1.1076310000     1.8414470000    -0.8949310000
| 24>  H        2.6756200000    -0.0347600000     0.0209200000
| 25>  H        1.3559160000    -2.1463970000     0.0120640000
| 26>  H       -1.1306040000    -1.9860540000    -0.1174130000
| 27>  H       -1.9566140000    -0.0101530000    -1.1714000000
| 28> *
| 29>
| 30>                          ****END OF INPUT****
 Total Charge           Charge          ....    0
 Multiplicity           Mult            ....    1
 Number of Electrons    NEL             ....   52
 Basis Dimension        Dim             ....  143

MULLIKEN ATOMIC CHARGES
-----------------------
   0 C :    0.086108
   1 C :   -0.151420
   2 C :    0.228740
   3 C :   -0.150233
   4 C :    0.107102
   5 C :   -0.068800
   6 N :   -0.164126
   7 H :    0.003796
   8 H :    0.014833
   9 H :   -0.002636
  10 H :    0.018599
  11 H :    0.025632
  12 H :   -0.004367
  13 H :   -0.023542
  14 H :   -0.009410
  15 H :    0.089724
Sum of atomic charges:   -0.0000000

LOEWDIN ATOMIC CHARGES
----------------------
   0 C :   -0.036760
   1 C :    0.021849
   2 C :   -0.040751
   3 C :   -0.027553
   4 C :   -0.040127
   5 C :    0.019623
   6 N :   -0.111493
   7 H :    0.019818
   8 H :    0.013443
   9 H :    0.010031
  10 H :    0.032503
  11 H :    0.037598
  12 H :    0.022778
  13 H :    0.021897
  14 H :    0.010748
  15 H :    0.046394

  Mayer bond orders larger than 0.1
B(  0-C ,  1-C ) :   1.0238 B(  0-C ,  5-C ) :   1.0144 B(  0-C ,  7-H ) :   0.9143
B(  0-C ,  8-H ) :   0.9388 B(  1-C ,  2-C ) :   1.0141 B(  1-C ,  6-N ) :   1.0030
B(  1-C ,  9-H ) :   0.9233 B(  2-C ,  3-C ) :   1.0152 B(  2-C , 10-H ) :   0.9158
B(  2-C , 11-H ) :   0.9020 B(  3-C ,  4-C ) :   1.8721 B(  3-C , 12-H ) :   0.9661
B(  4-C ,  5-C ) :   0.9500 B(  4-C , 13-H ) :   0.9863 B(  5-C ,  6-N ) :   0.9902
B(  5-C , 14-H ) :   0.9318 B(  6-N , 15-H ) :   0.9382

FINAL SINGLE POINT ENERGY      -288.148757507900

DIPOLE MOMENT
-------------
                                X             Y             Z
Electronic contribution:      0.14514      -1.06846      -1.38150
Nuclear contribution   :     -0.46996       1.15596       1.80853
                        -----------------------------------------
Total Dipole Moment    :     -0.32482       0.08750       0.42703
                        -----------------------------------------
Magnitude (a.u.)       :      0.54362
Magnitude (Debye)      :      1.38177

                             ****ORCA TERMINATED NORMALLY****
TOTAL RUN TIME: 0 days 0 hours 0 minutes 7 seconds 743 msec
