                         Program Version 3.0.3 - RELEASE   -
|  1> ! RI PBE def2-SVP def2-SVP/J NBO PAL2
|  2> % maxcore 2000
|  3> % output
|  4>     # printlevel mini
|  5>     print[ P_Basis ] 0
|  6>     print[ P_SCFInfo ] 1
|  7>     print[ P_SCFIterInfo ] 1
|  8>     print[ P_OrbEn ] 0
|  9>     print[ P_Cartesian ] 0
| 10> end
| 11> *xyz 0 1
| 12>  C       -0.9692480000    -0.0375460000     1.0480030000
| 13>  C       -0.6025990000    -1.1107420000     0.0064640000
| 14>  C       -1.0199640000    -0.0177970000    -0.9946660000
| 15>  N       -0.6694140000     1.0162050000     0.0286870000
| 16>  C        0.7793650000     1.2356350000    -0.0051630000
| 17>  C        1.5708350000    -0.0459120000    -0.0372050000
| 18>  C        0.9014650000    -1.1940490000    -0.0316810000
| 19>  H       -0.3737270000     0.0090900000     1.9621950000
| 20>  H       -2.0344510000    -0.0097830000     1.2904260000
| 21>  H       -1.1051650000    -2.0788560000     0.0095820000
| 22>  H       -2.0958700000     0.0141410000    -1.1833540000
| 23>  H       -0.4705180000     0.0467830000    -1.9362100000
| 24>  H        1.0562320000     1.8366290000     0.8691970000
| 25>  H        1.0127940000     1.8535530000    -0.8804000000
| 26>  H        2.6553140000    -0.0039470000    -0.0637330000
| 27>  H        1.3984600000    -2.1579850000    -0.0533420000
| 28> *
| 29>
| 30>                          ****END OF INPUT****
 Total Charge           Charge          ....    0
 Multiplicity           Mult            ....    1
 Number of Electrons    NEL             ....   52
 Basis Dimension        Dim             ....  143

MULLIKEN ATOMIC CHARGES
-----------------------
   0 C :    0.183986
   1 C :   -0.207330
   2 C :    0.183041
   3 N :   -0.334628
   4 C :    0.170345
   5 C :   -0.147764
   6 C :    0.063274
   7 H :    0.016899
   8 H :    0.014849
   9 H :   -0.008760
  10 H :    0.015674
  11 H :    0.016750
  12 H :    0.025326
  13 H :    0.025520
  14 H :   -0.002147
  15 H :   -0.015037
Sum of atomic charges:   -0.0000000

LOEWDIN ATOMIC CHARGES
----------------------
   0 C :    0.043295
   1 C :   -0.051445
   2 C :    0.043172
   3 N :   -0.130613
   4 C :    0.005936
   5 C :   -0.058467
   6 C :   -0.036632
   7 H :    0.012845
   8 H :    0.018612
   9 H :    0.013151
  10 H :    0.018759
  11 H :    0.012866
  12 H :    0.030807
  13 H :    0.030820
  14 H :    0.023119
  15 H :    0.023775

  Mayer bond orders larger than 0.1
B(  0-C ,  1-C ) :   1.0120 B(  0-C ,  3-N ) :   0.9798 B(  0-C ,  7-H ) :   0.9417
B(  0-C ,  8-H ) :   0.9371 B(  1-C ,  2-C ) :   1.0123 B(  1-C ,  6-C ) :   0.9652
B(  1-C ,  9-H ) :   0.9254 B(  2-C ,  3-N ) :   0.9794 B(  2-C , 10-H ) :   0.9371
B(  2-C , 11-H ) :   0.9415 B(  3-N ,  4-C ) :   1.0435 B(  4-C ,  5-C ) :   1.0028
B(  4-C , 12-H ) :   0.9255 B(  4-C , 13-H ) :   0.9255 B(  5-C ,  6-C ) :   1.8705
B(  5-C , 14-H ) :   0.9646 B(  6-C , 15-H ) :   0.9889

FINAL SINGLE POINT ENERGY      -288.139126615646

DIPOLE MOMENT
-------------
                                X             Y             Z
Electronic contribution:      0.02118       0.05120      -0.00073
Nuclear contribution   :      0.16171      -0.42621      -0.00814
                        -----------------------------------------
Total Dipole Moment    :      0.18290      -0.37501      -0.00887
                        -----------------------------------------
Magnitude (a.u.)       :      0.41733
Magnitude (Debye)      :      1.06077

                             ****ORCA TERMINATED NORMALLY****
TOTAL RUN TIME: 0 days 0 hours 0 minutes 7 seconds 786 msec
