                         Program Version 3.0.3 - RELEASE   -
|  1> ! RI PBE def2-SVP def2-SVP/J NBO PAL2
|  2> % maxcore 2000
|  3> % output
|  4>     # printlevel mini
|  5>     print[ P_Basis ] 0
|  6>     print[ P_SCFInfo ] 1
|  7>     print[ P_SCFIterInfo ] 1
|  8>     print[ P_OrbEn ] 0
|  9>     print[ P_Cartesian ] 0
| 10> end
| 11> *xyz 0 1
| 12>  C       -1.4977020000     0.7711190000    -0.0546000000
| 13>  C       -1.4832780000    -0.7807650000     0.0557020000
| 14>  C       -0.1831620000    -1.4386190000     0.6118830000
| 15>  C        0.8304540000    -0.6785770000    -0.1871360000
| 16>  N        2.0967900000     0.0126260000     0.0701850000
| 17>  C        0.8255920000     0.7359510000     0.1933400000
| 18>  C       -0.2156250000     1.4502380000    -0.6243490000
| 19>  H       -1.6597280000     1.1862520000     0.9464190000
| 20>  H       -2.3721400000     1.0625860000    -0.6441620000
| 21>  H       -1.6496450000    -1.1970180000    -0.9445740000
| 22>  H       -2.3470000000    -1.0869770000     0.6531830000
| 23>  H       -0.2118430000    -2.5193580000     0.4398340000
| 24>  H       -0.0665460000    -1.2673450000     1.6846210000
| 25>  H        0.6450670000    -0.8181720000    -1.2531700000
| 26>  H        2.5653240000     0.1508890000    -0.8198460000
| 27>  H        0.6466600000     0.9027750000     1.2542980000
| 28>  H       -0.1025740000     1.2643940000    -1.6961880000
| 29>  H       -0.2699440000     2.5330910000    -0.4725380000
| 30> *
| 31>
| 32>                          ****END OF INPUT****
 Total Charge           Charge          ....    0
 Multiplicity           Mult            ....    1
 Number of Electrons    NEL             ....   54
 Basis Dimension        Dim             ....  153

MULLIKEN ATOMIC CHARGES
-----------------------
   0 C :   -0.043475
   1 C :   -0.048528
   2 C :    0.094436
   3 C :   -0.096566
   4 N :   -0.127995
   5 C :   -0.080046
   6 C :    0.090087
   7 H :    0.013237
   8 H :    0.009047
   9 H :    0.009607
  10 H :    0.010325
  11 H :    0.011643
  12 H :    0.012049
  13 H :    0.004236
  14 H :    0.109656
  15 H :    0.014127
  16 H :    0.004941
  17 H :    0.013219
Sum of atomic charges:    0.0000000

LOEWDIN ATOMIC CHARGES
----------------------
   0 C :   -0.034935
   1 C :   -0.036176
   2 C :   -0.038317
   3 C :   -0.020756
   4 N :   -0.080277
   5 C :   -0.033525
   6 C :   -0.042225
   7 H :    0.025525
   8 H :    0.026577
   9 H :    0.023591
  10 H :    0.026962
  11 H :    0.021573
  12 H :    0.028645
  13 H :    0.009402
  14 H :    0.059658
  15 H :    0.019937
  16 H :    0.023394
  17 H :    0.020945

  Mayer bond orders larger than 0.1
B(  0-C ,  1-C ) :   1.1052 B(  0-C ,  6-C ) :   1.0614 B(  0-C ,  7-H ) :   0.9317
B(  0-C ,  8-H ) :   0.9235 B(  1-C ,  2-C ) :   1.0671 B(  1-C ,  9-H ) :   0.9320
B(  1-C , 10-H ) :   0.9247 B(  2-C ,  3-C ) :   1.0549 B(  2-C , 11-H ) :   0.9219
B(  2-C , 12-H ) :   0.9225 B(  3-C ,  4-N ) :   1.0065 B(  3-C ,  5-C ) :   0.9750
B(  3-C , 13-H ) :   0.9297 B(  4-N ,  5-C ) :   1.0427 B(  4-N , 14-H ) :   0.9251
B(  5-C ,  6-C ) :   1.0192 B(  5-C , 15-H ) :   0.9284 B(  6-C , 16-H ) :   0.9253
B(  6-C , 17-H ) :   0.9229

FINAL SINGLE POINT ENERGY      -289.329566349866

DIPOLE MOMENT
-------------
                                X             Y             Z
Electronic contribution:      4.39951      -0.01798       0.33237
Nuclear contribution   :     -4.91707       0.08097      -0.80566
                        -----------------------------------------
Total Dipole Moment    :     -0.51756       0.06299      -0.47329
                        -----------------------------------------
Magnitude (a.u.)       :      0.70416
Magnitude (Debye)      :      1.78983

                             ****ORCA TERMINATED NORMALLY****
TOTAL RUN TIME: 0 days 0 hours 0 minutes 8 seconds 29 msec
