                         Program Version 3.0.3 - RELEASE   -
|  1> ! RI PBE def2-SVP def2-SVP/J NBO PAL2
|  2> % maxcore 2000
|  3> % output
|  4>     # printlevel mini
|  5>     print[ P_Basis ] 0
|  6>     print[ P_SCFInfo ] 1
|  7>     print[ P_SCFIterInfo ] 1
|  8>     print[ P_OrbEn ] 0
|  9>     print[ P_Cartesian ] 0
| 10> end
| 11> *xyz 0 1
| 12>  C       -0.0813410000     1.4423810000     0.5739950000
| 13>  C       -1.4052580000     0.7341060000     0.2776820000
| 14>  C       -1.5281260000    -0.4935170000    -0.2537780000
| 15>  C       -0.3686260000    -1.4422200000    -0.5666220000
| 16>  C        0.7336380000    -0.8115460000     0.2406780000
| 17>  N        2.0594120000    -0.2061400000     0.0895630000
| 18>  C        0.8637620000     0.5815260000    -0.2055100000
| 19>  H        0.1288850000     1.4500070000     1.6485190000
| 20>  H       -0.1300600000     2.4852380000     0.2422280000
| 21>  H       -2.3165390000     1.2909240000     0.4799640000
| 22>  H       -2.5320500000    -0.8667410000    -0.4396480000
| 23>  H       -0.1644170000    -1.4672930000    -1.6431160000
| 24>  H       -0.6228540000    -2.4629750000    -0.2617600000
| 25>  H        0.5258380000    -0.9121810000     1.3032840000
| 26>  H        2.5202310000    -0.4230570000    -0.7886300000
| 27>  H        0.6764140000     0.6889680000    -1.2735480000
| 28> *
| 29>
| 30>                          ****END OF INPUT****
 Total Charge           Charge          ....    0
 Multiplicity           Mult            ....    1
 Number of Electrons    NEL             ....   52
 Basis Dimension        Dim             ....  143

MULLIKEN ATOMIC CHARGES
-----------------------
   0 C :    0.186178
   1 C :   -0.108127
   2 C :   -0.099691
   3 C :    0.182009
   4 C :   -0.118482
   5 N :   -0.116837
   6 C :   -0.145105
   7 H :    0.025320
   8 H :    0.010001
   9 H :   -0.004873
  10 H :   -0.009357
  11 H :    0.019566
  12 H :    0.007010
  13 H :    0.035315
  14 H :    0.110246
  15 H :    0.026827
Sum of atomic charges:    0.0000000

LOEWDIN ATOMIC CHARGES
----------------------
   0 C :   -0.038265
   1 C :   -0.035214
   2 C :   -0.038875
   3 C :   -0.040773
   4 C :   -0.031552
   5 N :   -0.075861
   6 C :   -0.019117
   7 H :    0.040707
   8 H :    0.028635
   9 H :    0.024461
  10 H :    0.023057
  11 H :    0.035192
  12 H :    0.027494
  13 H :    0.024819
  14 H :    0.060341
  15 H :    0.014952

  Mayer bond orders larger than 0.1
B(  0-C ,  1-C ) :   1.0112 B(  0-C ,  6-C ) :   1.0621 B(  0-C ,  7-H ) :   0.8965
B(  0-C ,  8-H ) :   0.9052 B(  1-C ,  2-C ) :   1.9359 B(  1-C ,  9-H ) :   0.9442
B(  2-C ,  3-C ) :   0.9987 B(  2-C , 10-H ) :   0.9441 B(  3-C ,  4-C ) :   1.0218
B(  3-C , 11-H ) :   0.9051 B(  3-C , 12-H ) :   0.9053 B(  4-C ,  5-N ) :   1.0454
B(  4-C ,  6-C ) :   0.9259 B(  4-C , 13-H ) :   0.9521 B(  5-N ,  6-C ) :   1.0156
B(  5-N , 14-H ) :   0.9226 B(  6-C , 15-H ) :   0.9514

FINAL SINGLE POINT ENERGY      -288.112074313872

DIPOLE MOMENT
-------------
                                X             Y             Z
Electronic contribution:      1.88007      -0.09998       0.32781
Nuclear contribution   :     -2.27017       0.05957      -0.80360
                        -----------------------------------------
Total Dipole Moment    :     -0.39010      -0.04041      -0.47580
                        -----------------------------------------
Magnitude (a.u.)       :      0.61660
Magnitude (Debye)      :      1.56727

                             ****ORCA TERMINATED NORMALLY****
TOTAL RUN TIME: 0 days 0 hours 0 minutes 7 seconds 682 msec
