                         Program Version 3.0.3 - RELEASE   -
|  1> ! RI PBE def2-SVP def2-SVP/J NBO PAL2
|  2> % maxcore 2000
|  3> % output
|  4>     # printlevel mini
|  5>     print[ P_Basis ] 0
|  6>     print[ P_SCFInfo ] 1
|  7>     print[ P_SCFIterInfo ] 1
|  8>     print[ P_OrbEn ] 0
|  9>     print[ P_Cartesian ] 0
| 10> end
| 11> *xyz 0 1
| 12>  C        0.8747990000    -1.0974260000     0.4763940000
| 13>  C       -0.4902210000    -1.6268570000     0.0474820000
| 14>  C       -1.5172300000    -0.5937900000    -0.2896330000
| 15>  C       -1.4279920000     0.7260340000    -0.1580530000
| 16>  C       -0.2726940000     1.4886030000     0.4292140000
| 17>  C        1.0821100000     1.2649420000    -0.2378980000
| 18>  N        1.3852400000    -0.1376600000    -0.4812450000
| 19>  H        1.5677610000    -1.9423990000     0.5165060000
| 20>  H        0.8250690000    -0.7024440000     1.5020350000
| 21>  H       -0.8876670000    -2.2976630000     0.8217330000
| 22>  H       -0.3471370000    -2.2530280000    -0.8419950000
| 23>  H       -2.4377990000    -0.9900880000    -0.7133160000
| 24>  H       -2.2823930000     1.3171220000    -0.4767800000
| 25>  H       -0.1936090000     1.2568660000     1.4961250000
| 26>  H       -0.4827560000     2.5600390000     0.3830420000
| 27>  H        1.8381730000     1.7533540000     0.3989380000
| 28>  H        1.0976330000     1.7850690000    -1.2023650000
| 29>  H        2.3769140000    -0.2562650000    -0.6207940000
| 30> *
| 31>
| 32>                          ****END OF INPUT****
 Total Charge           Charge          ....    0
 Multiplicity           Mult            ....    1
 Number of Electrons    NEL             ....   54
 Basis Dimension        Dim             ....  153

MULLIKEN ATOMIC CHARGES
-----------------------
   0 C :    0.047140
   1 C :    0.086899
   2 C :   -0.069603
   3 C :   -0.084109
   4 C :   -0.005103
   5 C :    0.129467
   6 N :   -0.235716
   7 H :    0.002851
   8 H :   -0.006542
   9 H :    0.009732
  10 H :    0.012637
  11 H :   -0.010639
  12 H :   -0.011519
  13 H :    0.031826
  14 H :    0.013264
  15 H :   -0.008225
  16 H :    0.000291
  17 H :    0.097350
Sum of atomic charges:    0.0000000

LOEWDIN ATOMIC CHARGES
----------------------
   0 C :    0.007278
   1 C :   -0.055457
   2 C :   -0.036011
   3 C :   -0.054140
   4 C :   -0.060258
   5 C :    0.019121
   6 N :   -0.103300
   7 H :    0.023973
   8 H :    0.003214
   9 H :    0.030486
  10 H :    0.034082
  11 H :    0.024484
  12 H :    0.023471
  13 H :    0.032840
  14 H :    0.035211
  15 H :    0.002509
  16 H :    0.016698
  17 H :    0.055798

  Mayer bond orders larger than 0.1
B(  0-C ,  1-C ) :   1.0757 B(  0-C ,  6-N ) :   1.1109 B(  0-C ,  7-H ) :   0.9315
B(  0-C ,  8-H ) :   0.9192 B(  1-C ,  2-C ) :   1.0682 B(  1-C ,  9-H ) :   0.9063
B(  1-C , 10-H ) :   0.9002 B(  2-C ,  3-C ) :   1.9714 B(  2-C , 11-H ) :   0.9391
B(  3-C ,  4-C ) :   1.0376 B(  3-C , 12-H ) :   0.9434 B(  4-C ,  5-C ) :   1.0951
B(  4-C , 13-H ) :   0.9194 B(  4-C , 14-H ) :   0.9184 B(  5-C ,  6-N ) :   1.0627
B(  5-C , 15-H ) :   0.9259 B(  5-C , 16-H ) :   0.9300 B(  6-N , 17-H ) :   0.9492

FINAL SINGLE POINT ENERGY      -289.372280841059

DIPOLE MOMENT
-------------
                                X             Y             Z
Electronic contribution:     -0.70442      -0.18161      -1.16945
Nuclear contribution   :      1.07366       0.18961       1.42198
                        -----------------------------------------
Total Dipole Moment    :      0.36924       0.00800       0.25254
                        -----------------------------------------
Magnitude (a.u.)       :      0.44741
Magnitude (Debye)      :      1.13723

                             ****ORCA TERMINATED NORMALLY****
TOTAL RUN TIME: 0 days 0 hours 0 minutes 8 seconds 416 msec
