                         Program Version 3.0.3 - RELEASE   -
|  1> ! RI PBE def2-SVP def2-SVP/J NBO PAL2
|  2> % maxcore 2000
|  3> % output
|  4>     # printlevel mini
|  5>     print[ P_Basis ] 0
|  6>     print[ P_SCFInfo ] 1
|  7>     print[ P_SCFIterInfo ] 1
|  8>     print[ P_OrbEn ] 0
|  9>     print[ P_Cartesian ] 0
| 10> end
| 11> *xyz 0 1
| 12>  C       -1.3757720000     0.6695790000     0.1640090000
| 13>  C       -1.4922010000    -0.8082650000    -0.1661990000
| 14>  C       -0.2770300000    -1.5884920000     0.1864040000
| 15>  C        0.9516630000    -1.1019520000     0.4018740000
| 16>  C        1.4722040000     0.2469820000     0.2455740000
| 17>  N        0.9459150000     1.3226120000    -0.2184040000
| 18>  N       -0.3469650000     1.3673380000    -0.5822610000
| 19>  H       -1.1951660000     0.7812910000     1.2422130000
| 20>  H       -2.3197350000     1.1691510000    -0.0655380000
| 21>  H       -1.7295790000    -0.9251710000    -1.2288460000
| 22>  H       -2.3499910000    -1.2227900000     0.3788890000
| 23>  H       -0.4191070000    -2.6567630000     0.3265110000
| 24>  H        1.7135530000    -1.8171690000     0.7004300000
| 25>  H        2.5261150000     0.3628620000     0.4847250000
| 26>  H       -0.5920060000     2.3227290000    -0.7870600000
| 27> *
| 28>
| 29>                          ****END OF INPUT****
 Total Charge           Charge          ....    0
 Multiplicity           Mult            ....    1
 Number of Electrons    NEL             ....   52
 Basis Dimension        Dim             ....  138

MULLIKEN ATOMIC CHARGES
-----------------------
   0 C :    0.046844
   1 C :    0.106655
   2 C :   -0.107429
   3 C :    0.004165
   4 C :   -0.082994
   5 N :   -0.066036
   6 N :   -0.093947
   7 H :    0.032041
   8 H :    0.005176
   9 H :    0.030670
  10 H :    0.009985
  11 H :   -0.000258
  12 H :   -0.007295
  13 H :    0.001619
  14 H :    0.120805
Sum of atomic charges:   -0.0000000

LOEWDIN ATOMIC CHARGES
----------------------
   0 C :    0.007210
   1 C :   -0.051856
   2 C :   -0.039975
   3 C :   -0.077349
   4 C :   -0.083109
   5 N :   -0.048120
   6 N :    0.015150
   7 H :    0.023641
   8 H :    0.027698
   9 H :    0.041604
  10 H :    0.036009
  11 H :    0.027203
  12 H :    0.033751
  13 H :    0.022272
  14 H :    0.065870

  Mayer bond orders larger than 0.1
B(  0-C ,  1-C ) :   1.0869 B(  0-C ,  6-N ) :   1.0253 B(  0-C ,  7-H ) :   0.9318
B(  0-C ,  8-H ) :   0.9255 B(  1-C ,  2-C ) :   1.0758 B(  1-C ,  9-H ) :   0.8977
B(  1-C , 10-H ) :   0.9032 B(  2-C ,  3-C ) :   1.8129 B(  2-C , 11-H ) :   0.9444
B(  3-C ,  4-C ) :   1.1042 B(  3-C , 12-H ) :   0.9368 B(  4-C ,  5-N ) :   1.8355
B(  4-C ,  6-N ) :   0.1000 B(  4-C , 13-H ) :   0.9500 B(  5-N ,  6-N ) :   1.1316
B(  6-N , 14-H ) :   0.9440

FINAL SINGLE POINT ENERGY      -304.187025211329

DIPOLE MOMENT
-------------
                                X             Y             Z
Electronic contribution:      2.85955       2.11702      -0.86038
Nuclear contribution   :     -3.72734      -2.21280       0.99490
                        -----------------------------------------
Total Dipole Moment    :     -0.86778      -0.09578       0.13452
                        -----------------------------------------
Magnitude (a.u.)       :      0.88336
Magnitude (Debye)      :      2.24531

                             ****ORCA TERMINATED NORMALLY****
TOTAL RUN TIME: 0 days 0 hours 0 minutes 7 seconds 201 msec
