                         Program Version 3.0.3 - RELEASE   -
|  1> ! RI PBE def2-SVP def2-SVP/J NBO PAL2
|  2> % maxcore 2000
|  3> % output
|  4>     # printlevel mini
|  5>     print[ P_Basis ] 0
|  6>     print[ P_SCFInfo ] 1
|  7>     print[ P_SCFIterInfo ] 1
|  8>     print[ P_OrbEn ] 0
|  9>     print[ P_Cartesian ] 0
| 10> end
| 11> *xyz 0 1
| 12>  C        2.0137460000    -0.2412360000    -0.0582360000
| 13>  C        0.6855520000    -0.8663910000     0.2068740000
| 14>  C       -0.4534190000    -1.5252700000    -0.5099810000
| 15>  C       -1.5948360000    -0.5636370000    -0.2008800000
| 16>  C       -1.4299600000     0.6781050000     0.2702130000
| 17>  C       -0.0735590000     1.3388970000     0.4419120000
| 18>  N        0.7958750000     0.4737250000    -0.2972990000
| 19>  H        2.5914140000    -0.4362180000    -0.9568880000
| 20>  H        2.6116090000    -0.0524240000     0.8356300000
| 21>  H        0.5165180000    -0.9103510000     1.2905810000
| 22>  H       -0.6941180000    -2.5248010000    -0.1328780000
| 23>  H       -0.2830090000    -1.6022050000    -1.5879590000
| 24>  H       -2.6072650000    -0.9369040000    -0.3279070000
| 25>  H       -2.3052630000     1.2724440000     0.5146980000
| 26>  H        0.1809490000     1.4376770000     1.5135040000
| 27>  H       -0.0896440000     2.3468780000     0.0130350000
| 28> *
| 29>
| 30>                          ****END OF INPUT****
 Total Charge           Charge          ....    0
 Multiplicity           Mult            ....    1
 Number of Electrons    NEL             ....   52
 Basis Dimension        Dim             ....  143

MULLIKEN ATOMIC CHARGES
-----------------------
   0 C :    0.113807
   1 C :   -0.114787
   2 C :    0.243297
   3 C :   -0.118566
   4 C :   -0.106399
   5 C :    0.237362
   6 N :   -0.320023
   7 H :    0.026120
   8 H :    0.008479
   9 H :    0.002812
  10 H :   -0.000114
  11 H :    0.021773
  12 H :   -0.006609
  13 H :   -0.001976
  14 H :   -0.001146
  15 H :    0.015971
Sum of atomic charges:   -0.0000000

LOEWDIN ATOMIC CHARGES
----------------------
   0 C :    0.023948
   1 C :   -0.011859
   2 C :   -0.037466
   3 C :   -0.033838
   4 C :   -0.047611
   5 C :    0.020467
   6 N :   -0.112237
   7 H :    0.023187
   8 H :    0.013859
   9 H :    0.006593
  10 H :    0.027014
  11 H :    0.039941
  12 H :    0.023771
  13 H :    0.025531
  14 H :    0.011731
  15 H :    0.026970

  Mayer bond orders larger than 0.1
B(  0-C ,  1-C ) :   1.0626 B(  0-C ,  6-N ) :   1.0100 B(  0-C ,  7-H ) :   0.9332
B(  0-C ,  8-H ) :   0.9035 B(  1-C ,  2-C ) :   1.0807 B(  1-C ,  6-N ) :   0.8231
B(  1-C ,  9-H ) :   0.9072 B(  2-C ,  3-C ) :   1.0114 B(  2-C , 10-H ) :   0.9031
B(  2-C , 11-H ) :   0.8887 B(  3-C ,  4-C ) :   1.9513 B(  3-C , 12-H ) :   0.9524
B(  4-C ,  5-C ) :   1.0088 B(  4-C , 13-H ) :   0.9490 B(  5-C ,  6-N ) :   0.9997
B(  5-C , 14-H ) :   0.8927 B(  5-C , 15-H ) :   0.9174

FINAL SINGLE POINT ENERGY      -288.118770268508

DIPOLE MOMENT
-------------
                                X             Y             Z
Electronic contribution:      0.16990       0.50546      -0.91934
Nuclear contribution   :     -0.14320      -0.52168       1.19426
                        -----------------------------------------
Total Dipole Moment    :      0.02670      -0.01622       0.27493
                        -----------------------------------------
Magnitude (a.u.)       :      0.27670
Magnitude (Debye)      :      0.70331

                             ****ORCA TERMINATED NORMALLY****
TOTAL RUN TIME: 0 days 0 hours 0 minutes 7 seconds 900 msec
