                         Program Version 3.0.3 - RELEASE   -
|  1> ! RI PBE def2-SVP def2-SVP/J NBO PAL2
|  2> % maxcore 2000
|  3> % output
|  4>     # printlevel mini
|  5>     print[ P_Basis ] 0
|  6>     print[ P_SCFInfo ] 1
|  7>     print[ P_SCFIterInfo ] 1
|  8>     print[ P_OrbEn ] 0
|  9>     print[ P_Cartesian ] 0
| 10> end
| 11> *xyz 0 1
| 12>  C       -1.5425740000     0.7581040000     0.1111100000
| 13>  C       -1.5323150000    -0.7490280000    -0.1031200000
| 14>  C       -0.2913670000    -1.4814210000     0.3983670000
| 15>  C        0.9656260000    -1.1936490000    -0.4119790000
| 16>  N        1.6986410000    -0.0153930000     0.0214670000
| 17>  C        0.9585030000     1.1867350000     0.3674290000
| 18>  C       -0.3194490000     1.5022100000    -0.4126740000
| 19>  H       -1.6289150000     0.9669590000     1.1853420000
| 20>  H       -2.4469340000     1.1695440000    -0.3496630000
| 21>  H       -1.6387890000    -0.9598970000    -1.1749330000
| 22>  H       -2.4200640000    -1.1743240000     0.3770750000
| 23>  H       -0.4862340000    -2.5565240000     0.3395480000
| 24>  H       -0.1070150000    -1.2634530000     1.4564670000
| 25>  H        0.6686500000    -1.1453250000    -1.4743630000
| 26>  H        1.6504030000    -2.0439600000    -0.3253940000
| 27>  H        2.4096910000     0.2031200000    -0.6610310000
| 28>  H        1.6609410000     2.0188480000     0.2673150000
| 29>  H        0.6957940000     1.1534280000     1.4337970000
| 30>  H       -0.1704710000     1.3038690000    -1.4811230000
| 31>  H       -0.5103310000     2.5773700000    -0.3256280000
| 32> *
| 33>
| 34>                          ****END OF INPUT****
 Total Charge           Charge          ....    0
 Multiplicity           Mult            ....    1
 Number of Electrons    NEL             ....   56
 Basis Dimension        Dim             ....  163

MULLIKEN ATOMIC CHARGES
-----------------------
   0 C :    0.002571
   1 C :    0.004437
   2 C :   -0.047333
   3 C :    0.109621
   4 N :   -0.242241
   5 C :    0.075672
   6 C :   -0.017878
   7 H :    0.001401
   8 H :    0.000977
   9 H :   -0.000021
  10 H :    0.001813
  11 H :    0.014345
  12 H :    0.014448
  13 H :   -0.024574
  14 H :    0.004659
  15 H :    0.096628
  16 H :    0.005377
  17 H :   -0.006484
  18 H :   -0.001389
  19 H :    0.007970
Sum of atomic charges:   -0.0000000

LOEWDIN ATOMIC CHARGES
----------------------
   0 C :   -0.044056
   1 C :   -0.043864
   2 C :   -0.052360
   3 C :    0.006617
   4 N :   -0.105318
   5 C :    0.000477
   6 C :   -0.064637
   7 H :    0.021093
   8 H :    0.023406
   9 H :    0.020111
  10 H :    0.024210
  11 H :    0.031687
  12 H :    0.027236
  13 H :   -0.003758
  14 H :    0.020333
  15 H :    0.053262
  16 H :    0.024168
  17 H :    0.012115
  18 H :    0.020714
  19 H :    0.028563

  Mayer bond orders larger than 0.1
B(  0-C ,  1-C ) :   1.1092 B(  0-C ,  6-C ) :   1.1104 B(  0-C ,  7-H ) :   0.9250
B(  0-C ,  8-H ) :   0.9252 B(  1-C ,  2-C ) :   1.1092 B(  1-C ,  9-H ) :   0.9245
B(  1-C , 10-H ) :   0.9238 B(  2-C ,  3-C ) :   1.1093 B(  2-C , 11-H ) :   0.9271
B(  2-C , 12-H ) :   0.9183 B(  3-C ,  4-N ) :   1.0725 B(  3-C , 13-H ) :   0.9126
B(  3-C , 14-H ) :   0.9309 B(  4-N ,  5-C ) :   1.1064 B(  4-N , 15-H ) :   0.9463
B(  5-C ,  6-C ) :   1.0650 B(  5-C , 16-H ) :   0.9415 B(  5-C , 17-H ) :   0.9253
B(  6-C , 18-H ) :   0.9156 B(  6-C , 19-H ) :   0.9181

FINAL SINGLE POINT ENERGY      -290.593418751469

DIPOLE MOMENT
-------------
                                X             Y             Z
Electronic contribution:      2.12575      -0.09402       0.24281
Nuclear contribution   :     -2.20630       0.19579      -0.55816
                        -----------------------------------------
Total Dipole Moment    :     -0.08055       0.10177      -0.31535
                        -----------------------------------------
Magnitude (a.u.)       :      0.34101
Magnitude (Debye)      :      0.86678

                             ****ORCA TERMINATED NORMALLY****
TOTAL RUN TIME: 0 days 0 hours 0 minutes 9 seconds 448 msec
