                         Program Version 3.0.3 - RELEASE   -
|  1> ! RI PBE def2-SVP def2-SVP/J NBO PAL2
|  2> % maxcore 2000
|  3> % output
|  4>     # printlevel mini
|  5>     print[ P_Basis ] 0
|  6>     print[ P_SCFInfo ] 1
|  7>     print[ P_SCFIterInfo ] 1
|  8>     print[ P_OrbEn ] 0
|  9>     print[ P_Cartesian ] 0
| 10> end
| 11> *xyz 0 1
| 12>  C       -1.4701500000     0.6741370000     0.2115880000
| 13>  C       -1.4224450000    -0.7868660000    -0.2369000000
| 14>  C       -0.2690930000    -1.5359310000     0.3408790000
| 15>  C        0.9907380000    -1.0877170000     0.4270270000
| 16>  N        1.5603690000     0.0838990000    -0.0365810000
| 17>  C        0.9249160000     1.1396000000    -0.3780430000
| 18>  N       -0.3891170000     1.4624920000    -0.3302180000
| 19>  H       -1.4672990000     0.7081960000     1.3056030000
| 20>  H       -2.4005530000     1.1392490000    -0.1251290000
| 21>  H       -1.4061060000    -0.8088430000    -1.3327240000
| 22>  H       -2.3576240000    -1.2665010000     0.0661540000
| 23>  H       -0.4673990000    -2.5226030000     0.7473790000
| 24>  H        1.7244780000    -1.7504120000     0.8798820000
| 25>  H        1.5237320000     1.9581450000    -0.7830340000
| 26>  H       -0.6174570000     2.3865870000    -0.6515840000
| 27> *
| 28>
| 29>                          ****END OF INPUT****
 Total Charge           Charge          ....    0
 Multiplicity           Mult            ....    1
 Number of Electrons    NEL             ....   52
 Basis Dimension        Dim             ....  138

MULLIKEN ATOMIC CHARGES
-----------------------
   0 C :    0.094219
   1 C :    0.043916
   2 C :   -0.102801
   3 C :    0.012217
   4 N :   -0.137012
   5 C :    0.021936
   6 N :   -0.125714
   7 H :    0.040653
   8 H :    0.003196
   9 H :    0.040913
  10 H :    0.005354
  11 H :   -0.014162
  12 H :   -0.005421
  13 H :    0.006920
  14 H :    0.115786
Sum of atomic charges:   -0.0000000

LOEWDIN ATOMIC CHARGES
----------------------
   0 C :    0.026037
   1 C :   -0.050990
   2 C :   -0.097061
   3 C :   -0.022800
   4 N :   -0.143443
   5 C :    0.023432
   6 N :    0.006332
   7 H :    0.026445
   8 H :    0.024754
   9 H :    0.038260
  10 H :    0.034231
  11 H :    0.023487
  12 H :    0.019704
  13 H :    0.015132
  14 H :    0.076480

  Mayer bond orders larger than 0.1
B(  0-C ,  1-C ) :   1.0703 B(  0-C ,  6-N ) :   1.0159 B(  0-C ,  7-H ) :   0.9449
B(  0-C ,  8-H ) :   0.9334 B(  1-C ,  2-C ) :   1.0739 B(  1-C ,  9-H ) :   0.9193
B(  1-C , 10-H ) :   0.9133 B(  2-C ,  3-C ) :   1.7940 B(  2-C , 11-H ) :   0.9374
B(  3-C ,  4-N ) :   1.2539 B(  3-C , 12-H ) :   0.9531 B(  4-N ,  5-C ) :   1.7987
B(  5-C ,  6-N ) :   1.2339 B(  5-C , 13-H ) :   0.9448 B(  6-N , 14-H ) :   0.9270

FINAL SINGLE POINT ENERGY      -304.213614550380

DIPOLE MOMENT
-------------
                                X             Y             Z
Electronic contribution:      3.59567       1.10437      -0.29935
Nuclear contribution   :     -4.80530      -0.31972       0.14890
                        -----------------------------------------
Total Dipole Moment    :     -1.20963       0.78465      -0.15045
                        -----------------------------------------
Magnitude (a.u.)       :      1.44967
Magnitude (Debye)      :      3.68476

                             ****ORCA TERMINATED NORMALLY****
TOTAL RUN TIME: 0 days 0 hours 0 minutes 7 seconds 667 msec
