                         Program Version 3.0.3 - RELEASE   -
|  1> ! RI PBE def2-SVP def2-SVP/J NBO PAL2
|  2> % maxcore 2000
|  3> % output
|  4>     # printlevel mini
|  5>     print[ P_Basis ] 0
|  6>     print[ P_SCFInfo ] 1
|  7>     print[ P_SCFIterInfo ] 1
|  8>     print[ P_OrbEn ] 0
|  9>     print[ P_Cartesian ] 0
| 10> end
| 11> *xyz 0 1
| 12>  C        0.9508460000    -1.3484490000     0.0317410000
| 13>  C       -0.5202780000    -1.5562890000     0.0229300000
| 14>  C       -1.4682560000    -0.6240840000     0.0011500000
| 15>  C       -1.3133880000     0.8261430000    -0.0190590000
| 16>  N       -0.3119390000     1.6176400000    -0.0232530000
| 17>  N        1.0269550000     1.2322550000    -0.0081860000
| 18>  C        1.4965380000     0.0533250000     0.0136150000
| 19>  H        1.3997320000    -1.8804650000    -0.8198460000
| 20>  H        1.3857440000    -1.8529800000     0.9069900000
| 21>  H       -0.8373300000    -2.5966190000     0.0360520000
| 22>  H       -2.5020310000    -0.9570820000    -0.0021490000
| 23>  H       -2.2618160000     1.3663420000    -0.0338450000
| 24>  H        2.5909130000     0.0536520000     0.0210690000
| 25> *
| 26>
| 27>                          ****END OF INPUT****
 Total Charge           Charge          ....    0
 Multiplicity           Mult            ....    1
 Number of Electrons    NEL             ....   50
 Basis Dimension        Dim             ....  128

MULLIKEN ATOMIC CHARGES
-----------------------
   0 C :    0.082524
   1 C :   -0.037852
   2 C :   -0.014729
   3 C :   -0.008875
   4 N :   -0.048407
   5 N :   -0.044990
   6 C :   -0.085923
   7 H :    0.046279
   8 H :    0.045586
   9 H :    0.014353
  10 H :   -0.001442
  11 H :    0.019165
  12 H :    0.034311
Sum of atomic charges:   -0.0000000

LOEWDIN ATOMIC CHARGES
----------------------
   0 C :   -0.074269
   1 C :    0.016298
   2 C :   -0.075804
   3 C :   -0.002146
   4 N :   -0.055292
   5 N :   -0.058099
   6 C :    0.015228
   7 H :    0.051861
   8 H :    0.051686
   9 H :    0.034974
  10 H :    0.036514
  11 H :    0.029579
  12 H :    0.029468

  Mayer bond orders larger than 0.1
B(  0-C ,  1-C ) :   1.0371 B(  0-C ,  6-C ) :   0.9730 B(  0-C ,  7-H ) :   0.8974
B(  0-C ,  8-H ) :   0.8973 B(  1-C ,  2-C ) :   1.8395 B(  1-C ,  9-H ) :   0.9432
B(  2-C ,  3-C ) :   1.0595 B(  2-C , 10-H ) :   0.9394 B(  3-C ,  4-N ) :   1.9299
B(  3-C , 11-H ) :   0.9453 B(  4-N ,  5-N ) :   0.9874 B(  5-N ,  6-C ) :   2.0349
B(  6-C , 12-H ) :   0.9426

FINAL SINGLE POINT ENERGY      -302.943248293941

DIPOLE MOMENT
-------------
                                X             Y             Z
Electronic contribution:     -0.05245       3.91235      -0.06057
Nuclear contribution   :     -0.17848      -5.61955       0.08499
                        -----------------------------------------
Total Dipole Moment    :     -0.23093      -1.70720       0.02442
                        -----------------------------------------
Magnitude (a.u.)       :      1.72292
Magnitude (Debye)      :      4.37932

                             ****ORCA TERMINATED NORMALLY****
TOTAL RUN TIME: 0 days 0 hours 0 minutes 6 seconds 363 msec
