                         Program Version 3.0.3 - RELEASE   -
|  1> ! RI PBE def2-SVP def2-SVP/J NBO PAL2
|  2> % maxcore 2000
|  3> % output
|  4>     # printlevel mini
|  5>     print[ P_Basis ] 0
|  6>     print[ P_SCFInfo ] 1
|  7>     print[ P_SCFIterInfo ] 1
|  8>     print[ P_OrbEn ] 0
|  9>     print[ P_Cartesian ] 0
| 10> end
| 11> *xyz 0 1
| 12>  C        1.7466150000    -0.1471120000    -0.0135260000
| 13>  C        0.8653860000    -1.2691700000     0.5214450000
| 14>  C       -0.4049600000    -1.4783280000    -0.2942470000
| 15>  C       -1.4636610000    -0.4266470000    -0.0743710000
| 16>  N       -1.3645020000     0.7885110000     0.2923740000
| 17>  N       -0.1478050000     1.3810540000     0.4666280000
| 18>  C        0.9274380000     1.0540780000    -0.4584110000
| 19>  H        2.3359050000    -0.5008270000    -0.8668690000
| 20>  H        2.4592380000     0.1537620000     0.7597790000
| 21>  H        0.5796170000    -1.0422390000     1.5523750000
| 22>  H        1.4365130000    -2.2013890000     0.5555520000
| 23>  H       -0.8590320000    -2.4353640000    -0.0183600000
| 24>  H       -0.1708270000    -1.5701490000    -1.3630910000
| 25>  H       -2.4943640000    -0.7617440000    -0.1769100000
| 26>  H       -0.3060550000     2.3736170000     0.5329330000
| 27>  H        1.5694360000     1.9346220000    -0.5441220000
| 28>  H        0.5002490000     0.8724320000    -1.4555090000
| 29> *
| 30>
| 31>                          ****END OF INPUT****
 Total Charge           Charge          ....    0
 Multiplicity           Mult            ....    1
 Number of Electrons    NEL             ....   54
 Basis Dimension        Dim             ....  148

MULLIKEN ATOMIC CHARGES
-----------------------
   0 C :    0.019245
   1 C :   -0.019280
   2 C :    0.016459
   3 C :   -0.116782
   4 N :   -0.090405
   5 N :   -0.103795
   6 C :    0.044618
   7 H :    0.008445
   8 H :    0.012679
   9 H :    0.031437
  10 H :    0.011489
  11 H :    0.010719
  12 H :    0.027193
  13 H :    0.008350
  14 H :    0.112818
  15 H :    0.015580
  16 H :    0.011231
Sum of atomic charges:   -0.0000000

LOEWDIN ATOMIC CHARGES
----------------------
   0 C :   -0.050853
   1 C :   -0.043271
   2 C :   -0.068345
   3 C :   -0.070004
   4 N :   -0.052438
   5 N :   -0.011795
   6 C :   -0.001114
   7 H :    0.025112
   8 H :    0.026456
   9 H :    0.031393
  10 H :    0.028060
  11 H :    0.035295
  12 H :    0.032414
  13 H :    0.017721
  14 H :    0.060629
  15 H :    0.026671
  16 H :    0.014069

  Mayer bond orders larger than 0.1
B(  0-C ,  1-C ) :   1.1091 B(  0-C ,  6-C ) :   1.1027 B(  0-C ,  7-H ) :   0.9276
B(  0-C ,  8-H ) :   0.9265 B(  1-C ,  2-C ) :   1.0972 B(  1-C ,  9-H ) :   0.9260
B(  1-C , 10-H ) :   0.9293 B(  2-C ,  3-C ) :   1.0023 B(  2-C , 11-H ) :   0.9158
B(  2-C , 12-H ) :   0.9246 B(  3-C ,  4-N ) :   1.9445 B(  3-C ,  5-N ) :   0.1117
B(  3-C , 13-H ) :   0.9592 B(  4-N ,  5-N ) :   1.0808 B(  5-N ,  6-C ) :   1.0484
B(  5-N , 14-H ) :   0.9480 B(  6-C , 15-H ) :   0.9362 B(  6-C , 16-H ) :   0.9146

FINAL SINGLE POINT ENERGY      -305.392455367939

DIPOLE MOMENT
-------------
                                X             Y             Z
Electronic contribution:     -3.68008       2.90745       1.17329
Nuclear contribution   :      4.34956      -2.96462      -1.50853
                        -----------------------------------------
Total Dipole Moment    :      0.66949      -0.05717      -0.33525
                        -----------------------------------------
Magnitude (a.u.)       :      0.75091
Magnitude (Debye)      :      1.90867

                             ****ORCA TERMINATED NORMALLY****
TOTAL RUN TIME: 0 days 0 hours 0 minutes 7 seconds 766 msec
