                         Program Version 3.0.3 - RELEASE   -
|  1> ! RI PBE def2-SVP def2-SVP/J NBO PAL2
|  2> % maxcore 2000
|  3> % output
|  4>     # printlevel mini
|  5>     print[ P_Basis ] 0
|  6>     print[ P_SCFInfo ] 1
|  7>     print[ P_SCFIterInfo ] 1
|  8>     print[ P_OrbEn ] 0
|  9>     print[ P_Cartesian ] 0
| 10> end
| 11> *xyz 0 1
| 12>  C       -0.2897130000    -1.3410580000    -0.2486120000
| 13>  C        0.9253570000    -1.1474600000    -1.1073840000
| 14>  C        0.7338220000    -0.3127890000     0.1194930000
| 15>  C        1.6393530000    -0.4583820000     1.3159940000
| 16>  C        0.9528450000    -0.2057260000     2.6767550000
| 17>  C        1.0126810000    -1.7270710000     2.8859750000
| 18>  N        1.9603290000    -1.8238620000     1.7658600000
| 19>  H       -0.3445570000    -2.2475630000     0.3431740000
| 20>  H       -1.2456610000    -1.0017030000    -0.6273940000
| 21>  H        0.8059700000    -0.6797900000    -2.0766030000
| 22>  H        1.6861740000    -1.9201850000    -1.0815980000
| 23>  H        0.4454460000     0.7197720000    -0.0599770000
| 24>  H        2.5402570000     0.1405930000     1.1361320000
| 25>  H       -0.0382430000     0.2452380000     2.6336270000
| 26>  H        1.5760750000     0.3508260000     3.3764280000
| 27>  H        0.0459870000    -2.2161570000     2.7161310000
| 28>  H        1.4162370000    -2.0798070000     3.8391450000
| 29>  H        1.8005530000    -2.5697680000     1.1004660000
| 30> *
| 31>
| 32>                          ****END OF INPUT****
 Total Charge           Charge          ....    0
 Multiplicity           Mult            ....    1
 Number of Electrons    NEL             ....   54
 Basis Dimension        Dim             ....  153

MULLIKEN ATOMIC CHARGES
-----------------------
   0 C :   -0.041817
   1 C :   -0.042354
   2 C :   -0.082733
   3 C :    0.032851
   4 C :   -0.006324
   5 C :    0.118969
   6 N :   -0.246576
   7 H :    0.024466
   8 H :    0.028986
   9 H :    0.032658
  10 H :    0.034777
  11 H :    0.018399
  12 H :    0.005494
  13 H :    0.009933
  14 H :    0.019609
  15 H :    0.004426
  16 H :    0.004491
  17 H :    0.084746
Sum of atomic charges:    0.0000000

LOEWDIN ATOMIC CHARGES
----------------------
   0 C :   -0.050280
   1 C :   -0.048027
   2 C :   -0.053797
   3 C :    0.024098
   4 C :   -0.035708
   5 C :    0.029857
   6 N :   -0.104689
   7 H :    0.019970
   8 H :    0.027425
   9 H :    0.027571
  10 H :    0.023704
  11 H :    0.029226
  12 H :    0.013564
  13 H :    0.020435
  14 H :    0.027149
  15 H :    0.002447
  16 H :    0.009098
  17 H :    0.037956

  Mayer bond orders larger than 0.1
B(  0-C ,  1-C ) :   1.0355 B(  0-C ,  2-C ) :   0.9962 B(  0-C ,  7-H ) :   0.9396
B(  0-C ,  8-H ) :   0.9433 B(  1-C ,  2-C ) :   0.9907 B(  1-C ,  9-H ) :   0.9450
B(  1-C , 10-H ) :   0.9479 B(  2-C ,  3-C ) :   1.0177 B(  2-C , 11-H ) :   0.9309
B(  3-C ,  4-C ) :   1.0862 B(  3-C ,  6-N ) :   1.0975 B(  3-C , 12-H ) :   0.9115
B(  4-C ,  5-C ) :   1.1215 B(  4-C , 13-H ) :   0.9362 B(  4-C , 14-H ) :   0.9160
B(  5-C ,  6-N ) :   1.0647 B(  5-C , 15-H ) :   0.9266 B(  5-C , 16-H ) :   0.9343
B(  6-N , 17-H ) :   0.9476

FINAL SINGLE POINT ENERGY      -289.340404239158

DIPOLE MOMENT
-------------
                                X             Y             Z
Electronic contribution:      1.62068       0.09729       0.25218
Nuclear contribution   :     -2.03623      -0.02378      -0.43019
                        -----------------------------------------
Total Dipole Moment    :     -0.41555       0.07351      -0.17801
                        -----------------------------------------
Magnitude (a.u.)       :      0.45801
Magnitude (Debye)      :      1.16418

                             ****ORCA TERMINATED NORMALLY****
TOTAL RUN TIME: 0 days 0 hours 0 minutes 7 seconds 929 msec
