                         Program Version 3.0.3 - RELEASE   -
|  1> ! RI PBE def2-SVP def2-SVP/J NBO PAL2
|  2> % maxcore 2000
|  3> % output
|  4>     # printlevel mini
|  5>     print[ P_Basis ] 0
|  6>     print[ P_SCFInfo ] 1
|  7>     print[ P_SCFIterInfo ] 1
|  8>     print[ P_OrbEn ] 0
|  9>     print[ P_Cartesian ] 0
| 10> end
| 11> *xyz 0 1
| 12>  C        0.2861190000    -1.2680370000    -1.0431440000
| 13>  N        0.8244980000     0.0729360000    -0.8325750000
| 14>  C        0.3978510000    -0.7112000000     0.3203670000
| 15>  C        1.4813510000    -1.1583160000     1.2559260000
| 16>  C        1.6805390000    -0.2463770000     2.4836230000
| 17>  C        0.8760990000    -1.2935020000     3.2704760000
| 18>  N        1.0937010000    -2.2482520000     2.1713380000
| 19>  H        1.0129260000    -2.0000030000    -1.3809010000
| 20>  H       -0.7035360000    -1.3729940000    -1.4763310000
| 21>  H        0.1327670000     0.7755810000    -1.0664740000
| 22>  H       -0.5363310000    -0.4237290000     0.8024060000
| 23>  H        2.3789530000    -1.3716950000     0.6660660000
| 24>  H        1.2677200000     0.7599010000     2.4149680000
| 25>  H        2.7220000000    -0.1876620000     2.7977830000
| 26>  H       -0.1703650000    -0.9981310000     3.4185630000
| 27>  H        1.2824980000    -1.6157250000     4.2328410000
| 28>  H        0.2882090000    -2.7905740000     1.8834470000
| 29> *
| 30>
| 31>                          ****END OF INPUT****
 Total Charge           Charge          ....    0
 Multiplicity           Mult            ....    1
 Number of Electrons    NEL             ....   54
 Basis Dimension        Dim             ....  148

MULLIKEN ATOMIC CHARGES
-----------------------
   0 C :    0.059412
   1 N :   -0.194763
   2 C :   -0.089944
   3 C :    0.051942
   4 C :    0.008229
   5 C :    0.117686
   6 N :   -0.236874
   7 H :    0.031763
   8 H :    0.027223
   9 H :    0.109050
  10 H :   -0.004814
  11 H :   -0.009025
  12 H :    0.012077
  13 H :    0.021713
  14 H :    0.002327
  15 H :    0.005771
  16 H :    0.088228
Sum of atomic charges:   -0.0000000

LOEWDIN ATOMIC CHARGES
----------------------
   0 C :    0.000261
   1 N :   -0.102838
   2 C :   -0.022938
   3 C :    0.016409
   4 C :   -0.033246
   5 C :    0.026275
   6 N :   -0.104613
   7 H :    0.020609
   8 H :    0.015023
   9 H :    0.056660
  10 H :    0.010904
  11 H :    0.014739
  12 H :    0.019427
  13 H :    0.029916
  14 H :    0.002159
  15 H :    0.009844
  16 H :    0.041410

  Mayer bond orders larger than 0.1
B(  0-C ,  1-N ) :   1.0174 B(  0-C ,  2-C ) :   1.0281 B(  0-C ,  7-H ) :   0.9359
B(  0-C ,  8-H ) :   0.9460 B(  1-N ,  2-C ) :   0.9478 B(  1-N ,  9-H ) :   0.9427
B(  2-C ,  3-C ) :   1.0024 B(  2-C , 10-H ) :   0.9314 B(  3-C ,  4-C ) :   1.0703
B(  3-C ,  6-N ) :   1.0750 B(  3-C , 11-H ) :   0.9022 B(  4-C ,  5-C ) :   1.1104
B(  4-C , 12-H ) :   0.9422 B(  4-C , 13-H ) :   0.9143 B(  5-C ,  6-N ) :   1.0538
B(  5-C , 14-H ) :   0.9315 B(  5-C , 15-H ) :   0.9329 B(  6-N , 16-H ) :   0.9499

FINAL SINGLE POINT ENERGY      -305.352394144596

DIPOLE MOMENT
-------------
                                X             Y             Z
Electronic contribution:      0.61994      -0.31002      -1.36674
Nuclear contribution   :     -1.52832       0.51557       1.33261
                        -----------------------------------------
Total Dipole Moment    :     -0.90838       0.20555      -0.03413
                        -----------------------------------------
Magnitude (a.u.)       :      0.93197
Magnitude (Debye)      :      2.36888

                             ****ORCA TERMINATED NORMALLY****
TOTAL RUN TIME: 0 days 0 hours 0 minutes 7 seconds 893 msec
