                         Program Version 3.0.3 - RELEASE   -
|  1> ! RI PBE def2-SVP def2-SVP/J NBO PAL2
|  2> % maxcore 2000
|  3> % output
|  4>     # printlevel mini
|  5>     print[ P_Basis ] 0
|  6>     print[ P_SCFInfo ] 1
|  7>     print[ P_SCFIterInfo ] 1
|  8>     print[ P_OrbEn ] 0
|  9>     print[ P_Cartesian ] 0
| 10> end
| 11> *xyz 0 1
| 12>  C       -1.7084920000     0.7932280000     0.4954050000
| 13>  C       -1.1285210000    -0.3179620000    -0.2874590000
| 14>  C       -0.3252820000    -1.4126640000     0.3669080000
| 15>  C        1.1007210000    -1.4029440000    -0.1926810000
| 16>  C        1.7029180000     0.0183340000    -0.2053400000
| 17>  C        0.7600130000     1.0444030000     0.4087450000
| 18>  N       -0.5137140000     1.0098110000    -0.2974570000
| 19>  H       -1.5970210000     0.7475870000     1.5772830000
| 20>  H       -2.6008330000     1.3057210000     0.1510320000
| 21>  H       -1.5993480000    -0.5832260000    -1.2316810000
| 22>  H       -0.7962040000    -2.3837930000     0.1963420000
| 23>  H       -0.3010660000    -1.2690130000     1.4504740000
| 24>  H        1.0826870000    -1.8035060000    -1.2099600000
| 25>  H        1.7259820000    -2.0833730000     0.3911070000
| 26>  H        1.9134750000     0.3259560000    -1.2329260000
| 27>  H        2.6558370000     0.0431740000     0.3291590000
| 28>  H        1.1796400000     2.0495060000     0.3155800000
| 29>  H        0.6404190000     0.8487510000     1.4847880000
| 30> *
| 31>
| 32>                          ****END OF INPUT****
 Total Charge           Charge          ....    0
 Multiplicity           Mult            ....    1
 Number of Electrons    NEL             ....   54
 Basis Dimension        Dim             ....  153

MULLIKEN ATOMIC CHARGES
-----------------------
   0 C :    0.085099
   1 C :   -0.110456
   2 C :    0.103187
   3 C :   -0.019014
   4 C :   -0.002828
   5 C :    0.110782
   6 N :   -0.277339
   7 H :    0.022389
   8 H :    0.024764
   9 H :    0.013524
  10 H :    0.012951
  11 H :   -0.006556
  12 H :    0.009089
  13 H :    0.010831
  14 H :    0.013950
  15 H :    0.009087
  16 H :    0.015146
  17 H :   -0.014608
Sum of atomic charges:   -0.0000000

LOEWDIN ATOMIC CHARGES
----------------------
   0 C :    0.007354
   1 C :   -0.002258
   2 C :   -0.048672
   3 C :   -0.041107
   4 C :   -0.047894
   5 C :    0.011679
   6 N :   -0.115861
   7 H :    0.011331
   8 H :    0.019013
   9 H :    0.016925
  10 H :    0.031433
  11 H :    0.025052
  12 H :    0.025907
  13 H :    0.025305
  14 H :    0.028373
  15 H :    0.027771
  16 H :    0.023099
  17 H :    0.002550

  Mayer bond orders larger than 0.1
B(  0-C ,  1-C ) :   1.0475 B(  0-C ,  6-N ) :   0.9865 B(  0-C ,  7-H ) :   0.9249
B(  0-C ,  8-H ) :   0.9407 B(  1-C ,  2-C ) :   1.0629 B(  1-C ,  6-N ) :   0.9324
B(  1-C ,  9-H ) :   0.9383 B(  2-C ,  3-C ) :   1.1288 B(  2-C , 10-H ) :   0.9283
B(  2-C , 11-H ) :   0.8923 B(  3-C ,  4-C ) :   1.0874 B(  3-C , 12-H ) :   0.9296
B(  3-C , 13-H ) :   0.9298 B(  4-C ,  5-C ) :   1.1422 B(  4-C , 14-H ) :   0.9198
B(  4-C , 15-H ) :   0.9295 B(  5-C ,  6-N ) :   1.0230 B(  5-C , 16-H ) :   0.9353
B(  5-C , 17-H ) :   0.9020

FINAL SINGLE POINT ENERGY      -289.365338254389

DIPOLE MOMENT
-------------
                                X             Y             Z
Electronic contribution:     -2.05061       1.81701      -1.19103
Nuclear contribution   :      2.16395      -2.19561       1.53963
                        -----------------------------------------
Total Dipole Moment    :      0.11334      -0.37861       0.34860
                        -----------------------------------------
Magnitude (a.u.)       :      0.52698
Magnitude (Debye)      :      1.33948

                             ****ORCA TERMINATED NORMALLY****
TOTAL RUN TIME: 0 days 0 hours 0 minutes 8 seconds 82 msec
