                         Program Version 3.0.3 - RELEASE   -
|  1> ! RI PBE def2-SVP def2-SVP/J NBO PAL2
|  2> % maxcore 2000
|  3> % output
|  4>     # printlevel mini
|  5>     print[ P_Basis ] 0
|  6>     print[ P_SCFInfo ] 1
|  7>     print[ P_SCFIterInfo ] 1
|  8>     print[ P_OrbEn ] 0
|  9>     print[ P_Cartesian ] 0
| 10> end
| 11> *xyz 0 1
| 12>  C        1.7365180000    -0.1308220000     0.0300050000
| 13>  C        0.8139970000    -1.2461590000     0.5217550000
| 14>  C       -0.4542270000    -1.4365430000    -0.3055950000
| 15>  N       -1.5340880000    -0.5051940000    -0.0256070000
| 16>  C       -1.3306840000     0.7116140000     0.2586850000
| 17>  N       -0.1617510000     1.4371010000     0.2944180000
| 18>  C        0.9726720000     1.0569420000    -0.5312020000
| 19>  H        2.3988070000    -0.5064570000    -0.7572330000
| 20>  H        2.3803050000     0.1976780000     0.8515180000
| 21>  H        0.5081370000    -1.0428100000     1.5525380000
| 22>  H        1.3706600000    -2.1879740000     0.5499770000
| 23>  H       -0.8539110000    -2.4338860000    -0.1001350000
| 24>  H       -0.2227170000    -1.4350070000    -1.3791190000
| 25>  H       -2.2002960000     1.3078190000     0.5473910000
| 26>  H       -0.3041010000     2.4271260000     0.4007270000
| 27>  H        1.6329140000     1.9233010000    -0.6099900000
| 28>  H        0.6279640000     0.8325710000    -1.5482210000
| 29> *
| 30>
| 31>                          ****END OF INPUT****
 Total Charge           Charge          ....    0
 Multiplicity           Mult            ....    1
 Number of Electrons    NEL             ....   54
 Basis Dimension        Dim             ....  148

MULLIKEN ATOMIC CHARGES
-----------------------
   0 C :    0.008828
   1 C :   -0.056921
   2 C :    0.110423
   3 N :   -0.207235
   4 C :    0.014253
   5 N :   -0.151887
   6 C :    0.068137
   7 H :    0.012528
   8 H :    0.010252
   9 H :    0.027556
  10 H :    0.011242
  11 H :    0.003696
  12 H :    0.006605
  13 H :   -0.000801
  14 H :    0.109145
  15 H :    0.017712
  16 H :    0.016469
Sum of atomic charges:    0.0000000

LOEWDIN ATOMIC CHARGES
----------------------
   0 C :   -0.050688
   1 C :   -0.058720
   2 C :   -0.002330
   3 N :   -0.153056
   4 C :    0.006730
   5 N :   -0.033954
   6 C :    0.014943
   7 H :    0.026534
   8 H :    0.025576
   9 H :    0.029824
  10 H :    0.028356
  11 H :    0.022458
  12 H :    0.019102
  13 H :    0.010254
  14 H :    0.069466
  15 H :    0.027945
  16 H :    0.017558

  Mayer bond orders larger than 0.1
B(  0-C ,  1-C ) :   1.1050 B(  0-C ,  6-C ) :   1.1100 B(  0-C ,  7-H ) :   0.9294
B(  0-C ,  8-H ) :   0.9251 B(  1-C ,  2-C ) :   1.0967 B(  1-C ,  9-H ) :   0.9180
B(  1-C , 10-H ) :   0.9285 B(  2-C ,  3-N ) :   1.0516 B(  2-C , 11-H ) :   0.9331
B(  2-C , 12-H ) :   0.9271 B(  3-N ,  4-C ) :   1.9388 B(  3-N ,  5-N ) :   0.1120
B(  4-C ,  5-N ) :   1.1525 B(  4-C , 13-H ) :   0.9462 B(  5-N ,  6-C ) :   1.0425
B(  5-N , 14-H ) :   0.9310 B(  6-C , 15-H ) :   0.9401 B(  6-C , 16-H ) :   0.9196

FINAL SINGLE POINT ENERGY      -305.417007669686

DIPOLE MOMENT
-------------
                                X             Y             Z
Electronic contribution:     -3.91191       1.60429       0.62375
Nuclear contribution   :      4.75867      -0.81531      -0.74314
                        -----------------------------------------
Total Dipole Moment    :      0.84676       0.78898      -0.11939
                        -----------------------------------------
Magnitude (a.u.)       :      1.16351
Magnitude (Debye)      :      2.95741

                             ****ORCA TERMINATED NORMALLY****
TOTAL RUN TIME: 0 days 0 hours 0 minutes 7 seconds 530 msec
