                         Program Version 3.0.3 - RELEASE   -
|  1> ! RI PBE def2-SVP def2-SVP/J NBO PAL2
|  2> % maxcore 2000
|  3> % output
|  4>     # printlevel mini
|  5>     print[ P_Basis ] 0
|  6>     print[ P_SCFInfo ] 1
|  7>     print[ P_SCFIterInfo ] 1
|  8>     print[ P_OrbEn ] 0
|  9>     print[ P_Cartesian ] 0
| 10> end
| 11> *xyz 0 1
| 12>  C       -1.5889150000     0.6706950000    -0.0118700000
| 13>  C       -1.3013830000    -0.8186670000    -0.2665110000
| 14>  C       -0.1376730000    -1.2849860000     0.5504760000
| 15>  N        1.0670490000    -0.9201620000     0.3574240000
| 16>  N        1.3359490000    -0.1358910000    -0.7326040000
| 17>  C        0.7558860000     0.9948320000    -0.8144760000
| 18>  C       -0.2887350000     1.4780260000     0.1416330000
| 19>  H       -2.1879470000     0.8008440000     0.8942460000
| 20>  H       -2.1885520000     1.0557150000    -0.8420540000
| 21>  H       -1.0501680000    -0.9514280000    -1.3243700000
| 22>  H       -2.1870590000    -1.4223510000    -0.0612840000
| 23>  H       -0.2962860000    -1.9517140000     1.3959520000
| 24>  H        1.0407910000     1.6078150000    -1.6675360000
| 25>  H       -0.4791050000     2.5436230000     0.0031940000
| 26>  H        0.0913390000     1.3408500000     1.1597700000
| 27> *
| 28>
| 29>                          ****END OF INPUT****
 Total Charge           Charge          ....    0
 Multiplicity           Mult            ....    1
 Number of Electrons    NEL             ....   52
 Basis Dimension        Dim             ....  138

MULLIKEN ATOMIC CHARGES
-----------------------
   0 C :   -0.004817
   1 C :    0.033835
   2 C :   -0.091297
   3 N :   -0.054415
   4 N :   -0.056703
   5 C :   -0.087771
   6 C :    0.029700
   7 H :    0.023438
   8 H :    0.023743
   9 H :    0.047502
  10 H :    0.020513
  11 H :    0.023776
  12 H :    0.022942
  13 H :    0.023082
  14 H :    0.046471
Sum of atomic charges:   -0.0000000

LOEWDIN ATOMIC CHARGES
----------------------
   0 C :   -0.024905
   1 C :   -0.067916
   2 C :   -0.015003
   3 N :   -0.032644
   4 N :   -0.032910
   5 C :   -0.014057
   6 C :   -0.068386
   7 H :    0.029709
   8 H :    0.029527
   9 H :    0.041611
  10 H :    0.034923
  11 H :    0.021777
  12 H :    0.021645
  13 H :    0.035460
  14 H :    0.041168

  Mayer bond orders larger than 0.1
B(  0-C ,  1-C ) :   1.0913 B(  0-C ,  6-C ) :   1.0909 B(  0-C ,  7-H ) :   0.9337
B(  0-C ,  8-H ) :   0.9342 B(  1-C ,  2-C ) :   1.0397 B(  1-C ,  9-H ) :   0.8885
B(  1-C , 10-H ) :   0.9250 B(  2-C ,  3-N ) :   1.8759 B(  2-C , 11-H ) :   0.9699
B(  3-N ,  4-N ) :   1.0472 B(  4-N ,  5-C ) :   1.8757 B(  5-C ,  6-C ) :   1.0421
B(  5-C , 12-H ) :   0.9685 B(  6-C , 13-H ) :   0.9248 B(  6-C , 14-H ) :   0.8890

FINAL SINGLE POINT ENERGY      -304.181347132317

DIPOLE MOMENT
-------------
                                X             Y             Z
Electronic contribution:      5.24024      -2.24990      -0.33044
Nuclear contribution   :     -6.44996       2.77232       0.40526
                        -----------------------------------------
Total Dipole Moment    :     -1.20972       0.52242       0.07482
                        -----------------------------------------
Magnitude (a.u.)       :      1.31983
Magnitude (Debye)      :      3.35474

                             ****ORCA TERMINATED NORMALLY****
TOTAL RUN TIME: 0 days 0 hours 0 minutes 7 seconds 280 msec
