                         Program Version 3.0.3 - RELEASE   -
|  1> ! RI PBE def2-SVP def2-SVP/J NBO PAL2
|  2> % maxcore 2000
|  3> % output
|  4>     # printlevel mini
|  5>     print[ P_Basis ] 0
|  6>     print[ P_SCFInfo ] 1
|  7>     print[ P_SCFIterInfo ] 1
|  8>     print[ P_OrbEn ] 0
|  9>     print[ P_Cartesian ] 0
| 10> end
| 11> *xyz 0 1
| 12>  C        0.3141730000    -1.7617330000    -1.1044850000
| 13>  C        0.6232720000    -0.3187190000    -1.0206240000
| 14>  N        0.1587250000    -1.0440720000     0.1463920000
| 15>  C        1.1535120000    -1.3152780000     1.1477010000
| 16>  C        1.2413050000    -0.3310590000     2.3238090000
| 17>  N        1.3792410000    -1.4846090000     3.2295100000
| 18>  C        0.8039840000    -2.3732580000     2.2051190000
| 19>  H        1.1561750000    -2.4440600000    -1.1941120000
| 20>  H       -0.6042510000    -2.1000000000    -1.5710730000
| 21>  H       -0.0656470000     0.4144750000    -1.4249080000
| 22>  H        1.6723510000    -0.0343180000    -1.0540700000
| 23>  H        2.1465430000    -1.5025150000     0.7104360000
| 24>  H        0.2969470000     0.2180510000     2.4255230000
| 25>  H        2.0776040000     0.3726830000     2.3456590000
| 26>  H        0.8571280000    -1.4230160000     4.0934540000
| 27>  H       -0.2843800000    -2.4966310000     2.2677470000
| 28>  H        1.2794070000    -3.3547400000     2.1290220000
| 29> *
| 30>
| 31>                          ****END OF INPUT****
 Total Charge           Charge          ....    0
 Multiplicity           Mult            ....    1
 Number of Electrons    NEL             ....   54
 Basis Dimension        Dim             ....  148

MULLIKEN ATOMIC CHARGES
-----------------------
   0 C :    0.027920
   1 C :    0.040936
   2 N :   -0.237938
   3 C :   -0.172771
   4 C :    0.196995
   5 N :   -0.286674
   6 C :    0.205254
   7 H :    0.029219
   8 H :    0.038242
   9 H :    0.039148
  10 H :    0.023296
  11 H :   -0.007570
  12 H :   -0.004943
  13 H :    0.012688
  14 H :    0.094980
  15 H :   -0.005231
  16 H :    0.006450
Sum of atomic charges:   -0.0000000

LOEWDIN ATOMIC CHARGES
----------------------
   0 C :    0.003668
   1 C :    0.006298
   2 N :   -0.104899
   3 C :    0.000270
   4 C :    0.024681
   5 N :   -0.114701
   6 C :    0.025942
   7 H :    0.014887
   8 H :    0.022076
   9 H :    0.022252
  10 H :    0.013813
  11 H :    0.005022
  12 H :    0.008035
  13 H :    0.009510
  14 H :    0.046491
  15 H :    0.008053
  16 H :    0.008599

  Mayer bond orders larger than 0.1
B(  0-C ,  1-C ) :   1.0995 B(  0-C ,  2-N ) :   0.9539 B(  0-C ,  7-H ) :   0.9310
B(  0-C ,  8-H ) :   0.9501 B(  1-C ,  2-N ) :   0.9542 B(  1-C ,  9-H ) :   0.9500
B(  1-C , 10-H ) :   0.9309 B(  2-N ,  3-C ) :   1.0548 B(  3-C ,  4-C ) :   1.0583
B(  3-C ,  6-C ) :   1.0604 B(  3-C , 11-H ) :   0.8731 B(  4-C ,  5-N ) :   1.0526
B(  4-C , 12-H ) :   0.9074 B(  4-C , 13-H ) :   0.9367 B(  5-N ,  6-C ) :   1.0495
B(  5-N , 14-H ) :   0.9421 B(  6-C , 15-H ) :   0.9088 B(  6-C , 16-H ) :   0.9347

FINAL SINGLE POINT ENERGY      -305.344548345639

DIPOLE MOMENT
-------------
                                X             Y             Z
Electronic contribution:     -0.45608       0.04432       0.95922
Nuclear contribution   :      0.37389      -0.00788      -1.24275
                        -----------------------------------------
Total Dipole Moment    :     -0.08219       0.03645      -0.28353
                        -----------------------------------------
Magnitude (a.u.)       :      0.29744
Magnitude (Debye)      :      0.75604

                             ****ORCA TERMINATED NORMALLY****
TOTAL RUN TIME: 0 days 0 hours 0 minutes 8 seconds 89 msec
