                         Program Version 3.0.3 - RELEASE   -
|  1> ! RI PBE def2-SVP def2-SVP/J NBO PAL2
|  2> % maxcore 2000
|  3> % output
|  4>     # printlevel mini
|  5>     print[ P_Basis ] 0
|  6>     print[ P_SCFInfo ] 1
|  7>     print[ P_SCFIterInfo ] 1
|  8>     print[ P_OrbEn ] 0
|  9>     print[ P_Cartesian ] 0
| 10> end
| 11> *xyz 0 1
| 12>  C        0.9908180000    -0.0220510000     0.0888690000
| 13>  C        0.3384510000     0.9809570000     1.0074250000
| 14>  C        0.7287670000     1.0821910000     2.4226640000
| 15>  N        1.0579860000     2.1554040000     1.4815190000
| 16>  N        2.4146510000    -0.1403180000     0.3291290000
| 17>  C        3.1530230000    -0.8996190000    -0.6554250000
| 18>  C        3.2851770000     0.5703400000    -0.5919070000
| 19>  H        0.7821680000     0.2502510000    -0.9602560000
| 20>  H        0.5330930000    -1.0026970000     0.2604610000
| 21>  H       -0.6985350000     1.1846890000     0.7512290000
| 22>  H        1.5368690000     0.4403240000     2.7568980000
| 23>  H       -0.0117090000     1.3387870000     3.1725490000
| 24>  H        2.0372170000     2.0666170000     1.2293480000
| 25>  H        2.5968280000    -1.3105010000    -1.4947060000
| 26>  H        3.9396840000    -1.5387670000    -0.2696300000
| 27>  H        2.8145970000     1.1480410000    -1.3838400000
| 28>  H        4.1714130000     1.0206440000    -0.1575350000
| 29> *
| 30>
| 31>                          ****END OF INPUT****
 Total Charge           Charge          ....    0
 Multiplicity           Mult            ....    1
 Number of Electrons    NEL             ....   54
 Basis Dimension        Dim             ....  148

MULLIKEN ATOMIC CHARGES
-----------------------
   0 C :    0.201977
   1 C :   -0.119392
   2 C :    0.037966
   3 N :   -0.202614
   4 N :   -0.325970
   5 C :    0.040225
   6 C :    0.015071
   7 H :   -0.009064
   8 H :    0.020380
   9 H :    0.020793
  10 H :    0.033971
  11 H :    0.032965
  12 H :    0.105302
  13 H :    0.025761
  14 H :    0.042773
  15 H :    0.037459
  16 H :    0.042395
Sum of atomic charges:   -0.0000000

LOEWDIN ATOMIC CHARGES
----------------------
   0 C :    0.011377
   1 C :   -0.019195
   2 C :   -0.001470
   3 N :   -0.104141
   4 N :   -0.113118
   5 C :    0.009244
   6 C :    0.000146
   7 H :    0.006505
   8 H :    0.029600
   9 H :    0.021922
  10 H :    0.015287
  11 H :    0.017828
  12 H :    0.048479
  13 H :    0.016151
  14 H :    0.023520
  15 H :    0.016106
  16 H :    0.021760

  Mayer bond orders larger than 0.1
B(  0-C ,  1-C ) :   1.0344 B(  0-C ,  4-N ) :   0.9969 B(  0-C ,  7-H ) :   0.9054
B(  0-C ,  8-H ) :   0.9249 B(  1-C ,  2-C ) :   1.0560 B(  1-C ,  3-N ) :   1.0186
B(  1-C ,  9-H ) :   0.9293 B(  2-C ,  3-N ) :   0.9950 B(  2-C , 10-H ) :   0.9381
B(  2-C , 11-H ) :   0.9421 B(  3-N , 12-H ) :   0.9496 B(  4-N ,  5-C ) :   0.9713
B(  4-N ,  6-C ) :   0.9486 B(  5-C ,  6-C ) :   1.0936 B(  5-C , 13-H ) :   0.9307
B(  5-C , 14-H ) :   0.9505 B(  6-C , 15-H ) :   0.9321 B(  6-C , 16-H ) :   0.9487

FINAL SINGLE POINT ENERGY      -305.341163077123

DIPOLE MOMENT
-------------
                                X             Y             Z
Electronic contribution:     -0.21643       0.98711       1.15808
Nuclear contribution   :      0.49793      -1.62972      -1.74175
                        -----------------------------------------
Total Dipole Moment    :      0.28149      -0.64260      -0.58367
                        -----------------------------------------
Magnitude (a.u.)       :      0.91260
Magnitude (Debye)      :      2.31965

                             ****ORCA TERMINATED NORMALLY****
TOTAL RUN TIME: 0 days 0 hours 0 minutes 7 seconds 458 msec
