                         Program Version 3.0.3 - RELEASE   -
|  1> ! RI PBE def2-SVP def2-SVP/J NBO PAL2
|  2> % maxcore 2000
|  3> % output
|  4>     # printlevel mini
|  5>     print[ P_Basis ] 0
|  6>     print[ P_SCFInfo ] 1
|  7>     print[ P_SCFIterInfo ] 1
|  8>     print[ P_OrbEn ] 0
|  9>     print[ P_Cartesian ] 0
| 10> end
| 11> *xyz 0 1
| 12>  C        0.7688590000    -1.2450040000     0.7422430000
| 13>  C       -0.2694420000    -1.2602180000    -0.3289560000
| 14>  C       -1.5162090000    -0.4966600000    -0.1346680000
| 15>  C       -1.5113100000     0.7974300000     0.1771360000
| 16>  C       -0.2263230000     1.5370180000     0.3587270000
| 17>  C        0.8846710000     0.9218030000    -0.4979450000
| 18>  N        0.9807480000    -0.5276460000    -0.4890760000
| 19>  H        1.4033730000    -2.1130940000     0.8925740000
| 20>  H        0.5217710000    -0.6932320000     1.6454320000
| 21>  H       -0.3488520000    -2.1495960000    -0.9481280000
| 22>  H       -2.4516830000    -1.0276660000    -0.2787670000
| 23>  H       -2.4470790000     1.3321960000     0.3027150000
| 24>  H        0.0660990000     1.5359960000     1.4158010000
| 25>  H       -0.3433730000     2.5914220000     0.0898160000
| 26>  H        1.8578760000     1.3214350000    -0.2013200000
| 27>  H        0.7241740000     1.2107250000    -1.5407840000
| 28> *
| 29>
| 30>                          ****END OF INPUT****
 Total Charge           Charge          ....    0
 Multiplicity           Mult            ....    1
 Number of Electrons    NEL             ....   52
 Basis Dimension        Dim             ....  143

MULLIKEN ATOMIC CHARGES
-----------------------
   0 C :    0.083162
   1 C :   -0.038525
   2 C :    0.052240
   3 C :   -0.095256
   4 C :   -0.007906
   5 C :    0.143873
   6 N :   -0.273025
   7 H :    0.033018
   8 H :    0.030402
   9 H :    0.018528
  10 H :   -0.020058
  11 H :   -0.008069
  12 H :    0.035891
  13 H :    0.016961
  14 H :    0.010313
  15 H :    0.018450
Sum of atomic charges:    0.0000000

LOEWDIN ATOMIC CHARGES
----------------------
   0 C :    0.016509
   1 C :   -0.002115
   2 C :   -0.052878
   3 C :   -0.048076
   4 C :   -0.064053
   5 C :    0.016241
   6 N :   -0.096534
   7 H :    0.021683
   8 H :    0.014581
   9 H :    0.023283
  10 H :    0.027822
  11 H :    0.023624
  12 H :    0.032490
  13 H :    0.035306
  14 H :    0.025552
  15 H :    0.026565

  Mayer bond orders larger than 0.1
B(  0-C ,  1-C ) :   0.9922 B(  0-C ,  6-N ) :   0.9837 B(  0-C ,  7-H ) :   0.9409
B(  0-C ,  8-H ) :   0.9339 B(  1-C ,  2-C ) :   1.0509 B(  1-C ,  6-N ) :   0.9479
B(  1-C ,  9-H ) :   0.9357 B(  2-C ,  3-C ) :   1.8414 B(  2-C , 10-H ) :   0.9729
B(  3-C ,  4-C ) :   1.0613 B(  3-C , 11-H ) :   0.9640 B(  4-C ,  5-C ) :   1.0647
B(  4-C , 12-H ) :   0.9076 B(  4-C , 13-H ) :   0.9147 B(  5-C ,  6-N ) :   1.0395
B(  5-C , 14-H ) :   0.9382 B(  5-C , 15-H ) :   0.9433

FINAL SINGLE POINT ENERGY      -288.155546808780

DIPOLE MOMENT
-------------
                                X             Y             Z
Electronic contribution:     -0.11521      -1.87919      -1.11540
Nuclear contribution   :     -0.08390       2.08637       1.43692
                        -----------------------------------------
Total Dipole Moment    :     -0.19911       0.20718       0.32153
                        -----------------------------------------
Magnitude (a.u.)       :      0.43122
Magnitude (Debye)      :      1.09607

                             ****ORCA TERMINATED NORMALLY****
TOTAL RUN TIME: 0 days 0 hours 0 minutes 7 seconds 696 msec
