                         Program Version 3.0.3 - RELEASE   -
|  1> ! RI PBE def2-SVP def2-SVP/J NBO PAL2
|  2> % maxcore 2000
|  3> % output
|  4>     # printlevel mini
|  5>     print[ P_Basis ] 0
|  6>     print[ P_SCFInfo ] 1
|  7>     print[ P_SCFIterInfo ] 1
|  8>     print[ P_OrbEn ] 0
|  9>     print[ P_Cartesian ] 0
| 10> end
| 11> *xyz 0 1
| 12>  C       -1.7175890000     0.7990890000     0.4494810000
| 13>  C       -1.1104060000    -0.3358480000    -0.2761940000
| 14>  C       -0.2806290000    -1.3719700000     0.4454410000
| 15>  N        1.1106880000    -1.3617650000     0.0094920000
| 16>  C        1.6903540000    -0.0197420000    -0.1092930000
| 17>  C        0.7482810000     1.0556840000     0.4094490000
| 18>  N       -0.5076470000     0.9978560000    -0.3248380000
| 19>  H       -1.6310090000     0.7988920000     1.5345620000
| 20>  H       -2.6056070000     1.2878140000     0.0631800000
| 21>  H       -1.5536540000    -0.6501950000    -1.2187190000
| 22>  H       -0.6838850000    -2.3731100000     0.2809850000
| 23>  H       -0.3186430000    -1.2027970000     1.5257340000
| 24>  H        1.1884380000    -1.8460490000    -0.8725250000
| 25>  H        1.9229430000     0.2095270000    -1.1556010000
| 26>  H        2.6315270000     0.0357420000     0.4499650000
| 27>  H        1.2010310000     2.0388910000     0.2592340000
| 28>  H        0.6038190000     0.9321910000     1.4922570000
| 29> *
| 30>
| 31>                          ****END OF INPUT****
 Total Charge           Charge          ....    0
 Multiplicity           Mult            ....    1
 Number of Electrons    NEL             ....   54
 Basis Dimension        Dim             ....  148

MULLIKEN ATOMIC CHARGES
-----------------------
   0 C :    0.092580
   1 C :   -0.144972
   2 C :    0.214754
   3 N :   -0.271901
   4 C :    0.119598
   5 C :    0.066149
   6 N :   -0.269884
   7 H :    0.024310
   8 H :    0.024823
   9 H :    0.010851
  10 H :    0.013289
  11 H :   -0.010941
  12 H :    0.098445
  13 H :    0.004679
  14 H :    0.009154
  15 H :    0.019436
  16 H :   -0.000370
Sum of atomic charges:    0.0000000

LOEWDIN ATOMIC CHARGES
----------------------
   0 C :    0.009007
   1 C :   -0.023102
   2 C :    0.001667
   3 N :   -0.103455
   4 C :    0.009718
   5 C :    0.003344
   6 N :   -0.113943
   7 H :    0.012163
   8 H :    0.020010
   9 H :    0.014119
  10 H :    0.029112
  11 H :    0.019203
  12 H :    0.054707
  13 H :    0.015675
  14 H :    0.017803
  15 H :    0.026711
  16 H :    0.007260

  Mayer bond orders larger than 0.1
B(  0-C ,  1-C ) :   1.0394 B(  0-C ,  6-N ) :   0.9828 B(  0-C ,  7-H ) :   0.9242
B(  0-C ,  8-H ) :   0.9395 B(  1-C ,  2-C ) :   1.0439 B(  1-C ,  6-N ) :   0.9315
B(  1-C ,  9-H ) :   0.9298 B(  2-C ,  3-N ) :   1.0882 B(  2-C , 10-H ) :   0.9410
B(  2-C , 11-H ) :   0.8986 B(  3-N ,  4-C ) :   1.0506 B(  3-N , 12-H ) :   0.9501
B(  4-C ,  5-C ) :   1.1070 B(  4-C , 13-H ) :   0.9285 B(  4-C , 14-H ) :   0.9297
B(  5-C ,  6-N ) :   1.0238 B(  5-C , 15-H ) :   0.9353 B(  5-C , 16-H ) :   0.9055

FINAL SINGLE POINT ENERGY      -305.371902985261

DIPOLE MOMENT
-------------
                                X             Y             Z
Electronic contribution:     -0.70537       0.11859      -1.31348
Nuclear contribution   :      0.60054      -0.30778       1.35043
                        -----------------------------------------
Total Dipole Moment    :     -0.10483      -0.18919       0.03695
                        -----------------------------------------
Magnitude (a.u.)       :      0.21943
Magnitude (Debye)      :      0.55775

                             ****ORCA TERMINATED NORMALLY****
TOTAL RUN TIME: 0 days 0 hours 0 minutes 7 seconds 598 msec
