                         Program Version 3.0.3 - RELEASE   -
|  1> ! RI PBE def2-SVP def2-SVP/J NBO PAL2
|  2> % maxcore 2000
|  3> % output
|  4>     # printlevel mini
|  5>     print[ P_Basis ] 0
|  6>     print[ P_SCFInfo ] 1
|  7>     print[ P_SCFIterInfo ] 1
|  8>     print[ P_OrbEn ] 0
|  9>     print[ P_Cartesian ] 0
| 10> end
| 11> *xyz 0 1
| 12>  C       -1.2275050000    -0.7999990000    -0.5240370000
| 13>  C       -1.1818340000     0.7558130000    -0.4883780000
| 14>  N        0.0044450000     1.1091030000     0.3105490000
| 15>  C        1.1928160000     0.7596610000    -0.4870650000
| 16>  C        1.2440260000    -0.7959750000    -0.5219660000
| 17>  C        0.0081550000    -1.1487650000     0.3099800000
| 18>  C        0.0055520000     0.0235890000     1.3005070000
| 19>  H       -1.1698010000    -1.2056960000    -1.5364890000
| 20>  H       -2.1426060000    -1.1819240000    -0.0645790000
| 21>  H       -2.0675720000     1.1644490000     0.0032650000
| 22>  H       -1.1126260000     1.2112660000    -1.4773940000
| 23>  H        2.0766510000     1.1718110000     0.0050420000
| 24>  H        1.1227540000     1.2143130000    -1.4763990000
| 25>  H        2.1595480000    -1.1743620000    -0.0603850000
| 26>  H        1.1898860000    -1.2023790000    -1.5343210000
| 27>  H        0.0094570000    -2.1551260000     0.7292390000
| 28>  H        0.8961360000     0.0720640000     1.9319500000
| 29>  H       -0.8860000000     0.0692360000     1.9307920000
| 30> *
| 31>
| 32>                          ****END OF INPUT****
 Total Charge           Charge          ....    0
 Multiplicity           Mult            ....    1
 Number of Electrons    NEL             ....   54
 Basis Dimension        Dim             ....  153

MULLIKEN ATOMIC CHARGES
-----------------------
   0 C :    0.085220
   1 C :    0.111884
   2 N :   -0.319726
   3 C :    0.111887
   4 C :    0.085041
   5 C :   -0.262646
   6 C :    0.145169
   7 H :   -0.003049
   8 H :    0.003501
   9 H :    0.007138
  10 H :   -0.001002
  11 H :    0.007215
  12 H :   -0.000994
  13 H :    0.003472
  14 H :   -0.003017
  15 H :    0.003629
  16 H :    0.013158
  17 H :    0.013120
Sum of atomic charges:   -0.0000000

LOEWDIN ATOMIC CHARGES
----------------------
   0 C :   -0.048856
   1 C :    0.017044
   2 N :   -0.118147
   3 C :    0.017047
   4 C :   -0.048859
   5 C :   -0.050967
   6 C :    0.021064
   7 H :    0.019328
   8 H :    0.021380
   9 H :    0.019825
  10 H :    0.017712
  11 H :    0.019838
  12 H :    0.017718
  13 H :    0.021374
  14 H :    0.019335
  15 H :    0.018664
  16 H :    0.018252
  17 H :    0.018247

  Mayer bond orders larger than 0.1
B(  0-C ,  1-C ) :   1.0655 B(  0-C ,  5-C ) :   1.0672 B(  0-C ,  7-H ) :   0.9174
B(  0-C ,  8-H ) :   0.9294 B(  1-C ,  2-N ) :   1.0361 B(  1-C ,  9-H ) :   0.9334
B(  1-C , 10-H ) :   0.9259 B(  2-N ,  3-C ) :   1.0362 B(  2-N ,  6-C ) :   0.9973
B(  3-C ,  4-C ) :   1.0655 B(  3-C , 11-H ) :   0.9335 B(  3-C , 12-H ) :   0.9259
B(  4-C ,  5-C ) :   1.0672 B(  4-C , 13-H ) :   0.9294 B(  4-C , 14-H ) :   0.9174
B(  5-C ,  6-C ) :   0.9999 B(  5-C , 15-H ) :   0.9301 B(  6-C , 16-H ) :   0.9421
B(  6-C , 17-H ) :   0.9421

FINAL SINGLE POINT ENERGY      -289.388287851206

DIPOLE MOMENT
-------------
                                X             Y             Z
Electronic contribution:     -0.00305       1.35819       1.08501
Nuclear contribution   :      0.00382      -1.78158      -1.22353
                        -----------------------------------------
Total Dipole Moment    :      0.00077      -0.42339      -0.13852
                        -----------------------------------------
Magnitude (a.u.)       :      0.44548
Magnitude (Debye)      :      1.13232

                             ****ORCA TERMINATED NORMALLY****
TOTAL RUN TIME: 0 days 0 hours 0 minutes 8 seconds 199 msec
