                         Program Version 3.0.3 - RELEASE   -
|  1> ! RI PBE def2-SVP def2-SVP/J NBO PAL2
|  2> % maxcore 2000
|  3> % output
|  4>     # printlevel mini
|  5>     print[ P_Basis ] 0
|  6>     print[ P_SCFInfo ] 1
|  7>     print[ P_SCFIterInfo ] 1
|  8>     print[ P_OrbEn ] 0
|  9>     print[ P_Cartesian ] 0
| 10> end
| 11> *xyz 0 1
| 12>  C       -0.8211290000    -0.0234710000    -1.1617210000
| 13>  C       -0.5915260000     1.0774580000    -0.1021920000
| 14>  C       -1.1502060000     0.0291120000     0.8597110000
| 15>  N       -0.6647680000    -1.0374060000    -0.0698530000
| 16>  C        0.7674160000    -1.2101930000     0.1965850000
| 17>  C        1.5994700000     0.0573580000    -0.0698740000
| 18>  N        0.8189870000     1.2643690000     0.2108620000
| 19>  H       -0.1282890000    -0.1155040000    -2.0012450000
| 20>  H       -1.8465750000    -0.0467820000    -1.5369450000
| 21>  H       -1.0834770000     2.0480770000    -0.1984460000
| 22>  H       -2.2419050000     0.0109330000     0.9064820000
| 23>  H       -0.7258250000     0.0015800000     1.8655830000
| 24>  H        1.1512750000    -2.0238300000    -0.4259810000
| 25>  H        0.8635900000    -1.5312860000     1.2371910000
| 26>  H        1.9361710000     0.0341040000    -1.1156740000
| 27>  H        2.5021260000     0.0502080000     0.5477740000
| 28>  H        1.1937560000     2.0396710000    -0.3192670000
| 29> *
| 30>
| 31>                          ****END OF INPUT****
 Total Charge           Charge          ....    0
 Multiplicity           Mult            ....    1
 Number of Electrons    NEL             ....   54
 Basis Dimension        Dim             ....  148

MULLIKEN ATOMIC CHARGES
-----------------------
   0 C :    0.175690
   1 C :   -0.210629
   2 C :    0.216293
   3 N :   -0.339554
   4 C :    0.073217
   5 C :    0.086761
   6 N :   -0.176914
   7 H :    0.009623
   8 H :    0.016508
   9 H :   -0.003025
  10 H :    0.015384
  11 H :    0.003783
  12 H :    0.017360
  13 H :    0.010028
  14 H :   -0.004575
  15 H :    0.010638
  16 H :    0.099411
Sum of atomic charges:   -0.0000000

LOEWDIN ATOMIC CHARGES
----------------------
   0 C :    0.012947
   1 C :   -0.005299
   2 C :    0.024419
   3 N :   -0.129136
   4 C :    0.003523
   5 C :   -0.003043
   6 N :   -0.096715
   7 H :    0.010225
   8 H :    0.020850
   9 H :    0.008027
  10 H :    0.019239
  11 H :    0.009400
  12 H :    0.022351
  13 H :    0.021954
  14 H :    0.003769
  15 H :    0.022224
  16 H :    0.055262

  Mayer bond orders larger than 0.1
B(  0-C ,  1-C ) :   0.9872 B(  0-C ,  3-N ) :   0.9836 B(  0-C ,  7-H ) :   0.9309
B(  0-C ,  8-H ) :   0.9378 B(  1-C ,  2-C ) :   1.0092 B(  1-C ,  6-N ) :   1.0787
B(  1-C ,  9-H ) :   0.9266 B(  2-C ,  3-N ) :   0.9751 B(  2-C , 10-H ) :   0.9400
B(  2-C , 11-H ) :   0.9216 B(  3-N ,  4-C ) :   1.0373 B(  4-C ,  5-C ) :   1.0737
B(  4-C , 12-H ) :   0.9467 B(  4-C , 13-H ) :   0.9279 B(  5-C ,  6-N ) :   1.0398
B(  5-C , 14-H ) :   0.9281 B(  5-C , 15-H ) :   0.9274 B(  6-N , 16-H ) :   0.9442

FINAL SINGLE POINT ENERGY      -305.363569056495

DIPOLE MOMENT
-------------
                                X             Y             Z
Electronic contribution:     -1.08115       0.29469       0.37547
Nuclear contribution   :      1.38367       0.17040      -0.74510
                        -----------------------------------------
Total Dipole Moment    :      0.30253       0.46508      -0.36964
                        -----------------------------------------
Magnitude (a.u.)       :      0.66667
Magnitude (Debye)      :      1.69455

                             ****ORCA TERMINATED NORMALLY****
TOTAL RUN TIME: 0 days 0 hours 0 minutes 7 seconds 705 msec
