                         Program Version 3.0.3 - RELEASE   -
|  1> ! RI PBE def2-SVP def2-SVP/J NBO PAL2
|  2> % maxcore 2000
|  3> % output
|  4>     # printlevel mini
|  5>     print[ P_Basis ] 0
|  6>     print[ P_SCFInfo ] 1
|  7>     print[ P_SCFIterInfo ] 1
|  8>     print[ P_OrbEn ] 0
|  9>     print[ P_Cartesian ] 0
| 10> end
| 11> *xyz 0 1
| 12>  C        1.8093420000    -0.2203010000    -0.9894120000
| 13>  C        2.3460570000     0.0421860000     0.4563330000
| 14>  C        2.8160390000     1.3667860000    -0.1000580000
| 15>  C        3.4029370000     2.6084340000    -0.1082880000
| 16>  C        3.2427570000     3.0746360000    -1.4463640000
| 17>  C        2.5767480000     2.1216740000    -2.1962320000
| 18>  N        2.3369690000     1.0986480000    -1.3342750000
| 19>  H        0.7239300000    -0.2998890000    -1.0797100000
| 20>  H        2.2882630000    -1.0422920000    -1.5256710000
| 21>  H        3.1278570000    -0.6469900000     0.7806410000
| 22>  H        1.5719260000     0.0913730000     1.2242200000
| 23>  H        3.8828460000     3.1327080000     0.7024670000
| 24>  H        3.5855670000     4.0253310000    -1.8265060000
| 25>  H        2.2788700000     2.1159970000    -3.2317560000
| 26> *
| 27>
| 28>                          ****END OF INPUT****
 Total Charge           Charge          ....    0
 Multiplicity           Mult            ....    1
 Number of Electrons    NEL             ....   50
 Basis Dimension        Dim             ....  133

MULLIKEN ATOMIC CHARGES
-----------------------
   0 C :    0.158980
   1 C :    0.010984
   2 C :    0.075291
   3 C :   -0.128196
   4 C :   -0.050269
   5 C :    0.049773
   6 N :   -0.196024
   7 H :    0.034898
   8 H :    0.030013
   9 H :    0.034875
  10 H :    0.037500
  11 H :   -0.026702
  12 H :   -0.019135
  13 H :   -0.011989
Sum of atomic charges:   -0.0000000

LOEWDIN ATOMIC CHARGES
----------------------
   0 C :    0.068041
   1 C :   -0.027600
   2 C :   -0.035019
   3 C :   -0.105733
   4 C :   -0.078830
   5 C :   -0.053083
   6 N :    0.057542
   7 H :    0.025020
   8 H :    0.024394
   9 H :    0.032108
  10 H :    0.032641
  11 H :    0.021770
  12 H :    0.021937
  13 H :    0.016813

  Mayer bond orders larger than 0.1
B(  0-C ,  1-C ) :   1.1396 B(  0-C ,  6-N ) :   0.9831 B(  0-C ,  7-H ) :   0.9311
B(  0-C ,  8-H ) :   0.9303 B(  1-C ,  2-C ) :   1.0365 B(  1-C ,  9-H ) :   0.9077
B(  1-C , 10-H ) :   0.9074 B(  2-C ,  3-C ) :   1.4726 B(  2-C ,  6-N ) :   1.2421
B(  3-C ,  4-C ) :   1.2940 B(  3-C , 11-H ) :   1.0273 B(  4-C ,  5-C ) :   1.4534
B(  4-C , 12-H ) :   0.9932 B(  5-C ,  6-N ) :   1.1906 B(  5-C , 13-H ) :   0.9914

FINAL SINGLE POINT ENERGY      -286.969262205524

DIPOLE MOMENT
-------------
                                X             Y             Z
Electronic contribution:      0.51194       1.53884      -0.74693
Nuclear contribution   :     -0.88710      -2.30828       0.73070
                        -----------------------------------------
Total Dipole Moment    :     -0.37517      -0.76944      -0.01624
                        -----------------------------------------
Magnitude (a.u.)       :      0.85618
Magnitude (Debye)      :      2.17624

                             ****ORCA TERMINATED NORMALLY****
TOTAL RUN TIME: 0 days 0 hours 0 minutes 6 seconds 851 msec
