                         Program Version 3.0.3 - RELEASE   -
|  1> ! RI PBE def2-SVP def2-SVP/J NBO PAL2
|  2> % maxcore 2000
|  3> % output
|  4>     # printlevel mini
|  5>     print[ P_Basis ] 0
|  6>     print[ P_SCFInfo ] 1
|  7>     print[ P_SCFIterInfo ] 1
|  8>     print[ P_OrbEn ] 0
|  9>     print[ P_Cartesian ] 0
| 10> end
| 11> *xyz 0 1
| 12>  C        0.8316270000    -1.6267140000     0.4091860000
| 13>  C        1.5166490000    -0.2550600000     0.4973250000
| 14>  N        0.6485050000     0.2652130000    -0.5792850000
| 15>  C       -0.1085580000     1.4668740000    -0.2430630000
| 16>  C       -1.3676870000     0.9494580000     0.3990590000
| 17>  C       -1.4405140000    -0.3729210000     0.2990580000
| 18>  C       -0.2465930000    -0.9122310000    -0.4264280000
| 19>  H        0.5064850000    -2.0767460000     1.3467670000
| 20>  H        1.3970280000    -2.3581120000    -0.1683260000
| 21>  H        2.5841310000    -0.2160740000     0.2664760000
| 22>  H        1.3450480000     0.2412090000     1.4609090000
| 23>  H       -0.3345100000     2.0655540000    -1.1356240000
| 24>  H        0.4798750000     2.1091690000     0.4231010000
| 25>  H       -2.1185360000     1.5897390000     0.8472960000
| 26>  H       -2.2596320000    -0.9904430000     0.6485130000
| 27>  H       -0.5291260000    -1.4087040000    -1.3629740000
| 28> *
| 29>
| 30>                          ****END OF INPUT****
 Total Charge           Charge          ....    0
 Multiplicity           Mult            ....    1
 Number of Electrons    NEL             ....   52
 Basis Dimension        Dim             ....  143

MULLIKEN ATOMIC CHARGES
-----------------------
   0 C :    0.024894
   1 C :    0.120891
   2 N :   -0.349233
   3 C :    0.183896
   4 C :   -0.112020
   5 C :   -0.007870
   6 C :    0.031318
   7 H :    0.012855
   8 H :    0.019454
   9 H :    0.018649
  10 H :    0.005327
  11 H :    0.027388
  12 H :    0.015950
  13 H :   -0.004052
  14 H :   -0.005892
  15 H :    0.018444
Sum of atomic charges:    0.0000000

LOEWDIN ATOMIC CHARGES
----------------------
   0 C :   -0.036206
   1 C :    0.033905
   2 N :   -0.123367
   3 C :    0.011360
   4 C :   -0.043799
   5 C :   -0.045959
   6 C :    0.024381
   7 H :    0.021877
   8 H :    0.026815
   9 H :    0.013615
  10 H :    0.007433
  11 H :    0.023443
  12 H :    0.022586
  13 H :    0.023298
  14 H :    0.024106
  15 H :    0.016511

  Mayer bond orders larger than 0.1
B(  0-C ,  1-C ) :   1.1175 B(  0-C ,  6-C ) :   1.0817 B(  0-C ,  7-H ) :   0.9358
B(  0-C ,  8-H ) :   0.9197 B(  1-C ,  2-N ) :   1.0109 B(  1-C ,  9-H ) :   0.9389
B(  1-C , 10-H ) :   0.9207 B(  2-N ,  3-C ) :   1.0378 B(  2-N ,  6-C ) :   1.0240
B(  3-C ,  4-C ) :   1.0102 B(  3-C , 11-H ) :   0.9191 B(  3-C , 12-H ) :   0.9263
B(  4-C ,  5-C ) :   1.8620 B(  4-C , 13-H ) :   0.9824 B(  5-C ,  6-C ) :   0.9835
B(  5-C , 14-H ) :   0.9837 B(  6-C , 15-H ) :   0.8996

FINAL SINGLE POINT ENERGY      -288.153048962939

DIPOLE MOMENT
-------------
                                X             Y             Z
Electronic contribution:     -1.16034       0.33928      -1.32131
Nuclear contribution   :      0.97501      -0.41419       1.69404
                        -----------------------------------------
Total Dipole Moment    :     -0.18534      -0.07491       0.37274
                        -----------------------------------------
Magnitude (a.u.)       :      0.42296
Magnitude (Debye)      :      1.07508

                             ****ORCA TERMINATED NORMALLY****
TOTAL RUN TIME: 0 days 0 hours 0 minutes 7 seconds 190 msec
