                         Program Version 3.0.3 - RELEASE   -
|  1> ! RI PBE def2-SVP def2-SVP/J NBO PAL2
|  2> % maxcore 2000
|  3> % output
|  4>     # printlevel mini
|  5>     print[ P_Basis ] 0
|  6>     print[ P_SCFInfo ] 1
|  7>     print[ P_SCFIterInfo ] 1
|  8>     print[ P_OrbEn ] 0
|  9>     print[ P_Cartesian ] 0
| 10> end
| 11> *xyz 0 1
| 12>  C        1.6333350000    -0.5698070000     0.8155160000
| 13>  C        2.4898780000     0.1395200000    -0.2893280000
| 14>  C        3.0441550000     0.9403730000     0.8643130000
| 15>  N        3.8267440000     1.8627280000     1.3540070000
| 16>  C        3.5399550000     1.8040830000     2.7014800000
| 17>  C        2.5910340000     0.8499400000     3.0054130000
| 18>  N        2.2975260000     0.3137570000     1.7818920000
| 19>  H        1.8505490000    -1.6280370000     0.9687660000
| 20>  H        0.5560010000    -0.4114870000     0.7462030000
| 21>  H        1.9112020000     0.7000440000    -1.0247320000
| 22>  H        3.1992760000    -0.5104430000    -0.8033060000
| 23>  H        4.0368870000     2.4606440000     3.3998660000
| 24>  H        2.1450490000     0.5457740000     3.9368110000
| 25> *
| 26>
| 27>                          ****END OF INPUT****
 Total Charge           Charge          ....    0
 Multiplicity           Mult            ....    1
 Number of Electrons    NEL             ....   50
 Basis Dimension        Dim             ....  128

MULLIKEN ATOMIC CHARGES
-----------------------
   0 C :    0.136764
   1 C :    0.019151
   2 C :   -0.028061
   3 N :   -0.126326
   4 C :   -0.008676
   5 C :    0.038502
   6 N :   -0.195634
   7 H :    0.044291
   8 H :    0.046761
   9 H :    0.041407
  10 H :    0.043948
  11 H :   -0.005291
  12 H :   -0.006837
Sum of atomic charges:   -0.0000000

LOEWDIN ATOMIC CHARGES
----------------------
   0 C :    0.068480
   1 C :   -0.027070
   2 C :   -0.034666
   3 N :   -0.123056
   4 C :   -0.043534
   5 C :   -0.059088
   6 N :    0.048135
   7 H :    0.028648
   8 H :    0.029045
   9 H :    0.037199
  10 H :    0.037627
  11 H :    0.017466
  12 H :    0.020815

  Mayer bond orders larger than 0.1
B(  0-C ,  1-C ) :   1.1415 B(  0-C ,  6-N ) :   0.9726 B(  0-C ,  7-H ) :   0.9326
B(  0-C ,  8-H ) :   0.9329 B(  1-C ,  2-C ) :   1.0681 B(  1-C ,  9-H ) :   0.9032
B(  1-C , 10-H ) :   0.9043 B(  2-C ,  3-N ) :   1.6226 B(  2-C ,  6-N ) :   1.2544
B(  3-N ,  4-C ) :   1.3769 B(  4-C ,  5-C ) :   1.4781 B(  4-C , 11-H ) :   0.9863
B(  5-C ,  6-N ) :   1.1756 B(  5-C , 12-H ) :   0.9854

FINAL SINGLE POINT ENERGY      -302.997362660172

DIPOLE MOMENT
-------------
                                X             Y             Z
Electronic contribution:      1.65727       2.00295       1.29827
Nuclear contribution   :     -2.65415      -3.07723      -1.38280
                        -----------------------------------------
Total Dipole Moment    :     -0.99688      -1.07428      -0.08453
                        -----------------------------------------
Magnitude (a.u.)       :      1.46799
Magnitude (Debye)      :      3.73132

                             ****ORCA TERMINATED NORMALLY****
TOTAL RUN TIME: 0 days 0 hours 0 minutes 6 seconds 481 msec
