                         Program Version 3.0.3 - RELEASE   -
|  1> ! RI PBE def2-SVP def2-SVP/J NBO PAL2
|  2> % maxcore 2000
|  3> % output
|  4>     # printlevel mini
|  5>     print[ P_Basis ] 0
|  6>     print[ P_SCFInfo ] 1
|  7>     print[ P_SCFIterInfo ] 1
|  8>     print[ P_OrbEn ] 0
|  9>     print[ P_Cartesian ] 0
| 10> end
| 11> *xyz 0 1
| 12>  C        1.5912330000    -0.6638770000     0.7301260000
| 13>  C        2.2698900000     0.3448080000    -0.2498830000
| 14>  C        2.8957480000     0.9389240000     0.9947900000
| 15>  C        3.6436250000     1.7555270000     1.8002430000
| 16>  N        3.4746350000     1.3395730000     3.0973030000
| 17>  C        2.6565010000     0.3094620000     3.0905470000
| 18>  N        2.2893240000     0.0462940000     1.8146590000
| 19>  H        1.8999720000    -1.7045090000     0.6241700000
| 20>  H        0.5047110000    -0.5974640000     0.7973710000
| 21>  H        1.5753450000     0.9915550000    -0.7873480000
| 22>  H        2.9626450000    -0.1091300000    -0.9595130000
| 23>  H        4.2777910000     2.5928450000     1.5573860000
| 24>  H        2.3250810000    -0.2435980000     3.9554590000
| 25> *
| 26>
| 27>                          ****END OF INPUT****
 Total Charge           Charge          ....    0
 Multiplicity           Mult            ....    1
 Number of Electrons    NEL             ....   50
 Basis Dimension        Dim             ....  128

MULLIKEN ATOMIC CHARGES
-----------------------
   0 C :    0.139453
   1 C :    0.030730
   2 C :    0.054138
   3 C :   -0.108020
   4 N :   -0.162671
   5 C :    0.081250
   6 N :   -0.203693
   7 H :    0.042745
   8 H :    0.047873
   9 H :    0.041212
  10 H :    0.039487
  11 H :   -0.009067
  12 H :    0.006563
Sum of atomic charges:   -0.0000000

LOEWDIN ATOMIC CHARGES
----------------------
   0 C :    0.067243
   1 C :   -0.024917
   2 C :   -0.049919
   3 C :   -0.069438
   4 N :   -0.107147
   5 C :   -0.020583
   6 N :    0.044452
   7 H :    0.029197
   8 H :    0.029848
   9 H :    0.035775
  10 H :    0.035373
  11 H :    0.016169
  12 H :    0.013947

  Mayer bond orders larger than 0.1
B(  0-C ,  1-C ) :   1.1413 B(  0-C ,  6-N ) :   0.9507 B(  0-C ,  7-H ) :   0.9337
B(  0-C ,  8-H ) :   0.9345 B(  1-C ,  2-C ) :   1.0240 B(  1-C ,  9-H ) :   0.9089
B(  1-C , 10-H ) :   0.9094 B(  2-C ,  3-C ) :   1.4769 B(  2-C ,  6-N ) :   1.2294
B(  3-C ,  4-N ) :   1.3979 B(  3-C , 11-H ) :   1.0116 B(  4-N ,  5-C ) :   1.6107
B(  5-C ,  6-N ) :   1.2004 B(  5-C , 12-H ) :   0.9754

FINAL SINGLE POINT ENERGY      -302.996732990903

DIPOLE MOMENT
-------------
                                X             Y             Z
Electronic contribution:      1.48873       1.39888       3.08313
Nuclear contribution   :     -2.31464      -2.27206      -4.12447
                        -----------------------------------------
Total Dipole Moment    :     -0.82591      -0.87319      -1.04134
                        -----------------------------------------
Magnitude (a.u.)       :      1.59028
Magnitude (Debye)      :      4.04216

                             ****ORCA TERMINATED NORMALLY****
TOTAL RUN TIME: 0 days 0 hours 0 minutes 6 seconds 323 msec
