                         Program Version 3.0.3 - RELEASE   -
|  1> ! RI PBE def2-SVP def2-SVP/J NBO PAL2
|  2> % maxcore 2000
|  3> % output
|  4>     # printlevel mini
|  5>     print[ P_Basis ] 0
|  6>     print[ P_SCFInfo ] 1
|  7>     print[ P_SCFIterInfo ] 1
|  8>     print[ P_OrbEn ] 0
|  9>     print[ P_Cartesian ] 0
| 10> end
| 11> *xyz 0 1
| 12>  C        1.6834540000    -0.1904820000     0.3689640000
| 13>  C        0.8127770000    -1.4264600000     0.0688940000
| 14>  N       -0.2481360000    -0.5463260000    -0.4936110000
| 15>  C       -1.2730760000    -0.1825450000     0.3789410000
| 16>  N       -1.3312330000     1.0185210000     0.7851250000
| 17>  C       -0.1705170000     1.7172750000     0.2310610000
| 18>  C        0.6674010000     0.6295440000    -0.4483220000
| 19>  H        2.7083240000    -0.2139670000    -0.0015820000
| 20>  H        1.6902790000     0.0823560000     1.4259970000
| 21>  H        0.4926590000    -2.0282740000     0.9223930000
| 22>  H        1.2234750000    -2.0855580000    -0.6980030000
| 23>  H       -2.0033920000    -0.9350590000     0.6664590000
| 24>  H        0.3659440000     2.2428520000     1.0279420000
| 25>  H       -0.5075780000     2.4739710000    -0.4843210000
| 26>  H        1.0276270000     0.9135730000    -1.4385270000
| 27> *
| 28>
| 29>                          ****END OF INPUT****
 Total Charge           Charge          ....    0
 Multiplicity           Mult            ....    1
 Number of Electrons    NEL             ....   52
 Basis Dimension        Dim             ....  138

MULLIKEN ATOMIC CHARGES
-----------------------
   0 C :    0.049985
   1 C :    0.125623
   2 N :   -0.280378
   3 C :    0.077086
   4 N :   -0.211624
   5 C :    0.200853
   6 C :   -0.119988
   7 H :    0.024683
   8 H :    0.009455
   9 H :    0.022973
  10 H :    0.030601
  11 H :    0.019216
  12 H :    0.010746
  13 H :    0.025182
  14 H :    0.015588
Sum of atomic charges:    0.0000000

LOEWDIN ATOMIC CHARGES
----------------------
   0 C :   -0.040030
   1 C :    0.046208
   2 N :   -0.092838
   3 C :    0.012703
   4 N :   -0.129462
   5 C :    0.003262
   6 C :    0.017202
   7 H :    0.024866
   8 H :    0.029804
   9 H :    0.018276
  10 H :    0.020993
  11 H :    0.016740
  12 H :    0.024533
  13 H :    0.027123
  14 H :    0.020619

  Mayer bond orders larger than 0.1
B(  0-C ,  1-C ) :   1.1373 B(  0-C ,  6-C ) :   1.0760 B(  0-C ,  7-H ) :   0.9362
B(  0-C ,  8-H ) :   0.8910 B(  1-C ,  2-N ) :   0.9957 B(  1-C ,  9-H ) :   0.9331
B(  1-C , 10-H ) :   0.9402 B(  2-N ,  3-C ) :   1.0936 B(  2-N ,  6-C ) :   1.0136
B(  3-C ,  4-N ) :   1.8936 B(  3-C , 11-H ) :   0.9584 B(  4-N ,  5-C ) :   1.0690
B(  5-C ,  6-C ) :   1.0417 B(  5-C , 12-H ) :   0.9184 B(  5-C , 13-H ) :   0.9277
B(  6-C , 14-H ) :   0.9168

FINAL SINGLE POINT ENERGY      -304.189176915025

DIPOLE MOMENT
-------------
                                X             Y             Z
Electronic contribution:     -3.48471       0.25413      -0.46584
Nuclear contribution   :      4.40021      -0.64192       0.33992
                        -----------------------------------------
Total Dipole Moment    :      0.91550      -0.38779      -0.12592
                        -----------------------------------------
Magnitude (a.u.)       :      1.00218
Magnitude (Debye)      :      2.54735

                             ****ORCA TERMINATED NORMALLY****
TOTAL RUN TIME: 0 days 0 hours 0 minutes 6 seconds 857 msec
