                         Program Version 3.0.3 - RELEASE   -
|  1> ! RI PBE def2-SVP def2-SVP/J NBO PAL2
|  2> % maxcore 2000
|  3> % output
|  4>     # printlevel mini
|  5>     print[ P_Basis ] 0
|  6>     print[ P_SCFInfo ] 1
|  7>     print[ P_SCFIterInfo ] 1
|  8>     print[ P_OrbEn ] 0
|  9>     print[ P_Cartesian ] 0
| 10> end
| 11> *xyz 0 1
| 12>  C        1.3856040000    -0.7059150000    -0.3712870000
| 13>  C        2.5355700000     0.2565980000     0.0932750000
| 14>  C        3.1625570000    -0.0404210000    -1.2542410000
| 15>  C        4.0434230000    -0.0307900000    -2.3158780000
| 16>  C        3.4092160000    -0.9024300000    -3.2355840000
| 17>  N        2.2502440000    -1.4065360000    -2.7961310000
| 18>  N        2.1616090000    -0.8477770000    -1.5990310000
| 19>  H        0.4090820000    -0.2407320000    -0.5162560000
| 20>  H        1.2845990000    -1.6315680000     0.1978910000
| 21>  H        3.0937530000    -0.0932390000     0.9623580000
| 22>  H        2.2233740000     1.2892430000     0.2527470000
| 23>  H        4.9765060000     0.4915810000    -2.4429690000
| 24>  H        3.7619710000    -1.1842320000    -4.2169940000
| 25> *
| 26>
| 27>                          ****END OF INPUT****
 Total Charge           Charge          ....    0
 Multiplicity           Mult            ....    1
 Number of Electrons    NEL             ....   50
 Basis Dimension        Dim             ....  128

MULLIKEN ATOMIC CHARGES
-----------------------
   0 C :    0.154880
   1 C :    0.030976
   2 C :    0.112030
   3 C :   -0.188767
   4 C :    0.021324
   5 N :   -0.105068
   6 N :   -0.176654
   7 H :    0.040787
   8 H :    0.042566
   9 H :    0.040137
  10 H :    0.040608
  11 H :   -0.011155
  12 H :   -0.001662
Sum of atomic charges:   -0.0000000

LOEWDIN ATOMIC CHARGES
----------------------
   0 C :    0.068128
   1 C :   -0.019584
   2 C :   -0.030740
   3 C :   -0.119605
   4 C :   -0.043689
   5 N :   -0.112093
   6 N :    0.082246
   7 H :    0.029079
   8 H :    0.029420
   9 H :    0.035905
  10 H :    0.036127
  11 H :    0.026510
  12 H :    0.018297

  Mayer bond orders larger than 0.1
B(  0-C ,  1-C ) :   1.1334 B(  0-C ,  6-N ) :   0.9873 B(  0-C ,  7-H ) :   0.9329
B(  0-C ,  8-H ) :   0.9330 B(  1-C ,  2-C ) :   1.0455 B(  1-C ,  9-H ) :   0.9068
B(  1-C , 10-H ) :   0.9068 B(  2-C ,  3-C ) :   1.4268 B(  2-C ,  5-N ) :   0.1109
B(  2-C ,  6-N ) :   1.2516 B(  3-C ,  4-C ) :   1.3103 B(  3-C , 11-H ) :   1.0099
B(  4-C ,  5-N ) :   1.5365 B(  4-C , 12-H ) :   0.9832 B(  5-N ,  6-N ) :   1.1415

FINAL SINGLE POINT ENERGY      -302.981414597198

DIPOLE MOMENT
-------------
                                X             Y             Z
Electronic contribution:      0.25120      -1.22040      -2.67780
Nuclear contribution   :     -0.31758       1.70241       3.70491
                        -----------------------------------------
Total Dipole Moment    :     -0.06638       0.48201       1.02712
                        -----------------------------------------
Magnitude (a.u.)       :      1.13653
Magnitude (Debye)      :      2.88884

                             ****ORCA TERMINATED NORMALLY****
TOTAL RUN TIME: 0 days 0 hours 0 minutes 6 seconds 292 msec
