                         Program Version 3.0.3 - RELEASE   -
|  1> ! RI PBE def2-SVP def2-SVP/J NBO PAL2
|  2> % maxcore 2000
|  3> % output
|  4>     # printlevel mini
|  5>     print[ P_Basis ] 0
|  6>     print[ P_SCFInfo ] 1
|  7>     print[ P_SCFIterInfo ] 1
|  8>     print[ P_OrbEn ] 0
|  9>     print[ P_Cartesian ] 0
| 10> end
| 11> *xyz 0 1
| 12>  C        1.6988800000    -0.1419280000     0.3953000000
| 13>  C        0.8357230000    -1.4022460000     0.1883570000
| 14>  N       -0.2128330000    -0.5937060000    -0.4889790000
| 15>  N       -1.2731490000    -0.3101860000     0.3665520000
| 16>  C       -1.2916380000     0.9314730000     0.6445890000
| 17>  C       -0.1501000000     1.7315830000     0.0804960000
| 18>  C        0.6931220000     0.6049360000    -0.4979850000
| 19>  H        2.7248130000    -0.1897920000     0.0296500000
| 20>  H        1.7074000000     0.2160180000     1.4265150000
| 21>  H        0.4733400000    -1.9042250000     1.0855800000
| 22>  H        1.2663410000    -2.1380560000    -0.4933520000
| 23>  H       -2.0933100000     1.3359630000     1.2523330000
| 24>  H        0.3605600000     2.3185260000     0.8509050000
| 25>  H       -0.4874390000     2.4331180000    -0.6896760000
| 26>  H        1.0662800000     0.8174090000    -1.5002050000
| 27> *
| 28>
| 29>                          ****END OF INPUT****
 Total Charge           Charge          ....    0
 Multiplicity           Mult            ....    1
 Number of Electrons    NEL             ....   52
 Basis Dimension        Dim             ....  138

MULLIKEN ATOMIC CHARGES
-----------------------
   0 C :    0.053491
   1 C :    0.138356
   2 N :   -0.263141
   3 N :   -0.047559
   4 C :   -0.080978
   5 C :    0.095275
   6 C :   -0.072078
   7 H :    0.023000
   8 H :    0.005308
   9 H :    0.022844
  10 H :    0.028352
  11 H :    0.017133
  12 H :    0.026132
  13 H :    0.037382
  14 H :    0.016483
Sum of atomic charges:    0.0000000

LOEWDIN ATOMIC CHARGES
----------------------
   0 C :   -0.042013
   1 C :    0.035299
   2 N :   -0.068242
   3 N :   -0.040487
   4 C :   -0.044455
   5 C :   -0.065169
   6 C :    0.016477
   7 H :    0.025243
   8 H :    0.027628
   9 H :    0.019885
  10 H :    0.021346
  11 H :    0.019644
  12 H :    0.034824
  13 H :    0.037824
  14 H :    0.022197

  Mayer bond orders larger than 0.1
B(  0-C ,  1-C ) :   1.1460 B(  0-C ,  6-C ) :   1.0911 B(  0-C ,  7-H ) :   0.9340
B(  0-C ,  8-H ) :   0.8943 B(  1-C ,  2-N ) :   0.9978 B(  1-C ,  9-H ) :   0.9304
B(  1-C , 10-H ) :   0.9384 B(  2-N ,  3-N ) :   1.0180 B(  2-N ,  6-C ) :   0.9667
B(  3-N ,  4-C ) :   1.8825 B(  4-C ,  5-C ) :   0.9956 B(  4-C , 11-H ) :   0.9700
B(  5-C ,  6-C ) :   1.0713 B(  5-C , 12-H ) :   0.9188 B(  5-C , 13-H ) :   0.9117
B(  6-C , 14-H ) :   0.9135

FINAL SINGLE POINT ENERGY      -304.167248832438

DIPOLE MOMENT
-------------
                                X             Y             Z
Electronic contribution:     -3.45301      -1.20436      -0.86499
Nuclear contribution   :      4.25426       1.84875       1.05787
                        -----------------------------------------
Total Dipole Moment    :      0.80125       0.64439       0.19287
                        -----------------------------------------
Magnitude (a.u.)       :      1.04615
Magnitude (Debye)      :      2.65911

                             ****ORCA TERMINATED NORMALLY****
TOTAL RUN TIME: 0 days 0 hours 0 minutes 7 seconds 338 msec
