                         Program Version 3.0.3 - RELEASE   -
|  1> ! RI PBE def2-SVP def2-SVP/J NBO PAL2
|  2> % maxcore 2000
|  3> % output
|  4>     # printlevel mini
|  5>     print[ P_Basis ] 0
|  6>     print[ P_SCFInfo ] 1
|  7>     print[ P_SCFIterInfo ] 1
|  8>     print[ P_OrbEn ] 0
|  9>     print[ P_Cartesian ] 0
| 10> end
| 11> *xyz 0 1
| 12>  C        0.2530060000    -1.6116990000    -1.1058550000
| 13>  C        0.8824650000    -0.2531400000    -1.0254320000
| 14>  C        0.2326530000    -0.8510720000     0.1824570000
| 15>  N        1.0680560000    -1.3003150000     1.2346090000
| 16>  C        1.4111180000    -0.3716980000     2.3191630000
| 17>  C        1.3471370000    -1.5513370000     3.3005860000
| 18>  C        0.5349780000    -2.2620760000     2.2078370000
| 19>  H        0.9181800000    -2.4643300000    -1.1532930000
| 20>  H       -0.6759590000    -1.7195280000    -1.6513950000
| 21>  H        0.3874890000     0.5757640000    -1.5154600000
| 22>  H        1.9639250000    -0.2073290000    -1.0196550000
| 23>  H       -0.7306000000    -0.4224650000     0.4799710000
| 24>  H        0.6153080000     0.3644050000     2.5127650000
| 25>  H        2.3597660000     0.1570700000     2.1961590000
| 26>  H        0.8603360000    -1.3821850000     4.2592880000
| 27>  H        2.3218600000    -2.0123990000     3.4585330000
| 28>  H       -0.5489440000    -2.1475970000     2.3648120000
| 29>  H        0.7523050000    -3.3112590000     1.9918890000
| 30> *
| 31>
| 32>                          ****END OF INPUT****
 Total Charge           Charge          ....    0
 Multiplicity           Mult            ....    1
 Number of Electrons    NEL             ....   54
 Basis Dimension        Dim             ....  153

MULLIKEN ATOMIC CHARGES
-----------------------
   0 C :   -0.022995
   1 C :   -0.026898
   2 C :   -0.033707
   3 N :   -0.316971
   4 C :    0.142583
   5 C :   -0.065580
   6 C :    0.133280
   7 H :    0.033036
   8 H :    0.031714
   9 H :    0.030559
  10 H :    0.036326
  11 H :   -0.006182
  12 H :   -0.008657
  13 H :    0.013809
  14 H :    0.023339
  15 H :    0.024082
  16 H :   -0.004117
  17 H :    0.016379
Sum of atomic charges:   -0.0000000

LOEWDIN ATOMIC CHARGES
----------------------
   0 C :   -0.048249
   1 C :   -0.049134
   2 C :   -0.009074
   3 N :   -0.108734
   4 C :    0.036575
   5 C :   -0.042264
   6 C :    0.034809
   7 H :    0.029298
   8 H :    0.025933
   9 H :    0.025720
  10 H :    0.029905
  11 H :   -0.001120
  12 H :    0.002986
  13 H :    0.010570
  14 H :    0.020127
  15 H :    0.027864
  16 H :    0.003754
  17 H :    0.011033

  Mayer bond orders larger than 0.1
B(  0-C ,  1-C ) :   1.0620 B(  0-C ,  2-C ) :   0.9922 B(  0-C ,  7-H ) :   0.9410
B(  0-C ,  8-H ) :   0.9458 B(  1-C ,  2-C ) :   0.9922 B(  1-C ,  9-H ) :   0.9454
B(  1-C , 10-H ) :   0.9417 B(  2-C ,  3-N ) :   1.0828 B(  2-C , 11-H ) :   0.9158
B(  3-N ,  4-C ) :   0.9997 B(  3-N ,  6-C ) :   0.9988 B(  4-C ,  5-C ) :   1.0953
B(  4-C , 12-H ) :   0.9173 B(  4-C , 13-H ) :   0.9443 B(  5-C ,  6-C ) :   1.0964
B(  5-C , 14-H ) :   0.9523 B(  5-C , 15-H ) :   0.9287 B(  6-C , 16-H ) :   0.9179
B(  6-C , 17-H ) :   0.9443

FINAL SINGLE POINT ENERGY      -289.339890224927

DIPOLE MOMENT
-------------
                                X             Y             Z
Electronic contribution:      0.53890      -0.23011      -0.36204
Nuclear contribution   :     -0.69953       0.29083       0.57440
                        -----------------------------------------
Total Dipole Moment    :     -0.16063       0.06072       0.21236
                        -----------------------------------------
Magnitude (a.u.)       :      0.27311
Magnitude (Debye)      :      0.69418

                             ****ORCA TERMINATED NORMALLY****
TOTAL RUN TIME: 0 days 0 hours 0 minutes 7 seconds 734 msec
