                         Program Version 3.0.3 - RELEASE   -
|  1> ! RI PBE def2-SVP def2-SVP/J NBO PAL2
|  2> % maxcore 2000
|  3> % output
|  4>     # printlevel mini
|  5>     print[ P_Basis ] 0
|  6>     print[ P_SCFInfo ] 1
|  7>     print[ P_SCFIterInfo ] 1
|  8>     print[ P_OrbEn ] 0
|  9>     print[ P_Cartesian ] 0
| 10> end
| 11> *xyz 0 1
| 12>  C        1.9559510000     0.0397430000    -0.5756050000
| 13>  C        1.6206390000    -0.1290660000     0.8820080000
| 14>  C        0.5352350000     0.0434950000    -0.1370030000
| 15>  C       -0.3500150000     1.2877340000    -0.1364310000
| 16>  C       -1.7773250000     0.7218120000     0.0044270000
| 17>  C       -1.5600320000    -0.7865540000     0.2116480000
| 18>  N       -0.2858240000    -1.1098130000    -0.4222510000
| 19>  H        2.3122960000    -0.8333650000    -1.1088450000
| 20>  H        2.3898010000     0.9795480000    -0.8963880000
| 21>  H        1.8315470000     0.6970640000     1.5509370000
| 22>  H        1.7406680000    -1.1175490000     1.3069970000
| 23>  H       -0.2401740000     1.8456060000    -1.0704800000
| 24>  H       -0.0900170000     1.9670390000     0.6781210000
| 25>  H       -2.3500620000     0.8978900000    -0.9097060000
| 26>  H       -2.3341690000     1.1778380000     0.8255370000
| 27>  H       -2.3636790000    -1.4033230000    -0.1943540000
| 28>  H       -1.4767770000    -1.0123400000     1.2796630000
| 29>  H       -0.4234610000    -1.1717480000    -1.4268560000
| 30> *
| 31>
| 32>                          ****END OF INPUT****
 Total Charge           Charge          ....    0
 Multiplicity           Mult            ....    1
 Number of Electrons    NEL             ....   54
 Basis Dimension        Dim             ....  153

MULLIKEN ATOMIC CHARGES
-----------------------
   0 C :   -0.007953
   1 C :    0.032011
   2 C :   -0.295472
   3 C :    0.159175
   4 C :   -0.061595
   5 C :    0.132558
   6 N :   -0.187004
   7 H :    0.029058
   8 H :    0.025410
   9 H :    0.026187
  10 H :    0.023768
  11 H :    0.002215
  12 H :   -0.002721
  13 H :    0.008438
  14 H :    0.009277
  15 H :    0.007888
  16 H :    0.001844
  17 H :    0.096916
Sum of atomic charges:    0.0000000

LOEWDIN ATOMIC CHARGES
----------------------
   0 C :   -0.045582
   1 C :   -0.043281
   2 C :   -0.033593
   3 C :   -0.039239
   4 C :   -0.058387
   5 C :    0.011871
   6 N :   -0.082004
   7 H :    0.029649
   8 H :    0.026012
   9 H :    0.021916
  10 H :    0.027477
  11 H :    0.023149
  12 H :    0.025422
  13 H :    0.021478
  14 H :    0.024645
  15 H :    0.019032
  16 H :    0.019215
  17 H :    0.052221

  Mayer bond orders larger than 0.1
B(  0-C ,  1-C ) :   1.0536 B(  0-C ,  2-C ) :   0.9947 B(  0-C ,  7-H ) :   0.9322
B(  0-C ,  8-H ) :   0.9424 B(  1-C ,  2-C ) :   0.9697 B(  1-C ,  9-H ) :   0.9419
B(  1-C , 10-H ) :   0.9305 B(  2-C ,  3-C ) :   1.0111 B(  2-C ,  6-N ) :   1.1111
B(  3-C ,  4-C ) :   1.1314 B(  3-C , 11-H ) :   0.9181 B(  3-C , 12-H ) :   0.9073
B(  4-C ,  5-C ) :   1.1010 B(  4-C , 13-H ) :   0.9273 B(  4-C , 14-H ) :   0.9220
B(  5-C ,  6-N ) :   1.0628 B(  5-C , 15-H ) :   0.9481 B(  5-C , 16-H ) :   0.9210
B(  6-N , 17-H ) :   0.9411

FINAL SINGLE POINT ENERGY      -289.372741052347

DIPOLE MOMENT
-------------
                                X             Y             Z
Electronic contribution:      0.71902      -1.53075      -0.56970
Nuclear contribution   :     -0.95230       1.82760       0.33710
                        -----------------------------------------
Total Dipole Moment    :     -0.23328       0.29685      -0.23259
                        -----------------------------------------
Magnitude (a.u.)       :      0.44344
Magnitude (Debye)      :      1.12713

                             ****ORCA TERMINATED NORMALLY****
TOTAL RUN TIME: 0 days 0 hours 0 minutes 8 seconds 169 msec
