                         Program Version 3.0.3 - RELEASE   -
|  1> ! RI PBE def2-SVP def2-SVP/J NBO PAL2
|  2> % maxcore 2000
|  3> % output
|  4>     # printlevel mini
|  5>     print[ P_Basis ] 0
|  6>     print[ P_SCFInfo ] 1
|  7>     print[ P_SCFIterInfo ] 1
|  8>     print[ P_OrbEn ] 0
|  9>     print[ P_Cartesian ] 0
| 10> end
| 11> *xyz 0 1
| 12>  C       -1.6712500000     0.8752390000     0.5068500000
| 13>  C       -1.1150640000    -0.2606370000    -0.2977650000
| 14>  C       -0.3118200000    -1.3692300000     0.3403270000
| 15>  C        1.1033260000    -1.3704560000    -0.2411920000
| 16>  C        1.7511010000     0.0302550000    -0.1757260000
| 17>  N        0.8279400000     0.9875860000     0.4166740000
| 18>  C       -0.4121090000     1.0646920000    -0.2857010000
| 19>  H       -1.5618820000     0.8316550000     1.5838220000
| 20>  H       -2.5742300000     1.3557650000     0.1500620000
| 21>  H       -1.6483160000    -0.5204960000    -1.2059430000
| 22>  H       -0.7859500000    -2.3395730000     0.1706770000
| 23>  H       -0.2664760000    -1.2216240000     1.4211250000
| 24>  H        1.0538700000    -1.7013530000    -1.2824700000
| 25>  H        1.7237870000    -2.1011700000     0.2842180000
| 26>  H        2.0767260000     0.3307450000    -1.1848920000
| 27>  H        2.6477470000     0.0052380000     0.4491680000
| 28>  H        1.2559950000     1.8920180000     0.5493220000
| 29>  H       -0.4634950000     1.6782450000    -1.1870670000
| 30> *
| 31>
| 32>                          ****END OF INPUT****
 Total Charge           Charge          ....    0
 Multiplicity           Mult            ....    1
 Number of Electrons    NEL             ....   54
 Basis Dimension        Dim             ....  153

MULLIKEN ATOMIC CHARGES
-----------------------
   0 C :    0.048334
   1 C :   -0.159374
   2 C :    0.109913
   3 C :   -0.043957
   4 C :    0.138348
   5 N :   -0.201163
   6 C :   -0.043498
   7 H :    0.025241
   8 H :    0.014727
   9 H :    0.012947
  10 H :    0.005680
  11 H :    0.006008
  12 H :    0.003944
  13 H :    0.007849
  14 H :   -0.023323
  15 H :    0.001472
  16 H :    0.098925
  17 H :   -0.002073
Sum of atomic charges:    0.0000000

LOEWDIN ATOMIC CHARGES
----------------------
   0 C :   -0.046214
   1 C :   -0.044800
   2 C :   -0.032331
   3 C :   -0.048213
   4 C :    0.016803
   5 N :   -0.086236
   6 C :   -0.007882
   7 H :    0.027102
   8 H :    0.023850
   9 H :    0.023218
  10 H :    0.026245
  11 H :    0.028257
  12 H :    0.021841
  13 H :    0.024699
  14 H :   -0.003064
  15 H :    0.017952
  16 H :    0.057522
  17 H :    0.001251

  Mayer bond orders larger than 0.1
B(  0-C ,  1-C ) :   1.0199 B(  0-C ,  6-C ) :   0.9884 B(  0-C ,  7-H ) :   0.9258
B(  0-C ,  8-H ) :   0.9326 B(  1-C ,  2-C ) :   1.0835 B(  1-C ,  6-C ) :   0.9515
B(  1-C ,  9-H ) :   0.9415 B(  2-C ,  3-C ) :   1.1143 B(  2-C , 10-H ) :   0.9310
B(  2-C , 11-H ) :   0.9067 B(  3-C ,  4-C ) :   1.0847 B(  3-C , 12-H ) :   0.9348
B(  3-C , 13-H ) :   0.9303 B(  4-C ,  5-N ) :   1.0802 B(  4-C , 14-H ) :   0.9261
B(  4-C , 15-H ) :   0.9381 B(  5-N ,  6-C ) :   1.1509 B(  5-N , 16-H ) :   0.9444
B(  6-C , 17-H ) :   0.9290

FINAL SINGLE POINT ENERGY      -289.371680745973

DIPOLE MOMENT
-------------
                                X             Y             Z
Electronic contribution:     -0.62414       1.77099       0.41628
Nuclear contribution   :      0.82073      -1.63778      -0.63179
                        -----------------------------------------
Total Dipole Moment    :      0.19659       0.13321      -0.21552
                        -----------------------------------------
Magnitude (a.u.)       :      0.32068
Magnitude (Debye)      :      0.81512

                             ****ORCA TERMINATED NORMALLY****
TOTAL RUN TIME: 0 days 0 hours 0 minutes 8 seconds 282 msec
