                         Program Version 3.0.3 - RELEASE   -
|  1> ! RI PBE def2-SVP def2-SVP/J NBO PAL2
|  2> % maxcore 2000
|  3> % output
|  4>     # printlevel mini
|  5>     print[ P_Basis ] 0
|  6>     print[ P_SCFInfo ] 1
|  7>     print[ P_SCFIterInfo ] 1
|  8>     print[ P_OrbEn ] 0
|  9>     print[ P_Cartesian ] 0
| 10> end
| 11> *xyz 0 1
| 12>  C       -1.4112990000     0.7534370000     0.7447920000
| 13>  C       -1.1502160000    -0.2769090000    -0.3315250000
| 14>  N       -0.3129000000    -1.3936410000     0.0167790000
| 15>  C        1.0766910000    -1.2409290000    -0.3661880000
| 16>  C        1.6081190000     0.0344960000     0.2660390000
| 17>  N        0.9310760000     1.2298270000    -0.2222610000
| 18>  C       -0.4912140000     1.0741720000    -0.3883910000
| 19>  H       -0.9747120000     0.5213290000     1.7084030000
| 20>  H       -2.3669060000     1.2632300000     0.7820410000
| 21>  H       -1.9460690000    -0.4833710000    -1.0424890000
| 22>  H       -0.7069200000    -2.2620820000    -0.3085380000
| 23>  H        1.2317140000    -1.1861360000    -1.4594870000
| 24>  H        1.6356820000    -2.1047730000     0.0047200000
| 25>  H        2.6767560000     0.1482590000     0.0700780000
| 26>  H        1.4815930000    -0.0352300000     1.3513550000
| 27>  H        1.3179900000     1.4638090000    -1.1282230000
| 28>  H       -0.8848760000     1.7715020000    -1.1191040000
| 29> *
| 30>
| 31>                          ****END OF INPUT****
 Total Charge           Charge          ....    0
 Multiplicity           Mult            ....    1
 Number of Electrons    NEL             ....   54
 Basis Dimension        Dim             ....  148

MULLIKEN ATOMIC CHARGES
-----------------------
   0 C :    0.034334
   1 C :   -0.043183
   2 N :   -0.197969
   3 C :    0.107037
   4 C :    0.031852
   5 N :   -0.162336
   6 C :   -0.052785
   7 H :    0.024627
   8 H :    0.018630
   9 H :    0.008083
  10 H :    0.096424
  11 H :   -0.024239
  12 H :    0.003437
  13 H :    0.013682
  14 H :    0.025352
  15 H :    0.096910
  16 H :    0.020145
Sum of atomic charges:    0.0000000

LOEWDIN ATOMIC CHARGES
----------------------
   0 C :   -0.065411
   1 C :   -0.016069
   2 N :   -0.086834
   3 C :   -0.000979
   4 C :   -0.002559
   5 N :   -0.078362
   6 C :   -0.009139
   7 H :    0.027320
   8 H :    0.023842
   9 H :    0.010665
  10 H :    0.058158
  11 H :   -0.007300
  12 H :    0.020709
  13 H :    0.024199
  14 H :    0.021115
  15 H :    0.056826
  16 H :    0.023821

  Mayer bond orders larger than 0.1
B(  0-C ,  1-C ) :   0.9410 B(  0-C ,  6-C ) :   0.9886 B(  0-C ,  7-H ) :   0.9292
B(  0-C ,  8-H ) :   0.9338 B(  1-C ,  2-N ) :   1.0930 B(  1-C ,  6-C ) :   0.9552
B(  1-C ,  9-H ) :   0.9354 B(  2-N ,  3-C ) :   1.0576 B(  2-N , 10-H ) :   0.9448
B(  3-C ,  4-C ) :   1.0630 B(  3-C , 11-H ) :   0.9096 B(  3-C , 12-H ) :   0.9293
B(  4-C ,  5-N ) :   1.0812 B(  4-C , 13-H ) :   0.9416 B(  4-C , 14-H ) :   0.9301
B(  5-N ,  6-C ) :   1.0981 B(  5-N , 15-H ) :   0.9394 B(  6-C , 16-H ) :   0.9426

FINAL SINGLE POINT ENERGY      -305.379249229331

DIPOLE MOMENT
-------------
                                X             Y             Z
Electronic contribution:     -0.79289       0.56124      -0.08344
Nuclear contribution   :      0.83014      -0.93749      -0.59977
                        -----------------------------------------
Total Dipole Moment    :      0.03726      -0.37624      -0.68321
                        -----------------------------------------
Magnitude (a.u.)       :      0.78084
Magnitude (Debye)      :      1.98475

                             ****ORCA TERMINATED NORMALLY****
TOTAL RUN TIME: 0 days 0 hours 0 minutes 7 seconds 886 msec
