                         Program Version 3.0.3 - RELEASE   -
|  1> ! RI PBE def2-SVP def2-SVP/J NBO PAL2
|  2> % maxcore 2000
|  3> % output
|  4>     # printlevel mini
|  5>     print[ P_Basis ] 0
|  6>     print[ P_SCFInfo ] 1
|  7>     print[ P_SCFIterInfo ] 1
|  8>     print[ P_OrbEn ] 0
|  9>     print[ P_Cartesian ] 0
| 10> end
| 11> *xyz 0 1
| 12>  C        0.8039790000    -1.2507840000     0.5184840000
| 13>  C        1.6799170000    -0.1105430000    -0.0050690000
| 14>  N        0.9893320000     1.0611900000    -0.5058810000
| 15>  C       -0.1187830000     1.5360930000     0.2968160000
| 16>  C       -1.4043710000     0.7582780000     0.1836520000
| 17>  C       -1.5345220000    -0.5259150000    -0.1399600000
| 18>  C       -0.4278460000    -1.5235640000    -0.3378850000
| 19>  H        0.4684510000    -1.0254820000     1.5361330000
| 20>  H        1.4195890000    -2.1539700000     0.5922340000
| 21>  H        2.3077650000    -0.4797050000    -0.8221590000
| 22>  H        2.3677880000     0.1990560000     0.7912670000
| 23>  H        0.6655450000     0.8975900000    -1.4499960000
| 24>  H       -0.3292390000     2.5732020000     0.0113540000
| 25>  H        0.2091360000     1.5896280000     1.3432180000
| 26>  H       -2.3132140000     1.3348300000     0.3448170000
| 27>  H       -2.5444110000    -0.9154290000    -0.2433700000
| 28>  H       -0.1479160000    -1.5815820000    -1.3994350000
| 29>  H       -0.8228890000    -2.5144910000    -0.0939100000
| 30> *
| 31>
| 32>                          ****END OF INPUT****
 Total Charge           Charge          ....    0
 Multiplicity           Mult            ....    1
 Number of Electrons    NEL             ....   54
 Basis Dimension        Dim             ....  153

MULLIKEN ATOMIC CHARGES
-----------------------
   0 C :   -0.021446
   1 C :    0.072261
   2 N :   -0.232116
   3 C :    0.141750
   4 C :   -0.100108
   5 C :   -0.078290
   6 C :    0.045731
   7 H :    0.013842
   8 H :    0.006650
   9 H :    0.005634
  10 H :    0.009045
  11 H :    0.098974
  12 H :    0.012382
  13 H :    0.021895
  14 H :   -0.010888
  15 H :   -0.007762
  16 H :    0.017932
  17 H :    0.004515
Sum of atomic charges:   -0.0000000

LOEWDIN ATOMIC CHARGES
----------------------
   0 C :   -0.061888
   1 C :    0.003854
   2 N :   -0.092078
   3 C :    0.001721
   4 C :   -0.067895
   5 C :   -0.049082
   6 C :   -0.049548
   7 H :    0.023894
   8 H :    0.026940
   9 H :    0.021887
  10 H :    0.018768
  11 H :    0.052888
  12 H :    0.028417
  13 H :    0.032139
  14 H :    0.023566
  15 H :    0.024260
  16 H :    0.029912
  17 H :    0.032247

  Mayer bond orders larger than 0.1
B(  0-C ,  1-C ) :   1.0461 B(  0-C ,  6-C ) :   1.0811 B(  0-C ,  7-H ) :   0.9324
B(  0-C ,  8-H ) :   0.9187 B(  1-C ,  2-N ) :   1.1129 B(  1-C ,  9-H ) :   0.9437
B(  1-C , 10-H ) :   0.9405 B(  2-N ,  3-C ) :   1.1031 B(  2-N , 11-H ) :   0.9468
B(  3-C ,  4-C ) :   1.0163 B(  3-C , 12-H ) :   0.9262 B(  3-C , 13-H ) :   0.9172
B(  4-C ,  5-C ) :   1.9542 B(  4-C , 14-H ) :   0.9395 B(  5-C ,  6-C ) :   1.0470
B(  5-C , 15-H ) :   0.9493 B(  6-C , 16-H ) :   0.9167 B(  6-C , 17-H ) :   0.9160

FINAL SINGLE POINT ENERGY      -289.377031658793

DIPOLE MOMENT
-------------
                                X             Y             Z
Electronic contribution:     -1.01221       1.58488      -0.67165
Nuclear contribution   :      0.87554      -1.87430       0.59863
                        -----------------------------------------
Total Dipole Moment    :     -0.13667      -0.28942      -0.07302
                        -----------------------------------------
Magnitude (a.u.)       :      0.32829
Magnitude (Debye)      :      0.83445

                             ****ORCA TERMINATED NORMALLY****
TOTAL RUN TIME: 0 days 0 hours 0 minutes 8 seconds 493 msec
