                         Program Version 3.0.3 - RELEASE   -
|  1> ! RI PBE def2-SVP def2-SVP/J NBO PAL2
|  2> % maxcore 2000
|  3> % output
|  4>     # printlevel mini
|  5>     print[ P_Basis ] 0
|  6>     print[ P_SCFInfo ] 1
|  7>     print[ P_SCFIterInfo ] 1
|  8>     print[ P_OrbEn ] 0
|  9>     print[ P_Cartesian ] 0
| 10> end
| 11> *xyz 0 1
| 12>  C       -1.4746670000     0.7230970000     0.1207730000
| 13>  C       -1.4807650000    -0.7775960000    -0.1126330000
| 14>  N       -0.2893180000    -1.4414030000     0.3859840000
| 15>  C        0.8845410000    -1.1822270000    -0.4257540000
| 16>  C        1.7126040000     0.0107550000     0.0312040000
| 17>  N        0.9320460000     1.1944140000     0.3433150000
| 18>  C       -0.2606490000     1.4602390000    -0.4353630000
| 19>  H       -1.5177540000     0.9242490000     1.1948590000
| 20>  H       -2.3816310000     1.1368020000    -0.3352190000
| 21>  H       -1.6160510000    -0.9629760000    -1.1955670000
| 22>  H       -2.3483880000    -1.2098210000     0.3944330000
| 23>  H       -0.4587990000    -2.4361720000     0.4266880000
| 24>  H        0.6047390000    -1.0479220000    -1.4848140000
| 25>  H        1.5426900000    -2.0551060000    -0.3928860000
| 26>  H        2.4583320000     0.1900250000    -0.7627760000
| 27>  H        2.2667610000    -0.2699360000     0.9338160000
| 28>  H        1.5325790000     2.0043020000     0.3670000000
| 29>  H       -0.1452530000     1.2421550000    -1.5117590000
| 30>  H       -0.4577170000     2.5336200000    -0.3646820000
| 31> *
| 32>
| 33>                          ****END OF INPUT****
 Total Charge           Charge          ....    0
 Multiplicity           Mult            ....    1
 Number of Electrons    NEL             ....   56
 Basis Dimension        Dim             ....  158

MULLIKEN ATOMIC CHARGES
-----------------------
   0 C :    0.049865
   1 C :    0.062888
   2 N :   -0.211873
   3 C :    0.013915
   4 C :    0.147258
   5 N :   -0.235150
   6 C :    0.032805
   7 H :    0.003853
   8 H :   -0.008610
   9 H :   -0.019066
  10 H :   -0.000706
  11 H :    0.097660
  12 H :   -0.014517
  13 H :    0.013130
  14 H :   -0.013494
  15 H :   -0.002779
  16 H :    0.096316
  17 H :   -0.016267
  18 H :    0.004772
Sum of atomic charges:    0.0000000

LOEWDIN ATOMIC CHARGES
----------------------
   0 C :   -0.055320
   1 C :    0.007985
   2 N :   -0.094432
   3 C :   -0.003851
   4 C :    0.004817
   5 N :   -0.102667
   6 C :    0.003266
   7 H :    0.025092
   8 H :    0.022874
   9 H :   -0.004501
  10 H :    0.020214
  11 H :    0.055752
  12 H :   -0.001694
  13 H :    0.027690
  14 H :    0.001922
  15 H :    0.015931
  16 H :    0.055467
  17 H :   -0.002401
  18 H :    0.023860

  Mayer bond orders larger than 0.1
B(  0-C ,  1-C ) :   1.1102 B(  0-C ,  6-C ) :   1.0932 B(  0-C ,  7-H ) :   0.9060
B(  0-C ,  8-H ) :   0.9165 B(  1-C ,  2-N ) :   1.0776 B(  1-C ,  9-H ) :   0.9139
B(  1-C , 10-H ) :   0.9329 B(  2-N ,  3-C ) :   1.1006 B(  2-N , 11-H ) :   0.9449
B(  3-C ,  4-C ) :   1.0843 B(  3-C , 12-H ) :   0.9019 B(  3-C , 13-H ) :   0.9380
B(  4-C ,  5-N ) :   1.0642 B(  4-C , 14-H ) :   0.9227 B(  4-C , 15-H ) :   0.9220
B(  5-N ,  6-C ) :   1.1120 B(  5-N , 16-H ) :   0.9468 B(  6-C , 17-H ) :   0.9149
B(  6-C , 18-H ) :   0.9360

FINAL SINGLE POINT ENERGY      -306.602654575798

DIPOLE MOMENT
-------------
                                X             Y             Z
Electronic contribution:      0.70896      -0.23536       1.85182
Nuclear contribution   :     -0.60223       0.11189      -2.28717
                        -----------------------------------------
Total Dipole Moment    :      0.10673      -0.12347      -0.43535
                        -----------------------------------------
Magnitude (a.u.)       :      0.46494
Magnitude (Debye)      :      1.18177

                             ****ORCA TERMINATED NORMALLY****
TOTAL RUN TIME: 0 days 0 hours 0 minutes 8 seconds 633 msec
