                         Program Version 3.0.3 - RELEASE   -
|  1> ! RI PBE def2-SVP def2-SVP/J NBO PAL2
|  2> % maxcore 2000
|  3> % output
|  4>     # printlevel mini
|  5>     print[ P_Basis ] 0
|  6>     print[ P_SCFInfo ] 1
|  7>     print[ P_SCFIterInfo ] 1
|  8>     print[ P_OrbEn ] 0
|  9>     print[ P_Cartesian ] 0
| 10> end
| 11> *xyz 0 1
| 12>  C        2.1081680000    -0.1787070000    -0.0390250000
| 13>  C        0.7875180000    -0.8579580000     0.1648440000
| 14>  C       -0.4079190000    -1.4096040000    -0.5484320000
| 15>  C       -1.4936930000    -0.4313280000    -0.0684870000
| 16>  N       -1.3474760000     0.7027450000     0.5114810000
| 17>  N       -0.0822560000     1.2317840000     0.7362690000
| 18>  C        0.8335010000     0.6079840000    -0.1473710000
| 19>  H        2.6591490000    -0.2443210000    -0.9707180000
| 20>  H        2.7306330000    -0.1385010000     0.8468650000
| 21>  H        0.6408100000    -0.9752020000     1.2362620000
| 22>  H       -0.6803350000    -2.4263840000    -0.2449540000
| 23>  H       -0.3309900000    -1.4087000000    -1.6402140000
| 24>  H       -2.5320020000    -0.7450600000    -0.1554160000
| 25>  H       -0.1588720000     2.2388870000     0.7198050000
| 26>  H        0.5968670000     0.7979640000    -1.1973000000
| 27> *
| 28>
| 29>                          ****END OF INPUT****
 Total Charge           Charge          ....    0
 Multiplicity           Mult            ....    1
 Number of Electrons    NEL             ....   52
 Basis Dimension        Dim             ....  138

MULLIKEN ATOMIC CHARGES
-----------------------
   0 C :    0.099545
   1 C :   -0.156799
   2 C :    0.149097
   3 C :   -0.123485
   4 N :   -0.094925
   5 N :   -0.044376
   6 C :   -0.099764
   7 H :    0.018260
   8 H :    0.022790
   9 H :    0.041599
  10 H :    0.011440
  11 H :    0.027108
  12 H :    0.008929
  13 H :    0.114357
  14 H :    0.026223
Sum of atomic charges:   -0.0000000

LOEWDIN ATOMIC CHARGES
----------------------
   0 C :   -0.019827
   1 C :   -0.059206
   2 C :   -0.050273
   3 C :   -0.054964
   4 N :   -0.048672
   5 N :    0.006631
   6 C :   -0.037140
   7 H :    0.034141
   8 H :    0.036828
   9 H :    0.035030
  10 H :    0.030008
  11 H :    0.034427
  12 H :    0.018584
  13 H :    0.059998
  14 H :    0.014434

  Mayer bond orders larger than 0.1
B(  0-C ,  1-C ) :   1.0542 B(  0-C ,  6-C ) :   1.0427 B(  0-C ,  7-H ) :   0.9070
B(  0-C ,  8-H ) :   0.9079 B(  1-C ,  2-C ) :   1.0759 B(  1-C ,  6-C ) :   0.8573
B(  1-C ,  9-H ) :   0.9469 B(  2-C ,  3-C ) :   0.9605 B(  2-C , 10-H ) :   0.9080
B(  2-C , 11-H ) :   0.9155 B(  3-C ,  4-N ) :   1.9322 B(  3-C ,  5-N ) :   0.1111
B(  3-C , 12-H ) :   0.9534 B(  4-N ,  5-N ) :   1.0652 B(  5-N ,  6-C ) :   1.0813
B(  5-N , 13-H ) :   0.9306 B(  6-C , 14-H ) :   0.9412

FINAL SINGLE POINT ENERGY      -304.126335863608

DIPOLE MOMENT
-------------
                                X             Y             Z
Electronic contribution:     -1.83185       2.37139       1.53486
Nuclear contribution   :      2.35550      -2.46986      -1.96802
                        -----------------------------------------
Total Dipole Moment    :      0.52365      -0.09847      -0.43316
                        -----------------------------------------
Magnitude (a.u.)       :      0.68668
Magnitude (Debye)      :      1.74539

                             ****ORCA TERMINATED NORMALLY****
TOTAL RUN TIME: 0 days 0 hours 0 minutes 7 seconds 181 msec
