                         Program Version 3.0.3 - RELEASE   -
|  1> ! RI PBE def2-SVP def2-SVP/J NBO PAL2
|  2> % maxcore 2000
|  3> % output
|  4>     # printlevel mini
|  5>     print[ P_Basis ] 0
|  6>     print[ P_SCFInfo ] 1
|  7>     print[ P_SCFIterInfo ] 1
|  8>     print[ P_OrbEn ] 0
|  9>     print[ P_Cartesian ] 0
| 10> end
| 11> *xyz 0 1
| 12>  C       -2.6499090000     0.2853760000     0.5948650000
| 13>  N       -2.3723010000     0.1766150000    -0.8377430000
| 14>  C       -1.2645340000     0.1665530000     0.1135990000
| 15>  C       -0.4539510000    -1.1214600000     0.1880930000
| 16>  C        0.9431190000    -0.6543270000    -0.0843610000
| 17>  C        1.0371650000     0.6710410000    -0.0996420000
| 18>  C       -0.2821020000     1.3330680000     0.1618100000
| 19>  H       -3.1496390000    -0.5746640000     1.0301680000
| 20>  H       -2.9697940000     1.2442800000     0.9932620000
| 21>  H       -2.4499280000     1.0884070000    -1.2769640000
| 22>  H       -0.8206190000    -1.8482880000    -0.5422940000
| 23>  H       -0.5257320000    -1.5926860000     1.1765480000
| 24>  H        1.7743370000    -1.3344400000    -0.2299800000
| 25>  H        1.9533530000     1.2280830000    -0.2566590000
| 26>  H       -0.5269580000     2.1021380000    -0.5804120000
| 27>  H       -0.2860060000     1.8316340000     1.1395090000
| 28> *
| 29>
| 30>                          ****END OF INPUT****
 Total Charge           Charge          ....    0
 Multiplicity           Mult            ....    1
 Number of Electrons    NEL             ....   52
 Basis Dimension        Dim             ....  143

MULLIKEN ATOMIC CHARGES
-----------------------
   0 C :    0.088534
   1 N :   -0.169829
   2 C :   -0.370752
   3 C :    0.215572
   4 C :   -0.070398
   5 C :   -0.069966
   6 C :    0.189707
   7 H :    0.022724
   8 H :    0.018891
   9 H :    0.099576
  10 H :    0.018819
  11 H :    0.021224
  12 H :   -0.012026
  13 H :   -0.014145
  14 H :    0.006833
  15 H :    0.025235
Sum of atomic charges:   -0.0000000

LOEWDIN ATOMIC CHARGES
----------------------
   0 C :    0.003494
   1 N :   -0.096197
   2 C :   -0.020900
   3 C :   -0.032718
   4 C :   -0.032584
   5 C :   -0.042182
   6 C :   -0.036675
   7 H :    0.019513
   8 H :    0.014162
   9 H :    0.048348
  10 H :    0.036183
  11 H :    0.033427
  12 H :    0.022080
  13 H :    0.021073
  14 H :    0.028480
  15 H :    0.034496

  Mayer bond orders larger than 0.1
B(  0-C ,  1-N ) :   1.0114 B(  0-C ,  2-C ) :   1.0428 B(  0-C ,  7-H ) :   0.9316
B(  0-C ,  8-H ) :   0.9395 B(  1-N ,  2-C ) :   0.9862 B(  1-N ,  9-H ) :   0.9421
B(  2-C ,  3-C ) :   1.0175 B(  2-C ,  6-C ) :   1.0221 B(  3-C ,  4-C ) :   1.0367
B(  3-C , 10-H ) :   0.8970 B(  3-C , 11-H ) :   0.9065 B(  4-C ,  5-C ) :   1.8612
B(  4-C , 12-H ) :   0.9841 B(  5-C ,  6-C ) :   1.0371 B(  5-C , 13-H ) :   0.9848
B(  6-C , 14-H ) :   0.9037 B(  6-C , 15-H ) :   0.9017

FINAL SINGLE POINT ENERGY      -288.155401184222

DIPOLE MOMENT
-------------
                                X             Y             Z
Electronic contribution:      0.30596      -0.39629      -1.02071
Nuclear contribution   :     -0.15569       0.87566       1.33808
                        -----------------------------------------
Total Dipole Moment    :      0.15027       0.47937       0.31737
                        -----------------------------------------
Magnitude (a.u.)       :      0.59422
Magnitude (Debye)      :      1.51039

                             ****ORCA TERMINATED NORMALLY****
TOTAL RUN TIME: 0 days 0 hours 0 minutes 7 seconds 430 msec
