                         Program Version 3.0.3 - RELEASE   -
|  1> ! RI PBE def2-SVP def2-SVP/J NBO PAL2
|  2> % maxcore 2000
|  3> % output
|  4>     # printlevel mini
|  5>     print[ P_Basis ] 0
|  6>     print[ P_SCFInfo ] 1
|  7>     print[ P_SCFIterInfo ] 1
|  8>     print[ P_OrbEn ] 0
|  9>     print[ P_Cartesian ] 0
| 10> end
| 11> *xyz 0 1
| 12>  C        1.2509940000     0.0404330000     0.2260810000
| 13>  C        0.8170080000     1.1452690000     1.1494080000
| 14>  C        0.9071590000     2.5536190000     0.7201970000
| 15>  N       -0.3946440000     1.9061880000     0.8702780000
| 16>  C        2.6997710000    -0.3251180000     0.3962550000
| 17>  C        3.0952650000    -1.3796710000     1.3487790000
| 18>  N        3.1995800000    -1.6046220000    -0.0916710000
| 19>  H        1.0695470000     0.3508110000    -0.8114210000
| 20>  H        0.6349970000    -0.8508920000     0.4042870000
| 21>  H        0.9513220000     0.9309220000     2.2068870000
| 22>  H        1.2780820000     2.7478660000    -0.2823150000
| 23>  H        1.1169250000     3.3351930000     1.4421380000
| 24>  H       -0.7618150000     1.6498440000    -0.0408810000
| 25>  H        3.3958540000     0.4941820000     0.2335820000
| 26>  H        2.3024530000    -1.8812690000     1.8966780000
| 27>  H        4.0423800000    -1.3184450000     1.8734510000
| 28>  H        2.4257220000    -2.1795290000    -0.4100440000
| 29> *
| 30>
| 31>                          ****END OF INPUT****
 Total Charge           Charge          ....    0
 Multiplicity           Mult            ....    1
 Number of Electrons    NEL             ....   54
 Basis Dimension        Dim             ....  148

MULLIKEN ATOMIC CHARGES
-----------------------
   0 C :    0.176910
   1 C :   -0.125094
   2 C :    0.040223
   3 N :   -0.186289
   4 C :   -0.126476
   5 C :    0.037072
   6 N :   -0.184074
   7 H :   -0.008060
   8 H :   -0.009131
   9 H :    0.022733
  10 H :    0.025621
  11 H :    0.038523
  12 H :    0.104603
  13 H :    0.022866
  14 H :    0.027619
  15 H :    0.039334
  16 H :    0.103620
Sum of atomic charges:   -0.0000000

LOEWDIN ATOMIC CHARGES
----------------------
   0 C :   -0.049703
   1 C :   -0.008519
   2 C :    0.000089
   3 N :   -0.102054
   4 C :   -0.008270
   5 C :   -0.001304
   6 N :   -0.101102
   7 H :    0.026106
   8 H :    0.026149
   9 H :    0.022258
  10 H :    0.013737
  11 H :    0.022498
  12 H :    0.050656
  13 H :    0.022448
  14 H :    0.014214
  15 H :    0.022338
  16 H :    0.050460

  Mayer bond orders larger than 0.1
B(  0-C ,  1-C ) :   1.0562 B(  0-C ,  4-C ) :   1.0579 B(  0-C ,  7-H ) :   0.8974
B(  0-C ,  8-H ) :   0.8952 B(  1-C ,  2-C ) :   1.0529 B(  1-C ,  3-N ) :   0.9888
B(  1-C ,  9-H ) :   0.9326 B(  2-C ,  3-N ) :   1.0156 B(  2-C , 10-H ) :   0.9403
B(  2-C , 11-H ) :   0.9409 B(  3-N , 12-H ) :   0.9486 B(  4-C ,  5-C ) :   1.0509
B(  4-C ,  6-N ) :   0.9903 B(  4-C , 13-H ) :   0.9326 B(  5-C ,  6-N ) :   1.0134
B(  5-C , 14-H ) :   0.9396 B(  5-C , 15-H ) :   0.9420 B(  6-N , 16-H ) :   0.9487

FINAL SINGLE POINT ENERGY      -305.348139378939

DIPOLE MOMENT
-------------
                                X             Y             Z
Electronic contribution:     -0.19153      -0.13900      -0.21147
Nuclear contribution   :      0.02547       0.01855       0.02744
                        -----------------------------------------
Total Dipole Moment    :     -0.16606      -0.12044      -0.18403
                        -----------------------------------------
Magnitude (a.u.)       :      0.27559
Magnitude (Debye)      :      0.70050

                             ****ORCA TERMINATED NORMALLY****
TOTAL RUN TIME: 0 days 0 hours 0 minutes 7 seconds 472 msec
