                         Program Version 3.0.3 - RELEASE   -
|  1> ! RI PBE def2-SVP def2-SVP/J NBO PAL2
|  2> % maxcore 2000
|  3> % output
|  4>     # printlevel mini
|  5>     print[ P_Basis ] 0
|  6>     print[ P_SCFInfo ] 1
|  7>     print[ P_SCFIterInfo ] 1
|  8>     print[ P_OrbEn ] 0
|  9>     print[ P_Cartesian ] 0
| 10> end
| 11> *xyz 0 1
| 12>  C        0.2732420000     1.5031990000     0.5292110000
| 13>  N        1.1579940000     0.5372860000    -0.1427640000
| 14>  C        0.2414250000    -0.3392930000    -0.9243360000
| 15>  C       -0.7580290000     0.7009980000    -1.4215300000
| 16>  C       -1.1396510000     1.1205730000     0.0077600000
| 17>  C       -1.4426600000    -0.2219930000     0.6207560000
| 18>  C       -0.6172520000    -1.1086820000     0.0581630000
| 19>  H        0.5265380000     2.5244660000     0.2275670000
| 20>  H        0.3354080000     1.4441380000     1.6194040000
| 21>  H        1.6667430000    -0.0144660000     0.5352880000
| 22>  H        0.7852630000    -0.9145100000    -1.6721260000
| 23>  H       -1.5922830000     0.2629750000    -1.9686250000
| 24>  H       -0.2853000000     1.4942380000    -2.0044850000
| 25>  H       -1.8904720000     1.9001730000     0.1256900000
| 26>  H       -2.1089540000    -0.3843970000     1.4589440000
| 27>  H       -0.4748020000    -2.1451140000     0.3398030000
| 28> *
| 29>
| 30>                          ****END OF INPUT****
 Total Charge           Charge          ....    0
 Multiplicity           Mult            ....    1
 Number of Electrons    NEL             ....   52
 Basis Dimension        Dim             ....  143

MULLIKEN ATOMIC CHARGES
-----------------------
   0 C :    0.182883
   1 N :   -0.187133
   2 C :   -0.026207
   3 C :    0.092905
   4 C :   -0.179186
   5 C :    0.002628
   6 C :   -0.004842
   7 H :    0.010508
   8 H :    0.004842
   9 H :    0.095476
  10 H :   -0.006225
  11 H :    0.024645
  12 H :    0.018550
  13 H :    0.000652
  14 H :   -0.012267
  15 H :   -0.017229
Sum of atomic charges:   -0.0000000

LOEWDIN ATOMIC CHARGES
----------------------
   0 C :    0.027548
   1 N :   -0.092621
   2 C :    0.014882
   3 C :   -0.019089
   4 C :   -0.043079
   5 C :   -0.033418
   6 C :   -0.057286
   7 H :    0.017694
   8 H :    0.013205
   9 H :    0.050518
  10 H :    0.015456
  11 H :    0.026297
  12 H :    0.022997
  13 H :    0.020556
  14 H :    0.019189
  15 H :    0.017150

  Mayer bond orders larger than 0.1
B(  0-C ,  1-N ) :   1.0519 B(  0-C ,  4-C ) :   0.9989 B(  0-C ,  7-H ) :   0.9237
B(  0-C ,  8-H ) :   0.9313 B(  1-N ,  2-C ) :   1.0337 B(  1-N ,  9-H ) :   0.9425
B(  2-C ,  3-C ) :   0.9962 B(  2-C ,  6-C ) :   0.9666 B(  2-C , 10-H ) :   0.9490
B(  3-C ,  4-C ) :   0.9997 B(  3-C , 11-H ) :   0.9447 B(  3-C , 12-H ) :   0.9328
B(  4-C ,  5-C ) :   0.9752 B(  4-C , 13-H ) :   0.9481 B(  5-C ,  6-C ) :   1.7547
B(  5-C , 14-H ) :   1.0021 B(  6-C , 15-H ) :   1.0054

FINAL SINGLE POINT ENERGY      -288.169086469629

DIPOLE MOMENT
-------------
                                X             Y             Z
Electronic contribution:      0.22584      -1.20091       0.03769
Nuclear contribution   :     -0.33988       1.10644       0.24606
                        -----------------------------------------
Total Dipole Moment    :     -0.11404      -0.09447       0.28375
                        -----------------------------------------
Magnitude (a.u.)       :      0.32006
Magnitude (Debye)      :      0.81354

                             ****ORCA TERMINATED NORMALLY****
TOTAL RUN TIME: 0 days 0 hours 0 minutes 7 seconds 837 msec
