                         Program Version 3.0.3 - RELEASE   -
|  1> ! RI PBE def2-SVP def2-SVP/J NBO PAL2
|  2> % maxcore 2000
|  3> % output
|  4>     # printlevel mini
|  5>     print[ P_Basis ] 0
|  6>     print[ P_SCFInfo ] 1
|  7>     print[ P_SCFIterInfo ] 1
|  8>     print[ P_OrbEn ] 0
|  9>     print[ P_Cartesian ] 0
| 10> end
| 11> *xyz 0 1
| 12>  C        0.8023670000    -1.2052390000     0.8957880000
| 13>  C        1.1110600000    -0.3900520000    -0.3020390000
| 14>  N        0.9810260000     1.0362850000    -0.3020330000
| 15>  C       -0.1792170000     1.5345600000     0.4344930000
| 16>  C       -1.4402490000     0.7791100000     0.1294240000
| 17>  C       -1.4025710000    -0.5062040000    -0.2244310000
| 18>  C       -0.1396050000    -1.2574160000    -0.2931660000
| 19>  H        0.4284010000    -0.7190680000     1.7879180000
| 20>  H        1.4208900000    -2.0738600000     1.0846060000
| 21>  H        1.9339850000    -0.7288020000    -0.9215380000
| 22>  H        0.8877690000     1.3331640000    -1.2673020000
| 23>  H       -0.2984560000     2.5920170000     0.1847810000
| 24>  H        0.0479470000     1.5114760000     1.5069830000
| 25>  H       -2.3869920000     1.3083620000     0.1717180000
| 26>  H       -2.3183390000    -1.0249320000    -0.4911790000
| 27>  H       -0.1436150000    -2.1717110000    -0.8750230000
| 28> *
| 29>
| 30>                          ****END OF INPUT****
 Total Charge           Charge          ....    0
 Multiplicity           Mult            ....    1
 Number of Electrons    NEL             ....   52
 Basis Dimension        Dim             ....  143

MULLIKEN ATOMIC CHARGES
-----------------------
   0 C :    0.017629
   1 C :   -0.025621
   2 N :   -0.158621
   3 C :    0.122597
   4 C :   -0.150284
   5 C :    0.072799
   6 C :   -0.098929
   7 H :    0.038999
   8 H :    0.032485
   9 H :    0.021329
  10 H :    0.102125
  11 H :    0.013375
  12 H :    0.032805
  13 H :   -0.012383
  14 H :   -0.018831
  15 H :    0.010524
Sum of atomic charges:   -0.0000000

LOEWDIN ATOMIC CHARGES
----------------------
   0 C :   -0.036168
   1 C :    0.007142
   2 N :   -0.069216
   3 C :    0.004905
   4 C :   -0.079852
   5 C :   -0.035533
   6 C :   -0.065883
   7 H :    0.030390
   8 H :    0.031111
   9 H :    0.025734
  10 H :    0.060790
  11 H :    0.030076
  12 H :    0.025497
  13 H :    0.021002
  14 H :    0.025842
  15 H :    0.024162

  Mayer bond orders larger than 0.1
B(  0-C ,  1-C ) :   1.0129 B(  0-C ,  6-C ) :   0.9311 B(  0-C ,  7-H ) :   0.9394
B(  0-C ,  8-H ) :   0.9387 B(  1-C ,  2-N ) :   1.1212 B(  1-C ,  6-C ) :   0.8684
B(  1-C ,  9-H ) :   0.9382 B(  2-N ,  3-C ) :   1.0720 B(  2-N , 10-H ) :   0.9415
B(  3-C ,  4-C ) :   1.0226 B(  3-C , 11-H ) :   0.9326 B(  3-C , 12-H ) :   0.9171
B(  4-C ,  5-C ) :   1.8515 B(  4-C , 13-H ) :   0.9573 B(  5-C ,  6-C ) :   1.0898
B(  5-C , 14-H ) :   0.9750 B(  6-C , 15-H ) :   0.9365

FINAL SINGLE POINT ENERGY      -288.158731096730

DIPOLE MOMENT
-------------
                                X             Y             Z
Electronic contribution:      0.15421       0.05747      -0.93793
Nuclear contribution   :     -0.24708      -0.14581       0.69356
                        -----------------------------------------
Total Dipole Moment    :     -0.09287      -0.08834      -0.24437
                        -----------------------------------------
Magnitude (a.u.)       :      0.27595
Magnitude (Debye)      :      0.70140

                             ****ORCA TERMINATED NORMALLY****
TOTAL RUN TIME: 0 days 0 hours 0 minutes 7 seconds 770 msec
