                         Program Version 3.0.3 - RELEASE   -
|  1> ! RI PBE def2-SVP def2-SVP/J NBO PAL2
|  2> % maxcore 2000
|  3> % output
|  4>     # printlevel mini
|  5>     print[ P_Basis ] 0
|  6>     print[ P_SCFInfo ] 1
|  7>     print[ P_SCFIterInfo ] 1
|  8>     print[ P_OrbEn ] 0
|  9>     print[ P_Cartesian ] 0
| 10> end
| 11> *xyz 0 1
| 12>  C        1.5499750000    -0.2949260000     0.3901540000
| 13>  N        0.8563530000    -1.5272590000    -0.0267150000
| 14>  C       -0.2071280000    -0.7328330000    -0.6777940000
| 15>  C       -1.3907670000    -0.3595170000     0.1649420000
| 16>  C       -1.3537260000     0.9119730000     0.5541420000
| 17>  C       -0.1540100000     1.6477720000     0.0268220000
| 18>  C        0.6861850000     0.5298160000    -0.5842720000
| 19>  H        2.6269520000    -0.3137810000     0.2021710000
| 20>  H        1.3797520000    -0.0028080000     1.4337390000
| 21>  H        0.5418230000    -2.1209150000     0.7316680000
| 22>  H       -0.4913160000    -1.1231300000    -1.6610090000
| 23>  H       -2.1793750000    -1.0614510000     0.4154630000
| 24>  H       -2.1056830000     1.3889180000     1.1740390000
| 25>  H        0.3843240000     2.1858010000     0.8156100000
| 26>  H       -0.4489170000     2.4012760000    -0.7134560000
| 27>  H        1.2067680000     0.8093750000    -1.4989040000
| 28> *
| 29>
| 30>                          ****END OF INPUT****
 Total Charge           Charge          ....    0
 Multiplicity           Mult            ....    1
 Number of Electrons    NEL             ....   52
 Basis Dimension        Dim             ....  143

MULLIKEN ATOMIC CHARGES
-----------------------
   0 C :    0.189797
   1 N :   -0.226969
   2 C :    0.070194
   3 C :    0.004099
   4 C :   -0.092169
   5 C :    0.150995
   6 C :   -0.236519
   7 H :    0.013505
   8 H :   -0.004183
   9 H :    0.089084
  10 H :    0.007551
  11 H :   -0.006661
  12 H :   -0.006638
  13 H :    0.016036
  14 H :    0.025622
  15 H :    0.006257
Sum of atomic charges:   -0.0000000

LOEWDIN ATOMIC CHARGES
----------------------
   0 C :    0.032207
   1 N :   -0.103229
   2 C :    0.019423
   3 C :   -0.054524
   4 C :   -0.026266
   5 C :   -0.039165
   6 C :   -0.028963
   7 H :    0.013123
   8 H :    0.006147
   9 H :    0.043172
  10 H :    0.011894
  11 H :    0.021392
  12 H :    0.020606
  13 H :    0.028739
  14 H :    0.031832
  15 H :    0.023612

  Mayer bond orders larger than 0.1
B(  0-C ,  1-N ) :   1.0688 B(  0-C ,  6-C ) :   1.0671 B(  0-C ,  7-H ) :   0.9312
B(  0-C ,  8-H ) :   0.9190 B(  1-N ,  2-C ) :   1.0942 B(  1-N ,  9-H ) :   0.9397
B(  2-C ,  3-C ) :   0.9825 B(  2-C ,  6-C ) :   1.0571 B(  2-C , 10-H ) :   0.9023
B(  3-C ,  4-C ) :   1.8393 B(  3-C , 11-H ) :   0.9817 B(  4-C ,  5-C ) :   1.0263
B(  4-C , 12-H ) :   0.9813 B(  5-C ,  6-C ) :   1.0474 B(  5-C , 13-H ) :   0.9159
B(  5-C , 14-H ) :   0.9119 B(  6-C , 15-H ) :   0.9041

FINAL SINGLE POINT ENERGY      -288.158784399344

DIPOLE MOMENT
-------------
                                X             Y             Z
Electronic contribution:     -0.86539      -1.61037      -0.64282
Nuclear contribution   :      0.64288       1.91151       0.93070
                        -----------------------------------------
Total Dipole Moment    :     -0.22251       0.30115       0.28788
                        -----------------------------------------
Magnitude (a.u.)       :      0.47231
Magnitude (Debye)      :      1.20052

                             ****ORCA TERMINATED NORMALLY****
TOTAL RUN TIME: 0 days 0 hours 0 minutes 7 seconds 736 msec
