                         Program Version 3.0.3 - RELEASE   -
|  1> ! RI PBE def2-SVP def2-SVP/J NBO PAL2
|  2> % maxcore 2000
|  3> % output
|  4>     # printlevel mini
|  5>     print[ P_Basis ] 0
|  6>     print[ P_SCFInfo ] 1
|  7>     print[ P_SCFIterInfo ] 1
|  8>     print[ P_OrbEn ] 0
|  9>     print[ P_Cartesian ] 0
| 10> end
| 11> *xyz 0 1
| 12>  C        0.7799470000    -1.5037390000     0.4103420000
| 13>  N        1.3679440000    -0.1940600000     0.7345570000
| 14>  C        0.6663120000     0.4556560000    -0.3880650000
| 15>  C       -0.2170390000     1.6299260000     0.0315480000
| 16>  C       -1.4991870000     0.9545730000     0.4268120000
| 17>  C       -1.5122710000    -0.3426700000     0.1345120000
| 18>  C       -0.2401040000    -0.7963670000    -0.5056470000
| 19>  H        0.3835470000    -2.0461040000     1.2741770000
| 20>  H        1.4415260000    -2.1721260000    -0.1546470000
| 21>  H        2.3773580000    -0.1507850000     0.7010370000
| 22>  H        1.2978100000     0.6692800000    -1.2563690000
| 23>  H       -0.3768450000     2.3493280000    -0.7809090000
| 24>  H        0.2409260000     2.1755050000     0.8630780000
| 25>  H       -2.3190870000     1.4845210000     0.8990250000
| 26>  H       -2.3433150000    -1.0114840000     0.3303860000
| 27>  H       -0.3879120000    -1.2528340000    -1.4867160000
| 28> *
| 29>
| 30>                          ****END OF INPUT****
 Total Charge           Charge          ....    0
 Multiplicity           Mult            ....    1
 Number of Electrons    NEL             ....   52
 Basis Dimension        Dim             ....  143

MULLIKEN ATOMIC CHARGES
-----------------------
   0 C :    0.202243
   1 N :   -0.230246
   2 C :   -0.081869
   3 C :    0.209587
   4 C :   -0.096276
   5 C :    0.024250
   6 C :   -0.135407
   7 H :    0.002627
   8 H :   -0.001724
   9 H :    0.094490
  10 H :   -0.007839
  11 H :    0.015215
  12 H :    0.010357
  13 H :   -0.011293
  14 H :   -0.010610
  15 H :    0.016496
Sum of atomic charges:   -0.0000000

LOEWDIN ATOMIC CHARGES
----------------------
   0 C :    0.034267
   1 N :   -0.105627
   2 C :    0.030449
   3 C :   -0.048715
   4 C :   -0.025162
   5 C :   -0.036814
   6 C :   -0.038466
   7 H :    0.009286
   8 H :    0.004650
   9 H :    0.046481
  10 H :    0.005405
  11 H :    0.027681
  12 H :    0.032751
  13 H :    0.020368
  14 H :    0.021234
  15 H :    0.022214

  Mayer bond orders larger than 0.1
B(  0-C ,  1-N ) :   1.0716 B(  0-C ,  6-C ) :   1.0630 B(  0-C ,  7-H ) :   0.9257
B(  0-C ,  8-H ) :   0.9266 B(  1-N ,  2-C ) :   1.0824 B(  1-N ,  9-H ) :   0.9469
B(  2-C ,  3-C ) :   1.0316 B(  2-C ,  6-C ) :   1.0497 B(  2-C , 10-H ) :   0.9173
B(  3-C ,  4-C ) :   1.0128 B(  3-C , 11-H ) :   0.9103 B(  3-C , 12-H ) :   0.8915
B(  4-C ,  5-C ) :   1.8691 B(  4-C , 13-H ) :   0.9783 B(  5-C ,  6-C ) :   0.9743
B(  5-C , 14-H ) :   0.9819 B(  6-C , 15-H ) :   0.9107

FINAL SINGLE POINT ENERGY      -288.159058332985

DIPOLE MOMENT
-------------
                                X             Y             Z
Electronic contribution:     -0.47028       0.03943       0.32274
Nuclear contribution   :      0.72954      -0.14509      -0.69625
                        -----------------------------------------
Total Dipole Moment    :      0.25926      -0.10566      -0.37350
                        -----------------------------------------
Magnitude (a.u.)       :      0.46678
Magnitude (Debye)      :      1.18647

                             ****ORCA TERMINATED NORMALLY****
TOTAL RUN TIME: 0 days 0 hours 0 minutes 7 seconds 727 msec
