                         Program Version 3.0.3 - RELEASE   -
|  1> ! RI PBE def2-SVP def2-SVP/J NBO PAL2
|  2> % maxcore 2000
|  3> % output
|  4>     # printlevel mini
|  5>     print[ P_Basis ] 0
|  6>     print[ P_SCFInfo ] 1
|  7>     print[ P_SCFIterInfo ] 1
|  8>     print[ P_OrbEn ] 0
|  9>     print[ P_Cartesian ] 0
| 10> end
| 11> *xyz 0 1
| 12>  C       -1.1978810000    -0.7236480000    -0.5171590000
| 13>  N       -1.1908440000     0.7599980000    -0.4962140000
| 14>  C       -0.0188700000     1.0941330000     0.3260430000
| 15>  C        1.2134910000     0.7283860000    -0.5093790000
| 16>  N        1.2064250000    -0.7553740000    -0.4995540000
| 17>  C        0.0328560000    -1.0956460000     0.3178970000
| 18>  C        0.0059530000    -0.0047610000     1.3916280000
| 19>  H       -1.0951960000    -1.1032930000    -1.5359370000
| 20>  H       -2.1160790000    -1.1306170000    -0.0827970000
| 21>  H       -2.0267690000     1.0995130000    -0.0379640000
| 22>  H       -0.0435330000     2.1310070000     0.6602390000
| 23>  H        2.1308410000     1.1320860000    -0.0701970000
| 24>  H        1.1127860000     1.1156480000    -1.5254840000
| 25>  H        2.0414590000    -1.0983170000    -0.0422340000
| 26>  H        0.0568760000    -2.1349940000     0.6443690000
| 27>  H        0.8999370000    -0.0091710000     2.0204890000
| 28>  H       -0.8892530000    -0.0050510000     2.0187640000
| 29> *
| 30>
| 31>                          ****END OF INPUT****
 Total Charge           Charge          ....    0
 Multiplicity           Mult            ....    1
 Number of Electrons    NEL             ....   54
 Basis Dimension        Dim             ....  148

MULLIKEN ATOMIC CHARGES
-----------------------
   0 C :    0.215660
   1 N :   -0.194130
   2 C :   -0.156241
   3 C :    0.214973
   4 N :   -0.193880
   5 C :   -0.156935
   6 C :    0.077545
   7 H :    0.006708
   8 H :    0.000175
   9 H :    0.092527
  10 H :   -0.005671
  11 H :    0.000212
  12 H :    0.006772
  13 H :    0.092588
  14 H :   -0.005570
  15 H :    0.002639
  16 H :    0.002626
Sum of atomic charges:   -0.0000000

LOEWDIN ATOMIC CHARGES
----------------------
   0 C :    0.018175
   1 N :   -0.101809
   2 C :   -0.001642
   3 C :    0.018120
   4 N :   -0.101793
   5 C :   -0.001704
   6 C :   -0.058542
   7 H :    0.018167
   8 H :    0.012966
   9 H :    0.049933
  10 H :    0.016552
  11 H :    0.012969
  12 H :    0.018175
  13 H :    0.049948
  14 H :    0.016569
  15 H :    0.016959
  16 H :    0.016958

  Mayer bond orders larger than 0.1
B(  0-C ,  1-N ) :   1.0310 B(  0-C ,  5-C ) :   1.0071 B(  0-C ,  7-H ) :   0.9105
B(  0-C ,  8-H ) :   0.9369 B(  1-N ,  2-C ) :   1.0785 B(  1-N ,  9-H ) :   0.9415
B(  2-C ,  3-C ) :   1.0071 B(  2-C ,  6-C ) :   0.9831 B(  2-C , 10-H ) :   0.9404
B(  3-C ,  4-N ) :   1.0310 B(  3-C , 11-H ) :   0.9370 B(  3-C , 12-H ) :   0.9106
B(  4-N ,  5-C ) :   1.0787 B(  4-N , 13-H ) :   0.9415 B(  5-C ,  6-C ) :   0.9831
B(  5-C , 14-H ) :   0.9404 B(  6-C , 15-H ) :   0.9312 B(  6-C , 16-H ) :   0.9312

FINAL SINGLE POINT ENERGY      -305.403406496821

DIPOLE MOMENT
-------------
                                X             Y             Z
Electronic contribution:      0.00104       0.00406      -1.05169
Nuclear contribution   :     -0.00184      -0.00709       1.89436
                        -----------------------------------------
Total Dipole Moment    :     -0.00080      -0.00303       0.84266
                        -----------------------------------------
Magnitude (a.u.)       :      0.84267
Magnitude (Debye)      :      2.14189

                             ****ORCA TERMINATED NORMALLY****
TOTAL RUN TIME: 0 days 0 hours 0 minutes 7 seconds 722 msec
