                         Program Version 3.0.3 - RELEASE   -
|  1> ! RI PBE def2-SVP def2-SVP/J NBO PAL2
|  2> % maxcore 2000
|  3> % output
|  4>     # printlevel mini
|  5>     print[ P_Basis ] 0
|  6>     print[ P_SCFInfo ] 1
|  7>     print[ P_SCFIterInfo ] 1
|  8>     print[ P_OrbEn ] 0
|  9>     print[ P_Cartesian ] 0
| 10> end
| 11> *xyz 0 1
| 12>  C        1.6448570000    -0.7088150000     0.5317760000
| 13>  N        2.1196020000     0.6220670000    -0.0056050000
| 14>  C        3.0726450000     0.6401790000     1.0628800000
| 15>  C        4.0238180000     1.2379830000     1.8412670000
| 16>  N        4.1313540000     0.3998330000     2.9400360000
| 17>  C        3.2795380000    -0.6772420000     2.8625730000
| 18>  C        2.6228050000    -0.5315970000     1.6733890000
| 19>  H        1.8497390000    -1.5504630000    -0.1351950000
| 20>  H        0.5829410000    -0.6897000000     0.7841110000
| 21>  H        2.5107360000     0.5763450000    -0.9396900000
| 22>  H        4.6287710000     2.1253770000     1.7574320000
| 23>  H        4.8096200000     0.5231640000     3.6687280000
| 24>  H        3.2527750000    -1.4127230000     3.6506880000
| 25> *
| 26>
| 27>                          ****END OF INPUT****
 Total Charge           Charge          ....    0
 Multiplicity           Mult            ....    1
 Number of Electrons    NEL             ....   50
 Basis Dimension        Dim             ....  128

MULLIKEN ATOMIC CHARGES
-----------------------
   0 C :    0.202757
   1 N :   -0.204024
   2 C :    0.118261
   3 C :   -0.107423
   4 N :   -0.080298
   5 C :   -0.069685
   6 C :   -0.113435
   7 H :    0.024670
   8 H :    0.030285
   9 H :    0.109190
  10 H :   -0.014892
  11 H :    0.112043
  12 H :   -0.007449
Sum of atomic charges:   -0.0000000

LOEWDIN ATOMIC CHARGES
----------------------
   0 C :    0.060358
   1 N :   -0.076682
   2 C :   -0.043667
   3 C :   -0.082466
   4 N :    0.091674
   5 C :   -0.048176
   6 C :   -0.114963
   7 H :    0.022253
   8 H :    0.026146
   9 H :    0.056702
  10 H :    0.014462
  11 H :    0.078890
  12 H :    0.015469

  Mayer bond orders larger than 0.1
B(  0-C ,  1-N ) :   1.0413 B(  0-C ,  6-C ) :   1.0434 B(  0-C ,  7-H ) :   0.9187
B(  0-C ,  8-H ) :   0.9162 B(  1-N ,  2-C ) :   1.0603 B(  1-N ,  9-H ) :   0.9277
B(  2-C ,  3-C ) :   1.4341 B(  2-C ,  6-C ) :   1.3462 B(  3-C ,  4-N ) :   1.1681
B(  3-C ,  5-C ) :   0.1210 B(  3-C , 10-H ) :   1.0043 B(  4-N ,  5-C ) :   1.2242
B(  4-N , 11-H ) :   0.9418 B(  5-C ,  6-C ) :   1.4594 B(  5-C , 12-H ) :   0.9885

FINAL SINGLE POINT ENERGY      -302.964971746408

DIPOLE MOMENT
-------------
                                X             Y             Z
Electronic contribution:      0.87440       0.93723       0.72589
Nuclear contribution   :     -0.27354      -1.19940      -0.47275
                        -----------------------------------------
Total Dipole Moment    :      0.60086      -0.26217       0.25314
                        -----------------------------------------
Magnitude (a.u.)       :      0.70274
Magnitude (Debye)      :      1.78623

                             ****ORCA TERMINATED NORMALLY****
TOTAL RUN TIME: 0 days 0 hours 0 minutes 6 seconds 459 msec
