                         Program Version 3.0.3 - RELEASE   -
|  1> ! RI PBE def2-SVP def2-SVP/J NBO PAL2
|  2> % maxcore 2000
|  3> % output
|  4>     # printlevel mini
|  5>     print[ P_Basis ] 0
|  6>     print[ P_SCFInfo ] 1
|  7>     print[ P_SCFIterInfo ] 1
|  8>     print[ P_OrbEn ] 0
|  9>     print[ P_Cartesian ] 0
| 10> end
| 11> *xyz 0 1
| 12>  C       -0.3521950000    -0.9640720000    -0.5629940000
| 13>  N        0.9680360000    -1.2264590000    -1.1286050000
| 14>  C        0.8458910000    -0.3133200000     0.0031930000
| 15>  C        1.4934610000    -0.7242360000     1.2877900000
| 16>  C        0.8043130000    -0.3811550000     2.6222760000
| 17>  N        1.2269080000    -1.6923920000     3.1370670000
| 18>  C        1.4321670000    -2.1847790000     1.7630950000
| 19>  H       -0.8078250000    -1.8097060000    -0.0594660000
| 20>  H       -1.0473030000    -0.3434530000    -1.1199550000
| 21>  H        1.0951210000    -0.7189480000    -1.9963300000
| 22>  H        0.9371530000     0.7497450000    -0.2155310000
| 23>  H        2.5295880000    -0.3753790000     1.2969060000
| 24>  H       -0.2817210000    -0.2748730000     2.4912870000
| 25>  H        1.1789080000     0.4767390000     3.1874520000
| 26>  H        0.5358120000    -2.1913480000     3.6816590000
| 27>  H        0.5730130000    -2.7211670000     1.3423660000
| 28>  H        2.3265830000    -2.7949960000     1.6221710000
| 29> *
| 30>
| 31>                          ****END OF INPUT****
 Total Charge           Charge          ....    0
 Multiplicity           Mult            ....    1
 Number of Electrons    NEL             ....   54
 Basis Dimension        Dim             ....  148

MULLIKEN ATOMIC CHARGES
-----------------------
   0 C :    0.038673
   1 N :   -0.197335
   2 C :   -0.073540
   3 C :   -0.121855
   4 C :    0.164436
   5 N :   -0.282258
   6 C :    0.173632
   7 H :    0.026514
   8 H :    0.028329
   9 H :    0.107550
  10 H :    0.019817
  11 H :    0.014112
  12 H :   -0.006587
  13 H :    0.005817
  14 H :    0.091842
  15 H :   -0.003195
  16 H :    0.014049
Sum of atomic charges:   -0.0000000

LOEWDIN ATOMIC CHARGES
----------------------
   0 C :   -0.004212
   1 N :   -0.104441
   2 C :   -0.009399
   3 C :   -0.041108
   4 C :    0.030365
   5 N :   -0.115699
   6 C :    0.035901
   7 H :    0.013421
   8 H :    0.015582
   9 H :    0.055834
  10 H :    0.016645
  11 H :    0.032248
  12 H :    0.003013
  13 H :    0.007928
  14 H :    0.044585
  15 H :    0.005841
  16 H :    0.013496

  Mayer bond orders larger than 0.1
B(  0-C ,  1-N ) :   1.0023 B(  0-C ,  2-C ) :   1.0598 B(  0-C ,  7-H ) :   0.9306
B(  0-C ,  8-H ) :   0.9437 B(  1-N ,  2-C ) :   0.9842 B(  1-N ,  9-H ) :   0.9437
B(  2-C ,  3-C ) :   1.0083 B(  2-C , 10-H ) :   0.9420 B(  3-C ,  4-C ) :   1.0686
B(  3-C ,  6-C ) :   1.0780 B(  3-C , 11-H ) :   0.8888 B(  4-C ,  5-N ) :   1.0581
B(  4-C , 12-H ) :   0.9239 B(  4-C , 13-H ) :   0.9349 B(  5-N ,  6-C ) :   1.0426
B(  5-N , 14-H ) :   0.9425 B(  6-C , 15-H ) :   0.9241 B(  6-C , 16-H ) :   0.9298

FINAL SINGLE POINT ENERGY      -305.349135026228

DIPOLE MOMENT
-------------
                                X             Y             Z
Electronic contribution:      1.27635      -0.23982      -0.39381
Nuclear contribution   :     -1.85989       0.72671       0.05247
                        -----------------------------------------
Total Dipole Moment    :     -0.58354       0.48689      -0.34134
                        -----------------------------------------
Magnitude (a.u.)       :      0.83313
Magnitude (Debye)      :      2.11764

                             ****ORCA TERMINATED NORMALLY****
TOTAL RUN TIME: 0 days 0 hours 0 minutes 7 seconds 917 msec
