                         Program Version 3.0.3 - RELEASE   -
|  1> ! RI PBE def2-SVP def2-SVP/J NBO PAL2
|  2> % maxcore 2000
|  3> % output
|  4>     # printlevel mini
|  5>     print[ P_Basis ] 0
|  6>     print[ P_SCFInfo ] 1
|  7>     print[ P_SCFIterInfo ] 1
|  8>     print[ P_OrbEn ] 0
|  9>     print[ P_Cartesian ] 0
| 10> end
| 11> *xyz 0 1
| 12>  C       -0.8191630000     0.0009680000    -1.1869830000
| 13>  C       -0.6419080000     1.0496460000    -0.0680200000
| 14>  C       -1.2263560000     0.0005510000     0.8965270000
| 15>  C       -0.6434190000    -1.0487270000    -0.0687350000
| 16>  C        0.8455970000    -1.2242990000     0.2393150000
| 17>  N        1.6135530000    -0.0012000000     0.0324730000
| 18>  C        0.8473600000     1.2228630000     0.2401490000
| 19>  H       -0.1107170000     0.0007410000    -2.0204390000
| 20>  H       -1.8371330000     0.0018350000    -1.5801850000
| 21>  H       -1.1470540000     2.0141550000    -0.1558640000
| 22>  H       -2.3184850000     0.0013370000     0.8949010000
| 23>  H       -0.8625860000    -0.0000630000     1.9288980000
| 24>  H       -1.1499540000    -2.0124470000    -0.1572360000
| 25>  H        1.2803740000    -2.0057670000    -0.3905640000
| 26>  H        0.9519950000    -1.5619640000     1.2788490000
| 27>  H        1.9819800000    -0.0011450000    -0.9063000000
| 28>  H        1.2832620000     2.0041330000    -0.3891980000
| 29>  H        0.9542440000     1.5596650000     1.2799130000
| 30> *
| 31>
| 32>                          ****END OF INPUT****
 Total Charge           Charge          ....    0
 Multiplicity           Mult            ....    1
 Number of Electrons    NEL             ....   54
 Basis Dimension        Dim             ....  153

MULLIKEN ATOMIC CHARGES
-----------------------
   0 C :    0.083586
   1 C :   -0.214494
   2 C :    0.105381
   3 C :   -0.214512
   4 C :    0.183252
   5 N :   -0.251997
   6 C :    0.183378
   7 H :   -0.001318
   8 H :    0.012179
   9 H :   -0.004074
  10 H :    0.010966
  11 H :    0.000350
  12 H :   -0.004044
  13 H :    0.004594
  14 H :    0.000043
  15 H :    0.102111
  16 H :    0.004569
  17 H :    0.000030
Sum of atomic charges:    0.0000000

LOEWDIN ATOMIC CHARGES
----------------------
   0 C :   -0.030049
   1 C :   -0.045394
   2 C :   -0.028908
   3 C :   -0.045396
   4 C :    0.018482
   5 N :   -0.095696
   6 C :    0.018496
   7 H :    0.005330
   8 H :    0.025284
   9 H :    0.012691
  10 H :    0.022497
  11 H :    0.008257
  12 H :    0.012698
  13 H :    0.020525
  14 H :    0.014356
  15 H :    0.051950
  16 H :    0.020524
  17 H :    0.014354

  Mayer bond orders larger than 0.1
B(  0-C ,  1-C ) :   1.0040 B(  0-C ,  3-C ) :   1.0040 B(  0-C ,  7-H ) :   0.9417
B(  0-C ,  8-H ) :   0.9298 B(  1-C ,  2-C ) :   1.0179 B(  1-C ,  6-C ) :   1.0100
B(  1-C ,  9-H ) :   0.9251 B(  2-C ,  3-C ) :   1.0179 B(  2-C , 10-H ) :   0.9327
B(  2-C , 11-H ) :   0.9333 B(  3-C ,  4-C ) :   1.0100 B(  3-C , 12-H ) :   0.9251
B(  4-C ,  5-N ) :   1.0907 B(  4-C , 13-H ) :   0.9413 B(  4-C , 14-H ) :   0.9277
B(  5-N ,  6-C ) :   1.0907 B(  5-N , 15-H ) :   0.9514 B(  6-C , 16-H ) :   0.9413
B(  6-C , 17-H ) :   0.9277

FINAL SINGLE POINT ENERGY      -289.371531736751

DIPOLE MOMENT
-------------
                                X             Y             Z
Electronic contribution:      0.88618      -0.00063      -0.06939
Nuclear contribution   :     -1.11182       0.00090      -0.29538
                        -----------------------------------------
Total Dipole Moment    :     -0.22564       0.00027      -0.36477
                        -----------------------------------------
Magnitude (a.u.)       :      0.42892
Magnitude (Debye)      :      1.09022

                             ****ORCA TERMINATED NORMALLY****
TOTAL RUN TIME: 0 days 0 hours 0 minutes 8 seconds 166 msec
