                         Program Version 3.0.3 - RELEASE   -
|  1> ! RI PBE def2-SVP def2-SVP/J NBO PAL2
|  2> % maxcore 2000
|  3> % output
|  4>     # printlevel mini
|  5>     print[ P_Basis ] 0
|  6>     print[ P_SCFInfo ] 1
|  7>     print[ P_SCFIterInfo ] 1
|  8>     print[ P_OrbEn ] 0
|  9>     print[ P_Cartesian ] 0
| 10> end
| 11> *xyz 0 1
| 12>  C       -1.1826800000     0.0000790000     0.9904100000
| 13>  C       -0.6494890000    -1.0177090000    -0.0260950000
| 14>  C        0.8477120000    -1.2321800000     0.2124960000
| 15>  N        1.6103400000    -0.0016870000     0.0259490000
| 16>  C        0.8506170000     1.2300040000     0.2164040000
| 17>  C       -0.6470840000     1.0198260000    -0.0228620000
| 18>  N       -0.8848780000     0.0030030000    -1.0738370000
| 19>  H       -0.7469430000    -0.0020240000     1.9910490000
| 20>  H       -2.2707800000     0.0012780000     1.0442990000
| 21>  H       -1.1850270000    -1.9623270000    -0.1534300000
| 22>  H        1.2412570000    -1.9866860000    -0.4752080000
| 23>  H        0.9914310000    -1.6267980000     1.2276650000
| 24>  H        2.0404790000    -0.0007500000    -0.8843140000
| 25>  H        1.2459450000     1.9857580000    -0.4689050000
| 26>  H        0.9952650000     1.6210590000     1.2328190000
| 27>  H       -1.1803900000     1.9661050000    -0.1471960000
| 28>  H       -0.1859760000     0.0033510000    -1.8132240000
| 29> *
| 30>
| 31>                          ****END OF INPUT****
 Total Charge           Charge          ....    0
 Multiplicity           Mult            ....    1
 Number of Electrons    NEL             ....   54
 Basis Dimension        Dim             ....  148

MULLIKEN ATOMIC CHARGES
-----------------------
   0 C :    0.082296
   1 C :   -0.119872
   2 C :    0.179013
   3 N :   -0.253921
   4 C :    0.179550
   5 C :   -0.120089
   6 N :   -0.164951
   7 H :    0.008019
   8 H :    0.023473
   9 H :    0.000383
  10 H :    0.008918
  11 H :    0.000117
  12 H :    0.101263
  13 H :    0.008808
  14 H :    0.000035
  15 H :    0.000366
  16 H :    0.066592
Sum of atomic charges:   -0.0000000

LOEWDIN ATOMIC CHARGES
----------------------
   0 C :   -0.035189
   1 C :    0.005091
   2 C :    0.003638
   3 N :   -0.096828
   4 C :    0.003697
   5 C :    0.005070
   6 N :   -0.095053
   7 H :    0.012757
   8 H :    0.028847
   9 H :    0.009958
  10 H :    0.020056
  11 H :    0.014296
  12 H :    0.050961
  13 H :    0.020045
  14 H :    0.014287
  15 H :    0.009952
  16 H :    0.028416

  Mayer bond orders larger than 0.1
B(  0-C ,  1-C ) :   1.0301 B(  0-C ,  5-C ) :   1.0301 B(  0-C ,  7-H ) :   0.9429
B(  0-C ,  8-H ) :   0.9202 B(  1-C ,  2-C ) :   0.9902 B(  1-C ,  6-N ) :   1.0143
B(  1-C ,  9-H ) :   0.9293 B(  2-C ,  3-N ) :   1.0830 B(  2-C , 10-H ) :   0.9387
B(  2-C , 11-H ) :   0.9165 B(  3-N ,  4-C ) :   1.0829 B(  3-N , 12-H ) :   0.9513
B(  4-C ,  5-C ) :   0.9902 B(  4-C , 13-H ) :   0.9386 B(  4-C , 14-H ) :   0.9165
B(  5-C ,  6-N ) :   1.0144 B(  5-C , 15-H ) :   0.9293 B(  6-N , 16-H ) :   0.9436

FINAL SINGLE POINT ENERGY      -305.382244466510

DIPOLE MOMENT
-------------
                                X             Y             Z
Electronic contribution:     -0.45737       0.00261      -1.32103
Nuclear contribution   :      0.72481      -0.00265       1.13138
                        -----------------------------------------
Total Dipole Moment    :      0.26744      -0.00004      -0.18965
                        -----------------------------------------
Magnitude (a.u.)       :      0.32786
Magnitude (Debye)      :      0.83335

                             ****ORCA TERMINATED NORMALLY****
TOTAL RUN TIME: 0 days 0 hours 0 minutes 7 seconds 774 msec
