                         Program Version 3.0.3 - RELEASE   -
|  1> ! RI PBE def2-SVP def2-SVP/J NBO PAL2
|  2> % maxcore 2000
|  3> % output
|  4>     # printlevel mini
|  5>     print[ P_Basis ] 0
|  6>     print[ P_SCFInfo ] 1
|  7>     print[ P_SCFIterInfo ] 1
|  8>     print[ P_OrbEn ] 0
|  9>     print[ P_Cartesian ] 0
| 10> end
| 11> *xyz 0 1
| 12>  C       -1.7867690000     0.6209920000     0.2927050000
| 13>  N       -1.7487250000    -0.7651330000    -0.3015370000
| 14>  C       -0.2864090000    -0.7276280000     0.0245110000
| 15>  C        1.0240320000    -1.0729630000    -0.6364640000
| 16>  N        1.8797220000    -0.0378090000     0.0157170000
| 17>  C        1.0631590000     1.0835450000     0.5794430000
| 18>  C       -0.2830650000     0.7701170000    -0.0289630000
| 19>  H       -2.0053900000     0.5439500000     1.3603840000
| 20>  H       -2.4878730000     1.3123880000    -0.1770090000
| 21>  H       -1.8608020000    -0.6644220000    -1.3085810000
| 22>  H       -0.2222380000    -1.0519050000     1.0715710000
| 23>  H        0.9662910000    -0.9573450000    -1.7269400000
| 24>  H        1.4091020000    -2.0702010000    -0.4101550000
| 25>  H        2.5762580000     0.3098340000    -0.6251710000
| 26>  H        1.4923730000     2.0467970000     0.2945640000
| 27>  H        1.0525390000     1.0263300000     1.6731010000
| 28>  H       -0.2375860000     1.0451630000    -1.0918780000
| 29> *
| 30>
| 31>                          ****END OF INPUT****
 Total Charge           Charge          ....    0
 Multiplicity           Mult            ....    1
 Number of Electrons    NEL             ....   54
 Basis Dimension        Dim             ....  148

MULLIKEN ATOMIC CHARGES
-----------------------
   0 C :    0.170799
   1 N :   -0.222255
   2 C :   -0.124514
   3 C :    0.266528
   4 N :   -0.331449
   5 C :    0.248565
   6 C :   -0.250241
   7 H :    0.016963
   8 H :    0.011931
   9 H :    0.095216
  10 H :    0.029381
  11 H :   -0.010819
  12 H :    0.003980
  13 H :    0.097588
  14 H :   -0.006731
  15 H :    0.004477
  16 H :    0.000581
Sum of atomic charges:   -0.0000000

LOEWDIN ATOMIC CHARGES
----------------------
   0 C :    0.037533
   1 N :   -0.113190
   2 C :   -0.003478
   3 C :    0.018288
   4 N :   -0.120367
   5 C :    0.024023
   6 C :   -0.073830
   7 H :    0.022055
   8 H :    0.013090
   9 H :    0.047315
  10 H :    0.026379
  11 H :    0.005889
  12 H :    0.016746
  13 H :    0.052144
  14 H :    0.013633
  15 H :    0.014060
  16 H :    0.019711

  Mayer bond orders larger than 0.1
B(  0-C ,  1-N ) :   1.0320 B(  0-C ,  6-C ) :   1.0447 B(  0-C ,  7-H ) :   0.9256
B(  0-C ,  8-H ) :   0.9375 B(  1-N ,  2-C ) :   1.0256 B(  1-N ,  9-H ) :   0.9393
B(  2-C ,  3-C ) :   1.0472 B(  2-C ,  6-C ) :   1.0261 B(  2-C , 10-H ) :   0.9153
B(  3-C ,  4-N ) :   1.0046 B(  3-C , 11-H ) :   0.9194 B(  3-C , 12-H ) :   0.9206
B(  4-N ,  5-C ) :   1.0219 B(  4-N , 13-H ) :   0.9398 B(  5-C ,  6-C ) :   1.0410
B(  5-C , 14-H ) :   0.9288 B(  5-C , 15-H ) :   0.9257 B(  6-C , 16-H ) :   0.8973

FINAL SINGLE POINT ENERGY      -305.338264443120

DIPOLE MOMENT
-------------
                                X             Y             Z
Electronic contribution:     -0.51275      -1.00897       0.08857
Nuclear contribution   :      0.70900       1.59382      -0.67554
                        -----------------------------------------
Total Dipole Moment    :      0.19625       0.58486      -0.58697
                        -----------------------------------------
Magnitude (a.u.)       :      0.85153
Magnitude (Debye)      :      2.16442

                             ****ORCA TERMINATED NORMALLY****
TOTAL RUN TIME: 0 days 0 hours 0 minutes 7 seconds 861 msec
