                         Program Version 3.0.3 - RELEASE   -
|  1> ! RI PBE def2-SVP def2-SVP/J NBO PAL2
|  2> % maxcore 2000
|  3> % output
|  4>     # printlevel mini
|  5>     print[ P_Basis ] 0
|  6>     print[ P_SCFInfo ] 1
|  7>     print[ P_SCFIterInfo ] 1
|  8>     print[ P_OrbEn ] 0
|  9>     print[ P_Cartesian ] 0
| 10> end
| 11> *xyz 0 1
| 12>  C       -0.4155680000     1.4709030000    -0.5645980000
| 13>  N       -1.3095060000     0.6600760000     0.2340510000
| 14>  C       -1.4295860000    -0.7347410000    -0.1326520000
| 15>  C       -0.2538590000    -1.5820310000     0.2273910000
| 16>  C        1.0210160000    -1.2025640000     0.3471060000
| 17>  C        1.6193340000     0.0993210000     0.0926210000
| 18>  C        1.0377010000     1.2276480000    -0.3222290000
| 19>  H       -0.6255600000     2.5168930000    -0.3185940000
| 20>  H       -0.6043760000     1.3774140000    -1.6523680000
| 21>  H       -2.2280430000     1.0802130000     0.2232170000
| 22>  H       -1.6428300000    -0.8805720000    -1.2101160000
| 23>  H       -2.3025050000    -1.1312110000     0.3960660000
| 24>  H       -0.4823390000    -2.6306600000     0.3987450000
| 25>  H        1.7308000000    -1.9757570000     0.6285080000
| 26>  H        2.6983820000     0.1297020000     0.2173730000
| 27>  H        1.6826400000     2.0792770000    -0.5221120000
| 28> *
| 29>
| 30>                          ****END OF INPUT****
 Total Charge           Charge          ....    0
 Multiplicity           Mult            ....    1
 Number of Electrons    NEL             ....   52
 Basis Dimension        Dim             ....  143

MULLIKEN ATOMIC CHARGES
-----------------------
   0 C :    0.167731
   1 N :   -0.228667
   2 C :    0.176057
   3 C :   -0.103381
   4 C :    0.007861
   5 C :    0.008311
   6 C :   -0.104779
   7 H :    0.006704
   8 H :    0.002091
   9 H :    0.100345
  10 H :   -0.001253
  11 H :    0.004545
  12 H :   -0.006011
  13 H :   -0.013859
  14 H :   -0.011719
  15 H :   -0.003976
Sum of atomic charges:   -0.0000000

LOEWDIN ATOMIC CHARGES
----------------------
   0 C :    0.004948
   1 N :   -0.092594
   2 C :    0.005556
   3 C :   -0.037198
   4 C :   -0.053346
   5 C :   -0.053861
   6 C :   -0.037609
   7 H :    0.031932
   8 H :    0.014267
   9 H :    0.057870
  10 H :    0.013855
  11 H :    0.031721
  12 H :    0.027210
  13 H :    0.029779
  14 H :    0.030035
  15 H :    0.027437

  Mayer bond orders larger than 0.1
B(  0-C ,  1-N ) :   1.0809 B(  0-C ,  6-C ) :   1.0525 B(  0-C ,  7-H ) :   0.9159
B(  0-C ,  8-H ) :   0.8810 B(  1-N ,  2-C ) :   1.0807 B(  1-N ,  9-H ) :   0.9387
B(  2-C ,  3-C ) :   1.0520 B(  2-C , 10-H ) :   0.8790 B(  2-C , 11-H ) :   0.9140
B(  3-C ,  4-C ) :   1.8450 B(  3-C ,  6-C ) :   0.1155 B(  3-C , 12-H ) :   0.9430
B(  4-C ,  5-C ) :   1.1174 B(  4-C , 13-H ) :   0.9459 B(  5-C ,  6-C ) :   1.8460
B(  5-C , 14-H ) :   0.9483 B(  6-C , 15-H ) :   0.9429

FINAL SINGLE POINT ENERGY      -288.162754803131

DIPOLE MOMENT
-------------
                                X             Y             Z
Electronic contribution:      1.11585      -0.28512       1.16015
Nuclear contribution   :     -1.56797       0.43186      -1.47494
                        -----------------------------------------
Total Dipole Moment    :     -0.45213       0.14674      -0.31479
                        -----------------------------------------
Magnitude (a.u.)       :      0.57013
Magnitude (Debye)      :      1.44915

                             ****ORCA TERMINATED NORMALLY****
TOTAL RUN TIME: 0 days 0 hours 0 minutes 7 seconds 529 msec
