                         Program Version 3.0.3 - RELEASE   -
|  1> ! RI PBE def2-SVP def2-SVP/J NBO PAL2
|  2> % maxcore 2000
|  3> % output
|  4>     # printlevel mini
|  5>     print[ P_Basis ] 0
|  6>     print[ P_SCFInfo ] 1
|  7>     print[ P_SCFIterInfo ] 1
|  8>     print[ P_OrbEn ] 0
|  9>     print[ P_Cartesian ] 0
| 10> end
| 11> *xyz 0 1
| 12>  C        2.1050690000    -0.1844420000     0.0080100000
| 13>  C        0.7533620000    -0.8261040000     0.1518630000
| 14>  C       -0.4496140000    -1.3675130000    -0.5629440000
| 15>  N       -1.5584870000    -0.4781190000    -0.1523850000
| 16>  C       -1.3336300000     0.6645990000     0.3638530000
| 17>  N       -0.1003750000     1.3020140000     0.5916190000
| 18>  C        0.8575590000     0.6225570000    -0.2100130000
| 19>  H        2.7121000000    -0.2900070000    -0.8844800000
| 20>  H        2.6721970000    -0.1324420000     0.9298590000
| 21>  H        0.5560800000    -0.8992830000     1.2200370000
| 22>  H       -0.7227050000    -2.3823250000    -0.2600040000
| 23>  H       -0.3644230000    -1.3671740000    -1.6535550000
| 24>  H       -2.1933150000     1.2510660000     0.6895690000
| 25>  H       -0.1430850000     2.3115000000     0.5806280000
| 26>  H        0.7028780000     0.7836940000    -1.2775790000
| 27> *
| 28>
| 29>                          ****END OF INPUT****
 Total Charge           Charge          ....    0
 Multiplicity           Mult            ....    1
 Number of Electrons    NEL             ....   52
 Basis Dimension        Dim             ....  138

MULLIKEN ATOMIC CHARGES
-----------------------
   0 C :    0.087038
   1 C :   -0.214227
   2 C :    0.251668
   3 N :   -0.231715
   4 C :    0.044092
   5 N :   -0.108926
   6 C :   -0.079995
   7 H :    0.024656
   8 H :    0.017678
   9 H :    0.043612
  10 H :    0.005022
  11 H :    0.014924
  12 H :    0.007032
  13 H :    0.110824
  14 H :    0.028316
Sum of atomic charges:   -0.0000000

LOEWDIN ATOMIC CHARGES
----------------------
   0 C :   -0.021413
   1 C :   -0.074776
   2 C :    0.021790
   3 N :   -0.145625
   4 C :    0.022657
   5 N :   -0.030729
   6 C :   -0.021177
   7 H :    0.033628
   8 H :    0.035129
   9 H :    0.034802
  10 H :    0.022482
  11 H :    0.025442
  12 H :    0.014937
  13 H :    0.066498
  14 H :    0.016355

  Mayer bond orders larger than 0.1
B(  0-C ,  1-C ) :   1.0330 B(  0-C ,  6-C ) :   1.0454 B(  0-C ,  7-H ) :   0.9165
B(  0-C ,  8-H ) :   0.9037 B(  1-C ,  2-C ) :   1.0667 B(  1-C ,  6-C ) :   0.8711
B(  1-C ,  9-H ) :   0.9455 B(  2-C ,  3-N ) :   1.0105 B(  2-C , 10-H ) :   0.9118
B(  2-C , 11-H ) :   0.9273 B(  3-N ,  4-C ) :   1.9333 B(  3-N ,  5-N ) :   0.1027
B(  4-C ,  5-N ) :   1.1083 B(  4-C , 12-H ) :   0.9502 B(  5-N ,  6-C ) :   1.0734
B(  5-N , 13-H ) :   0.9239 B(  6-C , 14-H ) :   0.9449

FINAL SINGLE POINT ENERGY      -304.149275853078

DIPOLE MOMENT
-------------
                                X             Y             Z
Electronic contribution:     -2.09516       1.15603       0.74867
Nuclear contribution   :      2.75946      -0.49631      -0.80790
                        -----------------------------------------
Total Dipole Moment    :      0.66430       0.65972      -0.05923
                        -----------------------------------------
Magnitude (a.u.)       :      0.93810
Magnitude (Debye)      :      2.38447

                             ****ORCA TERMINATED NORMALLY****
TOTAL RUN TIME: 0 days 0 hours 0 minutes 7 seconds 315 msec
