                         Program Version 3.0.3 - RELEASE   -
|  1> ! RI PBE def2-SVP def2-SVP/J NBO PAL2
|  2> % maxcore 2000
|  3> % output
|  4>     # printlevel mini
|  5>     print[ P_Basis ] 0
|  6>     print[ P_SCFInfo ] 1
|  7>     print[ P_SCFIterInfo ] 1
|  8>     print[ P_OrbEn ] 0
|  9>     print[ P_Cartesian ] 0
| 10> end
| 11> *xyz 0 1
| 12>  C        1.1657870000     1.2148930000    -0.1580790000
| 13>  N       -0.2147650000     1.5211210000     0.1252190000
| 14>  C       -1.3327740000     0.7405870000    -0.0011420000
| 15>  N       -1.5362420000    -0.5063910000    -0.0461770000
| 16>  C       -0.5581610000    -1.5428900000     0.0541320000
| 17>  C        0.9150300000    -1.3106430000     0.0709540000
| 18>  C        1.6209310000    -0.1911010000    -0.0090960000
| 19>  H        1.7812110000     1.8386120000     0.5013440000
| 20>  H        1.4171840000     1.5333420000    -1.1833340000
| 21>  H       -0.4208440000     2.5044630000     0.0706460000
| 22>  H       -2.2279410000     1.3690190000    -0.0267220000
| 23>  H       -0.7558770000    -2.2563540000    -0.7596230000
| 24>  H       -0.8037840000    -2.1212770000     0.9580630000
| 25>  H        1.4820660000    -2.2372100000     0.1506160000
| 26>  H        2.7043790000    -0.2795790000    -0.0049110000
| 27> *
| 28>
| 29>                          ****END OF INPUT****
 Total Charge           Charge          ....    0
 Multiplicity           Mult            ....    1
 Number of Electrons    NEL             ....   52
 Basis Dimension        Dim             ....  138

MULLIKEN ATOMIC CHARGES
-----------------------
   0 C :    0.195400
   1 N :   -0.143390
   2 C :   -0.005376
   3 N :   -0.181976
   4 C :    0.145644
   5 C :   -0.087085
   6 C :   -0.140728
   7 H :    0.018983
   8 H :    0.026246
   9 H :    0.113825
  10 H :    0.001263
  11 H :    0.028313
  12 H :    0.028808
  13 H :   -0.007471
  14 H :    0.007542
Sum of atomic charges:    0.0000000

LOEWDIN ATOMIC CHARGES
----------------------
   0 C :    0.020611
   1 N :   -0.024599
   2 C :    0.003642
   3 N :   -0.156294
   4 C :   -0.010229
   5 C :   -0.059988
   6 C :   -0.076511
   7 H :    0.035404
   8 H :    0.032789
   9 H :    0.073505
  10 H :    0.011816
  11 H :    0.042792
  12 H :    0.044730
  13 H :    0.029553
  14 H :    0.032780

  Mayer bond orders larger than 0.1
B(  0-C ,  1-N ) :   1.0161 B(  0-C ,  6-C ) :   1.0543 B(  0-C ,  7-H ) :   0.9153
B(  0-C ,  8-H ) :   0.9088 B(  1-N ,  2-C ) :   1.1745 B(  1-N ,  3-N ) :   0.1200
B(  1-N ,  9-H ) :   0.9201 B(  2-C ,  3-N ) :   1.9280 B(  2-C , 10-H ) :   0.9443
B(  3-N ,  4-C ) :   1.1174 B(  4-C ,  5-C ) :   1.0204 B(  4-C , 11-H ) :   0.9093
B(  4-C , 12-H ) :   0.9026 B(  5-C ,  6-C ) :   1.9381 B(  5-C , 13-H ) :   0.9257
B(  6-C , 14-H ) :   0.9387

FINAL SINGLE POINT ENERGY      -304.197625721708

DIPOLE MOMENT
-------------
                                X             Y             Z
Electronic contribution:     -2.15555       0.55478       0.21837
Nuclear contribution   :      2.93714       0.21877      -0.29812
                        -----------------------------------------
Total Dipole Moment    :      0.78158       0.77355      -0.07975
                        -----------------------------------------
Magnitude (a.u.)       :      1.10255
Magnitude (Debye)      :      2.80245

                             ****ORCA TERMINATED NORMALLY****
TOTAL RUN TIME: 0 days 0 hours 0 minutes 7 seconds 92 msec
