                         Program Version 3.0.3 - RELEASE   -
|  1> ! RI PBE def2-SVP def2-SVP/J NBO PAL2
|  2> % maxcore 2000
|  3> % output
|  4>     # printlevel mini
|  5>     print[ P_Basis ] 0
|  6>     print[ P_SCFInfo ] 1
|  7>     print[ P_SCFIterInfo ] 1
|  8>     print[ P_OrbEn ] 0
|  9>     print[ P_Cartesian ] 0
| 10> end
| 11> *xyz 0 1
| 12>  C        0.8744060000    -1.1982910000     0.8751000000
| 13>  C        1.1387550000    -0.3939120000    -0.3469330000
| 14>  C        0.9020280000     1.0898470000    -0.3355310000
| 15>  N       -0.2470330000     1.4122850000     0.5002840000
| 16>  N       -1.4313850000     0.7804660000     0.2323870000
| 17>  C       -1.3664600000    -0.4423290000    -0.1266600000
| 18>  C       -0.1193130000    -1.2119440000    -0.2717390000
| 19>  H        0.5828390000    -0.6737060000     1.7760280000
| 20>  H        1.4515130000    -2.1011310000     1.0292020000
| 21>  H        1.9129940000    -0.7345110000    -1.0258170000
| 22>  H        0.7490370000     1.4211110000    -1.3758510000
| 23>  H        1.7619570000     1.6325490000     0.0671740000
| 24>  H       -0.4197130000     2.4045690000     0.5475150000
| 25>  H       -2.3189180000    -0.9359350000    -0.2965400000
| 26>  H       -0.1825980000    -2.1247580000    -0.8516080000
| 27> *
| 28>
| 29>                          ****END OF INPUT****
 Total Charge           Charge          ....    0
 Multiplicity           Mult            ....    1
 Number of Electrons    NEL             ....   52
 Basis Dimension        Dim             ....  138

MULLIKEN ATOMIC CHARGES
-----------------------
   0 C :    0.035360
   1 C :   -0.182237
   2 C :    0.224033
   3 N :   -0.145694
   4 N :   -0.094335
   5 C :   -0.020333
   6 C :   -0.076149
   7 H :    0.052998
   8 H :    0.032734
   9 H :    0.026209
  10 H :    0.005198
  11 H :    0.013242
  12 H :    0.116357
  13 H :   -0.004522
  14 H :    0.017139
Sum of atomic charges:   -0.0000000

LOEWDIN ATOMIC CHARGES
----------------------
   0 C :   -0.023828
   1 C :   -0.044146
   2 C :    0.018128
   3 N :   -0.017571
   4 N :   -0.058647
   5 C :   -0.057473
   6 C :   -0.060045
   7 H :    0.033100
   8 H :    0.030361
   9 H :    0.031019
  10 H :    0.012107
  11 H :    0.026221
  12 H :    0.062092
  13 H :    0.019352
  14 H :    0.029332

  Mayer bond orders larger than 0.1
B(  0-C ,  1-C ) :   0.9967 B(  0-C ,  6-C ) :   0.9374 B(  0-C ,  7-H ) :   0.9441
B(  0-C ,  8-H ) :   0.9408 B(  1-C ,  2-C ) :   1.0675 B(  1-C ,  6-C ) :   0.9294
B(  1-C ,  9-H ) :   0.9304 B(  2-C ,  3-N ) :   1.0147 B(  2-C , 10-H ) :   0.9156
B(  2-C , 11-H ) :   0.9286 B(  3-N ,  4-N ) :   1.0830 B(  3-N ,  5-C ) :   0.1010
B(  3-N , 12-H ) :   0.9402 B(  4-N ,  5-C ) :   1.8849 B(  5-C ,  6-C ) :   1.0461
B(  5-C , 13-H ) :   0.9744 B(  6-C , 14-H ) :   0.9441

FINAL SINGLE POINT ENERGY      -304.177851994958

DIPOLE MOMENT
-------------
                                X             Y             Z
Electronic contribution:     -2.76835       1.26214       0.40818
Nuclear contribution   :      3.52620      -1.31951      -0.71676
                        -----------------------------------------
Total Dipole Moment    :      0.75785      -0.05737      -0.30858
                        -----------------------------------------
Magnitude (a.u.)       :      0.82027
Magnitude (Debye)      :      2.08497

                             ****ORCA TERMINATED NORMALLY****
TOTAL RUN TIME: 0 days 0 hours 0 minutes 6 seconds 819 msec
