                         Program Version 3.0.3 - RELEASE   -
|  1> ! RI PBE def2-SVP def2-SVP/J NBO PAL2
|  2> % maxcore 2000
|  3> % output
|  4>     # printlevel mini
|  5>     print[ P_Basis ] 0
|  6>     print[ P_SCFInfo ] 1
|  7>     print[ P_SCFIterInfo ] 1
|  8>     print[ P_OrbEn ] 0
|  9>     print[ P_Cartesian ] 0
| 10> end
| 11> *xyz 0 1
| 12>  C        1.0364550000     1.1563680000    -0.1872720000
| 13>  N       -0.1613540000     1.4078750000     0.6003190000
| 14>  N       -1.3502740000     0.8466460000     0.2248810000
| 15>  C       -1.4576500000    -0.3962040000    -0.0102530000
| 16>  C       -0.4993760000    -1.5419030000     0.1260700000
| 17>  C        0.9760490000    -1.3430150000     0.0670040000
| 18>  C        1.6386440000    -0.2038150000    -0.0606720000
| 19>  H        1.7695040000     1.9000180000     0.1365470000
| 20>  H        0.8404480000     1.3549740000    -1.2551410000
| 21>  H       -0.3219330000     2.4036350000     0.6441320000
| 22>  H       -2.4741320000    -0.6999690000    -0.2582370000
| 23>  H       -0.7738250000    -2.2964790000    -0.6227860000
| 24>  H       -0.7472550000    -2.0262820000     1.0844750000
| 25>  H        1.5524830000    -2.2628030000     0.1279800000
| 26>  H        2.7227350000    -0.2426460000    -0.1173270000
| 27> *
| 28>
| 29>                          ****END OF INPUT****
 Total Charge           Charge          ....    0
 Multiplicity           Mult            ....    1
 Number of Electrons    NEL             ....   52
 Basis Dimension        Dim             ....  138

MULLIKEN ATOMIC CHARGES
-----------------------
   0 C :    0.133435
   1 N :   -0.100409
   2 N :   -0.092946
   3 C :   -0.125778
   4 C :    0.101009
   5 C :   -0.067360
   6 C :   -0.084227
   7 H :    0.009129
   8 H :    0.025456
   9 H :    0.114384
  10 H :    0.011044
  11 H :    0.029193
  12 H :    0.045785
  13 H :   -0.002907
  14 H :    0.004192
Sum of atomic charges:   -0.0000000

LOEWDIN ATOMIC CHARGES
----------------------
   0 C :    0.000820
   1 N :   -0.015598
   2 N :   -0.055333
   3 C :   -0.061603
   4 C :   -0.069683
   5 C :   -0.040136
   6 C :   -0.061831
   7 H :    0.032635
   8 H :    0.024721
   9 H :    0.060700
  10 H :    0.020848
  11 H :    0.047887
  12 H :    0.057780
  13 H :    0.028913
  14 H :    0.029881

  Mayer bond orders larger than 0.1
B(  0-C ,  1-N ) :   1.0301 B(  0-C ,  6-C ) :   1.0368 B(  0-C ,  7-H ) :   0.9193
B(  0-C ,  8-H ) :   0.9056 B(  1-N ,  2-N ) :   1.0771 B(  1-N ,  9-H ) :   0.9432
B(  2-N ,  3-C ) :   1.9652 B(  3-C ,  4-C ) :   1.0066 B(  3-C , 10-H ) :   0.9492
B(  4-C ,  5-C ) :   1.0484 B(  4-C , 11-H ) :   0.9017 B(  4-C , 12-H ) :   0.8835
B(  5-C ,  6-C ) :   1.9645 B(  5-C , 13-H ) :   0.9427 B(  6-C , 14-H ) :   0.9443

FINAL SINGLE POINT ENERGY      -304.170267807702

DIPOLE MOMENT
-------------
                                X             Y             Z
Electronic contribution:     -1.72659       1.75447       0.85945
Nuclear contribution   :      2.26307      -1.87652      -1.06178
                        -----------------------------------------
Total Dipole Moment    :      0.53648      -0.12205      -0.20233
                        -----------------------------------------
Magnitude (a.u.)       :      0.58621
Magnitude (Debye)      :      1.49002

                             ****ORCA TERMINATED NORMALLY****
TOTAL RUN TIME: 0 days 0 hours 0 minutes 6 seconds 655 msec
