                         Program Version 3.0.3 - RELEASE   -
|  1> ! RI PBE def2-SVP def2-SVP/J NBO PAL2
|  2> % maxcore 2000
|  3> % output
|  4>     # printlevel mini
|  5>     print[ P_Basis ] 0
|  6>     print[ P_SCFInfo ] 1
|  7>     print[ P_SCFIterInfo ] 1
|  8>     print[ P_OrbEn ] 0
|  9>     print[ P_Cartesian ] 0
| 10> end
| 11> *xyz 0 1
| 12>  C        1.3858370000    -0.1584700000    -0.5129950000
| 13>  C        2.7852990000     0.0870020000    -0.0373890000
| 14>  C        3.5783340000    -0.9882540000     0.6420230000
| 15>  C        4.0091540000    -0.4627060000    -0.7046370000
| 16>  C        5.0379590000     0.6553980000    -0.7308410000
| 17>  C        4.2048100000     1.9117120000    -0.4713000000
| 18>  N        3.1224440000     1.4362150000     0.3891980000
| 19>  H        1.2603020000    -1.1940600000    -0.8355330000
| 20>  H        1.1342450000     0.4921770000    -1.3566800000
| 21>  H        0.6619020000     0.0255340000     0.2875960000
| 22>  H        3.1649590000    -1.9904940000     0.6755130000
| 23>  H        4.1597320000    -0.6942320000     1.5082450000
| 24>  H        3.9227960000    -1.1211560000    -1.5609430000
| 25>  H        5.5579450000     0.7089640000    -1.6888560000
| 26>  H        5.7934030000     0.5188860000     0.0483600000
| 27>  H        3.8359020000     2.3093540000    -1.4305280000
| 28>  H        4.7748920000     2.7036570000     0.0218120000
| 29>  H        2.3137940000     2.0410720000     0.3590530000
| 30> *
| 31>
| 32>                          ****END OF INPUT****
 Total Charge           Charge          ....    0
 Multiplicity           Mult            ....    1
 Number of Electrons    NEL             ....   54
 Basis Dimension        Dim             ....  153

MULLIKEN ATOMIC CHARGES
-----------------------
   0 C :    0.120720
   1 C :   -0.211755
   2 C :    0.097615
   3 C :   -0.168960
   4 C :    0.064634
   5 C :    0.130313
   6 N :   -0.203354
   7 H :    0.004065
   8 H :    0.008623
   9 H :    0.026033
  10 H :    0.009434
  11 H :    0.009245
  12 H :    0.008577
  13 H :    0.009849
  14 H :    0.015900
  15 H :   -0.012177
  16 H :    0.006046
  17 H :    0.085191
Sum of atomic charges:   -0.0000000

LOEWDIN ATOMIC CHARGES
----------------------
   0 C :   -0.059363
   1 C :   -0.019246
   2 C :   -0.041334
   3 C :   -0.049384
   4 C :   -0.034765
   5 C :    0.023275
   6 N :   -0.090454
   7 H :    0.031739
   8 H :    0.024158
   9 H :    0.029659
  10 H :    0.021586
  11 H :    0.022003
  12 H :    0.020280
  13 H :    0.028189
  14 H :    0.026562
  15 H :   -0.000064
  16 H :    0.015055
  17 H :    0.052103

  Mayer bond orders larger than 0.1
B(  0-C ,  1-C ) :   1.1029 B(  0-C ,  7-H ) :   0.9330 B(  0-C ,  8-H ) :   0.9454
B(  0-C ,  9-H ) :   0.9476 B(  1-C ,  2-C ) :   0.9744 B(  1-C ,  3-C ) :   0.9316
B(  1-C ,  6-N ) :   1.0937 B(  2-C ,  3-C ) :   0.9641 B(  2-C , 10-H ) :   0.9312
B(  2-C , 11-H ) :   0.9185 B(  3-C ,  4-C ) :   1.0906 B(  3-C , 12-H ) :   0.9497
B(  4-C ,  5-C ) :   1.1184 B(  4-C , 13-H ) :   0.9364 B(  4-C , 14-H ) :   0.9074
B(  5-C ,  6-N ) :   1.0193 B(  5-C , 15-H ) :   0.9217 B(  5-C , 16-H ) :   0.9371
B(  6-N , 17-H ) :   0.9497

FINAL SINGLE POINT ENERGY      -289.371972302776

DIPOLE MOMENT
-------------
                                X             Y             Z
Electronic contribution:      0.79892       0.40871       1.16094
Nuclear contribution   :     -1.03758      -0.30566      -1.56122
                        -----------------------------------------
Total Dipole Moment    :     -0.23866       0.10305      -0.40028
                        -----------------------------------------
Magnitude (a.u.)       :      0.47729
Magnitude (Debye)      :      1.21316

                             ****ORCA TERMINATED NORMALLY****
TOTAL RUN TIME: 0 days 0 hours 0 minutes 7 seconds 710 msec
