                         Program Version 3.0.3 - RELEASE   -
|  1> ! RI PBE def2-SVP def2-SVP/J NBO PAL2
|  2> % maxcore 2000
|  3> % output
|  4>     # printlevel mini
|  5>     print[ P_Basis ] 0
|  6>     print[ P_SCFInfo ] 1
|  7>     print[ P_SCFIterInfo ] 1
|  8>     print[ P_OrbEn ] 0
|  9>     print[ P_Cartesian ] 0
| 10> end
| 11> *xyz 0 1
| 12>  C        1.4193920000     0.2031460000     0.5529310000
| 13>  C        2.7314640000    -0.0629960000    -0.1175270000
| 14>  C        3.4508290000     0.9994900000    -0.8906600000
| 15>  C        4.0844770000     0.4264700000     0.3584680000
| 16>  C        4.9465140000    -0.7419210000     0.0907740000
| 17>  N        4.3285700000    -1.7190270000    -0.4590720000
| 18>  N        2.9887900000    -1.4329070000    -0.4781530000
| 19>  H        1.3583990000     1.2413560000     0.8845940000
| 20>  H        1.2874810000    -0.4506830000     1.4174780000
| 21>  H        0.5875180000     0.0289790000    -0.1361970000
| 22>  H        3.0520820000     2.0024690000    -0.8047520000
| 23>  H        3.9033430000     0.7563550000    -1.8450590000
| 24>  H        4.2227640000     1.0550650000     1.2293050000
| 25>  H        6.0038070000    -0.8192650000     0.3087830000
| 26>  H        2.5167690000    -1.8246520000    -1.2788130000
| 27> *
| 28>
| 29>                          ****END OF INPUT****
 Total Charge           Charge          ....    0
 Multiplicity           Mult            ....    1
 Number of Electrons    NEL             ....   52
 Basis Dimension        Dim             ....  138

MULLIKEN ATOMIC CHARGES
-----------------------
   0 C :    0.129014
   1 C :   -0.192590
   2 C :    0.077823
   3 C :   -0.110802
   4 C :    0.027191
   5 N :   -0.097129
   6 N :   -0.082118
   7 H :    0.004700
   8 H :    0.028277
   9 H :    0.020828
  10 H :    0.024944
  11 H :    0.024362
  12 H :    0.020467
  13 H :    0.005224
  14 H :    0.119809
Sum of atomic charges:   -0.0000000

LOEWDIN ATOMIC CHARGES
----------------------
   0 C :   -0.052355
   1 C :   -0.026421
   2 C :   -0.041835
   3 C :   -0.053077
   4 C :   -0.051718
   5 N :   -0.047236
   6 N :    0.010670
   7 H :    0.032074
   8 H :    0.032473
   9 H :    0.031194
  10 H :    0.029408
  11 H :    0.026416
  12 H :    0.026667
  13 H :    0.019498
  14 H :    0.064245

  Mayer bond orders larger than 0.1
B(  0-C ,  1-C ) :   1.0934 B(  0-C ,  7-H ) :   0.9352 B(  0-C ,  8-H ) :   0.9526
B(  0-C ,  9-H ) :   0.9516 B(  1-C ,  2-C ) :   0.9834 B(  1-C ,  3-C ) :   0.8817
B(  1-C ,  6-N ) :   1.0056 B(  2-C ,  3-C ) :   0.9528 B(  2-C , 10-H ) :   0.9352
B(  2-C , 11-H ) :   0.9238 B(  3-C ,  4-C ) :   1.0091 B(  3-C , 12-H ) :   0.9489
B(  4-C ,  5-N ) :   1.8241 B(  4-C ,  6-N ) :   0.1049 B(  4-C , 13-H ) :   0.9851
B(  5-N ,  6-N ) :   1.1042 B(  6-N , 14-H ) :   0.9395

FINAL SINGLE POINT ENERGY      -304.176866920524

DIPOLE MOMENT
-------------
                                X             Y             Z
Electronic contribution:      3.38318      -3.64568      -0.86401
Nuclear contribution   :     -3.88641       4.37037       0.83385
                        -----------------------------------------
Total Dipole Moment    :     -0.50324       0.72469      -0.03016
                        -----------------------------------------
Magnitude (a.u.)       :      0.88280
Magnitude (Debye)      :      2.24389

                             ****ORCA TERMINATED NORMALLY****
TOTAL RUN TIME: 0 days 0 hours 0 minutes 7 seconds 278 msec
