                         Program Version 3.0.3 - RELEASE   -
|  1> ! RI PBE def2-SVP def2-SVP/J NBO PAL2
|  2> % maxcore 2000
|  3> % output
|  4>     # printlevel mini
|  5>     print[ P_Basis ] 0
|  6>     print[ P_SCFInfo ] 1
|  7>     print[ P_SCFIterInfo ] 1
|  8>     print[ P_OrbEn ] 0
|  9>     print[ P_Cartesian ] 0
| 10> end
| 11> *xyz 0 1
| 12>  C        1.3195970000     0.2350680000     0.4851690000
| 13>  C        2.6554110000    -0.0883150000    -0.1059760000
| 14>  C        3.4549210000     0.9079590000    -0.8972730000
| 15>  C        4.0144960000     0.3786320000     0.3956130000
| 16>  N        4.9324870000    -0.7220540000     0.3019680000
| 17>  C        4.2669630000    -1.6834430000    -0.2127640000
| 18>  N        2.9266430000    -1.4678140000    -0.3992950000
| 19>  H        1.2875520000     1.2794010000     0.8007760000
| 20>  H        1.1163090000    -0.3945520000     1.3546770000
| 21>  H        0.5136450000     0.0887130000    -0.2411800000
| 22>  H        3.0966070000     1.9298590000    -0.8825740000
| 23>  H        3.9309120000     0.5921260000    -1.8189260000
| 24>  H        4.1372510000     1.0533190000     1.2342210000
| 25>  H        4.6982120000    -2.6479240000    -0.4610090000
| 26>  H        2.3897860000    -1.9874660000    -1.0728270000
| 27> *
| 28>
| 29>                          ****END OF INPUT****
 Total Charge           Charge          ....    0
 Multiplicity           Mult            ....    1
 Number of Electrons    NEL             ....   52
 Basis Dimension        Dim             ....  138

MULLIKEN ATOMIC CHARGES
-----------------------
   0 C :    0.123254
   1 C :   -0.215472
   2 C :    0.079873
   3 C :   -0.022906
   4 N :   -0.152805
   5 C :    0.079727
   6 N :   -0.121263
   7 H :    0.008834
   8 H :    0.024901
   9 H :    0.019520
  10 H :    0.024897
  11 H :    0.015998
  12 H :    0.016967
  13 H :    0.005139
  14 H :    0.113337
Sum of atomic charges:   -0.0000000

LOEWDIN ATOMIC CHARGES
----------------------
   0 C :   -0.055983
   1 C :   -0.029744
   2 C :   -0.052980
   3 C :    0.000351
   4 N :   -0.139168
   5 C :    0.021967
   6 N :   -0.000015
   7 H :    0.034622
   8 H :    0.030980
   9 H :    0.028698
  10 H :    0.030103
  11 H :    0.025642
  12 H :    0.018887
  13 H :    0.014679
  14 H :    0.071961

  Mayer bond orders larger than 0.1
B(  0-C ,  1-C ) :   1.0907 B(  0-C ,  7-H ) :   0.9364 B(  0-C ,  8-H ) :   0.9509
B(  0-C ,  9-H ) :   0.9487 B(  1-C ,  2-C ) :   0.9828 B(  1-C ,  3-C ) :   0.8718
B(  1-C ,  6-N ) :   1.0182 B(  2-C ,  3-C ) :   0.9476 B(  2-C , 10-H ) :   0.9366
B(  2-C , 11-H ) :   0.9071 B(  3-C ,  4-N ) :   1.1178 B(  3-C , 12-H ) :   0.9546
B(  4-N ,  5-C ) :   1.7935 B(  4-N ,  6-N ) :   0.1159 B(  5-C ,  6-N ) :   1.1507
B(  5-C , 13-H ) :   0.9597 B(  6-N , 14-H ) :   0.9394

FINAL SINGLE POINT ENERGY      -304.202215284048

DIPOLE MOMENT
-------------
                                X             Y             Z
Electronic contribution:      4.03907      -2.72932      -0.00453
Nuclear contribution   :     -5.12567       2.54675      -0.51312
                        -----------------------------------------
Total Dipole Moment    :     -1.08660      -0.18257      -0.51765
                        -----------------------------------------
Magnitude (a.u.)       :      1.21737
Magnitude (Debye)      :      3.09431

                             ****ORCA TERMINATED NORMALLY****
TOTAL RUN TIME: 0 days 0 hours 0 minutes 7 seconds 19 msec
