                         Program Version 3.0.3 - RELEASE   -
|  1> ! RI PBE def2-SVP def2-SVP/J NBO PAL2
|  2> % maxcore 2000
|  3> % output
|  4>     # printlevel mini
|  5>     print[ P_Basis ] 0
|  6>     print[ P_SCFInfo ] 1
|  7>     print[ P_SCFIterInfo ] 1
|  8>     print[ P_OrbEn ] 0
|  9>     print[ P_Cartesian ] 0
| 10> end
| 11> *xyz 0 1
| 12>  C        1.4762450000     0.5034390000    -0.1677090000
| 13>  C        2.8380260000    -0.0736540000     0.0607560000
| 14>  C        2.9965800000    -1.5638180000     0.2711890000
| 15>  C        4.5030640000    -1.8161560000     0.1328100000
| 16>  C        5.0079870000    -0.7321700000    -0.8310290000
| 17>  C        4.0647150000     0.4188660000    -0.5979900000
| 18>  N        3.8322460000     0.6888750000     0.8297060000
| 19>  H        0.9662370000    -0.0082620000    -0.9886230000
| 20>  H        1.5336250000     1.5663850000    -0.4173140000
| 21>  H        0.8518420000     0.4008080000     0.7253130000
| 22>  H        2.4354830000    -2.0863930000    -0.5118310000
| 23>  H        2.6039840000    -1.8956400000     1.2365510000
| 24>  H        4.7301640000    -2.8255750000    -0.2149370000
| 25>  H        4.9808550000    -1.6850190000     1.1037490000
| 26>  H        4.9212370000    -1.0572730000    -1.8735000000
| 27>  H        6.0541360000    -0.4709790000    -0.6511010000
| 28>  H        4.0311690000     1.2506840000    -1.2945180000
| 29>  H        3.5020960000     1.6428790000     0.9375770000
| 30> *
| 31>
| 32>                          ****END OF INPUT****
 Total Charge           Charge          ....    0
 Multiplicity           Mult            ....    1
 Number of Electrons    NEL             ....   54
 Basis Dimension        Dim             ....  153

MULLIKEN ATOMIC CHARGES
-----------------------
   0 C :    0.119635
   1 C :   -0.305774
   2 C :    0.160444
   3 C :   -0.044194
   4 C :    0.122111
   5 C :   -0.097401
   6 N :   -0.151627
   7 H :    0.019540
   8 H :   -0.000557
   9 H :    0.028245
  10 H :    0.001421
  11 H :    0.003108
  12 H :    0.003000
  13 H :    0.024206
  14 H :    0.008778
  15 H :    0.011445
  16 H :    0.003994
  17 H :    0.093626
Sum of atomic charges:   -0.0000000

LOEWDIN ATOMIC CHARGES
----------------------
   0 C :   -0.060305
   1 C :   -0.034077
   2 C :   -0.028200
   3 C :   -0.037394
   4 C :   -0.037460
   5 C :   -0.003003
   6 N :   -0.103974
   7 H :    0.032862
   8 H :    0.025932
   9 H :    0.031736
  10 H :    0.023714
  11 H :    0.025312
  12 H :    0.021746
  13 H :    0.029152
  14 H :    0.024855
  15 H :    0.026624
  16 H :    0.011290
  17 H :    0.051189

  Mayer bond orders larger than 0.1
B(  0-C ,  1-C ) :   1.1094 B(  0-C ,  7-H ) :   0.9427 B(  0-C ,  8-H ) :   0.9337
B(  0-C ,  9-H ) :   0.9489 B(  1-C ,  2-C ) :   1.0345 B(  1-C ,  5-C ) :   0.9837
B(  1-C ,  6-N ) :   0.9443 B(  2-C ,  3-C ) :   1.0906 B(  2-C , 10-H ) :   0.9204
B(  2-C , 11-H ) :   0.9189 B(  3-C ,  4-C ) :   1.0942 B(  3-C , 12-H ) :   0.9381
B(  3-C , 13-H ) :   0.9191 B(  4-C ,  5-C ) :   1.0249 B(  4-C , 14-H ) :   0.9305
B(  4-C , 15-H ) :   0.9178 B(  5-C ,  6-N ) :   0.9977 B(  5-C , 16-H ) :   0.9611
B(  6-N , 17-H ) :   0.9404

FINAL SINGLE POINT ENERGY      -289.383705657127

DIPOLE MOMENT
-------------
                                X             Y             Z
Electronic contribution:      1.53709       1.37302       0.99929
Nuclear contribution   :     -1.91801      -1.15123      -1.40503
                        -----------------------------------------
Total Dipole Moment    :     -0.38093       0.22179      -0.40573
                        -----------------------------------------
Magnitude (a.u.)       :      0.59909
Magnitude (Debye)      :      1.52277

                             ****ORCA TERMINATED NORMALLY****
TOTAL RUN TIME: 0 days 0 hours 0 minutes 8 seconds 199 msec
