                         Program Version 3.0.3 - RELEASE   -
|  1> ! RI PBE def2-SVP def2-SVP/J NBO PAL2
|  2> % maxcore 2000
|  3> % output
|  4>     # printlevel mini
|  5>     print[ P_Basis ] 0
|  6>     print[ P_SCFInfo ] 1
|  7>     print[ P_SCFIterInfo ] 1
|  8>     print[ P_OrbEn ] 0
|  9>     print[ P_Cartesian ] 0
| 10> end
| 11> *xyz 0 1
| 12>  C        1.3792600000     0.4726380000     0.4560580000
| 13>  C        2.6994350000    -0.0182110000    -0.0529270000
| 14>  C        2.8788700000    -1.5031450000    -0.3390600000
| 15>  C        4.3432570000    -1.7490340000    -0.1072800000
| 16>  C        4.9579690000    -0.6577800000     0.3473350000
| 17>  C        4.0236060000     0.4940320000     0.4014350000
| 18>  N        3.4514660000     0.9086560000    -0.8885340000
| 19>  H        1.0952620000    -0.0455670000     1.3759130000
| 20>  H        0.5915930000     0.3037910000    -0.2844480000
| 21>  H        1.4243830000     1.5437020000     0.6565010000
| 22>  H        2.5609770000    -1.7665320000    -1.3549990000
| 23>  H        2.2650440000    -2.1061570000     0.3409430000
| 24>  H        4.8224030000    -2.6993360000    -0.3110780000
| 25>  H        6.0074460000    -0.5882740000     0.6072840000
| 26>  H        4.1429140000     1.2851650000     1.1336860000
| 27>  H        3.9323250000     0.4168410000    -1.6370100000
| 28> *
| 29>
| 30>                          ****END OF INPUT****
 Total Charge           Charge          ....    0
 Multiplicity           Mult            ....    1
 Number of Electrons    NEL             ....   52
 Basis Dimension        Dim             ....  143

MULLIKEN ATOMIC CHARGES
-----------------------
   0 C :    0.130132
   1 C :   -0.330668
   2 C :    0.211115
   3 C :   -0.131230
   4 C :    0.062571
   5 C :   -0.005373
   6 N :   -0.118760
   7 H :    0.014919
   8 H :    0.021231
   9 H :    0.013856
  10 H :    0.024382
  11 H :    0.022336
  12 H :   -0.007002
  13 H :   -0.010528
  14 H :    0.010985
  15 H :    0.092034
Sum of atomic charges:    0.0000000

LOEWDIN ATOMIC CHARGES
----------------------
   0 C :   -0.055080
   1 C :   -0.025994
   2 C :   -0.035423
   3 C :   -0.035605
   4 C :   -0.043846
   5 C :   -0.003329
   6 N :   -0.079351
   7 H :    0.028218
   8 H :    0.031217
   9 H :    0.034460
  10 H :    0.036513
  11 H :    0.037705
  12 H :    0.020905
  13 H :    0.024932
  14 H :    0.017731
  15 H :    0.046946

  Mayer bond orders larger than 0.1
B(  0-C ,  1-C ) :   1.0983 B(  0-C ,  7-H ) :   0.9479 B(  0-C ,  8-H ) :   0.9495
B(  0-C ,  9-H ) :   0.9370 B(  1-C ,  2-C ) :   1.0242 B(  1-C ,  5-C ) :   0.9519
B(  1-C ,  6-N ) :   0.9907 B(  2-C ,  3-C ) :   1.0151 B(  2-C , 10-H ) :   0.9046
B(  2-C , 11-H ) :   0.9049 B(  3-C ,  4-C ) :   1.7935 B(  3-C , 12-H ) :   0.9776
B(  4-C ,  5-C ) :   0.9865 B(  4-C , 13-H ) :   0.9996 B(  5-C ,  6-N ) :   0.9761
B(  5-C , 14-H ) :   0.9567 B(  6-N , 15-H ) :   0.9384

FINAL SINGLE POINT ENERGY      -288.162486190931

DIPOLE MOMENT
-------------
                                X             Y             Z
Electronic contribution:      3.16178       0.49496      -0.70918
Nuclear contribution   :     -3.12728      -1.06951       0.79483
                        -----------------------------------------
Total Dipole Moment    :      0.03450      -0.57455       0.08565
                        -----------------------------------------
Magnitude (a.u.)       :      0.58192
Magnitude (Debye)      :      1.47913

                             ****ORCA TERMINATED NORMALLY****
TOTAL RUN TIME: 0 days 0 hours 0 minutes 7 seconds 399 msec
