                         Program Version 3.0.3 - RELEASE   -
|  1> ! RI PBE def2-SVP def2-SVP/J NBO PAL2
|  2> % maxcore 2000
|  3> % output
|  4>     # printlevel mini
|  5>     print[ P_Basis ] 0
|  6>     print[ P_SCFInfo ] 1
|  7>     print[ P_SCFIterInfo ] 1
|  8>     print[ P_OrbEn ] 0
|  9>     print[ P_Cartesian ] 0
| 10> end
| 11> *xyz 0 1
| 12>  C        1.1026490000    -0.0973030000    -0.0864070000
| 13>  C        2.5875220000     0.0994460000    -0.1175280000
| 14>  C        3.5030440000    -0.5094570000    -1.2015010000
| 15>  C        4.5310440000    -0.3229930000    -0.0761570000
| 16>  C        4.6495470000     1.2047930000     0.0139050000
| 17>  C        3.1378410000     1.5353330000    -0.0165700000
| 18>  N        3.4253120000    -0.6643600000     0.8547440000
| 19>  H        0.6275490000     0.4185720000    -0.9252510000
| 20>  H        0.6752450000     0.3062930000     0.8365800000
| 21>  H        0.8513590000    -1.1579300000    -0.1425300000
| 22>  H        3.6434500000     0.0411550000    -2.1329100000
| 23>  H        3.2737000000    -1.5591670000    -1.3795690000
| 24>  H        5.4444170000    -0.9145200000    -0.0143300000
| 25>  H        5.2034030000     1.6381260000    -0.8224060000
| 26>  H        5.1382650000     1.5209140000     0.9388480000
| 27>  H        2.8485440000     2.1576700000    -0.8671480000
| 28>  H        2.7872810000     2.0302940000     0.8934370000
| 29>  H        3.5074190000    -0.2043740000     1.7608750000
| 30> *
| 31>
| 32>                          ****END OF INPUT****
 Total Charge           Charge          ....    0
 Multiplicity           Mult            ....    1
 Number of Electrons    NEL             ....   54
 Basis Dimension        Dim             ....  153

MULLIKEN ATOMIC CHARGES
-----------------------
   0 C :    0.133212
   1 C :   -0.350074
   2 C :    0.127601
   3 C :   -0.108391
   4 C :    0.115883
   5 C :    0.105774
   6 N :   -0.160218
   7 H :    0.012392
   8 H :    0.009680
   9 H :    0.015353
  10 H :    0.009423
  11 H :    0.013776
  12 H :   -0.014671
  13 H :    0.003918
  14 H :    0.001787
  15 H :    0.004437
  16 H :    0.000703
  17 H :    0.079414
Sum of atomic charges:   -0.0000000

LOEWDIN ATOMIC CHARGES
----------------------
   0 C :   -0.061874
   1 C :   -0.009455
   2 C :   -0.024321
   3 C :    0.022786
   4 C :   -0.046111
   5 C :   -0.040214
   6 N :   -0.093288
   7 H :    0.031846
   8 H :    0.029078
   9 H :    0.030795
  10 H :    0.013336
  11 H :    0.025150
  12 H :    0.006796
  13 H :    0.021378
  14 H :    0.018669
  15 H :    0.020691
  16 H :    0.017445
  17 H :    0.037292

  Mayer bond orders larger than 0.1
B(  0-C ,  1-C ) :   1.1266 B(  0-C ,  7-H ) :   0.9435 B(  0-C ,  8-H ) :   0.9445
B(  0-C ,  9-H ) :   0.9411 B(  1-C ,  2-C ) :   0.9913 B(  1-C ,  5-C ) :   1.0451
B(  1-C ,  6-N ) :   0.9673 B(  2-C ,  3-C ) :   1.0007 B(  2-C , 10-H ) :   0.9425
B(  2-C , 11-H ) :   0.9136 B(  3-C ,  4-C ) :   1.0363 B(  3-C ,  6-N ) :   0.9988
B(  3-C , 12-H ) :   0.9666 B(  4-C ,  5-C ) :   1.1186 B(  4-C , 13-H ) :   0.9087
B(  4-C , 14-H ) :   0.9097 B(  5-C , 15-H ) :   0.9089 B(  5-C , 16-H ) :   0.9096
B(  6-N , 17-H ) :   0.9347

FINAL SINGLE POINT ENERGY      -289.371241974656

DIPOLE MOMENT
-------------
                                X             Y             Z
Electronic contribution:      1.75077      -1.65931       0.86812
Nuclear contribution   :     -1.72868       2.10197      -0.91418
                        -----------------------------------------
Total Dipole Moment    :      0.02208       0.44266      -0.04606
                        -----------------------------------------
Magnitude (a.u.)       :      0.44560
Magnitude (Debye)      :      1.13262

                             ****ORCA TERMINATED NORMALLY****
TOTAL RUN TIME: 0 days 0 hours 0 minutes 8 seconds 323 msec
