                         Program Version 3.0.3 - RELEASE   -
|  1> ! RI PBE def2-SVP def2-SVP/J NBO PAL2
|  2> % maxcore 2000
|  3> % output
|  4>     # printlevel mini
|  5>     print[ P_Basis ] 0
|  6>     print[ P_SCFInfo ] 1
|  7>     print[ P_SCFIterInfo ] 1
|  8>     print[ P_OrbEn ] 0
|  9>     print[ P_Cartesian ] 0
| 10> end
| 11> *xyz 0 1
| 12>  C        1.4182960000    -0.1831950000    -0.3478560000
| 13>  C        2.8195980000     0.0753370000     0.1195520000
| 14>  C        3.6594960000    -1.0101620000     0.6621360000
| 15>  N        3.9156670000    -0.4961740000    -0.6791500000
| 16>  C        4.9938950000     0.5007610000    -0.7367640000
| 17>  C        4.3464530000     1.8488020000    -0.4188210000
| 18>  C        3.2004190000     1.4926160000     0.5324550000
| 19>  H        1.3250220000    -1.1992850000    -0.7343470000
| 20>  H        1.1414310000     0.5107790000    -1.1471470000
| 21>  H        0.7039800000    -0.0576700000     0.4709740000
| 22>  H        3.2836460000    -2.0287530000     0.7036180000
| 23>  H        4.3714120000    -0.7566370000     1.4449840000
| 24>  H        5.4427890000     0.4852990000    -1.7322690000
| 25>  H        5.7843350000     0.2572510000    -0.0176350000
| 26>  H        3.9384880000     2.2804640000    -1.3371850000
| 27>  H        5.0499290000     2.5727890000    -0.0018870000
| 28>  H        2.3542360000     2.1752290000     0.4329820000
| 29>  H        3.5235090000     1.5289160000     1.5763810000
| 30> *
| 31>
| 32>                          ****END OF INPUT****
 Total Charge           Charge          ....    0
 Multiplicity           Mult            ....    1
 Number of Electrons    NEL             ....   54
 Basis Dimension        Dim             ....  153

MULLIKEN ATOMIC CHARGES
-----------------------
   0 C :    0.135602
   1 C :   -0.326280
   2 C :    0.148286
   3 N :   -0.289232
   4 C :    0.115401
   5 C :   -0.020341
   6 C :    0.101138
   7 H :    0.007951
   8 H :    0.012450
   9 H :    0.020210
  10 H :    0.014227
  11 H :    0.011885
  12 H :    0.017118
  13 H :    0.003992
  14 H :    0.019981
  15 H :    0.013881
  16 H :    0.007452
  17 H :    0.006280
Sum of atomic charges:   -0.0000000

LOEWDIN ATOMIC CHARGES
----------------------
   0 C :   -0.055931
   1 C :   -0.028065
   2 C :    0.012710
   3 N :   -0.120866
   4 C :    0.015385
   5 C :   -0.043125
   6 C :   -0.035787
   7 H :    0.032020
   8 H :    0.027838
   9 H :    0.029809
  10 H :    0.016198
  11 H :    0.008557
  12 H :    0.021862
  13 H :    0.012731
  14 H :    0.027928
  15 H :    0.025811
  16 H :    0.027133
  17 H :    0.025793

  Mayer bond orders larger than 0.1
B(  0-C ,  1-C ) :   1.1021 B(  0-C ,  7-H ) :   0.9375 B(  0-C ,  8-H ) :   0.9444
B(  0-C ,  9-H ) :   0.9494 B(  1-C ,  2-C ) :   1.0277 B(  1-C ,  3-N ) :   0.9196
B(  1-C ,  6-C ) :   1.0400 B(  2-C ,  3-N ) :   0.9785 B(  2-C , 10-H ) :   0.9347
B(  2-C , 11-H ) :   0.9204 B(  3-N ,  4-C ) :   0.9968 B(  4-C ,  5-C ) :   1.0989
B(  4-C , 12-H ) :   0.9428 B(  4-C , 13-H ) :   0.9292 B(  5-C ,  6-C ) :   1.1011
B(  5-C , 14-H ) :   0.9296 B(  5-C , 15-H ) :   0.9315 B(  6-C , 16-H ) :   0.9371
B(  6-C , 17-H ) :   0.9137

FINAL SINGLE POINT ENERGY      -289.370125788900

DIPOLE MOMENT
-------------
                                X             Y             Z
Electronic contribution:      1.22554      -1.64197      -0.58225
Nuclear contribution   :     -1.21338       2.05250       0.96500
                        -----------------------------------------
Total Dipole Moment    :      0.01216       0.41053       0.38275
                        -----------------------------------------
Magnitude (a.u.)       :      0.56141
Magnitude (Debye)      :      1.42698

                             ****ORCA TERMINATED NORMALLY****
TOTAL RUN TIME: 0 days 0 hours 0 minutes 8 seconds 268 msec
