                         Program Version 3.0.3 - RELEASE   -
|  1> ! RI PBE def2-SVP def2-SVP/J NBO PAL2
|  2> % maxcore 2000
|  3> % output
|  4>     # printlevel mini
|  5>     print[ P_Basis ] 0
|  6>     print[ P_SCFInfo ] 1
|  7>     print[ P_SCFIterInfo ] 1
|  8>     print[ P_OrbEn ] 0
|  9>     print[ P_Cartesian ] 0
| 10> end
| 11> *xyz 0 1
| 12>  C        1.1055450000    -0.1196720000    -0.0285620000
| 13>  C        2.6004470000    -0.0381740000    -0.0061080000
| 14>  C        3.5163780000    -0.6738270000    -1.0859850000
| 15>  C        4.5886810000    -0.4339630000    -0.0014360000
| 16>  C        3.4819780000    -0.7799780000     1.0202710000
| 17>  C        4.5846960000     1.0892190000     0.0890450000
| 18>  N        3.1214930000     1.3346570000     0.1354660000
| 19>  H        0.7699630000    -1.1563740000    -0.1001230000
| 20>  H        0.6958390000     0.4243120000    -0.8857360000
| 21>  H        0.6870050000     0.3216470000     0.8792210000
| 22>  H        3.6158830000    -0.1483600000    -2.0407370000
| 23>  H        3.3155560000    -1.7341810000    -1.2485010000
| 24>  H        5.5544810000    -0.9373710000    -0.0102230000
| 25>  H        3.5459250000    -0.3519070000     2.0228330000
| 26>  H        3.2655150000    -1.8480220000     1.0586180000
| 27>  H        5.0628120000     1.5610760000    -0.7749240000
| 28>  H        5.0743760000     1.4568300000     0.9956790000
| 29>  H        2.8339170000     1.8885880000    -0.6635980000
| 30> *
| 31>
| 32>                          ****END OF INPUT****
 Total Charge           Charge          ....    0
 Multiplicity           Mult            ....    1
 Number of Electrons    NEL             ....   54
 Basis Dimension        Dim             ....  153

MULLIKEN ATOMIC CHARGES
-----------------------
   0 C :    0.131169
   1 C :   -0.317766
   2 C :    0.109617
   3 C :   -0.195746
   4 C :    0.126194
   5 C :    0.191587
   6 N :   -0.190053
   7 H :    0.006730
   8 H :    0.007943
   9 H :    0.022744
  10 H :   -0.005367
  11 H :    0.008309
  12 H :   -0.016254
  13 H :    0.008765
  14 H :    0.012928
  15 H :    0.001347
  16 H :    0.006837
  17 H :    0.091017
Sum of atomic charges:    0.0000000

LOEWDIN ATOMIC CHARGES
----------------------
   0 C :   -0.062559
   1 C :   -0.010203
   2 C :   -0.034557
   3 C :   -0.032650
   4 C :   -0.021121
   5 C :    0.026230
   6 N :   -0.102416
   7 H :    0.029187
   8 H :    0.027805
   9 H :    0.033505
  10 H :    0.008098
  11 H :    0.020140
  12 H :    0.010308
  13 H :    0.015693
  14 H :    0.021676
  15 H :    0.011220
  16 H :    0.013841
  17 H :    0.045804

  Mayer bond orders larger than 0.1
B(  0-C ,  1-C ) :   1.1132 B(  0-C ,  7-H ) :   0.9422 B(  0-C ,  8-H ) :   0.9413
B(  0-C ,  9-H ) :   0.9433 B(  1-C ,  2-C ) :   0.9722 B(  1-C ,  4-C ) :   0.9757
B(  1-C ,  6-N ) :   1.0452 B(  2-C ,  3-C ) :   0.9774 B(  2-C , 10-H ) :   0.9216
B(  2-C , 11-H ) :   0.9311 B(  3-C ,  4-C ) :   0.9834 B(  3-C ,  5-C ) :   1.0146
B(  3-C , 12-H ) :   0.9531 B(  4-C , 13-H ) :   0.9181 B(  4-C , 14-H ) :   0.9405
B(  5-C ,  6-N ) :   1.0265 B(  5-C , 15-H ) :   0.9359 B(  5-C , 16-H ) :   0.9308
B(  6-N , 17-H ) :   0.9413

FINAL SINGLE POINT ENERGY      -289.367088676270

DIPOLE MOMENT
-------------
                                X             Y             Z
Electronic contribution:      1.44008       1.01403       0.43163
Nuclear contribution   :     -1.39580      -1.19385      -0.82242
                        -----------------------------------------
Total Dipole Moment    :      0.04428      -0.17983      -0.39080
                        -----------------------------------------
Magnitude (a.u.)       :      0.43246
Magnitude (Debye)      :      1.09922

                             ****ORCA TERMINATED NORMALLY****
TOTAL RUN TIME: 0 days 0 hours 0 minutes 8 seconds 348 msec
