                         Program Version 3.0.3 - RELEASE   -
|  1> ! RI PBE def2-SVP def2-SVP/J NBO PAL2
|  2> % maxcore 2000
|  3> % output
|  4>     # printlevel mini
|  5>     print[ P_Basis ] 0
|  6>     print[ P_SCFInfo ] 1
|  7>     print[ P_SCFIterInfo ] 1
|  8>     print[ P_OrbEn ] 0
|  9>     print[ P_Cartesian ] 0
| 10> end
| 11> *xyz 0 1
| 12>  C        0.9891780000     0.1658210000    -0.4591380000
| 13>  C        2.2450070000     0.0353790000     0.3458000000
| 14>  C        2.7106060000    -1.2785460000     1.0419900000
| 15>  C        4.0483240000    -0.5046120000     0.9457260000
| 16>  N        3.5834570000     0.0719500000    -0.3709830000
| 17>  C        3.7603490000     0.6837250000     1.8558400000
| 18>  C        2.5482300000     1.0476520000     1.4532530000
| 19>  H        0.9087390000    -0.6309490000    -1.2026730000
| 20>  H        0.9705220000     1.1243380000    -0.9835600000
| 21>  H        0.1096440000     0.1122850000     0.1873720000
| 22>  H        2.6680390000    -2.1435330000     0.3718480000
| 23>  H        2.3108070000    -1.5217920000     2.0294050000
| 24>  H        5.0254120000    -0.9829000000     0.9840900000
| 25>  H        3.5728480000    -0.6989020000    -1.0438360000
| 26>  H        4.4102170000     1.1003430000     2.6111020000
| 27>  H        1.9063110000     1.8540310000     1.7785450000
| 28> *
| 29>
| 30>                          ****END OF INPUT****
 Total Charge           Charge          ....    0
 Multiplicity           Mult            ....    1
 Number of Electrons    NEL             ....   52
 Basis Dimension        Dim             ....  143

MULLIKEN ATOMIC CHARGES
-----------------------
   0 C :    0.109407
   1 C :   -0.249526
   2 C :    0.115969
   3 C :   -0.012170
   4 N :   -0.158945
   5 C :    0.041435
   6 C :    0.062698
   7 H :    0.009915
   8 H :    0.030371
   9 H :    0.018600
  10 H :    0.002416
  11 H :    0.007151
  12 H :   -0.019804
  13 H :    0.081475
  14 H :   -0.015842
  15 H :   -0.023149
Sum of atomic charges:   -0.0000000

LOEWDIN ATOMIC CHARGES
----------------------
   0 C :   -0.065667
   1 C :   -0.007181
   2 C :   -0.020182
   3 C :    0.026421
   4 N :   -0.103827
   5 C :   -0.021077
   6 C :   -0.016423
   7 H :    0.028530
   8 H :    0.036495
   9 H :    0.034965
  10 H :    0.012477
  11 H :    0.010457
  12 H :    0.007460
  13 H :    0.037523
  14 H :    0.020528
  15 H :    0.019502

  Mayer bond orders larger than 0.1
B(  0-C ,  1-C ) :   1.1260 B(  0-C ,  7-H ) :   0.9424 B(  0-C ,  8-H ) :   0.9475
B(  0-C ,  9-H ) :   0.9425 B(  1-C ,  2-C ) :   0.9817 B(  1-C ,  4-N ) :   0.9629
B(  1-C ,  6-C ) :   0.9062 B(  2-C ,  3-C ) :   0.9975 B(  2-C , 10-H ) :   0.9199
B(  2-C , 11-H ) :   0.9225 B(  3-C ,  4-N ) :   0.9737 B(  3-C ,  5-C ) :   0.9053
B(  3-C , 12-H ) :   0.9774 B(  4-N , 13-H ) :   0.9365 B(  5-C ,  6-C ) :   1.7764
B(  5-C , 14-H ) :   1.0261 B(  6-C , 15-H ) :   1.0314

FINAL SINGLE POINT ENERGY      -288.121037547520

DIPOLE MOMENT
-------------
                                X             Y             Z
Electronic contribution:      2.95954       1.30639       1.18345
Nuclear contribution   :     -3.25411      -1.76510      -1.05318
                        -----------------------------------------
Total Dipole Moment    :     -0.29457      -0.45871       0.13026
                        -----------------------------------------
Magnitude (a.u.)       :      0.56049
Magnitude (Debye)      :      1.42466

                             ****ORCA TERMINATED NORMALLY****
TOTAL RUN TIME: 0 days 0 hours 0 minutes 7 seconds 164 msec
