                         Program Version 3.0.3 - RELEASE   -
|  1> ! RI PBE def2-SVP def2-SVP/J NBO PAL2
|  2> % maxcore 2000
|  3> % output
|  4>     # printlevel mini
|  5>     print[ P_Basis ] 0
|  6>     print[ P_SCFInfo ] 1
|  7>     print[ P_SCFIterInfo ] 1
|  8>     print[ P_OrbEn ] 0
|  9>     print[ P_Cartesian ] 0
| 10> end
| 11> *xyz 0 1
| 12>  C        1.4847160000    -0.2760470000    -0.4037100000
| 13>  C        2.8948200000     0.0175780000     0.0181930000
| 14>  C        3.7429550000    -1.0806770000     0.6051630000
| 15>  C        4.0920520000    -0.4863360000    -0.7274630000
| 16>  N        5.1008200000     0.5503850000    -0.7059690000
| 17>  C        4.4022810000     1.8183840000    -0.5050690000
| 18>  C        3.2544510000     1.4437860000     0.4324940000
| 19>  H        1.3944590000    -1.2909920000    -0.7985290000
| 20>  H        1.1497550000     0.4166600000    -1.1820380000
| 21>  H        0.7940180000    -0.1888750000     0.4411500000
| 22>  H        3.3120020000    -2.0762530000     0.6261210000
| 23>  H        4.4077280000    -0.8404350000     1.4269230000
| 24>  H        3.9870180000    -1.0844170000    -1.6277240000
| 25>  H        5.6696700000     0.5435230000    -1.5396320000
| 26>  H        3.9890310000     2.2259550000    -1.4420760000
| 27>  H        5.0726650000     2.5697390000    -0.0791270000
| 28>  H        2.4028300000     2.1174090000     0.3158720000
| 29>  H        3.5726400000     1.4879130000     1.4778510000
| 30> *
| 31>
| 32>                          ****END OF INPUT****
 Total Charge           Charge          ....    0
 Multiplicity           Mult            ....    1
 Number of Electrons    NEL             ....   54
 Basis Dimension        Dim             ....  153

MULLIKEN ATOMIC CHARGES
-----------------------
   0 C :    0.120729
   1 C :   -0.371153
   2 C :    0.097961
   3 C :   -0.005206
   4 N :   -0.212842
   5 C :    0.124885
   6 C :    0.090499
   7 H :    0.000546
   8 H :    0.012344
   9 H :    0.021560
  10 H :    0.009634
  11 H :    0.008630
  12 H :    0.002561
  13 H :    0.096525
  14 H :   -0.012297
  15 H :    0.005067
  16 H :    0.003088
  17 H :    0.007469
Sum of atomic charges:    0.0000000

LOEWDIN ATOMIC CHARGES
----------------------
   0 C :   -0.050509
   1 C :   -0.069231
   2 C :   -0.043991
   3 C :    0.006899
   4 N :   -0.095157
   5 C :    0.023226
   6 C :   -0.027085
   7 H :    0.026270
   8 H :    0.025021
   9 H :    0.028357
  10 H :    0.021715
  11 H :    0.022140
  12 H :    0.010357
  13 H :    0.055875
  14 H :   -0.000690
  15 H :    0.015225
  16 H :    0.025692
  17 H :    0.025889

  Mayer bond orders larger than 0.1
B(  0-C ,  1-C ) :   1.1073 B(  0-C ,  7-H ) :   0.9416 B(  0-C ,  8-H ) :   0.9486
B(  0-C ,  9-H ) :   0.9493 B(  1-C ,  2-C ) :   0.9638 B(  1-C ,  3-C ) :   0.9368
B(  1-C ,  6-C ) :   1.0777 B(  2-C ,  3-C ) :   0.9733 B(  2-C , 10-H ) :   0.9306
B(  2-C , 11-H ) :   0.9121 B(  3-C ,  4-N ) :   1.1022 B(  3-C , 12-H ) :   0.9447
B(  4-N ,  5-C ) :   1.0294 B(  4-N , 13-H ) :   0.9477 B(  5-C ,  6-C ) :   1.1075
B(  5-C , 14-H ) :   0.9226 B(  5-C , 15-H ) :   0.9367 B(  6-C , 16-H ) :   0.9370
B(  6-C , 17-H ) :   0.9040

FINAL SINGLE POINT ENERGY      -289.370203771262

DIPOLE MOMENT
-------------
                                X             Y             Z
Electronic contribution:      3.02828      -0.45116      -0.21684
Nuclear contribution   :     -3.21723       0.57461      -0.19111
                        -----------------------------------------
Total Dipole Moment    :     -0.18895       0.12345      -0.40795
                        -----------------------------------------
Magnitude (a.u.)       :      0.46622
Magnitude (Debye)      :      1.18505

                             ****ORCA TERMINATED NORMALLY****
TOTAL RUN TIME: 0 days 0 hours 0 minutes 7 seconds 694 msec
