                         Program Version 3.0.3 - RELEASE   -
|  1> ! RI PBE def2-SVP def2-SVP/J NBO PAL2
|  2> % maxcore 2000
|  3> % output
|  4>     # printlevel mini
|  5>     print[ P_Basis ] 0
|  6>     print[ P_SCFInfo ] 1
|  7>     print[ P_SCFIterInfo ] 1
|  8>     print[ P_OrbEn ] 0
|  9>     print[ P_Cartesian ] 0
| 10> end
| 11> *xyz 0 1
| 12>  C        0.9455400000    -0.1726070000    -0.0390770000
| 13>  C        2.4366730000    -0.0032770000    -0.0125830000
| 14>  C        3.3973910000    -0.6246680000    -1.0479870000
| 15>  N        4.4719640000    -0.4617230000    -0.0125400000
| 16>  C        3.3734520000    -0.7307120000     0.9745500000
| 17>  C        4.5187010000     1.0162770000     0.0654820000
| 18>  C        3.0162060000     1.4106900000     0.0684200000
| 19>  H        0.6649020000    -1.2277190000    -0.0977440000
| 20>  H        0.5065140000     0.3389500000    -0.9006450000
| 21>  H        0.4857340000     0.2465430000     0.8607160000
| 22>  H        3.5764450000    -0.0999490000    -1.9911100000
| 23>  H        3.2122710000    -1.6849220000    -1.2317880000
| 24>  H        3.5295560000    -0.3077200000     1.9713350000
| 25>  H        3.1853490000    -1.8041430000     1.0420530000
| 26>  H        5.0651510000     1.4103790000    -0.7931230000
| 27>  H        5.0442980000     1.3177890000     0.9732050000
| 28>  H        2.7293160000     2.0245470000    -0.7892690000
| 29>  H        2.7084280000     1.9318350000     0.9786040000
| 30> *
| 31>
| 32>                          ****END OF INPUT****
 Total Charge           Charge          ....    0
 Multiplicity           Mult            ....    1
 Number of Electrons    NEL             ....   54
 Basis Dimension        Dim             ....  153

MULLIKEN ATOMIC CHARGES
-----------------------
   0 C :    0.119897
   1 C :   -0.501950
   2 C :    0.181817
   3 N :   -0.305589
   4 C :    0.179816
   5 C :    0.109316
   6 C :    0.096961
   7 H :    0.010411
   8 H :    0.016785
   9 H :    0.016620
  10 H :    0.007715
  11 H :    0.013319
  12 H :    0.007548
  13 H :    0.014495
  14 H :    0.008246
  15 H :    0.007828
  16 H :    0.008615
  17 H :    0.008151
Sum of atomic charges:   -0.0000000

LOEWDIN ATOMIC CHARGES
----------------------
   0 C :   -0.060418
   1 C :   -0.069008
   2 C :    0.035025
   3 N :   -0.126898
   4 C :    0.034599
   5 C :    0.013812
   6 C :   -0.044329
   7 H :    0.027031
   8 H :    0.030700
   9 H :    0.030623
  10 H :    0.009210
  11 H :    0.018032
  12 H :    0.009304
  13 H :    0.017998
  14 H :    0.017893
  15 H :    0.017890
  16 H :    0.019372
  17 H :    0.019163

  Mayer bond orders larger than 0.1
B(  0-C ,  1-C ) :   1.0969 B(  0-C ,  7-H ) :   0.9484 B(  0-C ,  8-H ) :   0.9482
B(  0-C ,  9-H ) :   0.9483 B(  1-C ,  2-C ) :   0.9822 B(  1-C ,  4-C ) :   0.9818
B(  1-C ,  6-C ) :   1.0552 B(  2-C ,  3-N ) :   0.9746 B(  2-C , 10-H ) :   0.9349
B(  2-C , 11-H ) :   0.9389 B(  3-N ,  4-C ) :   0.9746 B(  3-N ,  5-C ) :   1.0214
B(  4-C , 12-H ) :   0.9345 B(  4-C , 13-H ) :   0.9396 B(  5-C ,  6-C ) :   1.0409
B(  5-C , 14-H ) :   0.9320 B(  5-C , 15-H ) :   0.9317 B(  6-C , 16-H ) :   0.9262
B(  6-C , 17-H ) :   0.9272

FINAL SINGLE POINT ENERGY      -289.354318260681

DIPOLE MOMENT
-------------
                                X             Y             Z
Electronic contribution:      3.09755      -1.06915      -0.02204
Nuclear contribution   :     -3.68949       1.32456       0.02584
                        -----------------------------------------
Total Dipole Moment    :     -0.59194       0.25541       0.00379
                        -----------------------------------------
Magnitude (a.u.)       :      0.64471
Magnitude (Debye)      :      1.63871

                             ****ORCA TERMINATED NORMALLY****
TOTAL RUN TIME: 0 days 0 hours 0 minutes 8 seconds 49 msec
