                         Program Version 3.0.3 - RELEASE   -
|  1> ! RI PBE def2-SVP def2-SVP/J NBO PAL2
|  2> % maxcore 2000
|  3> % output
|  4>     # printlevel mini
|  5>     print[ P_Basis ] 0
|  6>     print[ P_SCFInfo ] 1
|  7>     print[ P_SCFIterInfo ] 1
|  8>     print[ P_OrbEn ] 0
|  9>     print[ P_Cartesian ] 0
| 10> end
| 11> *xyz 0 1
| 12>  C        1.1947090000     0.1599540000     0.5010010000
| 13>  C        2.5824370000    -0.1419840000     0.0261860000
| 14>  C        3.4636940000     0.9313540000    -0.4826980000
| 15>  N        3.7090720000     0.3675150000     0.8492290000
| 16>  N        4.7538460000    -0.5951900000     0.7781730000
| 17>  C        4.3459120000    -1.6297080000     0.1670790000
| 18>  C        2.9429400000    -1.5596740000    -0.3561990000
| 19>  H        1.1410950000     1.1680850000     0.9141860000
| 20>  H        0.8930740000    -0.5435980000     1.2817200000
| 21>  H        0.4754150000     0.0874320000    -0.3193680000
| 22>  H        3.1037240000     1.9546960000    -0.4857620000
| 23>  H        4.1978130000     0.6907310000    -1.2447760000
| 24>  H        5.0108570000    -2.4793210000     0.0437570000
| 25>  H        2.2895210000    -2.2845460000     0.1442580000
| 26>  H        2.8941030000    -1.7727360000    -1.4282960000
| 27> *
| 28>
| 29>                          ****END OF INPUT****
 Total Charge           Charge          ....    0
 Multiplicity           Mult            ....    1
 Number of Electrons    NEL             ....   52
 Basis Dimension        Dim             ....  138

MULLIKEN ATOMIC CHARGES
-----------------------
   0 C :    0.124121
   1 C :   -0.321487
   2 C :    0.129115
   3 N :   -0.193772
   4 N :   -0.042416
   5 C :   -0.082971
   6 C :    0.162061
   7 H :    0.016038
   8 H :    0.024269
   9 H :    0.029051
  10 H :    0.030973
  11 H :    0.035954
  12 H :    0.021507
  13 H :    0.027217
  14 H :    0.040340
Sum of atomic charges:   -0.0000000

LOEWDIN ATOMIC CHARGES
----------------------
   0 C :   -0.051650
   1 C :   -0.040279
   2 C :    0.017263
   3 N :   -0.073249
   4 N :   -0.035289
   5 C :   -0.015660
   6 C :   -0.052422
   7 H :    0.035935
   8 H :    0.031952
   9 H :    0.033703
  10 H :    0.025199
  11 H :    0.020561
  12 H :    0.022766
  13 H :    0.039700
  14 H :    0.041469

  Mayer bond orders larger than 0.1
B(  0-C ,  1-C ) :   1.0974 B(  0-C ,  7-H ) :   0.9378 B(  0-C ,  8-H ) :   0.9463
B(  0-C ,  9-H ) :   0.9520 B(  1-C ,  2-C ) :   1.0275 B(  1-C ,  3-N ) :   0.8614
B(  1-C ,  6-C ) :   1.0424 B(  2-C ,  3-N ) :   0.9387 B(  2-C , 10-H ) :   0.9339
B(  2-C , 11-H ) :   0.9343 B(  3-N ,  4-N ) :   0.9769 B(  4-N ,  5-C ) :   1.9206
B(  5-C ,  6-C ) :   0.9839 B(  5-C , 12-H ) :   0.9610 B(  6-C , 13-H ) :   0.9045
B(  6-C , 14-H ) :   0.9122

FINAL SINGLE POINT ENERGY      -304.162844522730

DIPOLE MOMENT
-------------
                                X             Y             Z
Electronic contribution:      4.88617      -0.09611       1.69093
Nuclear contribution   :     -5.67473      -0.38038      -2.57789
                        -----------------------------------------
Total Dipole Moment    :     -0.78857      -0.47649      -0.88696
                        -----------------------------------------
Magnitude (a.u.)       :      1.27889
Magnitude (Debye)      :      3.25069

                             ****ORCA TERMINATED NORMALLY****
TOTAL RUN TIME: 0 days 0 hours 0 minutes 7 seconds 29 msec
