                         Program Version 3.0.3 - RELEASE   -
|  1> ! RI PBE def2-SVP def2-SVP/J NBO PAL2
|  2> % maxcore 2000
|  3> % output
|  4>     # printlevel mini
|  5>     print[ P_Basis ] 0
|  6>     print[ P_SCFInfo ] 1
|  7>     print[ P_SCFIterInfo ] 1
|  8>     print[ P_OrbEn ] 0
|  9>     print[ P_Cartesian ] 0
| 10> end
| 11> *xyz 0 1
| 12>  C        1.4225020000    -0.1627190000    -0.3251370000
| 13>  C        2.8206630000     0.0944050000     0.1561340000
| 14>  C        3.6215670000    -1.0066360000     0.7814250000
| 15>  C        4.0406280000    -0.4359630000    -0.5417060000
| 16>  C        5.0824120000     0.6759680000    -0.5126670000
| 17>  N        4.3817520000     1.9168910000    -0.1687520000
| 18>  C        3.2029050000     1.5114600000     0.5987390000
| 19>  H        1.3192180000    -1.1805530000    -0.7093980000
| 20>  H        1.1456600000     0.5275210000    -1.1284200000
| 21>  H        0.6949960000    -0.0414210000     0.4833860000
| 22>  H        3.1906250000    -2.0020290000     0.7935350000
| 23>  H        4.2333860000    -0.7720600000     1.6479060000
| 24>  H        3.9470410000    -1.0548640000    -1.4270280000
| 25>  H        5.5967210000     0.7859200000    -1.4694250000
| 26>  H        5.8485350000     0.4698500000     0.2436690000
| 27>  H        4.0627730000     2.3445640000    -1.0294220000
| 28>  H        2.3858380000     2.2181370000     0.4356560000
| 29>  H        3.4393690000     1.5313390000     1.6688260000
| 30> *
| 31>
| 32>                          ****END OF INPUT****
 Total Charge           Charge          ....    0
 Multiplicity           Mult            ....    1
 Number of Electrons    NEL             ....   54
 Basis Dimension        Dim             ....  153

MULLIKEN ATOMIC CHARGES
-----------------------
   0 C :    0.111263
   1 C :   -0.356495
   2 C :    0.088077
   3 C :   -0.163439
   4 C :    0.181065
   5 N :   -0.248533
   6 C :    0.194491
   7 H :    0.002929
   8 H :    0.011760
   9 H :    0.025004
  10 H :    0.013765
  11 H :    0.015157
  12 H :    0.008859
  13 H :    0.007453
  14 H :    0.007887
  15 H :    0.092964
  16 H :    0.000175
  17 H :    0.007618
Sum of atomic charges:    0.0000000

LOEWDIN ATOMIC CHARGES
----------------------
   0 C :   -0.051128
   1 C :   -0.074678
   2 C :   -0.032065
   3 C :   -0.054793
   4 C :    0.018164
   5 N :   -0.101420
   6 C :    0.023277
   7 H :    0.027307
   8 H :    0.024443
   9 H :    0.029614
  10 H :    0.023151
  11 H :    0.019305
  12 H :    0.019506
  13 H :    0.022189
  14 H :    0.017955
  15 H :    0.050594
  16 H :    0.020304
  17 H :    0.018278

  Mayer bond orders larger than 0.1
B(  0-C ,  1-C ) :   1.1104 B(  0-C ,  7-H ) :   0.9434 B(  0-C ,  8-H ) :   0.9502
B(  0-C ,  9-H ) :   0.9521 B(  1-C ,  2-C ) :   0.9785 B(  1-C ,  3-C ) :   0.9545
B(  1-C ,  6-C ) :   1.0169 B(  2-C ,  3-C ) :   0.9882 B(  2-C , 10-H ) :   0.9334
B(  2-C , 11-H ) :   0.9280 B(  3-C ,  4-C ) :   1.0344 B(  3-C , 12-H ) :   0.9478
B(  4-C ,  5-N ) :   1.0846 B(  4-C , 13-H ) :   0.9467 B(  4-C , 14-H ) :   0.9122
B(  5-N ,  6-C ) :   1.0889 B(  5-N , 15-H ) :   0.9495 B(  6-C , 16-H ) :   0.9456
B(  6-C , 17-H ) :   0.9121

FINAL SINGLE POINT ENERGY      -289.370265065771

DIPOLE MOMENT
-------------
                                X             Y             Z
Electronic contribution:      2.10915       1.13766      -0.01089
Nuclear contribution   :     -2.46516      -1.35745      -0.35767
                        -----------------------------------------
Total Dipole Moment    :     -0.35601      -0.21979      -0.36856
                        -----------------------------------------
Magnitude (a.u.)       :      0.55757
Magnitude (Debye)      :      1.41723

                             ****ORCA TERMINATED NORMALLY****
TOTAL RUN TIME: 0 days 0 hours 0 minutes 8 seconds 282 msec
