                         Program Version 3.0.3 - RELEASE   -
|  1> ! RI PBE def2-SVP def2-SVP/J NBO PAL2
|  2> % maxcore 2000
|  3> % output
|  4>     # printlevel mini
|  5>     print[ P_Basis ] 0
|  6>     print[ P_SCFInfo ] 1
|  7>     print[ P_SCFIterInfo ] 1
|  8>     print[ P_OrbEn ] 0
|  9>     print[ P_Cartesian ] 0
| 10> end
| 11> *xyz 0 1
| 12>  C        1.0668740000     0.0301760000    -0.1149310000
| 13>  C        2.5613820000     0.1417400000    -0.0479180000
| 14>  C        3.5128600000    -0.4908510000    -1.0977750000
| 15>  C        4.5475370000    -0.2523020000     0.0226760000
| 16>  C        3.4232570000    -0.6050070000     1.0061290000
| 17>  N        4.6098040000     1.2088530000     0.1697250000
| 18>  C        3.1674810000     1.5429660000     0.0675260000
| 19>  H        0.7473380000    -1.0135120000    -0.1703720000
| 20>  H        0.6717010000     0.5483810000    -0.9941450000
| 21>  H        0.6005270000     0.4757690000     0.7691130000
| 22>  H        3.6570730000     0.0329110000    -2.0477650000
| 23>  H        3.2919780000    -1.5461460000    -1.2690580000
| 24>  H        5.5236980000    -0.7346020000     0.0468380000
| 25>  H        3.4894550000    -0.1875860000     2.0130260000
| 26>  H        3.2031790000    -1.6729680000     1.0338080000
| 27>  H        5.1171880000     1.6120530000    -0.6089180000
| 28>  H        2.9374210000     2.1625350000    -0.8056760000
| 29>  H        2.8184480000     2.0693790000     0.9620160000
| 30> *
| 31>
| 32>                          ****END OF INPUT****
 Total Charge           Charge          ....    0
 Multiplicity           Mult            ....    1
 Number of Electrons    NEL             ....   54
 Basis Dimension        Dim             ....  153

MULLIKEN ATOMIC CHARGES
-----------------------
   0 C :    0.126599
   1 C :   -0.451852
   2 C :    0.112292
   3 C :   -0.073275
   4 C :    0.124341
   5 N :   -0.186486
   6 C :    0.196921
   7 H :    0.008601
   8 H :    0.013420
   9 H :    0.015429
  10 H :   -0.004137
  11 H :    0.009223
  12 H :   -0.016378
  13 H :    0.010497
  14 H :    0.013464
  15 H :    0.093996
  16 H :    0.001913
  17 H :    0.005432
Sum of atomic charges:   -0.0000000

LOEWDIN ATOMIC CHARGES
----------------------
   0 C :   -0.058924
   1 C :   -0.060612
   2 C :   -0.036382
   3 C :    0.022413
   4 C :   -0.022160
   5 N :   -0.103506
   6 C :    0.029034
   7 H :    0.027557
   8 H :    0.029383
   9 H :    0.030190
  10 H :    0.008078
  11 H :    0.020083
  12 H :    0.006384
  13 H :    0.016120
  14 H :    0.021376
  15 H :    0.048008
  16 H :    0.010209
  17 H :    0.012749

  Mayer bond orders larger than 0.1
B(  0-C ,  1-C ) :   1.1168 B(  0-C ,  7-H ) :   0.9447 B(  0-C ,  8-H ) :   0.9473
B(  0-C ,  9-H ) :   0.9464 B(  1-C ,  2-C ) :   0.9557 B(  1-C ,  4-C ) :   0.9680
B(  1-C ,  6-C ) :   1.0141 B(  2-C ,  3-C ) :   0.9823 B(  2-C , 10-H ) :   0.9205
B(  2-C , 11-H ) :   0.9318 B(  3-C ,  4-C ) :   0.9873 B(  3-C ,  5-N ) :   1.0652
B(  3-C , 12-H ) :   0.9619 B(  4-C , 13-H ) :   0.9178 B(  4-C , 14-H ) :   0.9403
B(  5-N ,  6-C ) :   1.0347 B(  5-N , 15-H ) :   0.9447 B(  6-C , 16-H ) :   0.9343
B(  6-C , 17-H ) :   0.9268

FINAL SINGLE POINT ENERGY      -289.365297387731

DIPOLE MOMENT
-------------
                                X             Y             Z
Electronic contribution:      3.30214       0.68599       0.51272
Nuclear contribution   :     -3.52687      -0.80967      -0.93217
                        -----------------------------------------
Total Dipole Moment    :     -0.22473      -0.12368      -0.41945
                        -----------------------------------------
Magnitude (a.u.)       :      0.49167
Magnitude (Debye)      :      1.24972

                             ****ORCA TERMINATED NORMALLY****
TOTAL RUN TIME: 0 days 0 hours 0 minutes 8 seconds 360 msec
