                         Program Version 3.0.3 - RELEASE   -
|  1> ! RI PBE def2-SVP def2-SVP/J NBO PAL2
|  2> % maxcore 2000
|  3> % output
|  4>     # printlevel mini
|  5>     print[ P_Basis ] 0
|  6>     print[ P_SCFInfo ] 1
|  7>     print[ P_SCFIterInfo ] 1
|  8>     print[ P_OrbEn ] 0
|  9>     print[ P_Cartesian ] 0
| 10> end
| 11> *xyz 0 1
| 12>  C        1.4617330000     0.3484730000    -0.2958280000
| 13>  C        2.8590930000    -0.0170110000     0.0972120000
| 14>  C        3.1734020000    -1.4203120000     0.6113550000
| 15>  N        4.3875070000    -1.8748420000    -0.0752070000
| 16>  C        5.1028780000    -0.6719070000    -0.5223700000
| 17>  C        4.0762920000     0.4422290000    -0.5981430000
| 18>  N        3.7318730000     0.9826300000     0.7246050000
| 19>  H        1.0582620000    -0.3598410000    -1.0245370000
| 20>  H        1.4268990000     1.3463040000    -0.7415690000
| 21>  H        0.7965040000     0.3463810000     0.5730730000
| 22>  H        2.3524150000    -2.1163760000     0.4239150000
| 23>  H        3.3443710000    -1.3800510000     1.6915320000
| 24>  H        4.1079990000    -2.3967050000    -0.8957050000
| 25>  H        5.5874670000    -0.8559380000    -1.4836820000
| 26>  H        5.8784190000    -0.4058810000     0.2025320000
| 27>  H        4.0297890000     1.0981890000    -1.4614180000
| 28>  H        3.3188070000     1.9056670000     0.6187360000
| 29> *
| 30>
| 31>                          ****END OF INPUT****
 Total Charge           Charge          ....    0
 Multiplicity           Mult            ....    1
 Number of Electrons    NEL             ....   54
 Basis Dimension        Dim             ....  148

MULLIKEN ATOMIC CHARGES
-----------------------
   0 C :    0.116938
   1 C :   -0.313403
   2 C :    0.231479
   3 N :   -0.269892
   4 C :    0.220605
   5 C :   -0.118411
   6 N :   -0.147340
   7 H :    0.023249
   8 H :   -0.000341
   9 H :    0.033521
  10 H :   -0.004522
  11 H :    0.014873
  12 H :    0.091534
  13 H :    0.003266
  14 H :    0.013465
  15 H :    0.009673
  16 H :    0.095305
Sum of atomic charges:   -0.0000000

LOEWDIN ATOMIC CHARGES
----------------------
   0 C :   -0.061007
   1 C :   -0.042470
   2 C :    0.018363
   3 N :   -0.104459
   4 C :    0.013218
   5 C :   -0.014834
   6 N :   -0.096983
   7 H :    0.032574
   8 H :    0.026413
   9 H :    0.033786
  10 H :    0.017966
  11 H :    0.023039
  12 H :    0.049830
  13 H :    0.019911
  14 H :    0.022561
  15 H :    0.011492
  16 H :    0.050600

  Mayer bond orders larger than 0.1
B(  0-C ,  1-C ) :   1.1098 B(  0-C ,  7-H ) :   0.9425 B(  0-C ,  8-H ) :   0.9342
B(  0-C ,  9-H ) :   0.9487 B(  1-C ,  2-C ) :   0.9932 B(  1-C ,  5-C ) :   1.0286
B(  1-C ,  6-N ) :   0.9358 B(  2-C ,  3-N ) :   1.0779 B(  2-C , 10-H ) :   0.9439
B(  2-C , 11-H ) :   0.9000 B(  3-N ,  4-C ) :   1.0745 B(  3-N , 12-H ) :   0.9523
B(  4-C ,  5-C ) :   1.0002 B(  4-C , 13-H ) :   0.9452 B(  4-C , 14-H ) :   0.8969
B(  5-C ,  6-N ) :   0.9837 B(  5-C , 15-H ) :   0.9523 B(  6-N , 16-H ) :   0.9374

FINAL SINGLE POINT ENERGY      -305.383422938113

DIPOLE MOMENT
-------------
                                X             Y             Z
Electronic contribution:      2.45017       0.00517       0.98545
Nuclear contribution   :     -3.15271       0.33448      -1.81854
                        -----------------------------------------
Total Dipole Moment    :     -0.70254       0.33965      -0.83309
                        -----------------------------------------
Magnitude (a.u.)       :      1.14148
Magnitude (Debye)      :      2.90141

                             ****ORCA TERMINATED NORMALLY****
TOTAL RUN TIME: 0 days 0 hours 0 minutes 7 seconds 798 msec
