                         Program Version 3.0.3 - RELEASE   -
|  1> ! RI PBE def2-SVP def2-SVP/J NBO PAL2
|  2> % maxcore 2000
|  3> % output
|  4>     # printlevel mini
|  5>     print[ P_Basis ] 0
|  6>     print[ P_SCFInfo ] 1
|  7>     print[ P_SCFIterInfo ] 1
|  8>     print[ P_OrbEn ] 0
|  9>     print[ P_Cartesian ] 0
| 10> end
| 11> *xyz 0 1
| 12>  C        1.2001310000     0.0741730000     0.6099410000
| 13>  C        2.5464730000    -0.1974650000     0.0144950000
| 14>  C        3.3589700000     0.8858610000    -0.5680630000
| 15>  N        3.7376060000     0.2988160000     0.7344970000
| 16>  C        4.6721890000    -0.7502640000     0.5351370000
| 17>  N        4.3009020000    -1.8022230000    -0.0617880000
| 18>  C        2.8982340000    -1.6134900000    -0.4222500000
| 19>  H        1.1455980000     1.0903950000     1.0030930000
| 20>  H        0.9938310000    -0.6211130000     1.4277090000
| 21>  H        0.4155170000    -0.0444370000    -0.1422910000
| 22>  H        3.0034840000     1.9090530000    -0.5110470000
| 23>  H        4.0017450000     0.6595760000    -1.4138270000
| 24>  H        5.6780540000    -0.6157150000     0.9226050000
| 25>  H        2.2844170000    -2.3483700000     0.1107830000
| 26>  H        2.7598580000    -1.7967890000    -1.4916740000
| 27> *
| 28>
| 29>                          ****END OF INPUT****
 Total Charge           Charge          ....    0
 Multiplicity           Mult            ....    1
 Number of Electrons    NEL             ....   52
 Basis Dimension        Dim             ....  138

MULLIKEN ATOMIC CHARGES
-----------------------
   0 C :    0.128437
   1 C :   -0.350962
   2 C :    0.127028
   3 N :   -0.233078
   4 C :    0.071359
   5 N :   -0.182357
   6 C :    0.237065
   7 H :    0.014642
   8 H :    0.024847
   9 H :    0.029393
  10 H :    0.031307
  11 H :    0.037576
  12 H :    0.021427
  13 H :    0.015442
  14 H :    0.027873
Sum of atomic charges:   -0.0000000

LOEWDIN ATOMIC CHARGES
----------------------
   0 C :   -0.051412
   1 C :   -0.037496
   2 C :    0.031951
   3 N :   -0.109847
   4 C :    0.030221
   5 N :   -0.104355
   6 C :    0.012198
   7 H :    0.035093
   8 H :    0.032948
   9 H :    0.035082
  10 H :    0.023653
  11 H :    0.021100
  12 H :    0.019038
  13 H :    0.030130
  14 H :    0.031695

  Mayer bond orders larger than 0.1
B(  0-C ,  1-C ) :   1.1003 B(  0-C ,  7-H ) :   0.9383 B(  0-C ,  8-H ) :   0.9461
B(  0-C ,  9-H ) :   0.9529 B(  1-C ,  2-C ) :   1.0239 B(  1-C ,  3-N ) :   0.8720
B(  1-C ,  6-C ) :   1.0246 B(  2-C ,  3-N ) :   0.9520 B(  2-C , 10-H ) :   0.9379
B(  2-C , 11-H ) :   0.9252 B(  3-N ,  4-C ) :   1.0603 B(  4-C ,  5-N ) :   1.9227
B(  4-C , 12-H ) :   0.9643 B(  5-N ,  6-C ) :   1.0758 B(  6-C , 13-H ) :   0.9179
B(  6-C , 14-H ) :   0.9199

FINAL SINGLE POINT ENERGY      -304.185823596952

DIPOLE MOMENT
-------------
                                X             Y             Z
Electronic contribution:      4.53481      -1.19114       0.64775
Nuclear contribution   :     -5.11170       1.62307      -0.97332
                        -----------------------------------------
Total Dipole Moment    :     -0.57689       0.43193      -0.32558
                        -----------------------------------------
Magnitude (a.u.)       :      0.79080
Magnitude (Debye)      :      2.01006

                             ****ORCA TERMINATED NORMALLY****
TOTAL RUN TIME: 0 days 0 hours 0 minutes 6 seconds 769 msec
