                         Program Version 3.0.3 - RELEASE   -
|  1> ! RI PBE def2-SVP def2-SVP/J NBO PAL2
|  2> % maxcore 2000
|  3> % output
|  4>     # printlevel mini
|  5>     print[ P_Basis ] 0
|  6>     print[ P_SCFInfo ] 1
|  7>     print[ P_SCFIterInfo ] 1
|  8>     print[ P_OrbEn ] 0
|  9>     print[ P_Cartesian ] 0
| 10> end
| 11> *xyz 0 1
| 12>  C        1.1480690000     0.0265020000     0.1180260000
| 13>  C        2.6538550000     0.0311830000     0.0077310000
| 14>  C        3.2744520000    -0.9599930000    -1.0041590000
| 15>  C        4.7789360000    -0.7415650000    -0.7940490000
| 16>  C        4.7735780000     0.8109550000    -0.8013970000
| 17>  C        3.2676240000     1.0169870000    -1.0135230000
| 18>  N        2.9046390000     0.0222780000    -2.0559260000
| 19>  H        0.8012220000    -0.8536940000     0.6668030000
| 20>  H        0.6881260000     0.0202910000    -0.8705810000
| 21>  H        0.7951360000     0.9093920000     0.6585350000
| 22>  H        3.1243330000     0.0374850000     0.9953650000
| 23>  H        2.9110530000    -1.9828970000    -1.1148780000
| 24>  H        5.3705070000    -1.1704580000    -1.6065550000
| 25>  H        5.1422790000    -1.1653700000     0.1451750000
| 26>  H        5.3622220000     1.2362210000    -1.6179210000
| 27>  H        5.1339130000     1.2461190000     0.1337830000
| 28>  H        2.8971820000     2.0362650000    -1.1339180000
| 29>  H        3.5401770000     0.0207080000    -2.8516300000
| 30> *
| 31>
| 32>                          ****END OF INPUT****
 Total Charge           Charge          ....    0
 Multiplicity           Mult            ....    1
 Number of Electrons    NEL             ....   54
 Basis Dimension        Dim             ....  153

MULLIKEN ATOMIC CHARGES
-----------------------
   0 C :    0.098892
   1 C :   -0.121945
   2 C :   -0.091566
   3 C :    0.115273
   4 C :    0.115515
   5 C :   -0.091191
   6 N :   -0.155236
   7 H :    0.013940
   8 H :    0.019379
   9 H :    0.013887
  10 H :    0.003955
  11 H :   -0.010751
  12 H :    0.005053
  13 H :    0.004861
  14 H :    0.004993
  15 H :    0.004977
  16 H :   -0.010954
  17 H :    0.080918
Sum of atomic charges:   -0.0000000

LOEWDIN ATOMIC CHARGES
----------------------
   0 C :   -0.059611
   1 C :   -0.035166
   2 C :    0.025582
   3 C :   -0.046098
   4 C :   -0.046097
   5 C :    0.025643
   6 N :   -0.090953
   7 H :    0.026014
   8 H :    0.029718
   9 H :    0.026010
  10 H :    0.014245
  11 H :    0.006200
  12 H :    0.018425
  13 H :    0.021193
  14 H :    0.018408
  15 H :    0.021228
  16 H :    0.006169
  17 H :    0.039092

  Mayer bond orders larger than 0.1
B(  0-C ,  1-C ) :   1.0925 B(  0-C ,  7-H ) :   0.9578 B(  0-C ,  8-H ) :   0.9424
B(  0-C ,  9-H ) :   0.9577 B(  1-C ,  2-C ) :   0.9467 B(  1-C ,  5-C ) :   0.9467
B(  1-C , 10-H ) :   0.9367 B(  2-C ,  3-C ) :   1.0408 B(  2-C ,  6-N ) :   0.9903
B(  2-C , 11-H ) :   0.9682 B(  3-C ,  4-C ) :   1.0890 B(  3-C , 12-H ) :   0.9134
B(  3-C , 13-H ) :   0.9101 B(  4-C ,  5-C ) :   1.0410 B(  4-C , 14-H ) :   0.9134
B(  4-C , 15-H ) :   0.9100 B(  5-C ,  6-N ) :   0.9903 B(  5-C , 16-H ) :   0.9681
B(  6-N , 17-H ) :   0.9402

FINAL SINGLE POINT ENERGY      -289.365252821477

DIPOLE MOMENT
-------------
                                X             Y             Z
Electronic contribution:      0.40321      -0.00763      -1.90005
Nuclear contribution   :      0.01948       0.00963       2.01890
                        -----------------------------------------
Total Dipole Moment    :      0.42269       0.00200       0.11885
                        -----------------------------------------
Magnitude (a.u.)       :      0.43909
Magnitude (Debye)      :      1.11608

                             ****ORCA TERMINATED NORMALLY****
TOTAL RUN TIME: 0 days 0 hours 0 minutes 8 seconds 294 msec
