                         Program Version 3.0.3 - RELEASE   -
|  1> ! RI PBE def2-SVP def2-SVP/J NBO PAL2
|  2> % maxcore 2000
|  3> % output
|  4>     # printlevel mini
|  5>     print[ P_Basis ] 0
|  6>     print[ P_SCFInfo ] 1
|  7>     print[ P_SCFIterInfo ] 1
|  8>     print[ P_OrbEn ] 0
|  9>     print[ P_Cartesian ] 0
| 10> end
| 11> *xyz 0 1
| 12>  C        0.7179530000     0.0321630000    -0.3218450000
| 13>  C        2.1714460000    -0.0403400000     0.0502430000
| 14>  C        3.1447240000    -0.9977100000    -0.5221650000
| 15>  C        2.7994180000    -1.7501150000    -1.7874190000
| 16>  C        2.4811850000    -0.6694570000    -2.8344460000
| 17>  C        2.9534270000     0.6546200000    -2.2028670000
| 18>  N        3.2700760000     0.4356880000    -0.7924220000
| 19>  H        0.1249830000    -0.4765230000     0.4425200000
| 20>  H        0.4840780000    -0.4319440000    -1.2788940000
| 21>  H        0.3774690000     1.0713250000    -0.3570390000
| 22>  H        2.3441010000     0.2360870000     1.0886860000
| 23>  H        3.9005160000    -1.4323080000     0.1260080000
| 24>  H        1.9667660000    -2.4449990000    -1.6467880000
| 25>  H        3.6620630000    -2.3480420000    -2.0907970000
| 26>  H        1.4149940000    -0.6411960000    -3.0638240000
| 27>  H        2.9949150000    -0.8638960000    -3.7780670000
| 28>  H        2.2120270000     1.4521770000    -2.3050240000
| 29>  H        3.8696470000     1.0080610000    -2.6823540000
| 30> *
| 31>
| 32>                          ****END OF INPUT****
 Total Charge           Charge          ....    0
 Multiplicity           Mult            ....    1
 Number of Electrons    NEL             ....   54
 Basis Dimension        Dim             ....  153

MULLIKEN ATOMIC CHARGES
-----------------------
   0 C :    0.084468
   1 C :   -0.058324
   2 C :   -0.096355
   3 C :    0.117441
   4 C :   -0.097639
   5 C :    0.143715
   6 N :   -0.271220
   7 H :    0.029967
   8 H :   -0.006918
   9 H :    0.027052
  10 H :    0.012619
  11 H :    0.018459
  12 H :    0.020826
  13 H :    0.015432
  14 H :    0.022045
  15 H :    0.011034
  16 H :    0.010682
  17 H :    0.016715
Sum of atomic charges:   -0.0000000

LOEWDIN ATOMIC CHARGES
----------------------
   0 C :   -0.068913
   1 C :   -0.008820
   2 C :   -0.004655
   3 C :   -0.044649
   4 C :   -0.057776
   5 C :    0.009649
   6 N :   -0.114611
   7 H :    0.037676
   8 H :    0.027059
   9 H :    0.033005
  10 H :    0.023362
  11 H :    0.017172
  12 H :    0.029531
  13 H :    0.031142
  14 H :    0.020016
  15 H :    0.028013
  16 H :    0.019975
  17 H :    0.022824

  Mayer bond orders larger than 0.1
B(  0-C ,  1-C ) :   1.0969 B(  0-C ,  7-H ) :   0.9476 B(  0-C ,  8-H ) :   0.9355
B(  0-C ,  9-H ) :   0.9497 B(  1-C ,  2-C ) :   1.0019 B(  1-C ,  6-N ) :   0.9581
B(  1-C , 10-H ) :   0.9268 B(  2-C ,  3-C ) :   1.0688 B(  2-C ,  6-N ) :   0.9585
B(  2-C , 11-H ) :   0.9352 B(  3-C ,  4-C ) :   1.1046 B(  3-C , 12-H ) :   0.9224
B(  3-C , 13-H ) :   0.9254 B(  4-C ,  5-C ) :   1.0784 B(  4-C , 14-H ) :   0.9284
B(  4-C , 15-H ) :   0.9235 B(  5-C ,  6-N ) :   1.0477 B(  5-C , 16-H ) :   0.9382
B(  5-C , 17-H ) :   0.9422

FINAL SINGLE POINT ENERGY      -289.367308884256

DIPOLE MOMENT
-------------
                                X             Y             Z
Electronic contribution:      3.22055       0.80438       1.76595
Nuclear contribution   :     -3.65548      -1.15765      -2.01957
                        -----------------------------------------
Total Dipole Moment    :     -0.43493      -0.35327      -0.25362
                        -----------------------------------------
Magnitude (a.u.)       :      0.61505
Magnitude (Debye)      :      1.56334

                             ****ORCA TERMINATED NORMALLY****
TOTAL RUN TIME: 0 days 0 hours 0 minutes 8 seconds 35 msec
