                         Program Version 3.0.3 - RELEASE   -
|  1> ! RI PBE def2-SVP def2-SVP/J NBO PAL2
|  2> % maxcore 2000
|  3> % output
|  4>     # printlevel mini
|  5>     print[ P_Basis ] 0
|  6>     print[ P_SCFInfo ] 1
|  7>     print[ P_SCFIterInfo ] 1
|  8>     print[ P_OrbEn ] 0
|  9>     print[ P_Cartesian ] 0
| 10> end
| 11> *xyz 0 1
| 12>  C        1.0214180000     0.0022650000    -0.4707260000
| 13>  C        2.3088970000    -0.2565500000     0.2500810000
| 14>  C        3.4468060000    -1.0451660000    -0.3033970000
| 15>  C        3.4778850000    -1.2685170000    -1.7639270000
| 16>  C        3.5622700000    -0.1064330000    -2.4037900000
| 17>  C        3.6240880000     1.0246030000    -1.4184330000
| 18>  N        3.5654510000     0.4092240000    -0.0854960000
| 19>  H        0.2594910000    -0.7025060000    -0.1290380000
| 20>  H        1.1157280000    -0.0994850000    -1.5523640000
| 21>  H        0.6582800000     1.0107740000    -0.2499520000
| 22>  H        2.1887350000    -0.3215630000     1.3298220000
| 23>  H        4.0148780000    -1.7000410000     0.3517460000
| 24>  H        3.4300070000    -2.2477690000    -2.2231510000
| 25>  H        3.5623820000     0.0308040000    -3.4787950000
| 26>  H        2.8022510000     1.7400780000    -1.5499330000
| 27>  H        4.5535430000     1.5980600000    -1.5087580000
| 28> *
| 29>
| 30>                          ****END OF INPUT****
 Total Charge           Charge          ....    0
 Multiplicity           Mult            ....    1
 Number of Electrons    NEL             ....   52
 Basis Dimension        Dim             ....  143

MULLIKEN ATOMIC CHARGES
-----------------------
   0 C :    0.085201
   1 C :   -0.068887
   2 C :    0.001982
   3 C :    0.041274
   4 C :   -0.148687
   5 C :    0.206756
   6 N :   -0.275890
   7 H :    0.029627
   8 H :    0.013667
   9 H :    0.027015
  10 H :    0.020847
  11 H :    0.023474
  12 H :   -0.007676
  13 H :   -0.000932
  14 H :    0.021965
  15 H :    0.030265
Sum of atomic charges:    0.0000000

LOEWDIN ATOMIC CHARGES
----------------------
   0 C :   -0.071588
   1 C :    0.001982
   2 C :    0.001082
   3 C :   -0.038833
   4 C :   -0.047186
   5 C :    0.015325
   6 N :   -0.111590
   7 H :    0.037216
   8 H :    0.029948
   9 H :    0.032712
  10 H :    0.024810
  11 H :    0.020903
  12 H :    0.026769
  13 H :    0.023948
  14 H :    0.026955
  15 H :    0.027548

  Mayer bond orders larger than 0.1
B(  0-C ,  1-C ) :   1.0957 B(  0-C ,  7-H ) :   0.9480 B(  0-C ,  8-H ) :   0.9297
B(  0-C ,  9-H ) :   0.9470 B(  1-C ,  2-C ) :   0.9771 B(  1-C ,  6-N ) :   0.9478
B(  1-C , 10-H ) :   0.9323 B(  2-C ,  3-C ) :   1.0092 B(  2-C ,  6-N ) :   0.9648
B(  2-C , 11-H ) :   0.9352 B(  3-C ,  4-C ) :   1.8019 B(  3-C , 12-H ) :   1.0023
B(  4-C ,  5-C ) :   1.0178 B(  4-C , 13-H ) :   0.9816 B(  5-C ,  6-N ) :   1.0366
B(  5-C , 14-H ) :   0.9096 B(  5-C , 15-H ) :   0.9232

FINAL SINGLE POINT ENERGY      -288.150549664724

DIPOLE MOMENT
-------------
                                X             Y             Z
Electronic contribution:      3.46170      -0.85995       0.64269
Nuclear contribution   :     -3.85098       0.66594      -1.02379
                        -----------------------------------------
Total Dipole Moment    :     -0.38928      -0.19401      -0.38110
                        -----------------------------------------
Magnitude (a.u.)       :      0.57828
Magnitude (Debye)      :      1.46988

                             ****ORCA TERMINATED NORMALLY****
TOTAL RUN TIME: 0 days 0 hours 0 minutes 7 seconds 669 msec
