                         Program Version 3.0.3 - RELEASE   -
|  1> ! RI PBE def2-SVP def2-SVP/J NBO PAL2
|  2> % maxcore 2000
|  3> % output
|  4>     # printlevel mini
|  5>     print[ P_Basis ] 0
|  6>     print[ P_SCFInfo ] 1
|  7>     print[ P_SCFIterInfo ] 1
|  8>     print[ P_OrbEn ] 0
|  9>     print[ P_Cartesian ] 0
| 10> end
| 11> *xyz 0 1
| 12>  C        1.0844140000     0.0762180000     0.0836630000
| 13>  C        2.5821780000     0.1224410000    -0.0851820000
| 14>  C        3.2073120000     1.1960180000    -1.0059990000
| 15>  C        2.8784410000     0.1865760000    -2.1163130000
| 16>  N        3.1340340000    -0.8743930000    -1.0817090000
| 17>  C        4.5811840000    -0.6533770000    -0.8656760000
| 18>  C        4.6904610000     0.9014590000    -0.7999830000
| 19>  H        0.7633390000     0.8596070000     0.7750510000
| 20>  H        0.7871540000    -0.8874280000     0.5032700000
| 21>  H        0.5405700000     0.2147830000    -0.8516110000
| 22>  H        3.0560700000     0.0212730000     0.8984330000
| 23>  H        2.8856650000     2.2387910000    -1.0185870000
| 24>  H        3.5332650000     0.1400150000    -2.9904930000
| 25>  H        1.8387230000     0.1743260000    -2.4360850000
| 26>  H        5.1473660000    -1.0876220000    -1.6912500000
| 27>  H        4.8930380000    -1.1426940000     0.0585780000
| 28>  H        5.3186220000     1.3211320000    -1.5888550000
| 29>  H        5.0613730000     1.2625750000     0.1620460000
| 30> *
| 31>
| 32>                          ****END OF INPUT****
 Total Charge           Charge          ....    0
 Multiplicity           Mult            ....    1
 Number of Electrons    NEL             ....   54
 Basis Dimension        Dim             ....  153

MULLIKEN ATOMIC CHARGES
-----------------------
   0 C :    0.116668
   1 C :   -0.048687
   2 C :   -0.244978
   3 C :    0.164301
   4 N :   -0.303853
   5 C :    0.087677
   6 C :    0.108905
   7 H :    0.017699
   8 H :    0.028391
   9 H :    0.002391
  10 H :    0.004800
  11 H :   -0.005144
  12 H :    0.011438
  13 H :    0.021761
  14 H :    0.009933
  15 H :    0.010322
  16 H :    0.009265
  17 H :    0.009110
Sum of atomic charges:   -0.0000000

LOEWDIN ATOMIC CHARGES
----------------------
   0 C :   -0.060778
   1 C :    0.018782
   2 C :   -0.037833
   3 C :    0.032191
   4 N :   -0.128688
   5 C :    0.012297
   6 C :   -0.048960
   7 H :    0.031523
   8 H :    0.034311
   9 H :    0.025430
  10 H :    0.012222
  11 H :    0.009111
  12 H :    0.011305
  13 H :    0.015314
  14 H :    0.017023
  15 H :    0.017301
  16 H :    0.019814
  17 H :    0.019634

  Mayer bond orders larger than 0.1
B(  0-C ,  1-C ) :   1.1060 B(  0-C ,  7-H ) :   0.9510 B(  0-C ,  8-H ) :   0.9496
B(  0-C ,  9-H ) :   0.9391 B(  1-C ,  2-C ) :   0.9465 B(  1-C ,  4-N ) :   0.9268
B(  1-C , 10-H ) :   0.9264 B(  2-C ,  3-C ) :   0.9889 B(  2-C ,  6-C ) :   1.0587
B(  2-C , 11-H ) :   0.9580 B(  3-C ,  4-N ) :   0.9621 B(  3-C , 12-H ) :   0.9373
B(  3-C , 13-H ) :   0.9498 B(  4-N ,  5-C ) :   1.0258 B(  5-C ,  6-C ) :   1.0145
B(  5-C , 14-H ) :   0.9355 B(  5-C , 15-H ) :   0.9340 B(  6-C , 16-H ) :   0.9291
B(  6-C , 17-H ) :   0.9321

FINAL SINGLE POINT ENERGY      -289.350344362532

DIPOLE MOMENT
-------------
                                X             Y             Z
Electronic contribution:      0.89340      -1.02920      -0.84306
Nuclear contribution   :     -0.82005       1.55028       0.92004
                        -----------------------------------------
Total Dipole Moment    :      0.07335       0.52108       0.07697
                        -----------------------------------------
Magnitude (a.u.)       :      0.53182
Magnitude (Debye)      :      1.35177

                             ****ORCA TERMINATED NORMALLY****
TOTAL RUN TIME: 0 days 0 hours 0 minutes 8 seconds 33 msec
