                         Program Version 3.0.3 - RELEASE   -
|  1> ! RI PBE def2-SVP def2-SVP/J NBO PAL2
|  2> % maxcore 2000
|  3> % output
|  4>     # printlevel mini
|  5>     print[ P_Basis ] 0
|  6>     print[ P_SCFInfo ] 1
|  7>     print[ P_SCFIterInfo ] 1
|  8>     print[ P_OrbEn ] 0
|  9>     print[ P_Cartesian ] 0
| 10> end
| 11> *xyz 0 1
| 12>  C        0.8351370000     0.0879310000    -0.1480510000
| 13>  C        2.3162710000     0.1025910000     0.0958170000
| 14>  C        3.2689420000    -0.8819760000    -0.5279950000
| 15>  C        2.8064800000    -1.6779780000    -1.7339130000
| 16>  C        2.8922270000    -0.6709600000    -2.8950280000
| 17>  N        2.9030720000     0.6719400000    -2.3097990000
| 18>  C        3.3143230000     0.5647270000    -0.9369400000
| 19>  H        0.3429260000    -0.6656370000     0.4728370000
| 20>  H        0.5826000000    -0.1364310000    -1.1865190000
| 21>  H        0.3918350000     1.0576650000     0.0956520000
| 22>  H        2.5839610000     0.3810860000     1.1118060000
| 23>  H        4.0475060000    -1.2984160000     0.0992870000
| 24>  H        1.7905440000    -2.0626430000    -1.6045120000
| 25>  H        3.4541120000    -2.5411790000    -1.9014470000
| 26>  H        2.0714710000    -0.7697110000    -3.6104180000
| 27>  H        3.8231990000    -0.8295040000    -3.4510520000
| 28>  H        2.0001690000     1.1173250000    -2.3953500000
| 29>  H        4.1303140000     1.2062600000    -0.6200630000
| 30> *
| 31>
| 32>                          ****END OF INPUT****
 Total Charge           Charge          ....    0
 Multiplicity           Mult            ....    1
 Number of Electrons    NEL             ....   54
 Basis Dimension        Dim             ....  153

MULLIKEN ATOMIC CHARGES
-----------------------
   0 C :    0.081970
   1 C :   -0.105373
   2 C :   -0.129830
   3 C :    0.059357
   4 C :    0.103463
   5 N :   -0.191678
   6 C :   -0.025260
   7 H :    0.025416
   8 H :   -0.005265
   9 H :    0.021813
  10 H :    0.007941
  11 H :    0.014229
  12 H :    0.009060
  13 H :    0.009551
  14 H :    0.003093
  15 H :    0.010742
  16 H :    0.098021
  17 H :    0.012748
Sum of atomic charges:    0.0000000

LOEWDIN ATOMIC CHARGES
----------------------
   0 C :   -0.061712
   1 C :   -0.051111
   2 C :   -0.044252
   3 C :   -0.046294
   4 C :    0.018428
   5 N :   -0.087679
   6 C :   -0.003618
   7 H :    0.032981
   8 H :    0.019097
   9 H :    0.030719
  10 H :    0.027860
  11 H :    0.022362
  12 H :    0.021127
  13 H :    0.027857
  14 H :    0.016277
  15 H :    0.015684
  16 H :    0.049432
  17 H :    0.012843

  Mayer bond orders larger than 0.1
B(  0-C ,  1-C ) :   1.1092 B(  0-C ,  7-H ) :   0.9538 B(  0-C ,  8-H ) :   0.9329
B(  0-C ,  9-H ) :   0.9565 B(  1-C ,  2-C ) :   0.9489 B(  1-C ,  6-C ) :   0.9227
B(  1-C , 10-H ) :   0.9248 B(  2-C ,  3-C ) :   1.1055 B(  2-C ,  6-C ) :   0.9311
B(  2-C , 11-H ) :   0.9456 B(  3-C ,  4-C ) :   1.0813 B(  3-C , 12-H ) :   0.9135
B(  3-C , 13-H ) :   0.9294 B(  4-C ,  5-N ) :   1.0699 B(  4-C , 14-H ) :   0.9405
B(  4-C , 15-H ) :   0.9366 B(  5-N ,  6-C ) :   1.1361 B(  5-N , 16-H ) :   0.9512
B(  6-C , 17-H ) :   0.9497

FINAL SINGLE POINT ENERGY      -289.370384374787

DIPOLE MOMENT
-------------
                                X             Y             Z
Electronic contribution:      2.68994       1.38919      -0.28668
Nuclear contribution   :     -3.04689      -1.61048       0.47537
                        -----------------------------------------
Total Dipole Moment    :     -0.35694      -0.22128       0.18869
                        -----------------------------------------
Magnitude (a.u.)       :      0.46041
Magnitude (Debye)      :      1.17027

                             ****ORCA TERMINATED NORMALLY****
TOTAL RUN TIME: 0 days 0 hours 0 minutes 7 seconds 949 msec
