                         Program Version 3.0.3 - RELEASE   -
|  1> ! RI PBE def2-SVP def2-SVP/J NBO PAL2
|  2> % maxcore 2000
|  3> % output
|  4>     # printlevel mini
|  5>     print[ P_Basis ] 0
|  6>     print[ P_SCFInfo ] 1
|  7>     print[ P_SCFIterInfo ] 1
|  8>     print[ P_OrbEn ] 0
|  9>     print[ P_Cartesian ] 0
| 10> end
| 11> *xyz 0 1
| 12>  C        1.1444510000    -0.0459920000    -0.3136720000
| 13>  C        2.4314960000     0.2489200000     0.3946120000
| 14>  C        3.5245420000     1.0784770000    -0.1616630000
| 15>  C        3.6009590000     1.3199550000    -1.6475450000
| 16>  C        3.6980770000    -0.0959380000    -2.1375200000
| 17>  N        3.7090440000    -0.9853030000    -1.2336070000
| 18>  N        3.7224930000    -0.3820870000     0.0487990000
| 19>  H        0.4206620000     0.7402850000    -0.0842260000
| 20>  H        0.7286780000    -0.9956460000     0.0307650000
| 21>  H        1.2488440000    -0.1023900000    -1.3963240000
| 22>  H        2.3226400000     0.2986820000     1.4749310000
| 23>  H        4.0887710000     1.7243710000     0.5006240000
| 24>  H        4.4821480000     1.9104650000    -1.9173940000
| 25>  H        2.7318110000     1.8296340000    -2.0788190000
| 26>  H        3.7219620000    -0.3882520000    -3.1833600000
| 27> *
| 28>
| 29>                          ****END OF INPUT****
 Total Charge           Charge          ....    0
 Multiplicity           Mult            ....    1
 Number of Electrons    NEL             ....   52
 Basis Dimension        Dim             ....  138

MULLIKEN ATOMIC CHARGES
-----------------------
   0 C :    0.090895
   1 C :   -0.085222
   2 C :   -0.074024
   3 C :    0.114922
   4 C :   -0.076516
   5 N :   -0.051401
   6 N :   -0.175217
   7 H :    0.034936
   8 H :    0.038860
   9 H :    0.015715
  10 H :    0.032919
  11 H :    0.028632
  12 H :    0.042016
  13 H :    0.040599
  14 H :    0.022885
Sum of atomic charges:   -0.0000000

LOEWDIN ATOMIC CHARGES
----------------------
   0 C :   -0.066801
   1 C :    0.000677
   2 C :   -0.012507
   3 C :   -0.063119
   4 C :   -0.018048
   5 N :   -0.037944
   6 N :   -0.072876
   7 H :    0.039232
   8 H :    0.040318
   9 H :    0.030697
  10 H :    0.031244
  11 H :    0.024003
  12 H :    0.043383
  13 H :    0.039564
  14 H :    0.022178

  Mayer bond orders larger than 0.1
B(  0-C ,  1-C ) :   1.1028 B(  0-C ,  7-H ) :   0.9488 B(  0-C ,  8-H ) :   0.9485
B(  0-C ,  9-H ) :   0.9320 B(  1-C ,  2-C ) :   0.9958 B(  1-C ,  6-N ) :   0.9159
B(  1-C , 10-H ) :   0.9330 B(  2-C ,  3-C ) :   1.0765 B(  2-C ,  6-N ) :   0.9224
B(  2-C , 11-H ) :   0.9376 B(  3-C ,  4-C ) :   0.9892 B(  3-C , 12-H ) :   0.9111
B(  3-C , 13-H ) :   0.9064 B(  4-C ,  5-N ) :   1.9015 B(  4-C , 14-H ) :   0.9618
B(  5-N ,  6-N ) :   0.9888

FINAL SINGLE POINT ENERGY      -304.158805178592

DIPOLE MOMENT
-------------
                                X             Y             Z
Electronic contribution:      4.11524      -2.37173       0.42877
Nuclear contribution   :     -4.65213       3.44868      -0.79657
                        -----------------------------------------
Total Dipole Moment    :     -0.53690       1.07695      -0.36780
                        -----------------------------------------
Magnitude (a.u.)       :      1.25832
Magnitude (Debye)      :      3.19838

                             ****ORCA TERMINATED NORMALLY****
TOTAL RUN TIME: 0 days 0 hours 0 minutes 6 seconds 809 msec
