                         Program Version 3.0.3 - RELEASE   -
|  1> ! RI PBE def2-SVP def2-SVP/J NBO PAL2
|  2> % maxcore 2000
|  3> % output
|  4>     # printlevel mini
|  5>     print[ P_Basis ] 0
|  6>     print[ P_SCFInfo ] 1
|  7>     print[ P_SCFIterInfo ] 1
|  8>     print[ P_OrbEn ] 0
|  9>     print[ P_Cartesian ] 0
| 10> end
| 11> *xyz 0 1
| 12>  C        1.1089040000     0.0367210000     0.1284040000
| 13>  C        2.6131710000     0.0410170000    -0.0132250000
| 14>  C        3.2493170000     1.0890490000    -0.9715210000
| 15>  C        2.9172600000     0.1141450000    -2.1256320000
| 16>  C        3.2574230000    -0.9240450000    -1.0338500000
| 17>  N        4.6843190000    -0.7046350000    -0.7547070000
| 18>  C        4.7285920000     0.7847300000    -0.7522090000
| 19>  H        0.7789730000     0.8949890000     0.7202870000
| 20>  H        0.7742980000    -0.8654040000     0.6479730000
| 21>  H        0.5854120000     0.0785720000    -0.8283690000
| 22>  H        3.0812350000    -0.0101720000     0.9749900000
| 23>  H        2.9432830000     2.1354010000    -0.9775910000
| 24>  H        3.5555970000     0.1355090000    -3.0133420000
| 25>  H        1.8694930000     0.1324740000    -2.4196360000
| 26>  H        2.9831140000    -1.9770820000    -1.0997530000
| 27>  H        5.2433870000    -1.0657020000    -1.5183560000
| 28>  H        5.3629890000     1.1859130000    -1.5483790000
| 29>  H        5.0976110000     1.1635400000     0.2053150000
| 30> *
| 31>
| 32>                          ****END OF INPUT****
 Total Charge           Charge          ....    0
 Multiplicity           Mult            ....    1
 Number of Electrons    NEL             ....   54
 Basis Dimension        Dim             ....  153

MULLIKEN ATOMIC CHARGES
-----------------------
   0 C :    0.091290
   1 C :   -0.097481
   2 C :   -0.193915
   3 C :    0.092608
   4 C :   -0.064930
   5 N :   -0.182939
   6 C :    0.200451
   7 H :    0.020325
   8 H :    0.021801
   9 H :    0.002896
  10 H :    0.010302
  11 H :   -0.009257
  12 H :   -0.000234
  13 H :    0.014883
  14 H :   -0.011755
  15 H :    0.094112
  16 H :    0.004272
  17 H :    0.007571
Sum of atomic charges:    0.0000000

LOEWDIN ATOMIC CHARGES
----------------------
   0 C :   -0.059075
   1 C :   -0.033158
   2 C :   -0.029543
   3 C :   -0.040697
   4 C :    0.024505
   5 N :   -0.104608
   6 C :    0.026106
   7 H :    0.029695
   8 H :    0.030024
   9 H :    0.023008
  10 H :    0.018888
  11 H :    0.009732
  12 H :    0.009928
  13 H :    0.017470
  14 H :    0.005832
  15 H :    0.047435
  16 H :    0.011019
  17 H :    0.013438

  Mayer bond orders larger than 0.1
B(  0-C ,  1-C ) :   1.1065 B(  0-C ,  7-H ) :   0.9544 B(  0-C ,  8-H ) :   0.9556
B(  0-C ,  9-H ) :   0.9448 B(  1-C ,  2-C ) :   0.9320 B(  1-C ,  4-C ) :   0.9310
B(  1-C , 10-H ) :   0.9162 B(  2-C ,  3-C ) :   0.9689 B(  2-C ,  6-C ) :   1.0289
B(  2-C , 11-H ) :   0.9525 B(  3-C ,  4-C ) :   0.9707 B(  3-C , 12-H ) :   0.9247
B(  3-C , 13-H ) :   0.9411 B(  4-C ,  5-N ) :   1.0804 B(  4-C , 14-H ) :   0.9591
B(  5-N ,  6-C ) :   1.0085 B(  5-N , 15-H ) :   0.9438 B(  6-C , 16-H ) :   0.9366
B(  6-C , 17-H ) :   0.9325

FINAL SINGLE POINT ENERGY      -289.358881461562

DIPOLE MOMENT
-------------
                                X             Y             Z
Electronic contribution:      2.78155      -0.93245      -0.21724
Nuclear contribution   :     -2.94012       1.09039      -0.15523
                        -----------------------------------------
Total Dipole Moment    :     -0.15857       0.15794      -0.37247
                        -----------------------------------------
Magnitude (a.u.)       :      0.43454
Magnitude (Debye)      :      1.10451

                             ****ORCA TERMINATED NORMALLY****
TOTAL RUN TIME: 0 days 0 hours 0 minutes 8 seconds 36 msec
