                         Program Version 3.0.3 - RELEASE   -
|  1> ! RI PBE def2-SVP def2-SVP/J NBO PAL2
|  2> % maxcore 2000
|  3> % output
|  4>     # printlevel mini
|  5>     print[ P_Basis ] 0
|  6>     print[ P_SCFInfo ] 1
|  7>     print[ P_SCFIterInfo ] 1
|  8>     print[ P_OrbEn ] 0
|  9>     print[ P_Cartesian ] 0
| 10> end
| 11> *xyz 0 1
| 12>  C        0.6961840000     0.0628810000    -0.1541810000
| 13>  C        2.1911490000     0.1079560000     0.0073060000
| 14>  C        3.1584780000    -0.8419280000    -0.6391620000
| 15>  C        2.7244360000    -1.6228080000    -1.8609340000
| 16>  N        2.2651640000    -0.6546390000    -2.8550150000
| 17>  C        2.7212760000     0.6809790000    -2.4748020000
| 18>  C        3.1564870000     0.6126900000    -1.0267600000
| 19>  H        0.2561450000    -0.6678040000     0.5300850000
| 20>  H        0.3832590000    -0.2062280000    -1.1629870000
| 21>  H        0.2538000000     1.0359840000     0.0763020000
| 22>  H        2.4879360000     0.3776010000     1.0177420000
| 23>  H        3.9561090000    -1.2558590000    -0.0329750000
| 24>  H        1.9340400000    -2.3523140000    -1.6545160000
| 25>  H        3.5851420000    -2.1875230000    -2.2402370000
| 26>  H        1.2627050000    -0.6801200000    -2.9454790000
| 27>  H        1.9288740000     1.4144470000    -2.6582060000
| 28>  H        3.5807900000     0.9842850000    -3.0853990000
| 29>  H        3.9526450000     1.2754090000    -0.7074610000
| 30> *
| 31>
| 32>                          ****END OF INPUT****
 Total Charge           Charge          ....    0
 Multiplicity           Mult            ....    1
 Number of Electrons    NEL             ....   54
 Basis Dimension        Dim             ....  153

MULLIKEN ATOMIC CHARGES
-----------------------
   0 C :    0.108066
   1 C :   -0.113898
   2 C :   -0.154271
   3 C :    0.209377
   4 N :   -0.275314
   5 C :    0.204385
   6 C :   -0.157046
   7 H :    0.023911
   8 H :   -0.029056
   9 H :    0.021658
  10 H :    0.009338
  11 H :    0.014194
  12 H :    0.006693
  13 H :    0.005971
  14 H :    0.095922
  15 H :    0.007793
  16 H :    0.007893
  17 H :    0.014385
Sum of atomic charges:   -0.0000000

LOEWDIN ATOMIC CHARGES
----------------------
   0 C :   -0.059220
   1 C :   -0.044281
   2 C :   -0.052360
   3 C :    0.021728
   4 N :   -0.098429
   5 C :    0.021146
   6 C :   -0.053383
   7 H :    0.031576
   8 H :    0.016212
   9 H :    0.030996
  10 H :    0.030822
  11 H :    0.022052
  12 H :    0.017409
  13 H :    0.016555
  14 H :    0.042379
  15 H :    0.017483
  16 H :    0.017153
  17 H :    0.022161

  Mayer bond orders larger than 0.1
B(  0-C ,  1-C ) :   1.1089 B(  0-C ,  7-H ) :   0.9552 B(  0-C ,  8-H ) :   0.9273
B(  0-C ,  9-H ) :   0.9556 B(  1-C ,  2-C ) :   0.9403 B(  1-C ,  6-C ) :   0.9381
B(  1-C , 10-H ) :   0.9210 B(  2-C ,  3-C ) :   1.0511 B(  2-C ,  6-C ) :   0.9772
B(  2-C , 11-H ) :   0.9393 B(  3-C ,  4-N ) :   1.0636 B(  3-C , 12-H ) :   0.9338
B(  3-C , 13-H ) :   0.9267 B(  4-N ,  5-C ) :   1.0642 B(  4-N , 14-H ) :   0.9612
B(  5-C ,  6-C ) :   1.0497 B(  5-C , 15-H ) :   0.9346 B(  5-C , 16-H ) :   0.9250
B(  6-C , 17-H ) :   0.9390

FINAL SINGLE POINT ENERGY      -289.372152344447

DIPOLE MOMENT
-------------
                                X             Y             Z
Electronic contribution:      2.21558      -0.27061      -1.01503
Nuclear contribution   :     -2.45897       0.36763       1.39229
                        -----------------------------------------
Total Dipole Moment    :     -0.24340       0.09701       0.37726
                        -----------------------------------------
Magnitude (a.u.)       :      0.45933
Magnitude (Debye)      :      1.16751

                             ****ORCA TERMINATED NORMALLY****
TOTAL RUN TIME: 0 days 0 hours 0 minutes 8 seconds 413 msec
