                         Program Version 3.0.3 - RELEASE   -
|  1> ! RI PBE def2-SVP def2-SVP/J NBO PAL2
|  2> % maxcore 2000
|  3> % output
|  4>     # printlevel mini
|  5>     print[ P_Basis ] 0
|  6>     print[ P_SCFInfo ] 1
|  7>     print[ P_SCFIterInfo ] 1
|  8>     print[ P_OrbEn ] 0
|  9>     print[ P_Cartesian ] 0
| 10> end
| 11> *xyz 0 1
| 12>  C        0.9880770000    -0.1442520000    -0.3333410000
| 13>  C        2.3282560000     0.0817760000     0.2981550000
| 14>  C        3.4050320000     0.8745150000    -0.3255580000
| 15>  C        3.3578680000     1.1382330000    -1.8196860000
| 16>  N        3.3903900000    -0.1823770000    -2.4486100000
| 17>  C        3.4765530000    -1.0320830000    -1.5145420000
| 18>  N        3.5692970000    -0.5871360000    -0.1737950000
| 19>  H        0.3139520000     0.6668440000    -0.0455670000
| 20>  H        0.5480670000    -1.0807100000     0.0183560000
| 21>  H        1.0327140000    -0.1766790000    -1.4221920000
| 22>  H        2.3011940000     0.0986500000     1.3844010000
| 23>  H        4.0426430000     1.4888810000     0.3004390000
| 24>  H        4.2229650000     1.7211760000    -2.1484250000
| 25>  H        2.4651780000     1.6792900000    -2.1513600000
| 26>  H        3.5121440000    -2.1019280000    -1.6983960000
| 27> *
| 28>
| 29>                          ****END OF INPUT****
 Total Charge           Charge          ....    0
 Multiplicity           Mult            ....    1
 Number of Electrons    NEL             ....   52
 Basis Dimension        Dim             ....  138

MULLIKEN ATOMIC CHARGES
-----------------------
   0 C :    0.070323
   1 C :   -0.090331
   2 C :   -0.082312
   3 C :    0.182640
   4 N :   -0.182231
   5 C :    0.060951
   6 N :   -0.217740
   7 H :    0.038552
   8 H :    0.033188
   9 H :    0.033219
  10 H :    0.034198
  11 H :    0.029260
  12 H :    0.032915
  13 H :    0.030645
  14 H :    0.026724
Sum of atomic charges:   -0.0000000

LOEWDIN ATOMIC CHARGES
----------------------
   0 C :   -0.070625
   1 C :    0.014457
   2 C :   -0.005914
   3 C :    0.002333
   4 N :   -0.106587
   5 C :    0.025295
   6 N :   -0.108141
   7 H :    0.040982
   8 H :    0.037254
   9 H :    0.034216
  10 H :    0.029558
  11 H :    0.024061
  12 H :    0.033910
  13 H :    0.029628
  14 H :    0.019572

  Mayer bond orders larger than 0.1
B(  0-C ,  1-C ) :   1.0949 B(  0-C ,  7-H ) :   0.9500 B(  0-C ,  8-H ) :   0.9516
B(  0-C ,  9-H ) :   0.9254 B(  1-C ,  2-C ) :   0.9964 B(  1-C ,  6-N ) :   0.9289
B(  1-C , 10-H ) :   0.9379 B(  2-C ,  3-C ) :   1.0593 B(  2-C ,  6-N ) :   0.9270
B(  2-C , 11-H ) :   0.9385 B(  3-C ,  4-N ) :   1.0580 B(  3-C , 12-H ) :   0.9256
B(  3-C , 13-H ) :   0.9136 B(  4-N ,  5-C ) :   1.8986 B(  5-C ,  6-N ) :   1.0808
B(  5-C , 14-H ) :   0.9667

FINAL SINGLE POINT ENERGY      -304.182918055447

DIPOLE MOMENT
-------------
                                X             Y             Z
Electronic contribution:      4.00014      -1.52003      -0.86753
Nuclear contribution   :     -4.46850       1.94892       1.37526
                        -----------------------------------------
Total Dipole Moment    :     -0.46836       0.42889       0.50773
                        -----------------------------------------
Magnitude (a.u.)       :      0.81308
Magnitude (Debye)      :      2.06668

                             ****ORCA TERMINATED NORMALLY****
TOTAL RUN TIME: 0 days 0 hours 0 minutes 6 seconds 636 msec
