                         Program Version 3.0.3 - RELEASE   -
|  1> ! RI PBE def2-SVP def2-SVP/J NBO PAL2
|  2> % maxcore 2000
|  3> % output
|  4>     # printlevel mini
|  5>     print[ P_Basis ] 0
|  6>     print[ P_SCFInfo ] 1
|  7>     print[ P_SCFIterInfo ] 1
|  8>     print[ P_OrbEn ] 0
|  9>     print[ P_Cartesian ] 0
| 10> end
| 11> *xyz 0 1
| 12>  C        1.0143970000    -0.0495190000    -0.1998770000
| 13>  C        2.4575160000     0.2862540000     0.0565230000
| 14>  C        3.6382580000    -0.5254030000    -0.5677210000
| 15>  N        4.4569750000     0.6894460000    -0.2800500000
| 16>  C        3.2226090000     1.3923070000    -0.7396400000
| 17>  C        3.0601920000     0.9001050000    -2.1818950000
| 18>  C        3.3412120000    -0.3963800000    -2.0656640000
| 19>  H        0.7356310000    -0.9671460000     0.3254380000
| 20>  H        0.8091620000    -0.1893200000    -1.2628910000
| 21>  H        0.3640590000     0.7471490000     0.1717200000
| 22>  H        2.6483030000     0.4232790000     1.1237160000
| 23>  H        3.9750910000    -1.4820680000    -0.1691990000
| 24>  H        5.2123390000     0.7925660000    -0.9560020000
| 25>  H        3.1216950000     2.4553330000    -0.5222010000
| 26>  H        2.7520360000     1.4735950000    -3.0445270000
| 27>  H        3.3279340000    -1.1832790000    -2.8063380000
| 28> *
| 29>
| 30>                          ****END OF INPUT****
 Total Charge           Charge          ....    0
 Multiplicity           Mult            ....    1
 Number of Electrons    NEL             ....   52
 Basis Dimension        Dim             ....  143

MULLIKEN ATOMIC CHARGES
-----------------------
   0 C :    0.101564
   1 C :   -0.117303
   2 C :    0.015251
   3 N :   -0.129806
   4 C :    0.001426
   5 C :    0.022766
   6 C :    0.013401
   7 H :    0.018798
   8 H :    0.008912
   9 H :    0.021629
  10 H :    0.026329
  11 H :   -0.015723
  12 H :    0.073011
  13 H :   -0.010387
  14 H :   -0.015910
  15 H :   -0.013958
Sum of atomic charges:    0.0000000

LOEWDIN ATOMIC CHARGES
----------------------
   0 C :   -0.069773
   1 C :   -0.020108
   2 C :    0.025047
   3 N :   -0.087885
   4 C :    0.023243
   5 C :   -0.035946
   6 C :   -0.038079
   7 H :    0.031533
   8 H :    0.023100
   9 H :    0.031882
  10 H :    0.027784
  11 H :    0.006298
  12 H :    0.036071
  13 H :    0.007168
  14 H :    0.019646
  15 H :    0.020019

  Mayer bond orders larger than 0.1
B(  0-C ,  1-C ) :   1.0937 B(  0-C ,  7-H ) :   0.9511 B(  0-C ,  8-H ) :   0.9328
B(  0-C ,  9-H ) :   0.9515 B(  1-C ,  2-C ) :   0.9428 B(  1-C ,  4-C ) :   0.9389
B(  1-C , 10-H ) :   0.9223 B(  2-C ,  3-N ) :   0.9980 B(  2-C ,  6-C ) :   0.9060
B(  2-C , 11-H ) :   0.9688 B(  3-N ,  4-C ) :   0.9992 B(  3-N , 12-H ) :   0.9324
B(  4-C ,  5-C ) :   0.9063 B(  4-C , 13-H ) :   0.9713 B(  5-C ,  6-C ) :   1.7475
B(  5-C , 14-H ) :   1.0236 B(  6-C , 15-H ) :   1.0253

FINAL SINGLE POINT ENERGY      -288.123816229068

DIPOLE MOMENT
-------------
                                X             Y             Z
Electronic contribution:      3.63412       0.72085      -0.75060
Nuclear contribution   :     -3.89439      -0.81137       0.36490
                        -----------------------------------------
Total Dipole Moment    :     -0.26027      -0.09052      -0.38570
                        -----------------------------------------
Magnitude (a.u.)       :      0.47402
Magnitude (Debye)      :      1.20486

                             ****ORCA TERMINATED NORMALLY****
TOTAL RUN TIME: 0 days 0 hours 0 minutes 7 seconds 170 msec
