                         Program Version 3.0.3 - RELEASE   -
|  1> ! RI PBE def2-SVP def2-SVP/J NBO PAL2
|  2> % maxcore 2000
|  3> % output
|  4>     # printlevel mini
|  5>     print[ P_Basis ] 0
|  6>     print[ P_SCFInfo ] 1
|  7>     print[ P_SCFIterInfo ] 1
|  8>     print[ P_OrbEn ] 0
|  9>     print[ P_Cartesian ] 0
| 10> end
| 11> *xyz 0 1
| 12>  C        0.8894210000     0.1384510000    -0.4636930000
| 13>  C        2.2135180000     0.0651880000     0.2342990000
| 14>  C        3.4381560000     0.8004180000    -0.2356410000
| 15>  N        3.5173320000     1.1268580000    -1.6252650000
| 16>  C        3.3986090000    -0.0351320000    -2.3377100000
| 17>  N        3.3963240000    -1.1193600000    -1.6611530000
| 18>  C        3.3912130000    -0.7263260000    -0.2814660000
| 19>  H        0.3635640000     1.0625860000    -0.2076790000
| 20>  H        0.2540640000    -0.7024270000    -0.1754470000
| 21>  H        0.9971840000     0.1023170000    -1.5488170000
| 22>  H        2.1504330000     0.0325330000     1.3177670000
| 23>  H        4.0451970000     1.3885410000     0.4420170000
| 24>  H        3.2491640000     2.0216850000    -1.9955060000
| 25>  H        3.3476150000    -0.0016160000    -3.4214300000
| 26>  H        3.9351960000    -1.3629150000     0.4050150000
| 27> *
| 28>
| 29>                          ****END OF INPUT****
 Total Charge           Charge          ....    0
 Multiplicity           Mult            ....    1
 Number of Electrons    NEL             ....   52
 Basis Dimension        Dim             ....  138

MULLIKEN ATOMIC CHARGES
-----------------------
   0 C :    0.084971
   1 C :   -0.151205
   2 C :    0.014498
   3 N :   -0.119109
   4 C :    0.068785
   5 N :   -0.154935
   6 C :    0.004445
   7 H :    0.018465
   8 H :    0.031676
   9 H :    0.014957
  10 H :    0.024752
  11 H :    0.016730
  12 H :    0.115028
  13 H :    0.011887
  14 H :    0.019056
Sum of atomic charges:   -0.0000000

LOEWDIN ATOMIC CHARGES
----------------------
   0 C :   -0.061121
   1 C :   -0.065630
   2 C :   -0.005955
   3 N :    0.001571
   4 C :    0.018182
   5 N :   -0.141462
   6 C :    0.002366
   7 H :    0.028315
   8 H :    0.035657
   9 H :    0.028188
  10 H :    0.034750
  11 H :    0.016564
  12 H :    0.073188
  13 H :    0.016158
  14 H :    0.019229

  Mayer bond orders larger than 0.1
B(  0-C ,  1-C ) :   1.0863 B(  0-C ,  7-H ) :   0.9580 B(  0-C ,  8-H ) :   0.9566
B(  0-C ,  9-H ) :   0.9375 B(  1-C ,  2-C ) :   0.9274 B(  1-C ,  6-C ) :   0.9083
B(  1-C , 10-H ) :   0.9336 B(  2-C ,  3-N ) :   1.0564 B(  2-C ,  6-C ) :   0.8957
B(  2-C , 11-H ) :   0.9546 B(  3-N ,  4-C ) :   1.1554 B(  3-N ,  5-N ) :   0.1141
B(  3-N , 12-H ) :   0.9407 B(  4-C ,  5-N ) :   1.7787 B(  4-C , 13-H ) :   0.9601
B(  5-N ,  6-C ) :   1.1348 B(  6-C , 14-H ) :   0.9540

FINAL SINGLE POINT ENERGY      -304.198795707763

DIPOLE MOMENT
-------------
                                X             Y             Z
Electronic contribution:      4.09005      -0.79843      -1.89749
Nuclear contribution   :     -4.29004       1.94739       2.02253
                        -----------------------------------------
Total Dipole Moment    :     -0.19999       1.14896       0.12504
                        -----------------------------------------
Magnitude (a.u.)       :      1.17292
Magnitude (Debye)      :      2.98132

                             ****ORCA TERMINATED NORMALLY****
TOTAL RUN TIME: 0 days 0 hours 0 minutes 7 seconds 304 msec
