                         Program Version 3.0.3 - RELEASE   -
|  1> ! RI PBE def2-SVP def2-SVP/J NBO PAL2
|  2> % maxcore 2000
|  3> % output
|  4>     # printlevel mini
|  5>     print[ P_Basis ] 0
|  6>     print[ P_SCFInfo ] 1
|  7>     print[ P_SCFIterInfo ] 1
|  8>     print[ P_OrbEn ] 0
|  9>     print[ P_Cartesian ] 0
| 10> end
| 11> *xyz 0 1
| 12>  C        0.8886820000    -0.0797130000    -0.3729640000
| 13>  C        2.2701020000    -0.0436880000     0.2086780000
| 14>  C        3.3833410000     0.7206060000    -0.4243820000
| 15>  N        3.2015100000     1.0379370000    -1.8108160000
| 16>  N        3.2557650000    -0.0888800000    -2.5897890000
| 17>  C        3.3567400000    -1.1150350000    -1.8264430000
| 18>  C        3.4356500000    -0.8089810000    -0.3899820000
| 19>  H        0.3142980000     0.7916290000    -0.0475080000
| 20>  H        0.3538760000    -0.9770290000    -0.0514190000
| 21>  H        0.9129390000    -0.0698980000    -1.4633500000
| 22>  H        2.3069390000    -0.0252080000     1.2935860000
| 23>  H        4.0214170000     1.3722440000     0.1610300000
| 24>  H        3.7352090000     1.7970730000    -2.2023440000
| 25>  H        3.4035460000    -2.1035210000    -2.2643010000
| 26>  H        4.0733780000    -1.3968350000     0.2599140000
| 27> *
| 28>
| 29>                          ****END OF INPUT****
 Total Charge           Charge          ....    0
 Multiplicity           Mult            ....    1
 Number of Electrons    NEL             ....   52
 Basis Dimension        Dim             ....  138

MULLIKEN ATOMIC CHARGES
-----------------------
   0 C :    0.095053
   1 C :   -0.157984
   2 C :    0.066835
   3 N :   -0.081789
   4 N :   -0.104066
   5 C :    0.013523
   6 C :   -0.098570
   7 H :    0.022585
   8 H :    0.021808
   9 H :    0.031818
  10 H :    0.025862
  11 H :    0.016530
  12 H :    0.119165
  13 H :    0.006805
  14 H :    0.022425
Sum of atomic charges:    0.0000000

LOEWDIN ATOMIC CHARGES
----------------------
   0 C :   -0.060159
   1 C :   -0.050228
   2 C :    0.006354
   3 N :    0.015439
   4 N :   -0.054454
   5 C :   -0.054119
   6 C :   -0.062918
   7 H :    0.032031
   8 H :    0.030715
   9 H :    0.032782
  10 H :    0.032564
  11 H :    0.020051
  12 H :    0.065918
  13 H :    0.020209
  14 H :    0.025815

  Mayer bond orders larger than 0.1
B(  0-C ,  1-C ) :   1.0961 B(  0-C ,  7-H ) :   0.9577 B(  0-C ,  8-H ) :   0.9587
B(  0-C ,  9-H ) :   0.9311 B(  1-C ,  2-C ) :   0.9446 B(  1-C ,  6-C ) :   0.9149
B(  1-C , 10-H ) :   0.9352 B(  2-C ,  3-N ) :   1.0615 B(  2-C ,  6-C ) :   0.8915
B(  2-C , 11-H ) :   0.9471 B(  3-N ,  4-N ) :   1.0991 B(  3-N ,  5-C ) :   0.1036
B(  3-N , 12-H ) :   0.9446 B(  4-N ,  5-C ) :   1.7934 B(  5-C ,  6-C ) :   1.0299
B(  5-C , 13-H ) :   0.9891 B(  6-C , 14-H ) :   0.9501

FINAL SINGLE POINT ENERGY      -304.175229121171

DIPOLE MOMENT
-------------
                                X             Y             Z
Electronic contribution:      3.48416       0.54196      -2.97359
Nuclear contribution   :     -3.12651      -0.31367       3.72188
                        -----------------------------------------
Total Dipole Moment    :      0.35764       0.22829       0.74828
                        -----------------------------------------
Magnitude (a.u.)       :      0.86020
Magnitude (Debye)      :      2.18647

                             ****ORCA TERMINATED NORMALLY****
TOTAL RUN TIME: 0 days 0 hours 0 minutes 7 seconds 269 msec
