                         Program Version 3.0.3 - RELEASE   -
|  1> ! RI PBE def2-SVP def2-SVP/J NBO PAL2
|  2> % maxcore 2000
|  3> % output
|  4>     # printlevel mini
|  5>     print[ P_Basis ] 0
|  6>     print[ P_SCFInfo ] 1
|  7>     print[ P_SCFIterInfo ] 1
|  8>     print[ P_OrbEn ] 0
|  9>     print[ P_Cartesian ] 0
| 10> end
| 11> *xyz 0 1
| 12>  C        0.8576040000     0.2111820000    -0.1892320000
| 13>  C        2.3499540000     0.2044370000    -0.0140980000
| 14>  C        3.1882950000    -0.8578100000    -0.6610460000
| 15>  C        3.2439400000     0.5579160000    -1.1608130000
| 16>  C        4.4806450000     1.3791620000    -1.0136880000
| 17>  C        4.4450660000     2.6981210000    -0.3518960000
| 18>  N        5.1376780000     1.5721460000     0.2715400000
| 19>  H        0.3701710000    -0.4492600000     0.5331440000
| 20>  H        0.5835770000    -0.1332220000    -1.1898830000
| 21>  H        0.4436830000     1.2149130000    -0.0587250000
| 22>  H        2.6816570000     0.5186980000     0.9728480000
| 23>  H        2.6863430000    -1.6005950000    -1.2702410000
| 24>  H        4.0493420000    -1.2282880000    -0.1167150000
| 25>  H        2.7262900000     0.7383940000    -2.0996920000
| 26>  H        5.1908410000     1.2473080000    -1.8272190000
| 27>  H        3.4929340000     3.0116330000     0.0658710000
| 28>  H        5.0873240000     3.5039720000    -0.6906130000
| 29>  H        4.5724560000     1.1907950000     1.0232470000
| 30> *
| 31>
| 32>                          ****END OF INPUT****
 Total Charge           Charge          ....    0
 Multiplicity           Mult            ....    1
 Number of Electrons    NEL             ....   54
 Basis Dimension        Dim             ....  153

MULLIKEN ATOMIC CHARGES
-----------------------
   0 C :    0.085099
   1 C :   -0.216184
   2 C :    0.024668
   3 C :   -0.023791
   4 C :   -0.025817
   5 C :    0.037904
   6 N :   -0.196739
   7 H :    0.025601
   8 H :    0.003878
   9 H :    0.020516
  10 H :    0.010453
  11 H :    0.024007
  12 H :    0.031350
  13 H :    0.017303
  14 H :    0.023398
  15 H :    0.026492
  16 H :    0.033232
  17 H :    0.098628
Sum of atomic charges:   -0.0000000

LOEWDIN ATOMIC CHARGES
----------------------
   0 C :   -0.052282
   1 C :   -0.049210
   2 C :   -0.039376
   3 C :   -0.047549
   4 C :   -0.001090
   5 C :    0.002428
   6 N :   -0.100077
   7 H :    0.029877
   8 H :    0.026994
   9 H :    0.028431
  10 H :    0.016968
  11 H :    0.025216
  12 H :    0.027793
  13 H :    0.030584
  14 H :    0.023972
  15 H :    0.013605
  16 H :    0.019392
  17 H :    0.044325

  Mayer bond orders larger than 0.1
B(  0-C ,  1-C ) :   1.0999 B(  0-C ,  7-H ) :   0.9582 B(  0-C ,  8-H ) :   0.9474
B(  0-C ,  9-H ) :   0.9606 B(  1-C ,  2-C ) :   0.9938 B(  1-C ,  3-C ) :   0.9291
B(  1-C , 10-H ) :   0.9333 B(  2-C ,  3-C ) :   0.9844 B(  2-C , 11-H ) :   0.9395
B(  2-C , 12-H ) :   0.9438 B(  3-C ,  4-C ) :   1.0529 B(  3-C , 13-H ) :   0.9354
B(  4-C ,  5-C ) :   1.0445 B(  4-C ,  6-N ) :   1.0015 B(  4-C , 14-H ) :   0.9318
B(  5-C ,  6-N ) :   1.0030 B(  5-C , 15-H ) :   0.9421 B(  5-C , 16-H ) :   0.9422
B(  6-N , 17-H ) :   0.9566

FINAL SINGLE POINT ENERGY      -289.341174983744

DIPOLE MOMENT
-------------
                                X             Y             Z
Electronic contribution:      4.11141       0.97494      -0.12616
Nuclear contribution   :     -4.81903      -1.02326       0.05434
                        -----------------------------------------
Total Dipole Moment    :     -0.70762      -0.04832      -0.07182
                        -----------------------------------------
Magnitude (a.u.)       :      0.71289
Magnitude (Debye)      :      1.81203

                             ****ORCA TERMINATED NORMALLY****
TOTAL RUN TIME: 0 days 0 hours 0 minutes 8 seconds 33 msec
