                         Program Version 3.0.3 - RELEASE   -
|  1> ! RI PBE def2-SVP def2-SVP/J NBO PAL2
|  2> % maxcore 2000
|  3> % output
|  4>     # printlevel mini
|  5>     print[ P_Basis ] 0
|  6>     print[ P_SCFInfo ] 1
|  7>     print[ P_SCFIterInfo ] 1
|  8>     print[ P_OrbEn ] 0
|  9>     print[ P_Cartesian ] 0
| 10> end
| 11> *xyz 0 1
| 12>  C        0.8093820000     0.1912870000    -0.0509860000
| 13>  C        2.2965250000     0.1085430000     0.1740770000
| 14>  C        3.0966450000    -0.7611130000    -0.7568360000
| 15>  C        3.1858870000     0.7314890000    -0.8627830000
| 16>  C        2.7938740000     0.1711170000     1.5844600000
| 17>  C        2.0161570000     0.7762870000     2.6821760000
| 18>  N        2.2320830000    -0.6701660000     2.6363290000
| 19>  H        0.5778770000     0.0323780000    -1.1060400000
| 20>  H        0.4122230000     1.1700950000     0.2301070000
| 21>  H        0.2623680000    -0.5717080000     0.5126380000
| 22>  H        2.5637240000    -1.2977120000    -1.5329230000
| 23>  H        3.9466180000    -1.2924960000    -0.3455240000
| 24>  H        2.7111320000     1.2138600000    -1.7090160000
| 25>  H        4.0987060000     1.2114110000    -0.5299140000
| 26>  H        3.8778590000     0.2437450000     1.6486420000
| 27>  H        1.0259020000     1.1574490000     2.4561780000
| 28>  H        2.5253460000     1.2915160000     3.4897350000
| 29>  H        1.3942030000    -1.1339920000     2.3004800000
| 30> *
| 31>
| 32>                          ****END OF INPUT****
 Total Charge           Charge          ....    0
 Multiplicity           Mult            ....    1
 Number of Electrons    NEL             ....   54
 Basis Dimension        Dim             ....  153

MULLIKEN ATOMIC CHARGES
-----------------------
   0 C :    0.072819
   1 C :   -0.212075
   2 C :   -0.006041
   3 C :   -0.014285
   4 C :   -0.020600
   5 C :    0.043244
   6 N :   -0.185879
   7 H :    0.007559
   8 H :    0.025505
   9 H :    0.012626
  10 H :    0.027833
  11 H :    0.033432
  12 H :    0.025248
  13 H :    0.027366
  14 H :    0.005928
  15 H :    0.023539
  16 H :    0.032744
  17 H :    0.101038
Sum of atomic charges:   -0.0000000

LOEWDIN ATOMIC CHARGES
----------------------
   0 C :   -0.047963
   1 C :   -0.067481
   2 C :   -0.038458
   3 C :   -0.036979
   4 C :    0.004714
   5 C :   -0.000963
   6 N :   -0.102149
   7 H :    0.031839
   8 H :    0.028173
   9 H :    0.022233
  10 H :    0.024849
  11 H :    0.027941
  12 H :    0.025495
  13 H :    0.025771
  14 H :    0.021949
  15 H :    0.013252
  16 H :    0.020343
  17 H :    0.047435

  Mayer bond orders larger than 0.1
B(  0-C ,  1-C ) :   1.0845 B(  0-C ,  7-H ) :   0.9359 B(  0-C ,  8-H ) :   0.9479
B(  0-C ,  9-H ) :   0.9473 B(  1-C ,  2-C ) :   0.9583 B(  1-C ,  3-C ) :   0.9608
B(  1-C ,  4-C ) :   1.0383 B(  2-C ,  3-C ) :   1.0348 B(  2-C , 10-H ) :   0.9433
B(  2-C , 11-H ) :   0.9447 B(  3-C , 12-H ) :   0.9416 B(  3-C , 13-H ) :   0.9437
B(  4-C ,  5-C ) :   1.0519 B(  4-C ,  6-N ) :   0.9906 B(  4-C , 14-H ) :   0.9180
B(  5-C ,  6-N ) :   1.0144 B(  5-C , 15-H ) :   0.9322 B(  5-C , 16-H ) :   0.9383
B(  6-N , 17-H ) :   0.9542

FINAL SINGLE POINT ENERGY      -289.339999584208

DIPOLE MOMENT
-------------
                                X             Y             Z
Electronic contribution:      1.60483      -0.84605       2.43293
Nuclear contribution   :     -1.99026       1.12220      -2.94599
                        -----------------------------------------
Total Dipole Moment    :     -0.38543       0.27615      -0.51306
                        -----------------------------------------
Magnitude (a.u.)       :      0.69860
Magnitude (Debye)      :      1.77571

                             ****ORCA TERMINATED NORMALLY****
TOTAL RUN TIME: 0 days 0 hours 0 minutes 8 seconds 104 msec
