                         Program Version 3.0.3 - RELEASE   -
|  1> ! RI PBE def2-SVP def2-SVP/J NBO PAL2
|  2> % maxcore 2000
|  3> % output
|  4>     # printlevel mini
|  5>     print[ P_Basis ] 0
|  6>     print[ P_SCFInfo ] 1
|  7>     print[ P_SCFIterInfo ] 1
|  8>     print[ P_OrbEn ] 0
|  9>     print[ P_Cartesian ] 0
| 10> end
| 11> *xyz 0 1
| 12>  C        0.7539940000     0.1679440000    -0.6651210000
| 13>  C        2.1832540000    -0.0368230000    -0.2520870000
| 14>  C        3.0040840000    -1.1236410000    -0.8801310000
| 15>  C        3.3092630000     0.3148670000    -1.1774720000
| 16>  C        4.5678670000     0.9505320000    -0.6564650000
| 17>  C        4.4577660000     2.4592670000    -0.5213030000
| 18>  N        5.7147310000     3.0275650000    -0.0572320000
| 19>  H        0.0814420000    -0.5067600000    -0.1276610000
| 20>  H        0.6285920000    -0.0241500000    -1.7342030000
| 21>  H        0.4246770000     1.1929660000    -0.4719170000
| 22>  H        2.3830420000     0.1440720000     0.8011830000
| 23>  H        2.5388730000    -1.7206810000    -1.6561550000
| 24>  H        3.7045270000    -1.6674770000    -0.2565780000
| 25>  H        3.0034380000     0.6606970000    -2.1624590000
| 26>  H        5.4148530000     0.7186050000    -1.3109550000
| 27>  H        4.8076970000     0.5165250000     0.3231400000
| 28>  H        3.5960830000     2.6960580000     0.1232520000
| 29>  H        4.2379890000     2.8895290000    -1.5043320000
| 30>  H        5.9283130000     2.6917310000     0.8746110000
| 31>  H        5.6521070000     4.0359630000     0.0031960000
| 32> *
| 33>
| 34>                          ****END OF INPUT****
 Total Charge           Charge          ....    0
 Multiplicity           Mult            ....    1
 Number of Electrons    NEL             ....   56
 Basis Dimension        Dim             ....  163

MULLIKEN ATOMIC CHARGES
-----------------------
   0 C :    0.082049
   1 C :   -0.166795
   2 C :    0.024604
   3 C :   -0.129002
   4 C :    0.069062
   5 C :    0.077027
   6 N :   -0.211096
   7 H :    0.021827
   8 H :    0.004600
   9 H :    0.016800
  10 H :    0.014471
  11 H :    0.018107
  12 H :    0.020180
  13 H :    0.005699
  14 H :    0.013440
  15 H :   -0.017215
  16 H :   -0.013769
  17 H :   -0.002839
  18 H :    0.084898
  19 H :    0.087951
Sum of atomic charges:   -0.0000000

LOEWDIN ATOMIC CHARGES
----------------------
   0 C :   -0.055876
   1 C :   -0.048372
   2 C :   -0.044567
   3 C :   -0.040202
   4 C :   -0.039564
   5 C :    0.006279
   6 N :   -0.115274
   7 H :    0.028335
   8 H :    0.026099
   9 H :    0.026444
  10 H :    0.022512
  11 H :    0.023806
  12 H :    0.024240
  13 H :    0.022318
  14 H :    0.027833
  15 H :    0.019658
  16 H :   -0.002749
  17 H :    0.018454
  18 H :    0.048423
  19 H :    0.052205

  Mayer bond orders larger than 0.1
B(  0-C ,  1-C ) :   1.1005 B(  0-C ,  7-H ) :   0.9561 B(  0-C ,  8-H ) :   0.9475
B(  0-C ,  9-H ) :   0.9613 B(  1-C ,  2-C ) :   1.0137 B(  1-C ,  3-C ) :   0.9426
B(  1-C , 10-H ) :   0.9375 B(  2-C ,  3-C ) :   0.9916 B(  2-C , 11-H ) :   0.9364
B(  2-C , 12-H ) :   0.9354 B(  3-C ,  4-C ) :   1.0765 B(  3-C , 13-H ) :   0.9383
B(  4-C ,  5-C ) :   1.0980 B(  4-C , 14-H ) :   0.9202 B(  4-C , 15-H ) :   0.9124
B(  5-C ,  6-N ) :   1.0882 B(  5-C , 16-H ) :   0.9298 B(  5-C , 17-H ) :   0.9266
B(  6-N , 18-H ) :   0.9688 B(  6-N , 19-H ) :   0.9653

FINAL SINGLE POINT ENERGY      -290.571093467785

DIPOLE MOMENT
-------------
                                X             Y             Z
Electronic contribution:      2.01866       0.00509      -0.10896
Nuclear contribution   :     -2.30202       0.22828       0.45503
                        -----------------------------------------
Total Dipole Moment    :     -0.28336       0.23337       0.34607
                        -----------------------------------------
Magnitude (a.u.)       :      0.50450
Magnitude (Debye)      :      1.28233

                             ****ORCA TERMINATED NORMALLY****
TOTAL RUN TIME: 0 days 0 hours 0 minutes 8 seconds 42 msec
