                         Program Version 3.0.3 - RELEASE   -
|  1> ! RI PBE def2-SVP def2-SVP/J NBO PAL2
|  2> % maxcore 2000
|  3> % output
|  4>     # printlevel mini
|  5>     print[ P_Basis ] 0
|  6>     print[ P_SCFInfo ] 1
|  7>     print[ P_SCFIterInfo ] 1
|  8>     print[ P_OrbEn ] 0
|  9>     print[ P_Cartesian ] 0
| 10> end
| 11> *xyz 0 1
| 12>  C        0.8265580000    -0.6114960000    -0.7619030000
| 13>  C        1.5575190000     0.6599050000    -0.4336540000
| 14>  C        3.0249460000     0.6567660000    -0.1118340000
| 15>  C        2.5317980000     1.3130600000    -1.3742860000
| 16>  C        2.8501200000     0.6803640000    -2.7039670000
| 17>  C        2.5372480000     2.8233860000    -1.3892500000
| 18>  N        3.8540550000     3.3403160000    -1.7317430000
| 19>  H        0.4854050000    -1.1059000000     0.1518820000
| 20>  H        1.4596650000    -1.3205270000    -1.2977360000
| 21>  H       -0.0534610000    -0.4180360000    -1.3821260000
| 22>  H        0.9675000000     1.3605430000     0.1522370000
| 23>  H        3.5552490000    -0.2842500000    -0.2105450000
| 24>  H        3.3770220000     1.2836150000     0.7006080000
| 25>  H        2.9665020000    -0.4013810000    -2.6282870000
| 26>  H        3.7788790000     1.0968420000    -3.0986380000
| 27>  H        2.0580660000     0.8834050000    -3.4321400000
| 28>  H        2.1620860000     3.1823350000    -0.4173600000
| 29>  H        1.8309870000     3.1766450000    -2.1498720000
| 30>  H        4.5231780000     3.0872540000    -1.0142160000
| 31>  H        3.8416880000     4.3504440000    -1.7880590000
| 32> *
| 33>
| 34>                          ****END OF INPUT****
 Total Charge           Charge          ....    0
 Multiplicity           Mult            ....    1
 Number of Electrons    NEL             ....   56
 Basis Dimension        Dim             ....  163

MULLIKEN ATOMIC CHARGES
-----------------------
   0 C :    0.088235
   1 C :   -0.150411
   2 C :    0.025682
   3 C :   -0.309272
   4 C :    0.121500
   5 C :    0.173602
   6 N :   -0.202884
   7 H :    0.017873
   8 H :    0.003015
   9 H :    0.021687
  10 H :    0.010610
  11 H :    0.016997
  12 H :    0.013339
  13 H :   -0.000212
  14 H :    0.017083
  15 H :    0.010709
  16 H :   -0.033607
  17 H :    0.002001
  18 H :    0.085367
  19 H :    0.088687
Sum of atomic charges:   -0.0000000

LOEWDIN ATOMIC CHARGES
----------------------
   0 C :   -0.057392
   1 C :   -0.041993
   2 C :   -0.045500
   3 C :   -0.064691
   4 C :   -0.049098
   5 C :    0.021507
   6 N :   -0.106526
   7 H :    0.029501
   8 H :    0.025288
   9 H :    0.028692
  10 H :    0.021618
  11 H :    0.023172
  12 H :    0.019187
  13 H :    0.021453
  14 H :    0.028955
  15 H :    0.026652
  16 H :   -0.003672
  17 H :    0.020630
  18 H :    0.049861
  19 H :    0.052353

  Mayer bond orders larger than 0.1
B(  0-C ,  1-C ) :   1.1225 B(  0-C ,  7-H ) :   0.9512 B(  0-C ,  8-H ) :   0.9428
B(  0-C ,  9-H ) :   0.9568 B(  1-C ,  2-C ) :   0.9996 B(  1-C ,  3-C ) :   0.9129
B(  1-C , 10-H ) :   0.9269 B(  2-C ,  3-C ) :   0.9708 B(  2-C , 11-H ) :   0.9398
B(  2-C , 12-H ) :   0.9337 B(  3-C ,  4-C ) :   1.0983 B(  3-C ,  5-C ) :   1.0703
B(  4-C , 13-H ) :   0.9396 B(  4-C , 14-H ) :   0.9384 B(  4-C , 15-H ) :   0.9503
B(  5-C ,  6-N ) :   1.1052 B(  5-C , 16-H ) :   0.9054 B(  5-C , 17-H ) :   0.9232
B(  6-N , 18-H ) :   0.9673 B(  6-N , 19-H ) :   0.9637

FINAL SINGLE POINT ENERGY      -290.573720900001

DIPOLE MOMENT
-------------
                                X             Y             Z
Electronic contribution:      1.06626       2.05070       0.72464
Nuclear contribution   :     -1.11520      -1.77421      -0.37770
                        -----------------------------------------
Total Dipole Moment    :     -0.04894       0.27649       0.34694
                        -----------------------------------------
Magnitude (a.u.)       :      0.44633
Magnitude (Debye)      :      1.13448

                             ****ORCA TERMINATED NORMALLY****
TOTAL RUN TIME: 0 days 0 hours 0 minutes 8 seconds 276 msec
