                         Program Version 3.0.3 - RELEASE   -
|  1> ! RI PBE def2-SVP def2-SVP/J NBO PAL2
|  2> % maxcore 2000
|  3> % output
|  4>     # printlevel mini
|  5>     print[ P_Basis ] 0
|  6>     print[ P_SCFInfo ] 1
|  7>     print[ P_SCFIterInfo ] 1
|  8>     print[ P_OrbEn ] 0
|  9>     print[ P_Cartesian ] 0
| 10> end
| 11> *xyz 0 1
| 12>  C        0.7533490000     0.4136310000    -0.3115590000
| 13>  C        2.2312130000     0.3656750000    -0.0497240000
| 14>  C        3.0775300000    -0.7173170000    -0.6508440000
| 15>  C        3.2045230000     0.6951020000    -1.1367340000
| 16>  C        4.4627090000     1.4694580000    -0.8260140000
| 17>  C        4.2416480000     2.9099530000    -0.8065050000
| 18>  N        4.0529330000     4.0439570000    -0.7977520000
| 19>  H        0.2091660000    -0.2378760000     0.3770830000
| 20>  H        0.5273240000     0.0829020000    -1.3287380000
| 21>  H        0.3637240000     1.4281050000    -0.1961400000
| 22>  H        2.5280170000     0.6872300000     0.9449760000
| 23>  H        2.5945910000    -1.4348940000    -1.3035520000
| 24>  H        3.8895780000    -1.1269130000    -0.0610430000
| 25>  H        2.7754280000     0.9141550000    -2.1091980000
| 26>  H        5.2456580000     1.2545130000    -1.5605710000
| 27>  H        4.8571000000     1.1728380000     0.1509240000
| 28> *
| 29>
| 30>                          ****END OF INPUT****
 Total Charge           Charge          ....    0
 Multiplicity           Mult            ....    1
 Number of Electrons    NEL             ....   52
 Basis Dimension        Dim             ....  143

MULLIKEN ATOMIC CHARGES
-----------------------
   0 C :    0.083938
   1 C :   -0.150536
   2 C :    0.022495
   3 C :   -0.147900
   4 C :    0.149012
   5 C :   -0.274891
   6 N :    0.051052
   7 H :    0.028118
   8 H :    0.004658
   9 H :    0.032444
  10 H :    0.021756
  11 H :    0.031101
  12 H :    0.026064
  13 H :    0.032107
  14 H :    0.056881
  15 H :    0.033701
Sum of atomic charges:   -0.0000000

LOEWDIN ATOMIC CHARGES
----------------------
   0 C :   -0.051911
   1 C :   -0.038906
   2 C :   -0.039882
   3 C :   -0.033546
   4 C :   -0.047922
   5 C :   -0.043195
   6 N :   -0.069296
   7 H :    0.031734
   8 H :    0.027329
   9 H :    0.033640
  10 H :    0.027727
  11 H :    0.029320
  12 H :    0.026922
  13 H :    0.031474
  14 H :    0.059801
  15 H :    0.056711

  Mayer bond orders larger than 0.1
B(  0-C ,  1-C ) :   1.1001 B(  0-C ,  7-H ) :   0.9572 B(  0-C ,  8-H ) :   0.9479
B(  0-C ,  9-H ) :   0.9614 B(  1-C ,  2-C ) :   1.0150 B(  1-C ,  3-C ) :   0.9422
B(  1-C , 10-H ) :   0.9376 B(  2-C ,  3-C ) :   0.9911 B(  2-C , 11-H ) :   0.9384
B(  2-C , 12-H ) :   0.9338 B(  3-C ,  4-C ) :   1.0716 B(  3-C , 13-H ) :   0.9419
B(  4-C ,  5-C ) :   1.1160 B(  4-C , 14-H ) :   0.8853 B(  4-C , 15-H ) :   0.8805
B(  5-C ,  6-N ) :   3.0595

FINAL SINGLE POINT ENERGY      -288.170892171274

DIPOLE MOMENT
-------------
                                X             Y             Z
Electronic contribution:      4.69023       6.68381      -0.68074
Nuclear contribution   :     -4.67558      -8.16105       0.70461
                        -----------------------------------------
Total Dipole Moment    :      0.01465      -1.47724       0.02387
                        -----------------------------------------
Magnitude (a.u.)       :      1.47751
Magnitude (Debye)      :      3.75552

                             ****ORCA TERMINATED NORMALLY****
TOTAL RUN TIME: 0 days 0 hours 0 minutes 7 seconds 119 msec
