                         Program Version 3.0.3 - RELEASE   -
|  1> ! RI PBE def2-SVP def2-SVP/J NBO PAL2
|  2> % maxcore 2000
|  3> % output
|  4>     # printlevel mini
|  5>     print[ P_Basis ] 0
|  6>     print[ P_SCFInfo ] 1
|  7>     print[ P_SCFIterInfo ] 1
|  8>     print[ P_OrbEn ] 0
|  9>     print[ P_Cartesian ] 0
| 10> end
| 11> *xyz 0 1
| 12>  C        1.2500210000    -0.1600540000     0.3242300000
| 13>  C        2.6864430000    -0.0278490000    -0.0893700000
| 14>  C        3.1833810000    -0.6791620000    -1.3360160000
| 15>  C        3.0603370000     0.8142930000    -1.2921420000
| 16>  C        4.2612010000     1.6665150000    -1.2576120000
| 17>  N        5.4303810000     1.1850720000    -1.1617420000
| 18>  N        6.4898850000     2.0443820000    -1.1547700000
| 19>  H        1.0842840000    -1.0862020000     0.8821980000
| 20>  H        0.5944650000    -0.1807090000    -0.5505870000
| 21>  H        0.9350540000     0.6732120000     0.9584800000
| 22>  H        3.4063350000     0.0238430000     0.7219210000
| 23>  H        2.4659700000    -1.2190040000    -1.9433980000
| 24>  H        4.1910170000    -1.0740110000    -1.3436190000
| 25>  H        2.2195730000     1.2515830000    -1.8217600000
| 26>  H        4.1007550000     2.7526810000    -1.2960660000
| 27>  H        7.2729040000     1.6266110000    -0.6772640000
| 28>  H        6.2835860000     2.9715890000    -0.7930920000
| 29> *
| 30>
| 31>                          ****END OF INPUT****
 Total Charge           Charge          ....    0
 Multiplicity           Mult            ....    1
 Number of Electrons    NEL             ....   54
 Basis Dimension        Dim             ....  148

MULLIKEN ATOMIC CHARGES
-----------------------
   0 C :    0.061823
   1 C :   -0.164332
   2 C :    0.043837
   3 C :   -0.057321
   4 C :   -0.019359
   5 N :   -0.121225
   6 N :   -0.053068
   7 H :    0.026190
   8 H :    0.007501
   9 H :    0.025155
  10 H :    0.025064
  11 H :    0.021360
  12 H :    0.036474
  13 H :    0.006771
  14 H :   -0.032997
  15 H :    0.112099
  16 H :    0.082026
Sum of atomic charges:    0.0000000

LOEWDIN ATOMIC CHARGES
----------------------
   0 C :   -0.058961
   1 C :   -0.032171
   2 C :   -0.031411
   3 C :   -0.056824
   4 C :   -0.047311
   5 N :   -0.052549
   6 N :   -0.002795
   7 H :    0.030588
   8 H :    0.026922
   9 H :    0.028541
  10 H :    0.025984
  11 H :    0.024965
  12 H :    0.029320
  13 H :    0.027010
  14 H :   -0.007789
  15 H :    0.057821
  16 H :    0.038658

  Mayer bond orders larger than 0.1
B(  0-C ,  1-C ) :   1.0963 B(  0-C ,  7-H ) :   0.9568 B(  0-C ,  8-H ) :   0.9473
B(  0-C ,  9-H ) :   0.9619 B(  1-C ,  2-C ) :   1.0232 B(  1-C ,  3-C ) :   0.9196
B(  1-C , 10-H ) :   0.9395 B(  2-C ,  3-C ) :   0.9910 B(  2-C , 11-H ) :   0.9375
B(  2-C , 12-H ) :   0.9231 B(  3-C ,  4-C ) :   1.0614 B(  3-C , 13-H ) :   0.9312
B(  4-C ,  5-N ) :   1.8824 B(  4-C ,  6-N ) :   0.1230 B(  4-C , 14-H ) :   0.9355
B(  5-N ,  6-N ) :   1.0969 B(  6-N , 15-H ) :   0.9640 B(  6-N , 16-H ) :   0.9429

FINAL SINGLE POINT ENERGY      -305.369008744615

DIPOLE MOMENT
-------------
                                X             Y             Z
Electronic contribution:      5.10451       1.81994      -1.84651
Nuclear contribution   :     -5.11149      -1.33499       2.35383
                        -----------------------------------------
Total Dipole Moment    :     -0.00698       0.48495       0.50732
                        -----------------------------------------
Magnitude (a.u.)       :      0.70186
Magnitude (Debye)      :      1.78398

                             ****ORCA TERMINATED NORMALLY****
TOTAL RUN TIME: 0 days 0 hours 0 minutes 7 seconds 850 msec
