                         Program Version 3.0.3 - RELEASE   -
|  1> ! RI PBE def2-SVP def2-SVP/J NBO PAL2
|  2> % maxcore 2000
|  3> % output
|  4>     # printlevel mini
|  5>     print[ P_Basis ] 0
|  6>     print[ P_SCFInfo ] 1
|  7>     print[ P_SCFIterInfo ] 1
|  8>     print[ P_OrbEn ] 0
|  9>     print[ P_Cartesian ] 0
| 10> end
| 11> *xyz 0 1
| 12>  C        0.8856960000    -0.0202040000    -0.2194250000
| 13>  C        2.3776700000    -0.0488570000    -0.0482140000
| 14>  C        3.2410380000    -0.8215810000    -0.9912560000
| 15>  C        3.2508010000     0.6905820000    -1.0071190000
| 16>  C        4.4829600000     1.4151930000    -0.5765230000
| 17>  N        5.2294090000     1.8814560000    -1.6306180000
| 18>  N        4.8688990000     1.6460520000     0.6149720000
| 19>  H        0.4184020000    -0.8894160000     0.2506050000
| 20>  H        0.6143800000    -0.0300260000    -1.2783720000
| 21>  H        0.4521110000     0.8780830000     0.2275220000
| 22>  H        2.7157790000    -0.0533530000     0.9841560000
| 23>  H        2.7676210000    -1.3325520000    -1.8218750000
| 24>  H        4.1179420000    -1.3142000000    -0.5890820000
| 25>  H        2.7442360000     1.1503080000    -1.8508000000
| 26>  H        5.1715930000     1.3775950000    -2.4987100000
| 27>  H        6.1460840000     2.2174220000    -1.3817330000
| 28>  H        4.1723700000     1.3334980000     1.2835700000
| 29> *
| 30>
| 31>                          ****END OF INPUT****
 Total Charge           Charge          ....    0
 Multiplicity           Mult            ....    1
 Number of Electrons    NEL             ....   54
 Basis Dimension        Dim             ....  148

MULLIKEN ATOMIC CHARGES
-----------------------
   0 C :    0.079228
   1 C :   -0.188590
   2 C :    0.034360
   3 C :   -0.083508
   4 C :   -0.123760
   5 N :   -0.060586
   6 N :   -0.103689
   7 H :    0.025982
   8 H :    0.005016
   9 H :    0.029310
  10 H :    0.019320
  11 H :    0.027495
  12 H :    0.036019
  13 H :    0.024880
  14 H :    0.102119
  15 H :    0.106784
  16 H :    0.069621
Sum of atomic charges:    0.0000000

LOEWDIN ATOMIC CHARGES
----------------------
   0 C :   -0.051152
   1 C :   -0.039718
   2 C :   -0.029848
   3 C :   -0.066471
   4 C :    0.005677
   5 N :   -0.006737
   6 N :   -0.181799
   7 H :    0.030740
   8 H :    0.026495
   9 H :    0.031948
  10 H :    0.023437
  11 H :    0.025136
  12 H :    0.030117
  13 H :    0.030192
  14 H :    0.065794
  15 H :    0.068503
  16 H :    0.037686

  Mayer bond orders larger than 0.1
B(  0-C ,  1-C ) :   1.0921 B(  0-C ,  7-H ) :   0.9587 B(  0-C ,  8-H ) :   0.9495
B(  0-C ,  9-H ) :   0.9615 B(  1-C ,  2-C ) :   1.0161 B(  1-C ,  3-C ) :   0.9273
B(  1-C , 10-H ) :   0.9376 B(  2-C ,  3-C ) :   0.9737 B(  2-C , 11-H ) :   0.9418
B(  2-C , 12-H ) :   0.9375 B(  3-C ,  4-C ) :   0.9637 B(  3-C , 13-H ) :   0.9317
B(  4-C ,  5-N ) :   1.2263 B(  4-C ,  6-N ) :   1.9760 B(  5-N , 14-H ) :   0.9486
B(  5-N , 15-H ) :   0.9387 B(  6-N , 16-H ) :   0.9284

FINAL SINGLE POINT ENERGY      -305.409212096971

DIPOLE MOMENT
-------------
                                X             Y             Z
Electronic contribution:      4.75643       2.72327       0.20903
Nuclear contribution   :     -5.16728      -3.29668      -0.99502
                        -----------------------------------------
Total Dipole Moment    :     -0.41085      -0.57342      -0.78599
                        -----------------------------------------
Magnitude (a.u.)       :      1.05612
Magnitude (Debye)      :      2.68444

                             ****ORCA TERMINATED NORMALLY****
TOTAL RUN TIME: 0 days 0 hours 0 minutes 7 seconds 284 msec
