                         Program Version 3.0.3 - RELEASE   -
|  1> ! RI PBE def2-SVP def2-SVP/J NBO PAL2
|  2> % maxcore 2000
|  3> % output
|  4>     # printlevel mini
|  5>     print[ P_Basis ] 0
|  6>     print[ P_SCFInfo ] 1
|  7>     print[ P_SCFIterInfo ] 1
|  8>     print[ P_OrbEn ] 0
|  9>     print[ P_Cartesian ] 0
| 10> end
| 11> *xyz 0 1
| 12>  C        0.8916470000    -0.1793600000     0.1189400000
| 13>  C        2.3895570000    -0.1593580000     0.0155360000
| 14>  C        3.0681910000    -0.4026200000    -1.3026800000
| 15>  C        3.0915090000     0.9594120000    -0.6829920000
| 16>  N        4.3330120000     1.4162450000    -0.1426530000
| 17>  C        4.9925920000     2.4828230000    -0.8674850000
| 18>  C        4.3318750000     2.7462180000     0.4307300000
| 19>  H        0.5154260000    -1.2008590000     0.2231180000
| 20>  H        0.4312510000     0.2499730000    -0.7750990000
| 21>  H        0.5428460000     0.3952780000     0.9816200000
| 22>  H        2.9252480000    -0.5414160000     0.8785710000
| 23>  H        2.4453520000    -0.5555550000    -2.1764590000
| 24>  H        4.0009680000    -0.9521320000    -1.2982550000
| 25>  H        2.4568230000     1.7218320000    -1.1442580000
| 26>  H        4.5019970000     2.8646300000    -1.7595550000
| 27>  H        6.0733450000     2.4157140000    -0.9308560000
| 28>  H        3.3994460000     3.3050900000     0.4074860000
| 29>  H        4.9217150000     2.8748840000     1.3318820000
| 30> *
| 31>
| 32>                          ****END OF INPUT****
 Total Charge           Charge          ....    0
 Multiplicity           Mult            ....    1
 Number of Electrons    NEL             ....   54
 Basis Dimension        Dim             ....  153

MULLIKEN ATOMIC CHARGES
-----------------------
   0 C :    0.081058
   1 C :   -0.144513
   2 C :    0.032926
   3 C :   -0.033559
   4 N :   -0.232762
   5 C :    0.034712
   6 C :    0.038827
   7 H :    0.021399
   8 H :    0.002339
   9 H :    0.021761
  10 H :    0.018984
  11 H :    0.020223
  12 H :    0.027571
  13 H :   -0.007980
  14 H :    0.021181
  15 H :    0.039574
  16 H :    0.024285
  17 H :    0.033975
Sum of atomic charges:    0.0000000

LOEWDIN ATOMIC CHARGES
----------------------
   0 C :   -0.054838
   1 C :   -0.046230
   2 C :   -0.046680
   3 C :   -0.004144
   4 N :   -0.095128
   5 C :    0.004364
   6 C :    0.004436
   7 H :    0.028955
   8 H :    0.024759
   9 H :    0.028581
  10 H :    0.029309
  11 H :    0.023846
  12 H :    0.030924
  13 H :    0.002862
  14 H :    0.013579
  15 H :    0.021334
  16 H :    0.013692
  17 H :    0.020377

  Mayer bond orders larger than 0.1
B(  0-C ,  1-C ) :   1.0990 B(  0-C ,  7-H ) :   0.9579 B(  0-C ,  8-H ) :   0.9480
B(  0-C ,  9-H ) :   0.9611 B(  1-C ,  2-C ) :   1.0336 B(  1-C ,  3-C ) :   0.9388
B(  1-C , 10-H ) :   0.9273 B(  2-C ,  3-C ) :   0.9881 B(  2-C , 11-H ) :   0.9374
B(  2-C , 12-H ) :   0.9240 B(  3-C ,  4-N ) :   1.0938 B(  3-C , 13-H ) :   0.9146
B(  4-N ,  5-C ) :   0.9607 B(  4-N ,  6-C ) :   0.9606 B(  5-C ,  6-C ) :   1.1003
B(  5-C , 14-H ) :   0.9299 B(  5-C , 15-H ) :   0.9499 B(  6-C , 16-H ) :   0.9299
B(  6-C , 17-H ) :   0.9487

FINAL SINGLE POINT ENERGY      -289.335353560425

DIPOLE MOMENT
-------------
                                X             Y             Z
Electronic contribution:      3.37969       0.57270       0.28875
Nuclear contribution   :     -3.60671      -0.26276      -0.40983
                        -----------------------------------------
Total Dipole Moment    :     -0.22702       0.30994      -0.12108
                        -----------------------------------------
Magnitude (a.u.)       :      0.40282
Magnitude (Debye)      :      1.02388

                             ****ORCA TERMINATED NORMALLY****
TOTAL RUN TIME: 0 days 0 hours 0 minutes 7 seconds 352 msec
