                         Program Version 3.0.3 - RELEASE   -
|  1> ! RI PBE def2-SVP def2-SVP/J NBO PAL2
|  2> % maxcore 2000
|  3> % output
|  4>     # printlevel mini
|  5>     print[ P_Basis ] 0
|  6>     print[ P_SCFInfo ] 1
|  7>     print[ P_SCFIterInfo ] 1
|  8>     print[ P_OrbEn ] 0
|  9>     print[ P_Cartesian ] 0
| 10> end
| 11> *xyz 0 1
| 12>  C        0.7805980000    -0.7067810000    -0.4891220000
| 13>  C        2.0418430000    -0.1626590000     0.1216330000
| 14>  C        3.2316950000     0.0393290000    -0.7511450000
| 15>  C        2.4607820000     1.2340470000    -0.2506650000
| 16>  N        2.2469870000    -0.7088300000     1.4401000000
| 17>  C        3.1634250000    -0.0831880000     2.3616490000
| 18>  C        1.7010610000     0.0237300000     2.5642180000
| 19>  H        0.8213940000    -1.7976660000    -0.5298050000
| 20>  H        0.6385580000    -0.3236250000    -1.5014450000
| 21>  H       -0.0916020000    -0.4223300000     0.1065820000
| 22>  H        3.1565440000    -0.2303000000    -1.7977630000
| 23>  H        4.2057310000    -0.1368820000    -0.3097320000
| 24>  H        2.9399460000     1.8655600000     0.4875290000
| 25>  H        1.8359470000     1.7754100000    -0.9509630000
| 26>  H        3.6876870000     0.8202420000     2.0621430000
| 27>  H        3.7527250000    -0.7675460000     2.9628160000
| 28>  H        1.2538720000     0.9935170000     2.3589000000
| 29>  H        1.2025090000    -0.5679180000     3.3244700000
| 30> *
| 31>
| 32>                          ****END OF INPUT****
 Total Charge           Charge          ....    0
 Multiplicity           Mult            ....    1
 Number of Electrons    NEL             ....   54
 Basis Dimension        Dim             ....  153

MULLIKEN ATOMIC CHARGES
-----------------------
   0 C :    0.126860
   1 C :   -0.187000
   2 C :    0.013367
   3 C :   -0.053645
   4 N :   -0.234044
   5 C :    0.013936
   6 C :    0.041075
   7 H :    0.028739
   8 H :   -0.002445
   9 H :    0.010660
  10 H :    0.025949
  11 H :    0.028081
  12 H :    0.032344
  13 H :    0.028218
  14 H :    0.028963
  15 H :    0.034810
  16 H :    0.026934
  17 H :    0.037195
Sum of atomic charges:   -0.0000000

LOEWDIN ATOMIC CHARGES
----------------------
   0 C :   -0.047110
   1 C :   -0.024573
   2 C :   -0.038921
   3 C :   -0.062873
   4 N :   -0.088778
   5 C :    0.001843
   6 C :    0.007249
   7 H :    0.032075
   8 H :    0.026215
   9 H :    0.027090
  10 H :    0.025647
  11 H :    0.027227
  12 H :    0.022754
  13 H :    0.025273
  14 H :    0.011962
  15 H :    0.021913
  16 H :    0.013621
  17 H :    0.019385

  Mayer bond orders larger than 0.1
B(  0-C ,  1-C ) :   1.0971 B(  0-C ,  7-H ) :   0.9520 B(  0-C ,  8-H ) :   0.9367
B(  0-C ,  9-H ) :   0.9500 B(  1-C ,  2-C ) :   0.9752 B(  1-C ,  3-C ) :   0.9633
B(  1-C ,  4-N ) :   1.0222 B(  2-C ,  3-C ) :   1.0125 B(  2-C , 10-H ) :   0.9437
B(  2-C , 11-H ) :   0.9379 B(  3-C , 12-H ) :   0.9323 B(  3-C , 13-H ) :   0.9395
B(  4-N ,  5-C ) :   0.9712 B(  4-N ,  6-C ) :   0.9566 B(  5-C ,  6-C ) :   1.0870
B(  5-C , 14-H ) :   0.9270 B(  5-C , 15-H ) :   0.9461 B(  6-C , 16-H ) :   0.9314
B(  6-C , 17-H ) :   0.9510

FINAL SINGLE POINT ENERGY      -289.333027284276

DIPOLE MOMENT
-------------
                                X             Y             Z
Electronic contribution:      0.96340      -1.23578       1.53885
Nuclear contribution   :     -0.96077       1.61582      -1.51230
                        -----------------------------------------
Total Dipole Moment    :      0.00263       0.38004       0.02655
                        -----------------------------------------
Magnitude (a.u.)       :      0.38097
Magnitude (Debye)      :      0.96835

                             ****ORCA TERMINATED NORMALLY****
TOTAL RUN TIME: 0 days 0 hours 0 minutes 7 seconds 592 msec
