                         Program Version 3.0.3 - RELEASE   -
|  1> ! RI PBE def2-SVP def2-SVP/J NBO PAL2
|  2> % maxcore 2000
|  3> % output
|  4>     # printlevel mini
|  5>     print[ P_Basis ] 0
|  6>     print[ P_SCFInfo ] 1
|  7>     print[ P_SCFIterInfo ] 1
|  8>     print[ P_OrbEn ] 0
|  9>     print[ P_Cartesian ] 0
| 10> end
| 11> *xyz 0 1
| 12>  C        0.8432360000     0.1163240000    -0.3526260000
| 13>  C        2.3104530000     0.0872210000    -0.0361810000
| 14>  C        3.2142000000    -0.9381450000    -0.6692820000
| 15>  C        3.3309290000     0.4940120000    -1.0693780000
| 16>  N        4.4828330000     1.3074650000    -0.8088980000
| 17>  C        4.1179100000     2.7002590000    -0.6966700000
| 18>  C        5.3450900000     0.8885850000     0.2661250000
| 19>  H        0.2901360000    -0.6295490000     0.2261240000
| 20>  H        0.6721570000    -0.0988660000    -1.4113800000
| 21>  H        0.4061910000     1.0961070000    -0.1402290000
| 22>  H        2.5656940000     0.3312550000     0.9911740000
| 23>  H        2.7856350000    -1.6241550000    -1.3911900000
| 24>  H        3.9831310000    -1.3777010000    -0.0476090000
| 25>  H        2.9040740000     0.7295480000    -2.0423840000
| 26>  H        3.5285840000     2.9983880000    -1.5672640000
| 27>  H        5.0186810000     3.3185580000    -0.6700220000
| 28>  H        3.5222420000     2.9223490000     0.2065950000
| 29>  H        5.7268140000    -0.1163080000     0.0828300000
| 30>  H        4.8667040000     0.9047150000     1.2623560000
| 31>  H        6.2032160000     1.5632560000     0.3089170000
| 32> *
| 33>
| 34>                          ****END OF INPUT****
 Total Charge           Charge          ....    0
 Multiplicity           Mult            ....    1
 Number of Electrons    NEL             ....   56
 Basis Dimension        Dim             ....  163

MULLIKEN ATOMIC CHARGES
-----------------------
   0 C :    0.081656
   1 C :   -0.183035
   2 C :   -0.000310
   3 C :    0.010855
   4 N :   -0.288873
   5 C :    0.108775
   6 C :    0.086761
   7 H :    0.020864
   8 H :    0.001983
   9 H :    0.018639
  10 H :    0.023587
  11 H :    0.023555
  12 H :    0.028193
  13 H :    0.006439
  14 H :    0.017349
  15 H :    0.017629
  16 H :   -0.011103
  17 H :    0.025270
  18 H :   -0.007527
  19 H :    0.019294
Sum of atomic charges:    0.0000000

LOEWDIN ATOMIC CHARGES
----------------------
   0 C :   -0.056382
   1 C :   -0.065903
   2 C :   -0.049112
   3 C :    0.005549
   4 N :   -0.100324
   5 C :    0.006421
   6 C :    0.001845
   7 H :    0.027284
   8 H :    0.025023
   9 H :    0.027550
  10 H :    0.023840
  11 H :    0.026437
  12 H :    0.025564
  13 H :    0.018633
  14 H :    0.022487
  15 H :    0.019737
  16 H :   -0.002657
  17 H :    0.022791
  18 H :   -0.003725
  19 H :    0.024944

  Mayer bond orders larger than 0.1
B(  0-C ,  1-C ) :   1.1032 B(  0-C ,  7-H ) :   0.9557 B(  0-C ,  8-H ) :   0.9485
B(  0-C ,  9-H ) :   0.9614 B(  1-C ,  2-C ) :   0.9779 B(  1-C ,  3-C ) :   0.9198
B(  1-C , 10-H ) :   0.9343 B(  2-C ,  3-C ) :   1.0086 B(  2-C , 11-H ) :   0.9344
B(  2-C , 12-H ) :   0.9369 B(  3-C ,  4-N ) :   1.0693 B(  3-C , 13-H ) :   0.9365
B(  4-N ,  5-C ) :   1.0333 B(  4-N ,  6-C ) :   1.0480 B(  5-C , 14-H ) :   0.9627
B(  5-C , 15-H ) :   0.9662 B(  5-C , 16-H ) :   0.9408 B(  6-C , 17-H ) :   0.9612
B(  6-C , 18-H ) :   0.9361 B(  6-C , 19-H ) :   0.9622

FINAL SINGLE POINT ENERGY      -290.555118342388

DIPOLE MOMENT
-------------
                                X             Y             Z
Electronic contribution:      1.36379      -0.90543      -1.58052
Nuclear contribution   :     -1.43623       0.96222       1.75650
                        -----------------------------------------
Total Dipole Moment    :     -0.07244       0.05679       0.17599
                        -----------------------------------------
Magnitude (a.u.)       :      0.19861
Magnitude (Debye)      :      0.50482

                             ****ORCA TERMINATED NORMALLY****
TOTAL RUN TIME: 0 days 0 hours 0 minutes 8 seconds 886 msec
