                         Program Version 3.0.3 - RELEASE   -
|  1> ! RI PBE def2-SVP def2-SVP/J NBO PAL2
|  2> % maxcore 2000
|  3> % output
|  4>     # printlevel mini
|  5>     print[ P_Basis ] 0
|  6>     print[ P_SCFInfo ] 1
|  7>     print[ P_SCFIterInfo ] 1
|  8>     print[ P_OrbEn ] 0
|  9>     print[ P_Cartesian ] 0
| 10> end
| 11> *xyz 0 1
| 12>  C        1.0100630000     0.3407400000    -0.2375680000
| 13>  C        2.5088220000     0.2859910000    -0.1508830000
| 14>  C        3.2983810000    -0.6507350000    -1.0254990000
| 15>  C        3.4065130000     0.8400900000    -1.2137950000
| 16>  N        2.8331670000     1.5061610000    -2.3538510000
| 17>  C        4.6830030000     1.5042300000    -0.7626410000
| 18>  N        4.4114570000     2.8717040000    -0.3556460000
| 19>  H        0.5607790000    -0.3994910000     0.4296590000
| 20>  H        0.6469260000     0.1164150000    -1.2440120000
| 21>  H        0.6285060000     1.3239300000     0.0522660000
| 22>  H        2.8926590000     0.4251760000     0.8551500000
| 23>  H        2.7431640000    -1.2020280000    -1.7771750000
| 24>  H        4.1394310000    -1.1878430000    -0.6015330000
| 25>  H        1.8246600000     1.4628210000    -2.3598470000
| 26>  H        3.1721380000     1.1167240000    -3.2240670000
| 27>  H        5.4178120000     1.4232000000    -1.5827840000
| 28>  H        5.0949970000     0.9499720000     0.0868200000
| 29>  H        3.9148330000     3.3276530000    -1.1142160000
| 30>  H        5.2734800000     3.3810190000    -0.2077790000
| 31> *
| 32>
| 33>                          ****END OF INPUT****
 Total Charge           Charge          ....    0
 Multiplicity           Mult            ....    1
 Number of Electrons    NEL             ....   56
 Basis Dimension        Dim             ....  158

MULLIKEN ATOMIC CHARGES
-----------------------
   0 C :    0.068943
   1 C :   -0.126953
   2 C :    0.040196
   3 C :   -0.247158
   4 N :   -0.113377
   5 C :    0.199330
   6 N :   -0.203820
   7 H :    0.023320
   8 H :   -0.004233
   9 H :    0.031828
  10 H :    0.023797
  11 H :    0.004864
  12 H :    0.016313
  13 H :    0.077240
  14 H :    0.095036
  15 H :   -0.022887
  16 H :   -0.023288
  17 H :    0.080573
  18 H :    0.080275
Sum of atomic charges:   -0.0000000

LOEWDIN ATOMIC CHARGES
----------------------
   0 C :   -0.058732
   1 C :   -0.039549
   2 C :   -0.057378
   3 C :   -0.033357
   4 N :   -0.070656
   5 C :    0.012831
   6 N :   -0.116199
   7 H :    0.034165
   8 H :    0.018119
   9 H :    0.031698
  10 H :    0.030447
  11 H :    0.018885
  12 H :    0.022547
  13 H :    0.050416
  14 H :    0.055832
  15 H :   -0.003574
  16 H :    0.014991
  17 H :    0.041166
  18 H :    0.048346

  Mayer bond orders larger than 0.1
B(  0-C ,  1-C ) :   1.1095 B(  0-C ,  7-H ) :   0.9489 B(  0-C ,  8-H ) :   0.9409
B(  0-C ,  9-H ) :   0.9616 B(  1-C ,  2-C ) :   0.9919 B(  1-C ,  3-C ) :   0.9198
B(  1-C , 10-H ) :   0.9279 B(  2-C ,  3-C ) :   0.9678 B(  2-C , 11-H ) :   0.9314
B(  2-C , 12-H ) :   0.9255 B(  3-C ,  4-N ) :   1.1302 B(  3-C ,  5-C ) :   1.0505
B(  4-N , 13-H ) :   0.9581 B(  4-N , 14-H ) :   0.9625 B(  5-C ,  6-N ) :   1.1088
B(  5-C , 15-H ) :   0.9052 B(  5-C , 16-H ) :   0.9011 B(  6-N , 17-H ) :   0.9515
B(  6-N , 18-H ) :   0.9620

FINAL SINGLE POINT ENERGY      -306.590021904911

DIPOLE MOMENT
-------------
                                X             Y             Z
Electronic contribution:      1.51766       0.88583      -0.50799
Nuclear contribution   :     -1.57337      -1.15427       0.02158
                        -----------------------------------------
Total Dipole Moment    :     -0.05571      -0.26844      -0.48640
                        -----------------------------------------
Magnitude (a.u.)       :      0.55835
Magnitude (Debye)      :      1.41921

                             ****ORCA TERMINATED NORMALLY****
TOTAL RUN TIME: 0 days 0 hours 0 minutes 7 seconds 873 msec
