                         Program Version 3.0.3 - RELEASE   -
|  1> ! RI PBE def2-SVP def2-SVP/J NBO PAL2
|  2> % maxcore 2000
|  3> % output
|  4>     # printlevel mini
|  5>     print[ P_Basis ] 0
|  6>     print[ P_SCFInfo ] 1
|  7>     print[ P_SCFIterInfo ] 1
|  8>     print[ P_OrbEn ] 0
|  9>     print[ P_Cartesian ] 0
| 10> end
| 11> *xyz 0 1
| 12>  C        0.9501580000     0.1324410000    -0.1876840000
| 13>  C        2.4497120000     0.0862070000    -0.1423920000
| 14>  C        3.2149380000    -0.7524080000    -1.1186660000
| 15>  C        3.2625000000     0.7401770000    -1.2241260000
| 16>  N        4.4773300000     1.3907740000    -0.8808690000
| 17>  C        4.5000400000     2.6535520000    -0.3521730000
| 18>  N        3.5292860000     3.3613180000     0.0574560000
| 19>  H        0.5139100000    -0.7158260000     0.3460450000
| 20>  H        0.5874270000     0.0948840000    -1.2182640000
| 21>  H        0.5645860000     1.0479800000     0.2692490000
| 22>  H        2.8929960000     0.1596990000     0.8452050000
| 23>  H        2.6582230000    -1.2896440000    -1.8771580000
| 24>  H        4.1095540000    -1.2529540000    -0.7688810000
| 25>  H        2.6960080000     1.1925760000    -2.0380800000
| 26>  H        5.3155010000     1.0773280000    -1.3409990000
| 27>  H        5.5122440000     3.0560630000    -0.2698210000
| 28>  H        2.6411660000     2.8779230000    -0.0737430000
| 29> *
| 30>
| 31>                          ****END OF INPUT****
 Total Charge           Charge          ....    0
 Multiplicity           Mult            ....    1
 Number of Electrons    NEL             ....   54
 Basis Dimension        Dim             ....  148

MULLIKEN ATOMIC CHARGES
-----------------------
   0 C :    0.079079
   1 C :   -0.151043
   2 C :    0.012795
   3 C :   -0.065305
   4 N :   -0.088253
   5 C :   -0.004631
   6 N :   -0.164658
   7 H :    0.028732
   8 H :    0.006974
   9 H :    0.029798
  10 H :    0.035953
  11 H :    0.030967
  12 H :    0.029515
  13 H :    0.025860
  14 H :    0.115060
  15 H :    0.002191
  16 H :    0.076966
Sum of atomic charges:   -0.0000000

LOEWDIN ATOMIC CHARGES
----------------------
   0 C :   -0.053956
   1 C :   -0.046508
   2 C :   -0.041630
   3 C :   -0.004858
   4 N :   -0.013161
   5 C :    0.013043
   6 N :   -0.169805
   7 H :    0.032928
   8 H :    0.027103
   9 H :    0.030714
  10 H :    0.033208
  11 H :    0.029274
  12 H :    0.029091
  13 H :    0.014513
  14 H :    0.071982
  15 H :    0.010930
  16 H :    0.037133

  Mayer bond orders larger than 0.1
B(  0-C ,  1-C ) :   1.0973 B(  0-C ,  7-H ) :   0.9563 B(  0-C ,  8-H ) :   0.9487
B(  0-C ,  9-H ) :   0.9605 B(  1-C ,  2-C ) :   1.0024 B(  1-C ,  3-C ) :   0.9275
B(  1-C , 10-H ) :   0.9414 B(  2-C ,  3-C ) :   0.9967 B(  2-C , 11-H ) :   0.9374
B(  2-C , 12-H ) :   0.9393 B(  3-C ,  4-N ) :   1.0319 B(  3-C , 13-H ) :   0.9384
B(  4-N ,  5-C ) :   1.1596 B(  4-N ,  6-N ) :   0.1070 B(  4-N , 14-H ) :   0.9264
B(  5-C ,  6-N ) :   1.9822 B(  5-C , 15-H ) :   0.9434 B(  6-N , 16-H ) :   0.9500

FINAL SINGLE POINT ENERGY      -305.396956011618

DIPOLE MOMENT
-------------
                                X             Y             Z
Electronic contribution:      4.21130       3.15060      -0.03118
Nuclear contribution   :     -4.07437      -4.37214      -0.58037
                        -----------------------------------------
Total Dipole Moment    :      0.13694      -1.22154      -0.61155
                        -----------------------------------------
Magnitude (a.u.)       :      1.37292
Magnitude (Debye)      :      3.48969

                             ****ORCA TERMINATED NORMALLY****
TOTAL RUN TIME: 0 days 0 hours 0 minutes 7 seconds 811 msec
