                         Program Version 3.0.3 - RELEASE   -
|  1> ! RI PBE def2-SVP def2-SVP/J NBO PAL2
|  2> % maxcore 2000
|  3> % output
|  4>     # printlevel mini
|  5>     print[ P_Basis ] 0
|  6>     print[ P_SCFInfo ] 1
|  7>     print[ P_SCFIterInfo ] 1
|  8>     print[ P_OrbEn ] 0
|  9>     print[ P_Cartesian ] 0
| 10> end
| 11> *xyz 0 1
| 12>  C        0.7926470000    -0.1468660000    -0.1021060000
| 13>  C        2.2840030000    -0.2084500000     0.0530230000
| 14>  C        3.1351510000    -0.8819440000    -0.9806350000
| 15>  C        3.1647360000     0.6093090000    -0.8349250000
| 16>  N        4.3447240000     1.1774330000    -0.2764010000
| 17>  N        4.1767410000     2.3173950000     0.4208780000
| 18>  C        5.1647090000     3.1007800000     0.5657030000
| 19>  H        0.3186360000    -1.0608830000     0.2655450000
| 20>  H        0.5116290000    -0.0298960000    -1.1521300000
| 21>  H        0.3744330000     0.6975040000     0.4518270000
| 22>  H        2.6471760000    -0.2903790000     1.0716140000
| 23>  H        2.6498670000    -1.2917120000    -1.8584980000
| 24>  H        4.0087180000    -1.4260540000    -0.6434270000
| 25>  H        2.6627760000     1.1914690000    -1.6078730000
| 26>  H        5.1568820000     1.1583430000    -0.8886060000
| 27>  H        5.0261000000     3.9877840000     1.1716860000
| 28>  H        6.1473810000     2.9149670000     0.1185350000
| 29> *
| 30>
| 31>                          ****END OF INPUT****
 Total Charge           Charge          ....    0
 Multiplicity           Mult            ....    1
 Number of Electrons    NEL             ....   54
 Basis Dimension        Dim             ....  148

MULLIKEN ATOMIC CHARGES
-----------------------
   0 C :    0.083093
   1 C :   -0.138741
   2 C :    0.003261
   3 C :   -0.003213
   4 N :   -0.089210
   5 N :   -0.070484
   6 C :   -0.060951
   7 H :    0.022834
   8 H :    0.001607
   9 H :    0.030893
  10 H :    0.024348
  11 H :    0.025181
  12 H :    0.028096
  13 H :    0.012492
  14 H :    0.091938
  15 H :    0.041269
  16 H :   -0.002414
Sum of atomic charges:   -0.0000000

LOEWDIN ATOMIC CHARGES
----------------------
   0 C :   -0.052791
   1 C :   -0.039440
   2 C :   -0.048333
   3 C :   -0.006707
   4 N :    0.016193
   5 N :   -0.023153
   6 C :   -0.080046
   7 H :    0.029808
   8 H :    0.024869
   9 H :    0.032934
  10 H :    0.031211
  11 H :    0.026101
  12 H :    0.028637
  13 H :    0.010134
  14 H :    0.044029
  15 H :    0.018186
  16 H :   -0.011632

  Mayer bond orders larger than 0.1
B(  0-C ,  1-C ) :   1.0983 B(  0-C ,  7-H ) :   0.9579 B(  0-C ,  8-H ) :   0.9487
B(  0-C ,  9-H ) :   0.9604 B(  1-C ,  2-C ) :   1.0119 B(  1-C ,  3-C ) :   0.9515
B(  1-C , 10-H ) :   0.9330 B(  2-C ,  3-C ) :   0.9894 B(  2-C , 11-H ) :   0.9390
B(  2-C , 12-H ) :   0.9359 B(  3-C ,  4-N ) :   1.0510 B(  3-C , 13-H ) :   0.9366
B(  4-N ,  5-N ) :   1.0843 B(  4-N ,  6-C ) :   0.1444 B(  4-N , 14-H ) :   0.9137
B(  5-N ,  6-C ) :   1.8896 B(  6-C , 15-H ) :   0.9574 B(  6-C , 16-H ) :   0.9268

FINAL SINGLE POINT ENERGY      -305.358942762420

DIPOLE MOMENT
-------------
                                X             Y             Z
Electronic contribution:      3.49620       2.35151       0.79281
Nuclear contribution   :     -3.25655      -2.58283      -1.28498
                        -----------------------------------------
Total Dipole Moment    :      0.23965      -0.23132      -0.49217
                        -----------------------------------------
Magnitude (a.u.)       :      0.59428
Magnitude (Debye)      :      1.51055

                             ****ORCA TERMINATED NORMALLY****
TOTAL RUN TIME: 0 days 0 hours 0 minutes 7 seconds 611 msec
