                         Program Version 3.0.3 - RELEASE   -
|  1> ! RI PBE def2-SVP def2-SVP/J NBO PAL2
|  2> % maxcore 2000
|  3> % output
|  4>     # printlevel mini
|  5>     print[ P_Basis ] 0
|  6>     print[ P_SCFInfo ] 1
|  7>     print[ P_SCFIterInfo ] 1
|  8>     print[ P_OrbEn ] 0
|  9>     print[ P_Cartesian ] 0
| 10> end
| 11> *xyz 0 1
| 12>  C        1.0422660000     0.0753600000     0.0283500000
| 13>  C        2.5566110000     0.0620640000     0.0943200000
| 14>  C        3.1670430000    -1.0715780000     0.9642030000
| 15>  C        3.9671130000    -0.2007920000     1.9422830000
| 16>  C        4.6447180000     0.8137120000     1.0046540000
| 17>  C        3.1779300000     1.2504010000     0.8564900000
| 18>  N        3.0388120000     0.9053840000     2.2956930000
| 19>  H        0.6588410000    -0.8421470000    -0.4257150000
| 20>  H        0.6777610000     0.9186790000    -0.5647880000
| 21>  H        0.5946880000     0.1516950000     1.0245020000
| 22>  H        2.9537470000     0.0268620000    -0.9254330000
| 23>  H        3.7925240000    -1.7640700000     0.3957490000
| 24>  H        2.4002510000    -1.6577750000     1.4796750000
| 25>  H        4.4991680000    -0.6948230000     2.7557450000
| 26>  H        5.1647940000     0.4378760000     0.1223540000
| 27>  H        5.2397340000     1.5438450000     1.5501020000
| 28>  H        2.8910710000     2.2560990000     0.5453600000
| 29>  H        2.1058490000     0.5857180000     2.5504470000
| 30> *
| 31>
| 32>                          ****END OF INPUT****
 Total Charge           Charge          ....    0
 Multiplicity           Mult            ....    1
 Number of Electrons    NEL             ....   54
 Basis Dimension        Dim             ....  153

MULLIKEN ATOMIC CHARGES
-----------------------
   0 C :    0.065917
   1 C :   -0.123076
   2 C :    0.177912
   3 C :   -0.129567
   4 C :    0.111201
   5 C :   -0.063411
   6 N :   -0.174921
   7 H :    0.023750
   8 H :    0.019219
   9 H :   -0.006177
  10 H :    0.003412
  11 H :    0.003288
  12 H :   -0.001052
  13 H :   -0.007394
  14 H :    0.010362
  15 H :    0.023767
  16 H :   -0.014087
  17 H :    0.080857
Sum of atomic charges:   -0.0000000

LOEWDIN ATOMIC CHARGES
----------------------
   0 C :   -0.062709
   1 C :   -0.052124
   2 C :   -0.040596
   3 C :    0.026893
   4 C :   -0.028771
   5 C :    0.027306
   6 N :   -0.093213
   7 H :    0.029017
   8 H :    0.027204
   9 H :    0.016192
  10 H :    0.021828
  11 H :    0.021850
  12 H :    0.017873
  13 H :    0.006661
  14 H :    0.013803
  15 H :    0.027407
  16 H :    0.006458
  17 H :    0.034923

  Mayer bond orders larger than 0.1
B(  0-C ,  1-C ) :   1.0863 B(  0-C ,  7-H ) :   0.9577 B(  0-C ,  8-H ) :   0.9592
B(  0-C ,  9-H ) :   0.9446 B(  1-C ,  2-C ) :   1.0442 B(  1-C ,  5-C ) :   0.9950
B(  1-C , 10-H ) :   0.8912 B(  2-C ,  3-C ) :   1.0429 B(  2-C , 11-H ) :   0.9008
B(  2-C , 12-H ) :   0.9109 B(  3-C ,  4-C ) :   1.0014 B(  3-C ,  6-N ) :   0.9842
B(  3-C , 13-H ) :   0.9666 B(  4-C ,  5-C ) :   0.9970 B(  4-C , 14-H ) :   0.9413
B(  4-C , 15-H ) :   0.9251 B(  5-C ,  6-N ) :   0.9999 B(  5-C , 16-H ) :   0.9722
B(  6-N , 17-H ) :   0.9409

FINAL SINGLE POINT ENERGY      -289.365009921607

DIPOLE MOMENT
-------------
                                X             Y             Z
Electronic contribution:      2.27809       1.40758       2.23008
Nuclear contribution   :     -2.44688      -1.72929      -2.57610
                        -----------------------------------------
Total Dipole Moment    :     -0.16880      -0.32171      -0.34602
                        -----------------------------------------
Magnitude (a.u.)       :      0.50172
Magnitude (Debye)      :      1.27527

                             ****ORCA TERMINATED NORMALLY****
TOTAL RUN TIME: 0 days 0 hours 0 minutes 8 seconds 338 msec
