                         Program Version 3.0.3 - RELEASE   -
|  1> ! RI PBE def2-SVP def2-SVP/J NBO PAL2
|  2> % maxcore 2000
|  3> % output
|  4>     # printlevel mini
|  5>     print[ P_Basis ] 0
|  6>     print[ P_SCFInfo ] 1
|  7>     print[ P_SCFIterInfo ] 1
|  8>     print[ P_OrbEn ] 0
|  9>     print[ P_Cartesian ] 0
| 10> end
| 11> *xyz 0 1
| 12>  C        1.0137730000    -0.0023300000    -0.0688640000
| 13>  C        2.3370920000    -0.0224550000    -0.1026990000
| 14>  C        3.3034390000    -1.1947910000    -0.0613900000
| 15>  C        4.5996010000    -0.3659650000    -0.1103600000
| 16>  C        4.3067470000     0.6454610000    -1.2310420000
| 17>  C        3.3002730000     1.1334480000    -0.1656540000
| 18>  N        4.3474220000     0.7581950000     0.8320760000
| 19>  H        0.4297110000    -0.9139740000    -0.0029720000
| 20>  H        0.4655560000     0.9330030000    -0.1069370000
| 21>  H        3.1852010000    -1.8768060000    -0.9079790000
| 22>  H        3.2246100000    -1.7793250000     0.8597080000
| 23>  H        5.5494490000    -0.8932510000    -0.0285430000
| 24>  H        3.9177960000     0.2764280000    -2.1801670000
| 25>  H        5.1213280000     1.3551820000    -1.3662520000
| 26>  H        2.9007690000     2.1462790000    -0.1436980000
| 27>  H        3.9522300000     0.4556020000     1.7212820000
| 28> *
| 29>
| 30>                          ****END OF INPUT****
 Total Charge           Charge          ....    0
 Multiplicity           Mult            ....    1
 Number of Electrons    NEL             ....   52
 Basis Dimension        Dim             ....  143

MULLIKEN ATOMIC CHARGES
-----------------------
   0 C :   -0.075188
   1 C :   -0.103502
   2 C :    0.213855
   3 C :   -0.142362
   4 C :    0.124432
   5 C :   -0.036569
   6 N :   -0.156045
   7 H :    0.007190
   8 H :    0.008393
   9 H :    0.023399
  10 H :    0.023590
  11 H :   -0.002671
  12 H :    0.022862
  13 H :    0.026389
  14 H :   -0.024252
  15 H :    0.090479
Sum of atomic charges:   -0.0000000

LOEWDIN ATOMIC CHARGES
----------------------
   0 C :   -0.090644
   1 C :   -0.039491
   2 C :   -0.040989
   3 C :    0.025511
   4 C :   -0.021784
   5 C :    0.032689
   6 N :   -0.084152
   7 H :    0.023112
   8 H :    0.023199
   9 H :    0.031396
  10 H :    0.029641
  11 H :    0.009017
  12 H :    0.018254
  13 H :    0.029457
  14 H :    0.012306
  15 H :    0.042478

  Mayer bond orders larger than 0.1
B(  0-C ,  1-C ) :   2.0293 B(  0-C ,  7-H ) :   0.9225 B(  0-C ,  8-H ) :   0.9306
B(  1-C ,  2-C ) :   0.9707 B(  1-C ,  5-C ) :   0.9688 B(  2-C ,  3-C ) :   0.9960
B(  2-C ,  9-H ) :   0.9002 B(  2-C , 10-H ) :   0.9033 B(  3-C ,  4-C ) :   1.0011
B(  3-C ,  6-N ) :   0.9956 B(  3-C , 11-H ) :   0.9643 B(  4-C ,  5-C ) :   0.9651
B(  4-C , 12-H ) :   0.9457 B(  4-C , 13-H ) :   0.9171 B(  5-C ,  6-N ) :   0.9759
B(  5-C , 14-H ) :   0.9780 B(  6-N , 15-H ) :   0.9407

FINAL SINGLE POINT ENERGY      -288.144171357205

DIPOLE MOMENT
-------------
                                X             Y             Z
Electronic contribution:      1.00140       1.06966       0.94215
Nuclear contribution   :     -1.10452      -1.39709      -1.00384
                        -----------------------------------------
Total Dipole Moment    :     -0.10312      -0.32743      -0.06169
                        -----------------------------------------
Magnitude (a.u.)       :      0.34879
Magnitude (Debye)      :      0.88654

                             ****ORCA TERMINATED NORMALLY****
TOTAL RUN TIME: 0 days 0 hours 0 minutes 7 seconds 169 msec
