                         Program Version 3.0.3 - RELEASE   -
|  1> ! RI PBE def2-SVP def2-SVP/J NBO PAL2
|  2> % maxcore 2000
|  3> % output
|  4>     # printlevel mini
|  5>     print[ P_Basis ] 0
|  6>     print[ P_SCFInfo ] 1
|  7>     print[ P_SCFIterInfo ] 1
|  8>     print[ P_OrbEn ] 0
|  9>     print[ P_Cartesian ] 0
| 10> end
| 11> *xyz 0 1
| 12>  C        1.1084210000    -0.0564100000    -0.0243170000
| 13>  C        2.5661470000    -0.3129080000    -0.0187350000
| 14>  C        3.3055630000    -1.3436650000    -0.4318140000
| 15>  C        4.7317510000    -0.8572960000    -0.1477940000
| 16>  C        4.6602280000     0.5879060000    -0.7098850000
| 17>  C        3.6536660000     0.6628180000     0.4698440000
| 18>  N        4.6183130000    -0.2137100000     1.1959900000
| 19>  H        0.5535560000    -0.9071130000    -0.4234160000
| 20>  H        0.8668250000     0.8226510000    -0.6317350000
| 21>  H        0.7375260000     0.1520730000     0.9850670000
| 22>  H        3.0074390000    -2.2759310000    -0.8913860000
| 23>  H        5.5721560000    -1.5259110000    -0.3301320000
| 24>  H        4.2730770000     0.7204630000    -1.7190230000
| 25>  H        5.5685200000     1.1645050000    -0.5300960000
| 26>  H        3.3500010000     1.5997490000     0.9381750000
| 27>  H        4.1432100000    -0.8223200000     1.8611170000
| 28> *
| 29>
| 30>                          ****END OF INPUT****
 Total Charge           Charge          ....    0
 Multiplicity           Mult            ....    1
 Number of Electrons    NEL             ....   52
 Basis Dimension        Dim             ....  143

MULLIKEN ATOMIC CHARGES
-----------------------
   0 C :    0.099608
   1 C :   -0.040532
   2 C :   -0.061997
   3 C :   -0.025541
   4 C :    0.124854
   5 C :   -0.058699
   6 N :   -0.152760
   7 H :    0.018268
   8 H :    0.028320
   9 H :    0.025199
  10 H :   -0.032429
  11 H :   -0.014169
  12 H :    0.018288
  13 H :    0.022031
  14 H :   -0.028404
  15 H :    0.077963
Sum of atomic charges:   -0.0000000

LOEWDIN ATOMIC CHARGES
----------------------
   0 C :   -0.062155
   1 C :   -0.041895
   2 C :   -0.060197
   3 C :    0.024293
   4 C :   -0.008793
   5 C :    0.026216
   6 N :   -0.090714
   7 H :    0.035635
   8 H :    0.039775
   9 H :    0.037248
  10 H :    0.016678
  11 H :    0.007003
  12 H :    0.014206
  13 H :    0.022401
  14 H :    0.005246
  15 H :    0.035051

  Mayer bond orders larger than 0.1
B(  0-C ,  1-C ) :   1.1510 B(  0-C ,  7-H ) :   0.9426 B(  0-C ,  8-H ) :   0.9315
B(  0-C ,  9-H ) :   0.9325 B(  1-C ,  2-C ) :   1.7580 B(  1-C ,  5-C ) :   0.9047
B(  2-C ,  3-C ) :   0.8949 B(  2-C , 10-H ) :   1.0315 B(  3-C ,  4-C ) :   0.9924
B(  3-C ,  6-N ) :   0.9912 B(  3-C , 11-H ) :   0.9737 B(  4-C ,  5-C ) :   0.9775
B(  4-C , 12-H ) :   0.9452 B(  4-C , 13-H ) :   0.9232 B(  5-C ,  6-N ) :   0.9984
B(  5-C , 14-H ) :   0.9793 B(  6-N , 15-H ) :   0.9412

FINAL SINGLE POINT ENERGY      -288.128493436059

DIPOLE MOMENT
-------------
                                X             Y             Z
Electronic contribution:      2.70579      -0.86847       0.96940
Nuclear contribution   :     -3.25470       0.76246      -1.19011
                        -----------------------------------------
Total Dipole Moment    :     -0.54892      -0.10601      -0.22071
                        -----------------------------------------
Magnitude (a.u.)       :      0.60105
Magnitude (Debye)      :      1.52775

                             ****ORCA TERMINATED NORMALLY****
TOTAL RUN TIME: 0 days 0 hours 0 minutes 7 seconds 394 msec
