                         Program Version 3.0.3 - RELEASE   -
|  1> ! RI PBE def2-SVP def2-SVP/J NBO PAL2
|  2> % maxcore 2000
|  3> % output
|  4>     # printlevel mini
|  5>     print[ P_Basis ] 0
|  6>     print[ P_SCFInfo ] 1
|  7>     print[ P_SCFIterInfo ] 1
|  8>     print[ P_OrbEn ] 0
|  9>     print[ P_Cartesian ] 0
| 10> end
| 11> *xyz 0 1
| 12>  C        0.9613380000     0.0545470000     0.3902590000
| 13>  C        2.4231040000    -0.0358280000    -0.0287070000
| 14>  C        2.7917440000    -1.4412180000    -0.5300960000
| 15>  C        2.5259510000    -1.3877940000    -2.0257320000
| 16>  C        3.5813750000    -0.7751260000    -2.9072590000
| 17>  C        2.4601170000     0.0649020000    -2.3826980000
| 18>  N        2.7468770000     0.8155280000    -1.1798330000
| 19>  H        0.7564120000    -0.5785120000     1.2582270000
| 20>  H        0.3068400000    -0.2643600000    -0.4264620000
| 21>  H        0.6954160000     1.0812480000     0.6583200000
| 22>  H        3.0559880000     0.2516500000     0.8175760000
| 23>  H        2.1879290000    -2.2068320000    -0.0392360000
| 24>  H        3.8412940000    -1.6654490000    -0.3212120000
| 25>  H        1.8428850000    -2.1032580000    -2.4654180000
| 26>  H        3.5737900000    -1.0493130000    -3.9560860000
| 27>  H        4.5607640000    -0.5963600000    -2.4778690000
| 28>  H        1.7136280000     0.4539550000    -3.0668980000
| 29>  H        2.2489370000     1.6940200000    -1.1566750000
| 30> *
| 31>
| 32>                          ****END OF INPUT****
 Total Charge           Charge          ....    0
 Multiplicity           Mult            ....    1
 Number of Electrons    NEL             ....   54
 Basis Dimension        Dim             ....  153

MULLIKEN ATOMIC CHARGES
-----------------------
   0 C :    0.037317
   1 C :   -0.051900
   2 C :    0.133863
   3 C :   -0.186448
   4 C :    0.062393
   5 C :   -0.012292
   6 N :   -0.182539
   7 H :    0.013499
   8 H :    0.015703
   9 H :    0.014236
  10 H :   -0.000068
  11 H :    0.002115
  12 H :    0.005677
  13 H :    0.014277
  14 H :    0.019095
  15 H :    0.013809
  16 H :    0.011462
  17 H :    0.089801
Sum of atomic charges:    0.0000000

LOEWDIN ATOMIC CHARGES
----------------------
   0 C :   -0.077054
   1 C :    0.009384
   2 C :   -0.026473
   3 C :   -0.052837
   4 C :   -0.049212
   5 C :    0.003931
   6 N :   -0.084606
   7 H :    0.025621
   8 H :    0.025413
   9 H :    0.022123
  10 H :    0.015980
  11 H :    0.026959
  12 H :    0.026700
  13 H :    0.021520
  14 H :    0.024825
  15 H :    0.023186
  16 H :    0.011815
  17 H :    0.052725

  Mayer bond orders larger than 0.1
B(  0-C ,  1-C ) :   1.0759 B(  0-C ,  7-H ) :   0.9488 B(  0-C ,  8-H ) :   0.9528
B(  0-C ,  9-H ) :   0.9562 B(  1-C ,  2-C ) :   1.0734 B(  1-C ,  6-N ) :   1.0432
B(  1-C , 10-H ) :   0.9161 B(  2-C ,  3-C ) :   1.0890 B(  2-C , 11-H ) :   0.9372
B(  2-C , 12-H ) :   0.9047 B(  3-C ,  4-C ) :   0.9749 B(  3-C ,  5-C ) :   0.9591
B(  3-C , 13-H ) :   0.9514 B(  4-C ,  5-C ) :   0.9912 B(  4-C , 14-H ) :   0.9344
B(  4-C , 15-H ) :   0.9198 B(  5-C ,  6-N ) :   1.0816 B(  5-C , 16-H ) :   0.9427
B(  6-N , 17-H ) :   0.9504

FINAL SINGLE POINT ENERGY      -289.370279610641

DIPOLE MOMENT
-------------
                                X             Y             Z
Electronic contribution:      1.82584       0.86643      -1.93170
Nuclear contribution   :     -2.29613      -0.85710       2.01517
                        -----------------------------------------
Total Dipole Moment    :     -0.47029       0.00934       0.08347
                        -----------------------------------------
Magnitude (a.u.)       :      0.47774
Magnitude (Debye)      :      1.21431

                             ****ORCA TERMINATED NORMALLY****
TOTAL RUN TIME: 0 days 0 hours 0 minutes 7 seconds 842 msec
