                         Program Version 3.0.3 - RELEASE   -
|  1> ! RI PBE def2-SVP def2-SVP/J NBO PAL2
|  2> % maxcore 2000
|  3> % output
|  4>     # printlevel mini
|  5>     print[ P_Basis ] 0
|  6>     print[ P_SCFInfo ] 1
|  7>     print[ P_SCFIterInfo ] 1
|  8>     print[ P_OrbEn ] 0
|  9>     print[ P_Cartesian ] 0
| 10> end
| 11> *xyz 0 1
| 12>  C        1.1107800000     0.0142130000    -0.0266970000
| 13>  C        2.6165070000    -0.0203030000     0.0933500000
| 14>  C        3.2030800000    -1.1932220000     0.9388900000
| 15>  C        4.0187720000    -0.3470950000     1.9133000000
| 16>  C        4.5908370000     0.7174970000     0.9628920000
| 17>  N        3.1702400000     1.1752590000     0.7875320000
| 18>  C        3.0119470000     0.7681740000     2.2280820000
| 19>  H        0.7544510000    -0.8664820000    -0.5671280000
| 20>  H        0.7905300000     0.9051000000    -0.5706590000
| 21>  H        0.6209650000     0.0186030000     0.9501610000
| 22>  H        3.0447610000    -0.0243610000    -0.9133000000
| 23>  H        3.8182180000    -1.8779720000     0.3506870000
| 24>  H        2.4258840000    -1.7755540000     1.4408730000
| 25>  H        4.6092100000    -0.8600000000     2.6742060000
| 26>  H        5.0886710000     0.3971700000     0.0433270000
| 27>  H        5.1758770000     1.4904440000     1.4637860000
| 28>  H        2.0002220000     0.5005010000     2.5394500000
| 29>  H        3.4072580000     1.5525280000     2.8750580000
| 30> *
| 31>
| 32>                          ****END OF INPUT****
 Total Charge           Charge          ....    0
 Multiplicity           Mult            ....    1
 Number of Electrons    NEL             ....   54
 Basis Dimension        Dim             ....  153

MULLIKEN ATOMIC CHARGES
-----------------------
   0 C :    0.079224
   1 C :   -0.122397
   2 C :    0.171470
   3 C :   -0.277448
   4 C :    0.161488
   5 N :   -0.300582
   6 C :    0.153621
   7 H :    0.019228
   8 H :    0.027926
   9 H :    0.005674
  10 H :    0.005722
  11 H :    0.007854
  12 H :    0.002177
  13 H :   -0.005071
  14 H :    0.011801
  15 H :    0.022051
  16 H :    0.011402
  17 H :    0.025859
Sum of atomic charges:    0.0000000

LOEWDIN ATOMIC CHARGES
----------------------
   0 C :   -0.064229
   1 C :   -0.000092
   2 C :   -0.041863
   3 C :   -0.040627
   4 C :    0.032316
   5 N :   -0.128433
   6 C :    0.031447
   7 H :    0.030609
   8 H :    0.031953
   9 H :    0.021900
  10 H :    0.019223
  11 H :    0.020951
  12 H :    0.019213
  13 H :    0.009242
  14 H :    0.010271
  15 H :    0.019595
  16 H :    0.007580
  17 H :    0.020942

  Mayer bond orders larger than 0.1
B(  0-C ,  1-C ) :   1.0906 B(  0-C ,  7-H ) :   0.9532 B(  0-C ,  8-H ) :   0.9519
B(  0-C ,  9-H ) :   0.9456 B(  1-C ,  2-C ) :   0.9802 B(  1-C ,  5-N ) :   0.9919
B(  1-C , 10-H ) :   0.9066 B(  2-C ,  3-C ) :   1.0584 B(  2-C , 11-H ) :   0.9236
B(  2-C , 12-H ) :   0.9275 B(  3-C ,  4-C ) :   0.9920 B(  3-C ,  6-C ) :   0.9881
B(  3-C , 13-H ) :   0.9498 B(  4-C ,  5-N ) :   0.9644 B(  4-C , 14-H ) :   0.9348
B(  4-C , 15-H ) :   0.9476 B(  5-N ,  6-C ) :   0.9613 B(  6-C , 16-H ) :   0.9363
B(  6-C , 17-H ) :   0.9455

FINAL SINGLE POINT ENERGY      -289.351481785869

DIPOLE MOMENT
-------------
                                X             Y             Z
Electronic contribution:      2.14474       1.64529       0.60392
Nuclear contribution   :     -2.00738      -2.11422      -0.41807
                        -----------------------------------------
Total Dipole Moment    :      0.13737      -0.46892       0.18585
                        -----------------------------------------
Magnitude (a.u.)       :      0.52278
Magnitude (Debye)      :      1.32881

                             ****ORCA TERMINATED NORMALLY****
TOTAL RUN TIME: 0 days 0 hours 0 minutes 8 seconds 140 msec
