                         Program Version 3.0.3 - RELEASE   -
|  1> ! RI PBE def2-SVP def2-SVP/J NBO PAL2
|  2> % maxcore 2000
|  3> % output
|  4>     # printlevel mini
|  5>     print[ P_Basis ] 0
|  6>     print[ P_SCFInfo ] 1
|  7>     print[ P_SCFIterInfo ] 1
|  8>     print[ P_OrbEn ] 0
|  9>     print[ P_Cartesian ] 0
| 10> end
| 11> *xyz 0 1
| 12>  C        0.9036600000     0.1105100000    -0.1597090000
| 13>  C        2.4097220000    -0.1075810000    -0.0835400000
| 14>  C        2.8577720000    -1.5525080000    -0.3860840000
| 15>  C        3.5197940000    -1.4955760000    -1.7421650000
| 16>  C        2.7764130000    -0.8712560000    -2.8534930000
| 17>  N        3.7846520000    -0.1094580000    -2.1276780000
| 18>  C        3.2355670000     0.7453690000    -1.0754940000
| 19>  H        0.3859020000    -0.4888410000     0.5940640000
| 20>  H        0.4885840000    -0.1596780000    -1.1330730000
| 21>  H        0.6536190000     1.1588630000     0.0243230000
| 22>  H        2.7146190000     0.1525940000     0.9339400000
| 23>  H        2.0195250000    -2.2545000000    -0.3580730000
| 24>  H        3.5863320000    -1.8942400000     0.3539240000
| 25>  H        4.3024160000    -2.2147430000    -1.9632210000
| 26>  H        1.7301180000    -0.6308910000    -2.6984210000
| 27>  H        3.0386180000    -1.1058340000    -3.8798450000
| 28>  H        4.0844050000     1.2074350000    -0.5643450000
| 29>  H        2.6454950000     1.5526270000    -1.5196900000
| 30> *
| 31>
| 32>                          ****END OF INPUT****
 Total Charge           Charge          ....    0
 Multiplicity           Mult            ....    1
 Number of Electrons    NEL             ....   54
 Basis Dimension        Dim             ....  153

MULLIKEN ATOMIC CHARGES
-----------------------
   0 C :    0.039567
   1 C :   -0.257764
   2 C :    0.179362
   3 C :   -0.134788
   4 C :    0.086059
   5 N :   -0.282576
   6 C :    0.210555
   7 H :    0.019268
   8 H :    0.013876
   9 H :    0.019973
  10 H :    0.005819
  11 H :    0.013049
  12 H :    0.013038
  13 H :    0.019038
  14 H :    0.020489
  15 H :    0.025992
  16 H :    0.005643
  17 H :    0.003400
Sum of atomic charges:   -0.0000000

LOEWDIN ATOMIC CHARGES
----------------------
   0 C :   -0.060336
   1 C :   -0.057159
   2 C :   -0.036565
   3 C :   -0.004444
   4 C :   -0.000106
   5 N :   -0.113171
   6 C :    0.018337
   7 H :    0.026672
   8 H :    0.020297
   9 H :    0.026688
  10 H :    0.028409
  11 H :    0.028993
  12 H :    0.030466
  13 H :    0.018412
  14 H :    0.010819
  15 H :    0.021189
  16 H :    0.021652
  17 H :    0.019847

  Mayer bond orders larger than 0.1
B(  0-C ,  1-C ) :   1.0777 B(  0-C ,  7-H ) :   0.9544 B(  0-C ,  8-H ) :   0.9592
B(  0-C ,  9-H ) :   0.9558 B(  1-C ,  2-C ) :   1.0484 B(  1-C ,  6-C ) :   1.0293
B(  1-C , 10-H ) :   0.9108 B(  2-C ,  3-C ) :   1.0569 B(  2-C , 11-H ) :   0.9250
B(  2-C , 12-H ) :   0.9208 B(  3-C ,  4-C ) :   1.0364 B(  3-C ,  5-N ) :   0.9500
B(  3-C , 13-H ) :   0.9450 B(  4-C ,  5-N ) :   0.9744 B(  4-C , 14-H ) :   0.9277
B(  4-C , 15-H ) :   0.9403 B(  5-N ,  6-C ) :   1.0414 B(  6-C , 16-H ) :   0.9325
B(  6-C , 17-H ) :   0.9431

FINAL SINGLE POINT ENERGY      -289.365909832604

DIPOLE MOMENT
-------------
                                X             Y             Z
Electronic contribution:      3.87707      -0.50058      -2.32196
Nuclear contribution   :     -4.34018       0.32292       2.71212
                        -----------------------------------------
Total Dipole Moment    :     -0.46311      -0.17767       0.39016
                        -----------------------------------------
Magnitude (a.u.)       :      0.63108
Magnitude (Debye)      :      1.60407

                             ****ORCA TERMINATED NORMALLY****
TOTAL RUN TIME: 0 days 0 hours 0 minutes 8 seconds 4 msec
