                         Program Version 3.0.3 - RELEASE   -
|  1> ! RI PBE def2-SVP def2-SVP/J NBO PAL2
|  2> % maxcore 2000
|  3> % output
|  4>     # printlevel mini
|  5>     print[ P_Basis ] 0
|  6>     print[ P_SCFInfo ] 1
|  7>     print[ P_SCFIterInfo ] 1
|  8>     print[ P_OrbEn ] 0
|  9>     print[ P_Cartesian ] 0
| 10> end
| 11> *xyz 0 1
| 12>  C        1.4584890000     0.0537810000     1.0093790000
| 13>  C        2.2624010000    -0.1057450000    -0.0315160000
| 14>  C        2.7885590000    -1.4057560000    -0.5783850000
| 15>  C        4.0941220000    -1.0004640000    -1.2223890000
| 16>  C        4.9910700000    -0.1429550000    -0.4247320000
| 17>  N        4.1237070000     0.4531790000    -1.4335800000
| 18>  C        2.8834120000     0.9872440000    -0.8665030000
| 19>  H        1.0666780000    -0.7936980000     1.5614780000
| 20>  H        1.1527340000     1.0403540000     1.3412300000
| 21>  H        2.1080820000    -1.7985350000    -1.3433790000
| 22>  H        2.8984440000    -2.1731490000     0.1907110000
| 23>  H        4.4967590000    -1.6104090000    -2.0238140000
| 24>  H        6.0499040000    -0.1017750000    -0.6538700000
| 25>  H        4.7382290000     0.0082270000     0.6225320000
| 26>  H        2.2241060000     1.2490620000    -1.7020990000
| 27>  H        3.0763930000     1.9004300000    -0.2986630000
| 28> *
| 29>
| 30>                          ****END OF INPUT****
 Total Charge           Charge          ....    0
 Multiplicity           Mult            ....    1
 Number of Electrons    NEL             ....   52
 Basis Dimension        Dim             ....  143

MULLIKEN ATOMIC CHARGES
-----------------------
   0 C :   -0.025277
   1 C :   -0.318747
   2 C :    0.233023
   3 C :   -0.134044
   4 C :    0.081743
   5 N :   -0.280753
   6 C :    0.243430
   7 H :    0.007922
   8 H :    0.008114
   9 H :    0.032095
  10 H :    0.025766
  11 H :    0.014716
  12 H :    0.033342
  13 H :    0.034186
  14 H :    0.029338
  15 H :    0.015145
Sum of atomic charges:   -0.0000000

LOEWDIN ATOMIC CHARGES
----------------------
   0 C :   -0.072113
   1 C :   -0.045409
   2 C :   -0.036079
   3 C :   -0.002474
   4 C :   -0.000714
   5 N :   -0.112377
   6 C :    0.018587
   7 H :    0.023200
   8 H :    0.023320
   9 H :    0.042611
  10 H :    0.037720
  11 H :    0.019418
  12 H :    0.023889
  13 H :    0.017645
  14 H :    0.034120
  15 H :    0.028655

  Mayer bond orders larger than 0.1
B(  0-C ,  1-C ) :   2.0013 B(  0-C ,  7-H ) :   0.9262 B(  0-C ,  8-H ) :   0.9311
B(  1-C ,  2-C ) :   1.0222 B(  1-C ,  6-C ) :   1.0010 B(  2-C ,  3-C ) :   1.0224
B(  2-C ,  9-H ) :   0.9012 B(  2-C , 10-H ) :   0.9099 B(  3-C ,  4-C ) :   1.0381
B(  3-C ,  5-N ) :   0.9493 B(  3-C , 11-H ) :   0.9460 B(  4-C ,  5-N ) :   0.9681
B(  4-C , 12-H ) :   0.9435 B(  4-C , 13-H ) :   0.9200 B(  5-N ,  6-C ) :   1.0354
B(  6-C , 14-H ) :   0.9148 B(  6-C , 15-H ) :   0.9304

FINAL SINGLE POINT ENERGY      -288.150082381544

DIPOLE MOMENT
-------------
                                X             Y             Z
Electronic contribution:      1.01909       0.46152      -1.75842
Nuclear contribution   :     -1.21289      -0.77433       2.07332
                        -----------------------------------------
Total Dipole Moment    :     -0.19380      -0.31281       0.31490
                        -----------------------------------------
Magnitude (a.u.)       :      0.48432
Magnitude (Debye)      :      1.23105

                             ****ORCA TERMINATED NORMALLY****
TOTAL RUN TIME: 0 days 0 hours 0 minutes 7 seconds 98 msec
