                         Program Version 3.0.3 - RELEASE   -
|  1> ! RI PBE def2-SVP def2-SVP/J NBO PAL2
|  2> % maxcore 2000
|  3> % output
|  4>     # printlevel mini
|  5>     print[ P_Basis ] 0
|  6>     print[ P_SCFInfo ] 1
|  7>     print[ P_SCFIterInfo ] 1
|  8>     print[ P_OrbEn ] 0
|  9>     print[ P_Cartesian ] 0
| 10> end
| 11> *xyz 0 1
| 12>  C        1.0464940000    -0.1291610000    -0.3265510000
| 13>  C        2.4740180000     0.0228540000     0.0547800000
| 14>  C        3.1930210000     1.1401120000     0.1485990000
| 15>  C        4.5993680000     0.8267880000     0.4895250000
| 16>  C        5.3172450000    -0.0038970000    -0.5061190000
| 17>  N        4.6916220000    -0.6329040000     0.6452410000
| 18>  C        3.3467430000    -1.1597540000     0.3942600000
| 19>  H        0.5672050000     0.8381130000    -0.4835280000
| 20>  H        0.4889640000    -0.6677610000     0.4472400000
| 21>  H        0.9442040000    -0.7123060000    -1.2478630000
| 22>  H        2.8250560000     2.1451600000    -0.0186340000
| 23>  H        5.1490550000     1.4439630000     1.1938140000
| 24>  H        6.4017270000    -0.0498330000    -0.5074440000
| 25>  H        4.8414360000    -0.1114000000    -1.4779600000
| 26>  H        2.9838020000    -1.6752060000     1.2926920000
| 27>  H        3.3724210000    -1.9074570000    -0.4076530000
| 28> *
| 29>
| 30>                          ****END OF INPUT****
 Total Charge           Charge          ....    0
 Multiplicity           Mult            ....    1
 Number of Electrons    NEL             ....   52
 Basis Dimension        Dim             ....  143

MULLIKEN ATOMIC CHARGES
-----------------------
   0 C :    0.083001
   1 C :   -0.252716
   2 C :    0.009362
   3 C :   -0.032890
   4 C :    0.089678
   5 N :   -0.285539
   6 C :    0.215106
   7 H :    0.016541
   8 H :    0.032586
   9 H :    0.028897
  10 H :   -0.024819
  11 H :    0.022041
  12 H :    0.034506
  13 H :    0.023185
  14 H :    0.021008
  15 H :    0.020051
Sum of atomic charges:   -0.0000000

LOEWDIN ATOMIC CHARGES
----------------------
   0 C :   -0.059111
   1 C :   -0.049897
   2 C :   -0.054826
   3 C :    0.001174
   4 C :    0.009895
   5 N :   -0.109800
   6 C :    0.020083
   7 H :    0.034489
   8 H :    0.037785
   9 H :    0.038208
  10 H :    0.023686
  11 H :    0.020342
  12 H :    0.021188
  13 H :    0.013920
  14 H :    0.025842
  15 H :    0.027021

  Mayer bond orders larger than 0.1
B(  0-C ,  1-C ) :   1.1087 B(  0-C ,  7-H ) :   0.9463 B(  0-C ,  8-H ) :   0.9437
B(  0-C ,  9-H ) :   0.9358 B(  1-C ,  2-C ) :   1.8193 B(  1-C ,  6-C ) :   1.0185
B(  2-C ,  3-C ) :   0.9875 B(  2-C , 10-H ) :   1.0007 B(  3-C ,  4-C ) :   1.0264
B(  3-C ,  5-N ) :   0.9574 B(  3-C , 11-H ) :   0.9422 B(  4-C ,  5-N ) :   0.9643
B(  4-C , 12-H ) :   0.9436 B(  4-C , 13-H ) :   0.9205 B(  5-N ,  6-C ) :   1.0369
B(  6-C , 14-H ) :   0.9157 B(  6-C , 15-H ) :   0.9203

FINAL SINGLE POINT ENERGY      -288.154802469644

DIPOLE MOMENT
-------------
                                X             Y             Z
Electronic contribution:      3.25310       0.72063       1.69127
Nuclear contribution   :     -3.71635      -0.55089      -2.09680
                        -----------------------------------------
Total Dipole Moment    :     -0.46325       0.16974      -0.40553
                        -----------------------------------------
Magnitude (a.u.)       :      0.63864
Magnitude (Debye)      :      1.62331

                             ****ORCA TERMINATED NORMALLY****
TOTAL RUN TIME: 0 days 0 hours 0 minutes 6 seconds 803 msec
