                         Program Version 3.0.3 - RELEASE   -
|  1> ! RI PBE def2-SVP def2-SVP/J NBO PAL2
|  2> % maxcore 2000
|  3> % output
|  4>     # printlevel mini
|  5>     print[ P_Basis ] 0
|  6>     print[ P_SCFInfo ] 1
|  7>     print[ P_SCFIterInfo ] 1
|  8>     print[ P_OrbEn ] 0
|  9>     print[ P_Cartesian ] 0
| 10> end
| 11> *xyz 0 1
| 12>  C        0.9846170000     0.1086230000     0.4266560000
| 13>  C        2.4364180000    -0.0052060000    -0.0181320000
| 14>  C        2.7310720000    -1.4198500000    -0.5657870000
| 15>  C        2.5748720000    -1.3088110000    -2.0667890000
| 16>  N        3.7452750000    -0.7128800000    -2.7177770000
| 17>  C        2.5716740000     0.1214440000    -2.4432880000
| 18>  C        2.7256690000     0.9577330000    -1.1916330000
| 19>  H        0.7600360000    -0.5939060000     1.2336660000
| 20>  H        0.3065280000    -0.1119330000    -0.4044300000
| 21>  H        0.7560980000     1.1166340000     0.7829440000
| 22>  H        3.0822950000     0.2207850000     0.8349250000
| 23>  H        2.0445860000    -2.1569540000    -0.1412660000
| 24>  H        3.7488680000    -1.7387710000    -0.3275780000
| 25>  H        1.9960280000    -2.0436310000    -2.6155930000
| 26>  H        3.7597270000    -0.9712170000    -3.6994670000
| 27>  H        1.9902780000     0.4884420000    -3.2820330000
| 28>  H        2.0354160000     1.8052720000    -1.1843260000
| 29>  H        3.7417420000     1.3571170000    -1.1424010000
| 30> *
| 31>
| 32>                          ****END OF INPUT****
 Total Charge           Charge          ....    0
 Multiplicity           Mult            ....    1
 Number of Electrons    NEL             ....   54
 Basis Dimension        Dim             ....  153

MULLIKEN ATOMIC CHARGES
-----------------------
   0 C :    0.032747
   1 C :   -0.181662
   2 C :    0.179240
   3 C :   -0.108064
   4 N :   -0.167300
   5 C :   -0.104614
   6 C :    0.169468
   7 H :    0.017406
   8 H :    0.012053
   9 H :    0.016311
  10 H :   -0.001087
  11 H :   -0.004467
  12 H :    0.005672
  13 H :    0.012779
  14 H :    0.101156
  15 H :    0.012852
  16 H :   -0.000556
  17 H :    0.008066
Sum of atomic charges:   -0.0000000

LOEWDIN ATOMIC CHARGES
----------------------
   0 C :   -0.061031
   1 C :   -0.034227
   2 C :   -0.033605
   3 C :   -0.003167
   4 N :   -0.105661
   5 C :   -0.003678
   6 C :   -0.034733
   7 H :    0.023590
   8 H :    0.022855
   9 H :    0.023574
  10 H :    0.021697
  11 H :    0.023034
  12 H :    0.028726
  13 H :    0.011761
  14 H :    0.055906
  15 H :    0.011699
  16 H :    0.024006
  17 H :    0.029253

  Mayer bond orders larger than 0.1
B(  0-C ,  1-C ) :   1.0840 B(  0-C ,  7-H ) :   0.9586 B(  0-C ,  8-H ) :   0.9582
B(  0-C ,  9-H ) :   0.9576 B(  1-C ,  2-C ) :   1.0648 B(  1-C ,  6-C ) :   1.0696
B(  1-C , 10-H ) :   0.9146 B(  2-C ,  3-C ) :   1.0377 B(  2-C , 11-H ) :   0.9344
B(  2-C , 12-H ) :   0.8980 B(  3-C ,  4-N ) :   0.9629 B(  3-C ,  5-C ) :   1.0217
B(  3-C , 13-H ) :   0.9520 B(  4-N ,  5-C ) :   0.9642 B(  4-N , 14-H ) :   0.9372
B(  5-C ,  6-C ) :   1.0365 B(  5-C , 15-H ) :   0.9511 B(  6-C , 16-H ) :   0.9341
B(  6-C , 17-H ) :   0.8985

FINAL SINGLE POINT ENERGY      -289.372724090161

DIPOLE MOMENT
-------------
                                X             Y             Z
Electronic contribution:      2.85497      -0.91977      -3.52076
Nuclear contribution   :     -3.32594       0.84652       3.24382
                        -----------------------------------------
Total Dipole Moment    :     -0.47097      -0.07325      -0.27695
                        -----------------------------------------
Magnitude (a.u.)       :      0.55125
Magnitude (Debye)      :      1.40117

                             ****ORCA TERMINATED NORMALLY****
TOTAL RUN TIME: 0 days 0 hours 0 minutes 8 seconds 47 msec
