                         Program Version 3.0.3 - RELEASE   -
|  1> ! RI PBE def2-SVP def2-SVP/J NBO PAL2
|  2> % maxcore 2000
|  3> % output
|  4>     # printlevel mini
|  5>     print[ P_Basis ] 0
|  6>     print[ P_SCFInfo ] 1
|  7>     print[ P_SCFIterInfo ] 1
|  8>     print[ P_OrbEn ] 0
|  9>     print[ P_Cartesian ] 0
| 10> end
| 11> *xyz 0 1
| 12>  C        1.4225990000     0.0485220000     1.0676790000
| 13>  C        2.3178360000     0.0181570000     0.0919460000
| 14>  C        2.9160690000    -1.2309080000    -0.5149300000
| 15>  C        4.2287310000    -0.7658380000    -1.0923990000
| 16>  N        5.0363170000    -0.0132270000    -0.1292090000
| 17>  C        4.2431230000     0.7113580000    -1.1252120000
| 18>  C        2.9401810000     1.2271990000    -0.5692930000
| 19>  H        1.0324870000    -0.8629980000     1.5072910000
| 20>  H        1.0506200000     0.9860580000     1.4663930000
| 21>  H        2.2777280000    -1.6060460000    -1.3244770000
| 22>  H        3.0284290000    -2.0311660000     0.2199960000
| 23>  H        4.7305050000    -1.3545850000    -1.8520430000
| 24>  H        6.0101970000    -0.0287100000    -0.4120130000
| 25>  H        4.7559510000     1.2559520000    -1.9099910000
| 26>  H        2.3089740000     1.5786160000    -1.3949040000
| 27>  H        3.0685560000     2.0568280000     0.1295680000
| 28> *
| 29>
| 30>                          ****END OF INPUT****
 Total Charge           Charge          ....    0
 Multiplicity           Mult            ....    1
 Number of Electrons    NEL             ....   52
 Basis Dimension        Dim             ....  143

MULLIKEN ATOMIC CHARGES
-----------------------
   0 C :   -0.025685
   1 C :   -0.285306
   2 C :    0.259886
   3 C :   -0.126635
   4 N :   -0.161730
   5 C :   -0.128110
   6 C :    0.262144
   7 H :    0.000473
   8 H :    0.000121
   9 H :    0.023208
  10 H :    0.018160
  11 H :    0.007446
  12 H :    0.108912
  13 H :    0.007157
  14 H :    0.022977
  15 H :    0.016982
Sum of atomic charges:   -0.0000000

LOEWDIN ATOMIC CHARGES
----------------------
   0 C :   -0.076222
   1 C :   -0.020473
   2 C :   -0.032372
   3 C :   -0.004853
   4 N :   -0.105810
   5 C :   -0.005073
   6 C :   -0.031917
   7 H :    0.021075
   8 H :    0.021022
   9 H :    0.038207
  10 H :    0.036467
  11 H :    0.013287
  12 H :    0.059065
  13 H :    0.013183
  14 H :    0.038148
  15 H :    0.036265

  Mayer bond orders larger than 0.1
B(  0-C ,  1-C ) :   2.0101 B(  0-C ,  7-H ) :   0.9252 B(  0-C ,  8-H ) :   0.9251
B(  1-C ,  2-C ) :   1.0211 B(  1-C ,  6-C ) :   1.0206 B(  2-C ,  3-C ) :   1.0128
B(  2-C ,  9-H ) :   0.8998 B(  2-C , 10-H ) :   0.8922 B(  3-C ,  4-N ) :   0.9826
B(  3-C ,  5-C ) :   0.9991 B(  3-C , 11-H ) :   0.9600 B(  4-N ,  5-C ) :   0.9824
B(  4-N , 12-H ) :   0.9367 B(  5-C ,  6-C ) :   1.0131 B(  5-C , 13-H ) :   0.9607
B(  6-C , 14-H ) :   0.9000 B(  6-C , 15-H ) :   0.8919

FINAL SINGLE POINT ENERGY      -288.157449891311

DIPOLE MOMENT
-------------
                                X             Y             Z
Electronic contribution:      1.79777      -0.02011      -0.11475
Nuclear contribution   :     -1.52253       0.00219      -0.58499
                        -----------------------------------------
Total Dipole Moment    :      0.27524      -0.01792      -0.69973
                        -----------------------------------------
Magnitude (a.u.)       :      0.75213
Magnitude (Debye)      :      1.91177

                             ****ORCA TERMINATED NORMALLY****
TOTAL RUN TIME: 0 days 0 hours 0 minutes 7 seconds 86 msec
