                         Program Version 3.0.3 - RELEASE   -
|  1> ! RI PBE def2-SVP def2-SVP/J NBO PAL2
|  2> % maxcore 2000
|  3> % output
|  4>     # printlevel mini
|  5>     print[ P_Basis ] 0
|  6>     print[ P_SCFInfo ] 1
|  7>     print[ P_SCFIterInfo ] 1
|  8>     print[ P_OrbEn ] 0
|  9>     print[ P_Cartesian ] 0
| 10> end
| 11> *xyz 0 1
| 12>  C        1.0077790000    -0.0736840000     0.1820360000
| 13>  C        2.4749670000    -0.0515700000    -0.0545790000
| 14>  C        3.2652080000     1.0185070000    -0.1757960000
| 15>  C        4.6951670000     0.6361920000    -0.2879810000
| 16>  N        5.2635360000    -0.0768570000     0.8631830000
| 17>  C        4.7191410000    -0.8494120000    -0.2424930000
| 18>  C        3.2825220000    -1.3232210000    -0.1622440000
| 19>  H        0.5882800000     0.9333900000     0.1922200000
| 20>  H        0.7683610000    -0.5509420000     1.1384280000
| 21>  H        0.4937820000    -0.6531650000    -0.5922690000
| 22>  H        2.9246170000     2.0474780000    -0.1505360000
| 23>  H        5.3968610000     1.2354250000    -0.8566540000
| 24>  H        4.6017230000    -0.0434050000     1.6340450000
| 25>  H        5.4460310000    -1.4410440000    -0.7869840000
| 26>  H        3.1090960000    -1.9963880000     0.6864730000
| 27>  H        3.0035200000    -1.8850130000    -1.0618290000
| 28> *
| 29>
| 30>                          ****END OF INPUT****
 Total Charge           Charge          ....    0
 Multiplicity           Mult            ....    1
 Number of Electrons    NEL             ....   52
 Basis Dimension        Dim             ....  143

MULLIKEN ATOMIC CHARGES
-----------------------
   0 C :    0.094039
   1 C :   -0.261867
   2 C :    0.025902
   3 C :   -0.033493
   4 N :   -0.132582
   5 C :   -0.108545
   6 C :    0.190602
   7 H :    0.015510
   8 H :    0.024995
   9 H :    0.029106
  10 H :   -0.025305
  11 H :    0.016736
  12 H :    0.095813
  13 H :    0.017621
  14 H :    0.025908
  15 H :    0.025560
Sum of atomic charges:   -0.0000000

LOEWDIN ATOMIC CHARGES
----------------------
   0 C :   -0.059004
   1 C :   -0.038253
   2 C :   -0.060907
   3 C :   -0.004854
   4 N :   -0.083809
   5 C :   -0.000771
   6 C :   -0.039574
   7 H :    0.033843
   8 H :    0.036934
   9 H :    0.036934
  10 H :    0.021515
  11 H :    0.018981
  12 H :    0.046319
  13 H :    0.019143
  14 H :    0.035228
  15 H :    0.038274

  Mayer bond orders larger than 0.1
B(  0-C ,  1-C ) :   1.1038 B(  0-C ,  7-H ) :   0.9483 B(  0-C ,  8-H ) :   0.9364
B(  0-C ,  9-H ) :   0.9410 B(  1-C ,  2-C ) :   1.7907 B(  1-C ,  6-C ) :   1.0225
B(  2-C ,  3-C ) :   0.9847 B(  2-C , 10-H ) :   1.0022 B(  3-C ,  4-N ) :   0.9858
B(  3-C ,  5-C ) :   0.9783 B(  3-C , 11-H ) :   0.9507 B(  4-N ,  5-C ) :   1.0166
B(  4-N , 12-H ) :   0.9412 B(  5-C ,  6-C ) :   1.0242 B(  5-C , 13-H ) :   0.9414
B(  6-C , 14-H ) :   0.9042 B(  6-C , 15-H ) :   0.9022

FINAL SINGLE POINT ENERGY      -288.163089786481

DIPOLE MOMENT
-------------
                                X             Y             Z
Electronic contribution:      4.13396       1.06562      -0.01749
Nuclear contribution   :     -4.91073      -1.21627      -0.10632
                        -----------------------------------------
Total Dipole Moment    :     -0.77677      -0.15065      -0.12380
                        -----------------------------------------
Magnitude (a.u.)       :      0.80087
Magnitude (Debye)      :      2.03566

                             ****ORCA TERMINATED NORMALLY****
TOTAL RUN TIME: 0 days 0 hours 0 minutes 7 seconds 339 msec
