                         Program Version 3.0.3 - RELEASE   -
|  1> ! RI PBE def2-SVP def2-SVP/J NBO PAL2
|  2> % maxcore 2000
|  3> % output
|  4>     # printlevel mini
|  5>     print[ P_Basis ] 0
|  6>     print[ P_SCFInfo ] 1
|  7>     print[ P_SCFIterInfo ] 1
|  8>     print[ P_OrbEn ] 0
|  9>     print[ P_Cartesian ] 0
| 10> end
| 11> *xyz 0 1
| 12>  C        0.9267970000    -0.0334560000    -0.0348990000
| 13>  C        2.4355550000     0.0033190000    -0.0155360000
| 14>  C        3.1550700000     1.1073180000     0.7863100000
| 15>  C        4.2155120000     0.0690260000     1.1959170000
| 16>  C        3.2146040000    -1.0394580000     0.8176890000
| 17>  C        3.7380530000    -2.2848820000     0.1453630000
| 18>  N        2.6441450000    -3.1375520000    -0.2991730000
| 19>  H        0.5144940000     0.8328970000    -0.5610080000
| 20>  H        0.5250750000    -0.0234360000     0.9834160000
| 21>  H        0.5674630000    -0.9370990000    -0.5326190000
| 22>  H        2.8224300000    -0.0164470000    -1.0411720000
| 23>  H        2.5531980000     1.4225970000     1.6435700000
| 24>  H        3.4882930000     1.9980090000     0.2504480000
| 25>  H        4.5921740000     0.0947660000     2.2198050000
| 26>  H        5.0687320000     0.0752280000     0.5114550000
| 27>  H        2.6181130000    -1.3164370000     1.6976060000
| 28>  H        4.4465500000    -2.7870020000     0.8259930000
| 29>  H        4.3135170000    -1.9884320000    -0.7390910000
| 30>  H        2.1209560000    -3.4805510000     0.4979670000
| 31>  H        2.9972680000    -3.9497970000    -0.7892220000
| 32> *
| 33>
| 34>                          ****END OF INPUT****
 Total Charge           Charge          ....    0
 Multiplicity           Mult            ....    1
 Number of Electrons    NEL             ....   56
 Basis Dimension        Dim             ....  163

MULLIKEN ATOMIC CHARGES
-----------------------
   0 C :    0.073559
   1 C :   -0.135439
   2 C :    0.051752
   3 C :    0.059148
   4 C :   -0.162246
   5 C :    0.144971
   6 N :   -0.205542
   7 H :    0.013118
   8 H :   -0.004726
   9 H :    0.021427
  10 H :   -0.005251
  11 H :   -0.001426
  12 H :    0.003811
  13 H :    0.004147
  14 H :   -0.000739
  15 H :   -0.012541
  16 H :   -0.006532
  17 H :   -0.011991
  18 H :    0.086385
  19 H :    0.088114
Sum of atomic charges:    0.0000000

LOEWDIN ATOMIC CHARGES
----------------------
   0 C :   -0.065489
   1 C :   -0.030339
   2 C :   -0.030754
   3 C :   -0.028844
   4 C :   -0.039352
   5 C :    0.003379
   6 N :   -0.110175
   7 H :    0.025199
   8 H :    0.018208
   9 H :    0.027624
  10 H :    0.023933
  11 H :    0.020588
  12 H :    0.014130
  13 H :    0.014498
  14 H :    0.021662
  15 H :    0.017906
  16 H :   -0.000737
  17 H :    0.016472
  18 H :    0.049580
  19 H :    0.052508

  Mayer bond orders larger than 0.1
B(  0-C ,  1-C ) :   1.1037 B(  0-C ,  7-H ) :   0.9558 B(  0-C ,  8-H ) :   0.9475
B(  0-C ,  9-H ) :   0.9535 B(  1-C ,  2-C ) :   1.0905 B(  1-C ,  4-C ) :   1.0383
B(  1-C , 10-H ) :   0.8948 B(  2-C ,  3-C ) :   1.1397 B(  2-C , 11-H ) :   0.9155
B(  2-C , 12-H ) :   0.9287 B(  3-C ,  4-C ) :   1.0915 B(  3-C , 13-H ) :   0.9261
B(  3-C , 14-H ) :   0.9109 B(  4-C ,  5-C ) :   1.0730 B(  4-C , 15-H ) :   0.8886
B(  5-C ,  6-N ) :   1.0983 B(  5-C , 16-H ) :   0.9238 B(  5-C , 17-H ) :   0.9077
B(  6-N , 18-H ) :   0.9662 B(  6-N , 19-H ) :   0.9633

FINAL SINGLE POINT ENERGY      -290.576063882080

DIPOLE MOMENT
-------------
                                X             Y             Z
Electronic contribution:      1.05432      -0.83618      -0.08704
Nuclear contribution   :     -0.85509       0.40505       0.28021
                        -----------------------------------------
Total Dipole Moment    :      0.19924      -0.43113       0.19317
                        -----------------------------------------
Magnitude (a.u.)       :      0.51272
Magnitude (Debye)      :      1.30323

                             ****ORCA TERMINATED NORMALLY****
TOTAL RUN TIME: 0 days 0 hours 0 minutes 8 seconds 292 msec
