                         Program Version 3.0.3 - RELEASE   -
|  1> ! RI PBE def2-SVP def2-SVP/J NBO PAL2
|  2> % maxcore 2000
|  3> % output
|  4>     # printlevel mini
|  5>     print[ P_Basis ] 0
|  6>     print[ P_SCFInfo ] 1
|  7>     print[ P_SCFIterInfo ] 1
|  8>     print[ P_OrbEn ] 0
|  9>     print[ P_Cartesian ] 0
| 10> end
| 11> *xyz 0 1
| 12>  C        2.0814620000     1.1287270000     1.0505940000
| 13>  C        2.7805550000     0.0715580000     0.2365100000
| 14>  C        1.9690770000    -1.1841930000     0.0473890000
| 15>  C        4.2691360000    -0.0814760000     0.3753340000
| 16>  C        3.6860520000     0.4685840000    -0.8959440000
| 17>  C        3.9244450000     1.8933920000    -1.3025650000
| 18>  N        2.8184330000     2.3962530000    -2.1096860000
| 19>  H        1.1710740000     1.4672880000     0.5490710000
| 20>  H        2.7102660000     2.0036230000     1.2205560000
| 21>  H        1.8032090000     0.7289610000     2.0307380000
| 22>  H        1.0265530000    -0.9648920000    -0.4637090000
| 23>  H        1.7271470000    -1.6445000000     1.0106620000
| 24>  H        2.5103780000    -1.9231680000    -0.5487900000
| 25>  H        4.6949610000    -1.0782290000     0.3634770000
| 26>  H        4.7864450000     0.6172950000     1.0243820000
| 27>  H        3.6816410000    -0.2221100000    -1.7374850000
| 28>  H        4.9008730000     1.9491580000    -1.8113520000
| 29>  H        4.0080670000     2.5249880000    -0.4136710000
| 30>  H        2.6993000000     1.8178730000    -2.9333360000
| 31>  H        3.0161270000     3.3333780000    -2.4390950000
| 32> *
| 33>
| 34>                          ****END OF INPUT****
 Total Charge           Charge          ....    0
 Multiplicity           Mult            ....    1
 Number of Electrons    NEL             ....   56
 Basis Dimension        Dim             ....  163

MULLIKEN ATOMIC CHARGES
-----------------------
   0 C :    0.125771
   1 C :   -0.299963
   2 C :    0.088298
   3 C :    0.028896
   4 C :   -0.139253
   5 C :    0.176038
   6 N :   -0.211883
   7 H :    0.018011
   8 H :   -0.007079
   9 H :    0.008526
  10 H :    0.017809
  11 H :    0.011885
  12 H :    0.001430
  13 H :    0.016838
  14 H :    0.017685
  15 H :    0.005682
  16 H :   -0.010978
  17 H :   -0.016314
  18 H :    0.083885
  19 H :    0.084715
Sum of atomic charges:   -0.0000000

LOEWDIN ATOMIC CHARGES
----------------------
   0 C :   -0.043958
   1 C :   -0.057000
   2 C :   -0.045765
   3 C :   -0.040351
   4 C :   -0.046571
   5 C :    0.010995
   6 N :   -0.114525
   7 H :    0.029594
   8 H :    0.022543
   9 H :    0.025285
  10 H :    0.027264
  11 H :    0.025019
  12 H :    0.023400
  13 H :    0.022275
  14 H :    0.023355
  15 H :    0.020504
  16 H :    0.001577
  17 H :    0.017262
  18 H :    0.048319
  19 H :    0.050776

  Mayer bond orders larger than 0.1
B(  0-C ,  1-C ) :   1.1114 B(  0-C ,  7-H ) :   0.9494 B(  0-C ,  8-H ) :   0.9369
B(  0-C ,  9-H ) :   0.9501 B(  1-C ,  2-C ) :   1.0936 B(  1-C ,  3-C ) :   0.9786
B(  1-C ,  4-C ) :   0.9254 B(  2-C , 10-H ) :   0.9578 B(  2-C , 11-H ) :   0.9539
B(  2-C , 12-H ) :   0.9418 B(  3-C ,  4-C ) :   0.9880 B(  3-C , 13-H ) :   0.9334
B(  3-C , 14-H ) :   0.9374 B(  4-C ,  5-C ) :   1.0923 B(  4-C , 15-H ) :   0.9281
B(  5-C ,  6-N ) :   1.0743 B(  5-C , 16-H ) :   0.9098 B(  5-C , 17-H ) :   0.9073
B(  6-N , 18-H ) :   0.9678 B(  6-N , 19-H ) :   0.9632

FINAL SINGLE POINT ENERGY      -290.571925132317

DIPOLE MOMENT
-------------
                                X             Y             Z
Electronic contribution:      1.21918       0.58487      -1.31957
Nuclear contribution   :     -0.95327      -0.50030       0.96852
                        -----------------------------------------
Total Dipole Moment    :      0.26591       0.08457      -0.35104
                        -----------------------------------------
Magnitude (a.u.)       :      0.44843
Magnitude (Debye)      :      1.13983

                             ****ORCA TERMINATED NORMALLY****
TOTAL RUN TIME: 0 days 0 hours 0 minutes 8 seconds 266 msec
