                         Program Version 3.0.3 - RELEASE   -
|  1> ! RI PBE def2-SVP def2-SVP/J NBO PAL2
|  2> % maxcore 2000
|  3> % output
|  4>     # printlevel mini
|  5>     print[ P_Basis ] 0
|  6>     print[ P_SCFInfo ] 1
|  7>     print[ P_SCFIterInfo ] 1
|  8>     print[ P_OrbEn ] 0
|  9>     print[ P_Cartesian ] 0
| 10> end
| 11> *xyz 0 1
| 12>  C        0.6148220000     0.2309540000     0.0999050000
| 13>  C        2.1066580000     0.1163150000    -0.0856860000
| 14>  C        2.8629420000     0.1617950000     1.2187740000
| 15>  C        2.6107750000    -0.7930640000    -1.1743040000
| 16>  C        2.7307560000     0.6958450000    -1.3407100000
| 17>  C        4.0993020000     1.3315100000    -1.2965250000
| 18>  N        1.8154580000     1.2732560000    -2.2922270000
| 19>  H        0.2446610000    -0.6054210000     0.7010270000
| 20>  H        0.0950140000     0.2346100000    -0.8565730000
| 21>  H        0.3571580000     1.1543640000     0.6296550000
| 22>  H        2.4725760000    -0.5994380000     1.9010720000
| 23>  H        2.7455960000     1.1326540000     1.7110230000
| 24>  H        3.9300660000    -0.0269840000     1.0992980000
| 25>  H        1.8727700000    -1.2959110000    -1.7880300000
| 26>  H        3.5190820000    -1.3565480000    -0.9910260000
| 27>  H        4.5509500000     1.3082700000    -2.2936150000
| 28>  H        4.7849950000     0.8259600000    -0.6161200000
| 29>  H        4.0336360000     2.3804090000    -0.9881480000
| 30>  H        1.7042370000     2.2666660000    -2.1215930000
| 31>  H        2.1815680000     1.1731670000    -3.2322870000
| 32> *
| 33>
| 34>                          ****END OF INPUT****
 Total Charge           Charge          ....    0
 Multiplicity           Mult            ....    1
 Number of Electrons    NEL             ....   56
 Basis Dimension        Dim             ....  163

MULLIKEN ATOMIC CHARGES
-----------------------
   0 C :    0.100498
   1 C :   -0.304794
   2 C :    0.101911
   3 C :    0.069008
   4 C :   -0.232784
   5 C :    0.115944
   6 N :   -0.122696
   7 H :    0.008176
   8 H :    0.016545
   9 H :    0.004791
  10 H :    0.016378
  11 H :    0.012311
  12 H :    0.001019
  13 H :    0.015103
  14 H :    0.010513
  15 H :    0.006811
  16 H :   -0.002903
  17 H :    0.009290
  18 H :    0.086254
  19 H :    0.088625
Sum of atomic charges:    0.0000000

LOEWDIN ATOMIC CHARGES
----------------------
   0 C :   -0.049572
   1 C :   -0.060923
   2 C :   -0.049240
   3 C :   -0.040969
   4 C :   -0.031120
   5 C :   -0.065052
   6 N :   -0.072258
   7 H :    0.024204
   8 H :    0.024777
   9 H :    0.022628
  10 H :    0.029002
  11 H :    0.025824
  12 H :    0.021849
  13 H :    0.025827
  14 H :    0.020540
  15 H :    0.023442
  16 H :    0.024216
  17 H :    0.023685
  18 H :    0.051538
  19 H :    0.051600

  Mayer bond orders larger than 0.1
B(  0-C ,  1-C ) :   1.1062 B(  0-C ,  7-H ) :   0.9511 B(  0-C ,  8-H ) :   0.9306
B(  0-C ,  9-H ) :   0.9574 B(  1-C ,  2-C ) :   1.1123 B(  1-C ,  3-C ) :   0.9712
B(  1-C ,  4-C ) :   0.8628 B(  2-C , 10-H ) :   0.9484 B(  2-C , 11-H ) :   0.9523
B(  2-C , 12-H ) :   0.9398 B(  3-C ,  4-C ) :   0.9612 B(  3-C , 13-H ) :   0.9255
B(  3-C , 14-H ) :   0.9364 B(  4-C ,  5-C ) :   1.1030 B(  4-C ,  6-N ) :   1.1619
B(  5-C , 15-H ) :   0.9462 B(  5-C , 16-H ) :   0.9255 B(  5-C , 17-H ) :   0.9488
B(  6-N , 18-H ) :   0.9672 B(  6-N , 19-H ) :   0.9633

FINAL SINGLE POINT ENERGY      -290.579116272193

DIPOLE MOMENT
-------------
                                X             Y             Z
Electronic contribution:     -0.79396      -0.28904      -2.32650
Nuclear contribution   :      1.13231       0.60342       2.17472
                        -----------------------------------------
Total Dipole Moment    :      0.33836       0.31438      -0.15178
                        -----------------------------------------
Magnitude (a.u.)       :      0.48616
Magnitude (Debye)      :      1.23573

                             ****ORCA TERMINATED NORMALLY****
TOTAL RUN TIME: 0 days 0 hours 0 minutes 8 seconds 371 msec
