                         Program Version 3.0.3 - RELEASE   -
|  1> ! RI PBE def2-SVP def2-SVP/J NBO PAL2
|  2> % maxcore 2000
|  3> % output
|  4>     # printlevel mini
|  5>     print[ P_Basis ] 0
|  6>     print[ P_SCFInfo ] 1
|  7>     print[ P_SCFIterInfo ] 1
|  8>     print[ P_OrbEn ] 0
|  9>     print[ P_Cartesian ] 0
| 10> end
| 11> *xyz 0 1
| 12>  C        0.9708390000     0.0604370000     0.0427540000
| 13>  C        2.4887400000     0.0606080000     0.0027610000
| 14>  C        3.2440250000     1.1357780000     0.8393550000
| 15>  C        4.2584210000     0.0607050000     1.2635520000
| 16>  C        3.2442620000    -1.0145270000     0.8392130000
| 17>  C        2.9604510000     0.0608320000    -1.3756640000
| 18>  N        3.3325060000     0.0606760000    -2.4648180000
| 19>  H        0.6319650000     0.0603290000     1.0808430000
| 20>  H        0.5650380000    -0.8236190000    -0.4537800000
| 21>  H        0.5648490000     0.9444750000    -0.4536580000
| 22>  H        2.6127980000     1.4548700000     1.6714010000
| 23>  H        3.6091060000     2.0145740000     0.3086080000
| 24>  H        4.5857120000     0.0606680000     2.3029390000
| 25>  H        5.1380150000     0.0608400000     0.6179850000
| 26>  H        2.6131460000    -1.3338790000     1.6712460000
| 27>  H        3.6095370000    -1.8931690000     0.3083440000
| 28> *
| 29>
| 30>                          ****END OF INPUT****
 Total Charge           Charge          ....    0
 Multiplicity           Mult            ....    1
 Number of Electrons    NEL             ....   52
 Basis Dimension        Dim             ....  143

MULLIKEN ATOMIC CHARGES
-----------------------
   0 C :    0.098211
   1 C :   -0.523541
   2 C :    0.114564
   3 C :   -0.010359
   4 C :    0.114579
   5 C :   -0.108335
   6 N :    0.069812
   7 H :    0.018690
   8 H :    0.040739
   9 H :    0.040736
  10 H :    0.012795
  11 H :    0.030925
  12 H :    0.019150
  13 H :    0.038305
  14 H :    0.012801
  15 H :    0.030928
Sum of atomic charges:   -0.0000000

LOEWDIN ATOMIC CHARGES
----------------------
   0 C :   -0.039143
   1 C :   -0.082244
   2 C :   -0.004839
   3 C :   -0.031301
   4 C :   -0.004833
   5 C :   -0.031431
   6 N :   -0.075519
   7 H :    0.027859
   8 H :    0.037314
   9 H :    0.037313
  10 H :    0.028729
  11 H :    0.027020
  12 H :    0.022322
  13 H :    0.032996
  14 H :    0.028733
  15 H :    0.027023

  Mayer bond orders larger than 0.1
B(  0-C ,  1-C ) :   1.0608 B(  0-C ,  7-H ) :   0.9440 B(  0-C ,  8-H ) :   0.9576
B(  0-C ,  9-H ) :   0.9575 B(  1-C ,  2-C ) :   1.0572 B(  1-C ,  4-C ) :   1.0572
B(  1-C ,  5-C ) :   1.0070 B(  2-C ,  3-C ) :   1.1243 B(  2-C , 10-H ) :   0.9146
B(  2-C , 11-H ) :   0.9301 B(  3-C ,  4-C ) :   1.1243 B(  3-C , 12-H ) :   0.9310
B(  3-C , 13-H ) :   0.9309 B(  4-C , 14-H ) :   0.9146 B(  4-C , 15-H ) :   0.9301
B(  5-C ,  6-N ) :   3.0863

FINAL SINGLE POINT ENERGY      -288.172895723318

DIPOLE MOMENT
-------------
                                X             Y             Z
Electronic contribution:      1.70244       0.00055      -5.86917
Nuclear contribution   :     -2.12825      -0.00061       7.31938
                        -----------------------------------------
Total Dipole Moment    :     -0.42581      -0.00006       1.45021
                        -----------------------------------------
Magnitude (a.u.)       :      1.51143
Magnitude (Debye)      :      3.84174

                             ****ORCA TERMINATED NORMALLY****
TOTAL RUN TIME: 0 days 0 hours 0 minutes 6 seconds 949 msec
