                         Program Version 3.0.3 - RELEASE   -
|  1> ! RI PBE def2-SVP def2-SVP/J NBO PAL2
|  2> % maxcore 2000
|  3> % output
|  4>     # printlevel mini
|  5>     print[ P_Basis ] 0
|  6>     print[ P_SCFInfo ] 1
|  7>     print[ P_SCFIterInfo ] 1
|  8>     print[ P_OrbEn ] 0
|  9>     print[ P_Cartesian ] 0
| 10> end
| 11> *xyz 0 1
| 12>  C        1.0376870000     0.2456410000    -0.0413390000
| 13>  C        2.5365480000     0.1409560000    -0.0363550000
| 14>  C        3.2952120000    -0.7650930000    -0.9704690000
| 15>  C        2.6174780000    -1.6388830000    -1.9884290000
| 16>  C        3.3662970000     0.7249720000    -1.1386940000
| 17>  C        4.6290780000     1.4751080000    -0.8324140000
| 18>  N        4.3401810000     2.8322640000    -0.3834690000
| 19>  H        0.5774250000    -0.5547920000     0.5454690000
| 20>  H        0.6272090000     0.1916070000    -1.0515470000
| 21>  H        0.7203470000     1.1989430000     0.3895910000
| 22>  H        2.9790660000     0.2440150000     0.9507160000
| 23>  H        4.1850970000    -1.2134790000    -0.5351670000
| 24>  H        1.7513900000    -1.1476700000    -2.4356770000
| 25>  H        2.2719140000    -2.5763400000    -1.5430070000
| 26>  H        3.3035930000    -1.8919730000    -2.8016060000
| 27>  H        2.8016820000     1.1167100000    -1.9841460000
| 28>  H        5.2923870000     1.4353990000    -1.7121870000
| 29>  H        5.1552050000     0.9590010000    -0.0220770000
| 30>  H        3.8430940000     3.3391310000    -1.1065960000
| 31>  H        5.1998300000     3.3397740000    -0.2127070000
| 32> *
| 33>
| 34>                          ****END OF INPUT****
 Total Charge           Charge          ....    0
 Multiplicity           Mult            ....    1
 Number of Electrons    NEL             ....   56
 Basis Dimension        Dim             ....  163

MULLIKEN ATOMIC CHARGES
-----------------------
   0 C :    0.080847
   1 C :   -0.104085
   2 C :   -0.127783
   3 C :    0.085792
   4 C :   -0.128495
   5 C :    0.159069
   6 N :   -0.211082
   7 H :    0.019398
   8 H :   -0.001847
   9 H :    0.023367
  10 H :    0.010774
  11 H :    0.005181
  12 H :   -0.002427
  13 H :    0.018699
  14 H :    0.020412
  15 H :    0.004972
  16 H :   -0.007917
  17 H :   -0.012794
  18 H :    0.084024
  19 H :    0.083894
Sum of atomic charges:    0.0000000

LOEWDIN ATOMIC CHARGES
----------------------
   0 C :   -0.056732
   1 C :   -0.038518
   2 C :   -0.042564
   3 C :   -0.057455
   4 C :   -0.048521
   5 C :    0.011246
   6 N :   -0.116308
   7 H :    0.027677
   8 H :    0.022507
   9 H :    0.031563
  10 H :    0.026356
  11 H :    0.022895
  12 H :    0.023396
  13 H :    0.028278
  14 H :    0.029182
  15 H :    0.019446
  16 H :    0.000321
  17 H :    0.018778
  18 H :    0.048209
  19 H :    0.050243

  Mayer bond orders larger than 0.1
B(  0-C ,  1-C ) :   1.1113 B(  0-C ,  7-H ) :   0.9559 B(  0-C ,  8-H ) :   0.9456
B(  0-C ,  9-H ) :   0.9563 B(  1-C ,  2-C ) :   0.9697 B(  1-C ,  4-C ) :   0.9423
B(  1-C , 10-H ) :   0.9311 B(  2-C ,  3-C ) :   1.1084 B(  2-C ,  4-C ) :   0.9479
B(  2-C , 11-H ) :   0.9292 B(  3-C , 12-H ) :   0.9443 B(  3-C , 13-H ) :   0.9543
B(  3-C , 14-H ) :   0.9566 B(  4-C ,  5-C ) :   1.0759 B(  4-C , 15-H ) :   0.9393
B(  5-C ,  6-N ) :   1.0827 B(  5-C , 16-H ) :   0.9192 B(  5-C , 17-H ) :   0.9120
B(  6-N , 18-H ) :   0.9680 B(  6-N , 19-H ) :   0.9629

FINAL SINGLE POINT ENERGY      -290.571611754197

DIPOLE MOMENT
-------------
                                X             Y             Z
Electronic contribution:      2.00664       1.63880       0.96155
Nuclear contribution   :     -1.77466      -1.52005      -1.31959
                        -----------------------------------------
Total Dipole Moment    :      0.23198       0.11875      -0.35803
                        -----------------------------------------
Magnitude (a.u.)       :      0.44284
Magnitude (Debye)      :      1.12560

                             ****ORCA TERMINATED NORMALLY****
TOTAL RUN TIME: 0 days 0 hours 0 minutes 8 seconds 126 msec
