                         Program Version 3.0.3 - RELEASE   -
|  1> ! RI PBE def2-SVP def2-SVP/J NBO PAL2
|  2> % maxcore 2000
|  3> % output
|  4>     # printlevel mini
|  5>     print[ P_Basis ] 0
|  6>     print[ P_SCFInfo ] 1
|  7>     print[ P_SCFIterInfo ] 1
|  8>     print[ P_OrbEn ] 0
|  9>     print[ P_Cartesian ] 0
| 10> end
| 11> *xyz 0 1
| 12>  C        0.5238050000     0.0223180000    -0.8559100000
| 13>  C        1.8859140000     0.4457420000    -0.3832310000
| 14>  C        3.1499050000    -0.2989250000    -0.7398280000
| 15>  C        3.1605300000    -1.5310580000    -1.5999650000
| 16>  C        2.9128080000     1.0874790000    -1.2793450000
| 17>  C        2.6283520000     1.3056420000    -2.7440460000
| 18>  N        3.6977620000     2.1105300000    -0.6331400000
| 19>  H        0.0961220000    -0.7242110000    -0.1807620000
| 20>  H        0.5364380000    -0.4156540000    -1.8547210000
| 21>  H       -0.1640330000     0.8723950000    -0.8819700000
| 22>  H        1.8929360000     0.8591620000     0.6205150000
| 23>  H        3.8855300000    -0.3148490000     0.0583320000
| 24>  H        2.3980280000    -1.5130640000    -2.3796210000
| 25>  H        2.9837300000    -2.4249850000    -0.9952430000
| 26>  H        4.1283470000    -1.6562010000    -2.0940300000
| 27>  H        2.0330830000     0.5100600000    -3.1933260000
| 28>  H        3.5644210000     1.3740420000    -3.3079880000
| 29>  H        2.0855480000     2.2451470000    -2.8910790000
| 30>  H        4.5991760000     2.2061900000    -1.0885940000
| 31>  H        3.2341950000     3.0101490000    -0.7033470000
| 32> *
| 33>
| 34>                          ****END OF INPUT****
 Total Charge           Charge          ....    0
 Multiplicity           Mult            ....    1
 Number of Electrons    NEL             ....   56
 Basis Dimension        Dim             ....  163

MULLIKEN ATOMIC CHARGES
-----------------------
   0 C :    0.086198
   1 C :   -0.099299
   2 C :   -0.113753
   3 C :    0.094230
   4 C :   -0.221641
   5 C :    0.128333
   6 N :   -0.131512
   7 H :    0.023207
   8 H :   -0.005502
   9 H :    0.021276
  10 H :    0.004029
  11 H :    0.010032
  12 H :    0.002341
  13 H :    0.018449
  14 H :    0.014601
  15 H :   -0.009325
  16 H :    0.007292
  17 H :    0.005485
  18 H :    0.083915
  19 H :    0.081645
Sum of atomic charges:   -0.0000000

LOEWDIN ATOMIC CHARGES
----------------------
   0 C :   -0.061151
   1 C :   -0.043558
   2 C :   -0.046208
   3 C :   -0.059137
   4 C :   -0.033651
   5 C :   -0.063849
   6 N :   -0.078910
   7 H :    0.031009
   8 H :    0.021781
   9 H :    0.029917
  10 H :    0.026158
  11 H :    0.026940
  12 H :    0.022431
  13 H :    0.030409
  14 H :    0.028736
  15 H :    0.022274
  16 H :    0.024374
  17 H :    0.024009
  18 H :    0.049572
  19 H :    0.048854

  Mayer bond orders larger than 0.1
B(  0-C ,  1-C ) :   1.1275 B(  0-C ,  7-H ) :   0.9520 B(  0-C ,  8-H ) :   0.9357
B(  0-C ,  9-H ) :   0.9535 B(  1-C ,  2-C ) :   0.9663 B(  1-C ,  4-C ) :   0.9201
B(  1-C , 10-H ) :   0.9163 B(  2-C ,  3-C ) :   1.1186 B(  2-C ,  4-C ) :   0.9164
B(  2-C , 11-H ) :   0.9184 B(  3-C , 12-H ) :   0.9419 B(  3-C , 13-H ) :   0.9522
B(  3-C , 14-H ) :   0.9536 B(  4-C ,  5-C ) :   1.0960 B(  4-C ,  6-N ) :   1.1411
B(  5-C , 15-H ) :   0.9232 B(  5-C , 16-H ) :   0.9469 B(  5-C , 17-H ) :   0.9473
B(  6-N , 18-H ) :   0.9664 B(  6-N , 19-H ) :   0.9680

FINAL SINGLE POINT ENERGY      -290.577670783983

DIPOLE MOMENT
-------------
                                X             Y             Z
Electronic contribution:      1.95830       2.05349       2.65109
Nuclear contribution   :     -1.96448      -1.86966      -3.05930
                        -----------------------------------------
Total Dipole Moment    :     -0.00618       0.18383      -0.40821
                        -----------------------------------------
Magnitude (a.u.)       :      0.44773
Magnitude (Debye)      :      1.13805

                             ****ORCA TERMINATED NORMALLY****
TOTAL RUN TIME: 0 days 0 hours 0 minutes 9 seconds 5 msec
