                         Program Version 3.0.3 - RELEASE   -
|  1> ! RI PBE def2-SVP def2-SVP/J NBO PAL2
|  2> % maxcore 2000
|  3> % output
|  4>     # printlevel mini
|  5>     print[ P_Basis ] 0
|  6>     print[ P_SCFInfo ] 1
|  7>     print[ P_SCFIterInfo ] 1
|  8>     print[ P_OrbEn ] 0
|  9>     print[ P_Cartesian ] 0
| 10> end
| 11> *xyz 0 1
| 12>  C        0.9158200000     0.1502710000     0.0446660000
| 13>  C        2.4134170000     0.0516720000     0.0107540000
| 14>  C        3.1648200000    -0.7253010000    -1.0210820000
| 15>  C        2.4995390000    -1.4872010000    -2.1304130000
| 16>  C        3.1941130000     0.7889870000    -1.0579840000
| 17>  C        4.3909690000     1.4901980000    -0.7142780000
| 18>  N        5.3585330000     2.0454730000    -0.4275800000
| 19>  H        0.4830490000    -0.7068050000     0.5671460000
| 20>  H        0.4817420000     0.1832570000    -0.9558920000
| 21>  H        0.6021750000     1.0548130000     0.5707390000
| 22>  H        2.8852250000     0.0705800000     0.9877100000
| 23>  H        4.0863090000    -1.1715660000    -0.6617790000
| 24>  H        1.6072460000    -0.9805440000    -2.5015460000
| 25>  H        2.2004630000    -2.4824480000    -1.7914490000
| 26>  H        3.1825980000    -1.6132250000    -2.9735380000
| 27>  H        2.6091630000     1.2619400000    -1.8400740000
| 28> *
| 29>
| 30>                          ****END OF INPUT****
 Total Charge           Charge          ....    0
 Multiplicity           Mult            ....    1
 Number of Electrons    NEL             ....   52
 Basis Dimension        Dim             ....  143

MULLIKEN ATOMIC CHARGES
-----------------------
   0 C :    0.072814
   1 C :   -0.105659
   2 C :   -0.099104
   3 C :    0.074814
   4 C :   -0.187338
   5 C :   -0.105551
   6 N :    0.055204
   7 H :    0.035856
   8 H :    0.011684
   9 H :    0.037174
  10 H :    0.035921
  11 H :    0.035679
  12 H :    0.007458
  13 H :    0.033815
  14 H :    0.039862
  15 H :    0.057371
Sum of atomic charges:    0.0000000

LOEWDIN ATOMIC CHARGES
----------------------
   0 C :   -0.053751
   1 C :   -0.016670
   2 C :   -0.015240
   3 C :   -0.054140
   4 C :   -0.068280
   5 C :   -0.042018
   6 N :   -0.077897
   7 H :    0.036108
   8 H :    0.027835
   9 H :    0.037651
  10 H :    0.037517
  11 H :    0.037706
  12 H :    0.027515
  13 H :    0.036063
  14 H :    0.037869
  15 H :    0.049732

  Mayer bond orders larger than 0.1
B(  0-C ,  1-C ) :   1.1136 B(  0-C ,  7-H ) :   0.9565 B(  0-C ,  8-H ) :   0.9455
B(  0-C ,  9-H ) :   0.9553 B(  1-C ,  2-C ) :   0.9461 B(  1-C ,  4-C ) :   0.9278
B(  1-C , 10-H ) :   0.9337 B(  2-C ,  3-C ) :   1.1208 B(  2-C ,  4-C ) :   0.9291
B(  2-C , 11-H ) :   0.9332 B(  3-C , 12-H ) :   0.9419 B(  3-C , 13-H ) :   0.9542
B(  3-C , 14-H ) :   0.9553 B(  4-C ,  5-C ) :   1.1528 B(  4-C , 15-H ) :   0.9156
B(  5-C ,  6-N ) :   3.0198

FINAL SINGLE POINT ENERGY      -288.175035377703

DIPOLE MOMENT
-------------
                                X             Y             Z
Electronic contribution:      7.51086       5.53557       1.30132
Nuclear contribution   :     -8.92558      -6.54006      -1.57531
                        -----------------------------------------
Total Dipole Moment    :     -1.41471      -1.00450      -0.27399
                        -----------------------------------------
Magnitude (a.u.)       :      1.75656
Magnitude (Debye)      :      4.46482

                             ****ORCA TERMINATED NORMALLY****
TOTAL RUN TIME: 0 days 0 hours 0 minutes 7 seconds 138 msec
