                         Program Version 3.0.3 - RELEASE   -
|  1> ! RI PBE def2-SVP def2-SVP/J NBO PAL2
|  2> % maxcore 2000
|  3> % output
|  4>     # printlevel mini
|  5>     print[ P_Basis ] 0
|  6>     print[ P_SCFInfo ] 1
|  7>     print[ P_SCFIterInfo ] 1
|  8>     print[ P_OrbEn ] 0
|  9>     print[ P_Cartesian ] 0
| 10> end
| 11> *xyz 0 1
| 12>  C        0.8082080000     0.0126030000     0.2024280000
| 13>  C        2.3106330000     0.0131920000     0.0682940000
| 14>  C        3.1202360000     1.1332250000     0.7518850000
| 15>  C        4.1963380000     0.0838360000     1.1388970000
| 16>  C        3.1319300000    -1.0140480000     0.8730170000
| 17>  C        5.3126300000     0.0378900000     0.2155120000
| 18>  N        6.1914450000     0.0008150000    -0.5266060000
| 19>  H        0.3635480000     0.8645220000    -0.3189600000
| 20>  H        0.5097440000     0.0703220000     1.2535300000
| 21>  H        0.3730990000    -0.8973540000    -0.2194730000
| 22>  H        2.5962240000    -0.0447860000    -0.9864180000
| 23>  H        3.4439680000     1.9823410000     0.1507690000
| 24>  H        2.6175310000     1.4980160000     1.6505090000
| 25>  H        4.5908830000     0.1432710000     2.1547190000
| 26>  H        2.6327500000    -1.2808940000     1.8073320000
| 27>  H        3.4651250000    -1.9218320000     0.3709650000
| 28> *
| 29>
| 30>                          ****END OF INPUT****
 Total Charge           Charge          ....    0
 Multiplicity           Mult            ....    1
 Number of Electrons    NEL             ....   52
 Basis Dimension        Dim             ....  143

MULLIKEN ATOMIC CHARGES
-----------------------
   0 C :    0.065189
   1 C :   -0.235229
   2 C :    0.140212
   3 C :   -0.272955
   4 C :    0.140113
   5 C :   -0.138047
   6 N :    0.065760
   7 H :    0.028715
   8 H :    0.008008
   9 H :    0.027724
  10 H :    0.033535
  11 H :    0.033513
  12 H :    0.009540
  13 H :    0.052108
  14 H :    0.010129
  15 H :    0.031683
Sum of atomic charges:   -0.0000000

LOEWDIN ATOMIC CHARGES
----------------------
   0 C :   -0.062392
   1 C :   -0.038078
   2 C :   -0.004199
   3 C :   -0.056469
   4 C :   -0.004145
   5 C :   -0.041432
   6 N :   -0.073790
   7 H :    0.031934
   8 H :    0.023013
   9 H :    0.031755
  10 H :    0.033670
  11 H :    0.027473
  12 H :    0.028999
  13 H :    0.047459
  14 H :    0.028937
  15 H :    0.027265

  Mayer bond orders larger than 0.1
B(  0-C ,  1-C ) :   1.1037 B(  0-C ,  7-H ) :   0.9589 B(  0-C ,  8-H ) :   0.9511
B(  0-C ,  9-H ) :   0.9587 B(  1-C ,  2-C ) :   1.0734 B(  1-C ,  4-C ) :   1.0714
B(  1-C , 10-H ) :   0.9119 B(  2-C ,  3-C ) :   1.0900 B(  2-C , 11-H ) :   0.9314
B(  2-C , 12-H ) :   0.9065 B(  3-C ,  4-C ) :   1.0897 B(  3-C ,  5-C ) :   1.0640
B(  3-C , 13-H ) :   0.8851 B(  4-C , 14-H ) :   0.9079 B(  4-C , 15-H ) :   0.9315
B(  5-C ,  6-N ) :   3.0671

FINAL SINGLE POINT ENERGY      -288.174151125541

DIPOLE MOMENT
-------------
                                X             Y             Z
Electronic contribution:      8.96838      -0.02753      -1.37178
Nuclear contribution   :    -10.32820       0.06554       2.16131
                        -----------------------------------------
Total Dipole Moment    :     -1.35982       0.03801       0.78953
                        -----------------------------------------
Magnitude (a.u.)       :      1.57287
Magnitude (Debye)      :      3.99792

                             ****ORCA TERMINATED NORMALLY****
TOTAL RUN TIME: 0 days 0 hours 0 minutes 7 seconds 498 msec
