                         Program Version 3.0.3 - RELEASE   -
|  1> ! RI PBE def2-SVP def2-SVP/J NBO PAL2
|  2> % maxcore 2000
|  3> % output
|  4>     # printlevel mini
|  5>     print[ P_Basis ] 0
|  6>     print[ P_SCFInfo ] 1
|  7>     print[ P_SCFIterInfo ] 1
|  8>     print[ P_OrbEn ] 0
|  9>     print[ P_Cartesian ] 0
| 10> end
| 11> *xyz 0 1
| 12>  C        0.9246870000    -0.0867390000     0.0084140000
| 13>  C        2.4294750000    -0.0872230000     0.1319700000
| 14>  C        3.1356610000     0.9451300000     1.0293220000
| 15>  C        4.1834710000    -0.1290360000     1.3720570000
| 16>  C        3.1845770000    -1.2134700000     0.9153620000
| 17>  C        2.3871860000    -1.7722760000     2.0773810000
| 18>  N        3.7727190000    -2.3186520000     0.1920430000
| 19>  H        0.5751040000     0.8074040000    -0.5157300000
| 20>  H        0.4409240000    -0.1029830000     0.9882940000
| 21>  H        0.5680400000    -0.9546580000    -0.5549480000
| 22>  H        2.8785670000    -0.0423570000    -0.8679980000
| 23>  H        2.5233480000     1.2093880000     1.8952090000
| 24>  H        3.4866150000     1.8663160000     0.5622590000
| 25>  H        4.5528680000    -0.1909400000     2.3976220000
| 26>  H        5.0399590000    -0.0845770000     0.6943840000
| 27>  H        1.9679300000    -0.9786870000     2.6988190000
| 28>  H        3.0357490000    -2.3926190000     2.6995040000
| 29>  H        1.5568370000    -2.3927700000     1.7256570000
| 30>  H        4.2352660000    -1.9929100000    -0.6484110000
| 31>  H        3.0652270000    -2.9873500000    -0.0905900000
| 32> *
| 33>
| 34>                          ****END OF INPUT****
 Total Charge           Charge          ....    0
 Multiplicity           Mult            ....    1
 Number of Electrons    NEL             ....   56
 Basis Dimension        Dim             ....  163

MULLIKEN ATOMIC CHARGES
-----------------------
   0 C :    0.073443
   1 C :   -0.068690
   2 C :    0.025157
   3 C :    0.137979
   4 C :   -0.342387
   5 C :    0.079758
   6 N :   -0.109619
   7 H :    0.018691
   8 H :    0.005015
   9 H :    0.011873
  10 H :   -0.027634
  11 H :    0.008527
  12 H :    0.001457
  13 H :   -0.003174
  14 H :   -0.009821
  15 H :    0.005041
  16 H :    0.026210
  17 H :    0.010273
  18 H :    0.077045
  19 H :    0.080857
Sum of atomic charges:    0.0000000

LOEWDIN ATOMIC CHARGES
----------------------
   0 C :   -0.067163
   1 C :   -0.050877
   2 C :   -0.032741
   3 C :   -0.025541
   4 C :   -0.021611
   5 C :   -0.053814
   6 N :   -0.086345
   7 H :    0.028777
   8 H :    0.022828
   9 H :    0.024481
  10 H :    0.016423
  11 H :    0.019981
  12 H :    0.016020
  13 H :    0.015540
  14 H :    0.021672
  15 H :    0.024953
  16 H :    0.030316
  17 H :    0.021944
  18 H :    0.045833
  19 H :    0.049324

  Mayer bond orders larger than 0.1
B(  0-C ,  1-C ) :   1.1164 B(  0-C ,  7-H ) :   0.9533 B(  0-C ,  8-H ) :   0.9413
B(  0-C ,  9-H ) :   0.9543 B(  1-C ,  2-C ) :   1.0912 B(  1-C ,  4-C ) :   0.9704
B(  1-C , 10-H ) :   0.8729 B(  2-C ,  3-C ) :   1.1240 B(  2-C , 11-H ) :   0.9231
B(  2-C , 12-H ) :   0.9200 B(  3-C ,  4-C ) :   1.0428 B(  3-C , 13-H ) :   0.9180
B(  3-C , 14-H ) :   0.9053 B(  4-C ,  5-C ) :   1.0557 B(  4-C ,  6-N ) :   1.1166
B(  5-C , 15-H ) :   0.9497 B(  5-C , 16-H ) :   0.9500 B(  5-C , 17-H ) :   0.9425
B(  6-N , 18-H ) :   0.9479 B(  6-N , 19-H ) :   0.9626

FINAL SINGLE POINT ENERGY      -290.581982152478

DIPOLE MOMENT
-------------
                                X             Y             Z
Electronic contribution:      2.58202      -0.66938      -0.78271
Nuclear contribution   :     -2.86475       0.74010       0.43447
                        -----------------------------------------
Total Dipole Moment    :     -0.28273       0.07072      -0.34824
                        -----------------------------------------
Magnitude (a.u.)       :      0.45411
Magnitude (Debye)      :      1.15425

                             ****ORCA TERMINATED NORMALLY****
TOTAL RUN TIME: 0 days 0 hours 0 minutes 9 seconds 161 msec
