                         Program Version 3.0.3 - RELEASE   -
|  1> ! RI PBE def2-SVP def2-SVP/J NBO PAL2
|  2> % maxcore 2000
|  3> % output
|  4>     # printlevel mini
|  5>     print[ P_Basis ] 0
|  6>     print[ P_SCFInfo ] 1
|  7>     print[ P_SCFIterInfo ] 1
|  8>     print[ P_OrbEn ] 0
|  9>     print[ P_Cartesian ] 0
| 10> end
| 11> *xyz 0 1
| 12>  C        0.9681410000    -0.0415920000     0.0877180000
| 13>  C        2.4731200000    -0.0000370000     0.1560340000
| 14>  C        3.1796790000     1.0612170000     1.0229980000
| 15>  C        4.2279930000     0.0048750000     1.4111390000
| 16>  C        3.2094350000    -1.0821100000     0.9943050000
| 17>  C        3.6862710000    -2.2715410000     0.3239430000
| 18>  N        4.0731010000    -3.2015150000    -0.2331550000
| 19>  H        0.5772500000     0.8353640000    -0.4350270000
| 20>  H        0.5300040000    -0.0552450000     1.0898850000
| 21>  H        0.6196350000    -0.9295020000    -0.4462370000
| 22>  H        2.9033940000     0.0068030000    -0.8496360000
| 23>  H        2.5594560000     1.3441060000     1.8778040000
| 24>  H        3.5295820000     1.9671850000     0.5281750000
| 25>  H        4.5840160000    -0.0238290000     2.4403560000
| 26>  H        5.0844840000     0.0130410000     0.7360940000
| 27>  H        2.5911590000    -1.3780300000     1.8471040000
| 28> *
| 29>
| 30>                          ****END OF INPUT****
 Total Charge           Charge          ....    0
 Multiplicity           Mult            ....    1
 Number of Electrons    NEL             ....   52
 Basis Dimension        Dim             ....  143

MULLIKEN ATOMIC CHARGES
-----------------------
   0 C :    0.071735
   1 C :   -0.155841
   2 C :    0.063730
   3 C :    0.069700
   4 C :   -0.187652
   5 C :   -0.161017
   6 N :    0.082082
   7 H :    0.031462
   8 H :    0.009629
   9 H :    0.035101
  10 H :    0.022220
  11 H :    0.008518
  12 H :    0.019490
  13 H :    0.026792
  14 H :    0.026937
  15 H :    0.037114
Sum of atomic charges:   -0.0000000

LOEWDIN ATOMIC CHARGES
----------------------
   0 C :   -0.061994
   1 C :   -0.015888
   2 C :   -0.027339
   3 C :   -0.005742
   4 C :   -0.058085
   5 C :   -0.047013
   6 N :   -0.070683
   7 H :    0.034221
   8 H :    0.024865
   9 H :    0.035360
  10 H :    0.033622
  11 H :    0.026118
  12 H :    0.022415
  13 H :    0.024621
  14 H :    0.034016
  15 H :    0.051508

  Mayer bond orders larger than 0.1
B(  0-C ,  1-C ) :   1.1018 B(  0-C ,  7-H ) :   0.9570 B(  0-C ,  8-H ) :   0.9482
B(  0-C ,  9-H ) :   0.9573 B(  1-C ,  2-C ) :   1.0868 B(  1-C ,  4-C ) :   1.0423
B(  1-C , 10-H ) :   0.8979 B(  2-C ,  3-C ) :   1.1401 B(  2-C , 11-H ) :   0.9131
B(  2-C , 12-H ) :   0.9330 B(  3-C ,  4-C ) :   1.1015 B(  3-C , 13-H ) :   0.9264
B(  3-C , 14-H ) :   0.9157 B(  4-C ,  5-C ) :   1.1358 B(  4-C , 15-H ) :   0.8351
B(  5-C ,  6-N ) :   3.0558

FINAL SINGLE POINT ENERGY      -288.176422737919

DIPOLE MOMENT
-------------
                                X             Y             Z
Electronic contribution:      3.92569      -6.60758      -1.20530
Nuclear contribution   :     -4.46900       7.95944       1.78760
                        -----------------------------------------
Total Dipole Moment    :     -0.54330       1.35186       0.58230
                        -----------------------------------------
Magnitude (a.u.)       :      1.56900
Magnitude (Debye)      :      3.98809

                             ****ORCA TERMINATED NORMALLY****
TOTAL RUN TIME: 0 days 0 hours 0 minutes 7 seconds 499 msec
