                         Program Version 3.0.3 - RELEASE   -
|  1> ! RI PBE def2-SVP def2-SVP/J NBO PAL2
|  2> % maxcore 2000
|  3> % output
|  4>     # printlevel mini
|  5>     print[ P_Basis ] 0
|  6>     print[ P_SCFInfo ] 1
|  7>     print[ P_SCFIterInfo ] 1
|  8>     print[ P_OrbEn ] 0
|  9>     print[ P_Cartesian ] 0
| 10> end
| 11> *xyz 0 1
| 12>  C        1.4209870000     0.5363370000     0.4769510000
| 13>  C        2.5894970000    -0.0846570000    -0.2552580000
| 14>  C        2.4049080000    -1.5627190000    -0.6308440000
| 15>  C        3.2988200000    -1.7385350000    -1.8591250000
| 16>  C        3.3141420000    -0.3616210000    -2.4829000000
| 17>  C        2.0212120000     0.3395700000    -2.6069770000
| 18>  N        2.9159720000     0.6398640000    -1.4943440000
| 19>  H        1.2315960000     0.0113470000     1.4163030000
| 20>  H        0.5101790000     0.4850630000    -0.1262600000
| 21>  H        1.6193150000     1.5854210000     0.7042690000
| 22>  H        3.4852030000     0.0069380000     0.3704860000
| 23>  H        1.3586880000    -1.7683050000    -0.8738290000
| 24>  H        2.6746670000    -2.2304660000     0.1891350000
| 25>  H        2.9417170000    -2.5138300000    -2.5415210000
| 26>  H        4.3165100000    -2.0090350000    -1.5617140000
| 27>  H        4.1366890000    -0.0951600000    -3.1388910000
| 28>  H        1.1128020000    -0.2252470000    -2.4182530000
| 29>  H        1.9084960000     1.1448350000    -3.3243380000
| 30> *
| 31>
| 32>                          ****END OF INPUT****
 Total Charge           Charge          ....    0
 Multiplicity           Mult            ....    1
 Number of Electrons    NEL             ....   54
 Basis Dimension        Dim             ....  153

MULLIKEN ATOMIC CHARGES
-----------------------
   0 C :    0.073028
   1 C :   -0.039890
   2 C :   -0.057330
   3 C :    0.143876
   4 C :   -0.128258
   5 C :    0.080592
   6 N :   -0.256405
   7 H :    0.016380
   8 H :    0.005517
   9 H :    0.026516
  10 H :    0.010627
  11 H :    0.011504
  12 H :    0.015388
  13 H :    0.018974
  14 H :    0.011513
  15 H :    0.017260
  16 H :    0.021857
  17 H :    0.028850
Sum of atomic charges:    0.0000000

LOEWDIN ATOMIC CHARGES
----------------------
   0 C :   -0.059981
   1 C :    0.000444
   2 C :   -0.051414
   3 C :   -0.040095
   4 C :   -0.004557
   5 C :   -0.002210
   6 N :   -0.111522
   7 H :    0.029231
   8 H :    0.023258
   9 H :    0.031721
  10 H :    0.023397
  11 H :    0.021582
  12 H :    0.029484
  13 H :    0.029709
  14 H :    0.029259
  15 H :    0.018087
  16 H :    0.011043
  17 H :    0.022563

  Mayer bond orders larger than 0.1
B(  0-C ,  1-C ) :   1.1066 B(  0-C ,  7-H ) :   0.9550 B(  0-C ,  8-H ) :   0.9478
B(  0-C ,  9-H ) :   0.9521 B(  1-C ,  2-C ) :   1.0286 B(  1-C ,  6-N ) :   1.0101
B(  1-C , 10-H ) :   0.9180 B(  2-C ,  3-C ) :   1.0935 B(  2-C , 11-H ) :   0.9244
B(  2-C , 12-H ) :   0.9229 B(  3-C ,  4-C ) :   1.0456 B(  3-C , 13-H ) :   0.9269
B(  3-C , 14-H ) :   0.9235 B(  4-C ,  5-C ) :   1.0339 B(  4-C ,  6-N ) :   0.9456
B(  4-C , 15-H ) :   0.9426 B(  5-C ,  6-N ) :   0.9730 B(  5-C , 16-H ) :   0.9263
B(  5-C , 17-H ) :   0.9452

FINAL SINGLE POINT ENERGY      -289.372699931853

DIPOLE MOMENT
-------------
                                X             Y             Z
Electronic contribution:      2.33346       1.41003      -2.18348
Nuclear contribution   :     -2.51193      -1.94444       2.21356
                        -----------------------------------------
Total Dipole Moment    :     -0.17847      -0.53441       0.03009
                        -----------------------------------------
Magnitude (a.u.)       :      0.56423
Magnitude (Debye)      :      1.43415

                             ****ORCA TERMINATED NORMALLY****
TOTAL RUN TIME: 0 days 0 hours 0 minutes 7 seconds 962 msec
