                         Program Version 3.0.3 - RELEASE   -
|  1> ! RI PBE def2-SVP def2-SVP/J NBO PAL2
|  2> % maxcore 2000
|  3> % output
|  4>     # printlevel mini
|  5>     print[ P_Basis ] 0
|  6>     print[ P_SCFInfo ] 1
|  7>     print[ P_SCFIterInfo ] 1
|  8>     print[ P_OrbEn ] 0
|  9>     print[ P_Cartesian ] 0
| 10> end
| 11> *xyz 0 1
| 12>  C        0.8390280000     0.1358440000     0.0880700000
| 13>  C        2.3429410000    -0.0153890000     0.2397820000
| 14>  C        3.0413970000     1.2904450000     0.5166540000
| 15>  C        3.6140890000     1.2740890000     1.7157460000
| 16>  C        3.4427470000    -0.0578820000     2.3379380000
| 17>  C        4.0598000000    -1.1754660000     1.5840890000
| 18>  N        2.6527290000    -0.8727520000     1.4011540000
| 19>  H        0.5972550000     0.7819210000    -0.7599260000
| 20>  H        0.4112470000     0.5779180000     0.9904280000
| 21>  H        0.3746940000    -0.8393080000    -0.0711920000
| 22>  H        2.7425390000    -0.4939320000    -0.6637860000
| 23>  H        3.0630010000     2.1138450000    -0.1872930000
| 24>  H        4.1522810000     2.0900660000     2.1813570000
| 25>  H        3.2329030000    -0.1543390000     3.3986280000
| 26>  H        4.2560580000    -2.1243070000     2.0735980000
| 27>  H        4.7572700000    -0.9006650000     0.7966110000
| 28> *
| 29>
| 30>                          ****END OF INPUT****
 Total Charge           Charge          ....    0
 Multiplicity           Mult            ....    1
 Number of Electrons    NEL             ....   52
 Basis Dimension        Dim             ....  143

MULLIKEN ATOMIC CHARGES
-----------------------
   0 C :    0.081696
   1 C :    0.041470
   2 C :   -0.089176
   3 C :    0.037035
   4 C :   -0.044683
   5 C :    0.121278
   6 N :   -0.275845
   7 H :    0.010812
   8 H :    0.015112
   9 H :    0.022524
  10 H :    0.013711
  11 H :   -0.005345
  12 H :   -0.006427
  13 H :    0.027815
  14 H :    0.027395
  15 H :    0.022628
Sum of atomic charges:   -0.0000000

LOEWDIN ATOMIC CHARGES
----------------------
   0 C :   -0.059598
   1 C :    0.007481
   2 C :   -0.039143
   3 C :   -0.037581
   4 C :   -0.000533
   5 C :    0.016703
   6 N :   -0.105572
   7 H :    0.026180
   8 H :    0.028050
   9 H :    0.029030
  10 H :    0.026236
  11 H :    0.023572
  12 H :    0.027060
  13 H :    0.021865
  14 H :    0.020984
  15 H :    0.015268

  Mayer bond orders larger than 0.1
B(  0-C ,  1-C ) :   1.0762 B(  0-C ,  7-H ) :   0.9551 B(  0-C ,  8-H ) :   0.9522
B(  0-C ,  9-H ) :   0.9533 B(  1-C ,  2-C ) :   0.9841 B(  1-C ,  6-N ) :   1.0049
B(  1-C , 10-H ) :   0.8995 B(  2-C ,  3-C ) :   1.8106 B(  2-C , 11-H ) :   0.9846
B(  3-C ,  4-C ) :   1.0043 B(  3-C , 12-H ) :   0.9965 B(  4-C ,  5-C ) :   1.0244
B(  4-C ,  6-N ) :   0.9385 B(  4-C , 13-H ) :   0.9453 B(  5-C ,  6-N ) :   0.9651
B(  5-C , 14-H ) :   0.9425 B(  5-C , 15-H ) :   0.9204

FINAL SINGLE POINT ENERGY      -288.152092974748

DIPOLE MOMENT
-------------
                                X             Y             Z
Electronic contribution:      2.09481      -0.11867       1.91117
Nuclear contribution   :     -1.76228       0.42456      -2.06485
                        -----------------------------------------
Total Dipole Moment    :      0.33253       0.30588      -0.15368
                        -----------------------------------------
Magnitude (a.u.)       :      0.47724
Magnitude (Debye)      :      1.21305

                             ****ORCA TERMINATED NORMALLY****
TOTAL RUN TIME: 0 days 0 hours 0 minutes 6 seconds 869 msec
