                         Program Version 3.0.3 - RELEASE   -
|  1> ! RI PBE def2-SVP def2-SVP/J NBO PAL2
|  2> % maxcore 2000
|  3> % output
|  4>     # printlevel mini
|  5>     print[ P_Basis ] 0
|  6>     print[ P_SCFInfo ] 1
|  7>     print[ P_SCFIterInfo ] 1
|  8>     print[ P_OrbEn ] 0
|  9>     print[ P_Cartesian ] 0
| 10> end
| 11> *xyz 0 1
| 12>  C        1.2832290000     0.3180840000     0.6532070000
| 13>  C        2.4868470000    -0.1748900000    -0.1308490000
| 14>  C        2.4075680000    -1.6577390000    -0.5282410000
| 15>  C        3.2784170000    -1.7968440000    -1.7820220000
| 16>  C        3.2008410000    -0.4413040000    -2.4444530000
| 17>  N        1.8867420000     0.1751210000    -2.5862020000
| 18>  C        2.7221140000     0.5382180000    -1.4467140000
| 19>  H        1.1461840000    -0.2583720000     1.5719020000
| 20>  H        0.3675090000     0.2236520000     0.0617710000
| 21>  H        1.3908730000     1.3692080000     0.9318640000
| 22>  H        3.3889050000    -0.0217500000     0.4762410000
| 23>  H        1.3691210000    -1.9266840000    -0.7475230000
| 24>  H        2.7256380000    -2.3183990000     0.2802830000
| 25>  H        2.9546900000    -2.6136050000    -2.4341120000
| 26>  H        4.3203990000    -1.9963560000    -1.5103020000
| 27>  H        3.9140740000    -0.1854110000    -3.2209680000
| 28>  H        1.1470010000    -0.4649460000    -2.3143070000
| 29>  H        3.0554490000     1.5714170000    -1.4326740000
| 30> *
| 31>
| 32>                          ****END OF INPUT****
 Total Charge           Charge          ....    0
 Multiplicity           Mult            ....    1
 Number of Electrons    NEL             ....   54
 Basis Dimension        Dim             ....  153

MULLIKEN ATOMIC CHARGES
-----------------------
   0 C :    0.068601
   1 C :   -0.077659
   2 C :   -0.061186
   3 C :    0.135877
   4 C :   -0.117881
   5 N :   -0.134715
   6 C :   -0.039214
   7 H :    0.017457
   8 H :    0.007530
   9 H :    0.017346
  10 H :    0.010708
  11 H :    0.008496
  12 H :    0.015446
  13 H :    0.016767
  14 H :    0.012359
  15 H :    0.015594
  16 H :    0.095279
  17 H :    0.009196
Sum of atomic charges:    0.0000000

LOEWDIN ATOMIC CHARGES
----------------------
   0 C :   -0.056994
   1 C :   -0.050763
   2 C :   -0.040083
   3 C :   -0.043374
   4 C :   -0.007152
   5 N :   -0.088605
   6 C :   -0.000197
   7 H :    0.026488
   8 H :    0.022629
   9 H :    0.028025
  10 H :    0.029519
  11 H :    0.018674
  12 H :    0.029091
  13 H :    0.026024
  14 H :    0.029982
  15 H :    0.017046
  16 H :    0.043200
  17 H :    0.016489

  Mayer bond orders larger than 0.1
B(  0-C ,  1-C ) :   1.0987 B(  0-C ,  7-H ) :   0.9580 B(  0-C ,  8-H ) :   0.9538
B(  0-C ,  9-H ) :   0.9571 B(  1-C ,  2-C ) :   1.0344 B(  1-C ,  6-C ) :   1.0067
B(  1-C , 10-H ) :   0.8979 B(  2-C ,  3-C ) :   1.0779 B(  2-C , 11-H ) :   0.9266
B(  2-C , 12-H ) :   0.9249 B(  3-C ,  4-C ) :   1.0318 B(  3-C , 13-H ) :   0.9283
B(  3-C , 14-H ) :   0.9150 B(  4-C ,  5-N ) :   1.0061 B(  4-C ,  6-C ) :   0.9831
B(  4-C , 15-H ) :   0.9489 B(  5-N ,  6-C ) :   1.0153 B(  5-N , 16-H ) :   0.9450
B(  6-C , 17-H ) :   0.9492

FINAL SINGLE POINT ENERGY      -289.379196034062

DIPOLE MOMENT
-------------
                                X             Y             Z
Electronic contribution:      1.16362       1.23598      -3.61340
Nuclear contribution   :     -1.00385      -1.65929       4.15517
                        -----------------------------------------
Total Dipole Moment    :      0.15977      -0.42331       0.54177
                        -----------------------------------------
Magnitude (a.u.)       :      0.70585
Magnitude (Debye)      :      1.79413

                             ****ORCA TERMINATED NORMALLY****
TOTAL RUN TIME: 0 days 0 hours 0 minutes 8 seconds 15 msec
