                         Program Version 3.0.3 - RELEASE   -
|  1> ! RI PBE def2-SVP def2-SVP/J NBO PAL2
|  2> % maxcore 2000
|  3> % output
|  4>     # printlevel mini
|  5>     print[ P_Basis ] 0
|  6>     print[ P_SCFInfo ] 1
|  7>     print[ P_SCFIterInfo ] 1
|  8>     print[ P_OrbEn ] 0
|  9>     print[ P_Cartesian ] 0
| 10> end
| 11> *xyz 0 1
| 12>  C        1.2747010000     0.2344650000     0.6565630000
| 13>  C        2.3228630000     0.0262520000    -0.1314420000
| 14>  C        2.7902280000    -1.3038030000    -0.6753090000
| 15>  C        4.3094750000    -1.1427100000    -0.8507470000
| 16>  C        4.5211890000     0.3450720000    -1.0161150000
| 17>  N        3.6895550000     1.0475920000    -1.9722160000
| 18>  C        3.2956400000     1.0541610000    -0.5586030000
| 19>  H        0.6398580000    -0.5813750000     0.9836210000
| 20>  H        1.0195860000     1.2298650000     1.0026110000
| 21>  H        2.3055890000    -1.5126050000    -1.6350030000
| 22>  H        2.5263730000    -2.1306590000    -0.0148910000
| 23>  H        4.7052310000    -1.7206520000    -1.6905760000
| 24>  H        4.8343550000    -1.4758630000     0.0495190000
| 25>  H        5.5112890000     0.7637310000    -0.8701800000
| 26>  H        3.1112190000     0.4074160000    -2.5070600000
| 27>  H        3.3092280000     2.0235150000    -0.0738710000
| 28> *
| 29>
| 30>                          ****END OF INPUT****
 Total Charge           Charge          ....    0
 Multiplicity           Mult            ....    1
 Number of Electrons    NEL             ....   52
 Basis Dimension        Dim             ....  143

MULLIKEN ATOMIC CHARGES
-----------------------
   0 C :   -0.056380
   1 C :   -0.030618
   2 C :   -0.024125
   3 C :    0.123684
   4 C :   -0.097072
   5 N :   -0.123295
   6 C :   -0.024542
   7 H :    0.004092
   8 H :    0.006348
   9 H :    0.036169
  10 H :    0.021224
  11 H :    0.016433
  12 H :    0.022049
  13 H :    0.019782
  14 H :    0.101735
  15 H :    0.004517
Sum of atomic charges:    0.0000000

LOEWDIN ATOMIC CHARGES
----------------------
   0 C :   -0.078193
   1 C :   -0.039927
   2 C :   -0.039122
   3 C :   -0.040642
   4 C :    0.000897
   5 N :   -0.076008
   6 C :    0.005460
   7 H :    0.021955
   8 H :    0.023490
   9 H :    0.033573
  10 H :    0.036596
  11 H :    0.027133
  12 H :    0.033418
  13 H :    0.020162
  14 H :    0.048858
  15 H :    0.022350

  Mayer bond orders larger than 0.1
B(  0-C ,  1-C ) :   1.9897 B(  0-C ,  7-H ) :   0.9212 B(  0-C ,  8-H ) :   0.9311
B(  1-C ,  2-C ) :   1.0099 B(  1-C ,  6-C ) :   1.0206 B(  2-C ,  3-C ) :   1.0711
B(  2-C ,  9-H ) :   0.9104 B(  2-C , 10-H ) :   0.9189 B(  3-C ,  4-C ) :   1.0473
B(  3-C , 11-H ) :   0.9236 B(  3-C , 12-H ) :   0.9188 B(  4-C ,  5-N ) :   1.0125
B(  4-C ,  6-C ) :   0.9345 B(  4-C , 13-H ) :   0.9414 B(  5-N ,  6-C ) :   0.9813
B(  5-N , 14-H ) :   0.9432 B(  6-C , 15-H ) :   0.9586

FINAL SINGLE POINT ENERGY      -288.160606588776

DIPOLE MOMENT
-------------
                                X             Y             Z
Electronic contribution:      0.58935       2.39704      -0.98627
Nuclear contribution   :     -0.58521      -3.00146       1.15339
                        -----------------------------------------
Total Dipole Moment    :      0.00414      -0.60442       0.16712
                        -----------------------------------------
Magnitude (a.u.)       :      0.62711
Magnitude (Debye)      :      1.59398

                             ****ORCA TERMINATED NORMALLY****
TOTAL RUN TIME: 0 days 0 hours 0 minutes 7 seconds 376 msec
