                         Program Version 3.0.3 - RELEASE   -
|  1> ! RI PBE def2-SVP def2-SVP/J NBO PAL2
|  2> % maxcore 2000
|  3> % output
|  4>     # printlevel mini
|  5>     print[ P_Basis ] 0
|  6>     print[ P_SCFInfo ] 1
|  7>     print[ P_SCFIterInfo ] 1
|  8>     print[ P_OrbEn ] 0
|  9>     print[ P_Cartesian ] 0
| 10> end
| 11> *xyz 0 1
| 12>  C        1.1103280000    -0.0401540000    -0.0521330000
| 13>  C        2.4323660000     0.1266760000    -0.0526760000
| 14>  C        3.1642050000     1.3800450000     0.1428930000
| 15>  C        4.4768160000     1.1950280000    -0.0490140000
| 16>  C        4.7739980000    -0.2377720000    -0.3182890000
| 17>  N        4.4451850000    -1.1736130000     0.7588170000
| 18>  C        3.4579450000    -0.9302150000    -0.2935790000
| 19>  H        0.4387710000     0.7910680000     0.1303130000
| 20>  H        0.6629280000    -1.0101220000    -0.2354530000
| 21>  H        2.6880920000     2.3090600000     0.4312080000
| 22>  H        5.2410570000     1.9587650000     0.0218870000
| 23>  H        5.5968080000    -0.5321530000    -0.9590770000
| 24>  H        4.1993790000    -0.6542270000     1.5971510000
| 25>  H        3.2193130000    -1.7880740000    -0.9108290000
| 26> *
| 27>
| 28>                          ****END OF INPUT****
 Total Charge           Charge          ....    0
 Multiplicity           Mult            ....    1
 Number of Electrons    NEL             ....   50
 Basis Dimension        Dim             ....  133

MULLIKEN ATOMIC CHARGES
-----------------------
   0 C :   -0.044385
   1 C :    0.045339
   2 C :   -0.023427
   3 C :    0.045788
   4 C :   -0.025686
   5 N :   -0.128009
   6 C :   -0.035000
   7 H :    0.015340
   8 H :    0.018196
   9 H :   -0.015453
  10 H :   -0.001045
  11 H :    0.024154
  12 H :    0.107041
  13 H :    0.017147
Sum of atomic charges:    0.0000000

LOEWDIN ATOMIC CHARGES
----------------------
   0 C :   -0.049022
   1 C :   -0.041285
   2 C :   -0.026997
   3 C :   -0.026615
   4 C :   -0.002764
   5 N :   -0.070033
   6 C :    0.008999
   7 H :    0.026348
   8 H :    0.027218
   9 H :    0.026138
  10 H :    0.027274
  11 H :    0.023708
  12 H :    0.051800
  13 H :    0.025231

  Mayer bond orders larger than 0.1
B(  0-C ,  1-C ) :   1.9061 B(  0-C ,  3-C ) :   0.1279 B(  0-C ,  7-H ) :   0.9258
B(  0-C ,  8-H ) :   0.9330 B(  1-C ,  2-C ) :   1.0490 B(  1-C ,  6-C ) :   0.9874
B(  2-C ,  3-C ) :   1.6808 B(  2-C ,  9-H ) :   0.9915 B(  3-C ,  4-C ) :   1.0006
B(  3-C , 10-H ) :   0.9980 B(  4-C ,  5-N ) :   0.9897 B(  4-C ,  6-C ) :   0.9497
B(  4-C , 11-H ) :   0.9446 B(  5-N ,  6-C ) :   0.9947 B(  5-N , 12-H ) :   0.9386
B(  6-C , 13-H ) :   0.9493

FINAL SINGLE POINT ENERGY      -286.943724124638

DIPOLE MOMENT
-------------
                                X             Y             Z
Electronic contribution:      1.53056      -0.31494       0.09342
Nuclear contribution   :     -1.71354       0.81908      -0.15282
                        -----------------------------------------
Total Dipole Moment    :     -0.18298       0.50413      -0.05940
                        -----------------------------------------
Magnitude (a.u.)       :      0.53959
Magnitude (Debye)      :      1.37154

                             ****ORCA TERMINATED NORMALLY****
TOTAL RUN TIME: 0 days 0 hours 0 minutes 7 seconds 89 msec
