                         Program Version 3.0.3 - RELEASE   -
|  1> ! RI PBE def2-SVP def2-SVP/J NBO PAL2
|  2> % maxcore 2000
|  3> % output
|  4>     # printlevel mini
|  5>     print[ P_Basis ] 0
|  6>     print[ P_SCFInfo ] 1
|  7>     print[ P_SCFIterInfo ] 1
|  8>     print[ P_OrbEn ] 0
|  9>     print[ P_Cartesian ] 0
| 10> end
| 11> *xyz 0 1
| 12>  C        1.1126350000    -0.0561400000     0.0230410000
| 13>  C        2.5741100000     0.2120980000    -0.0338400000
| 14>  C        3.2035200000     1.3743970000     0.1572470000
| 15>  C        4.6904890000     1.2589600000    -0.0303110000
| 16>  C        4.9070800000    -0.2269150000    -0.2409060000
| 17>  N        4.5053120000    -1.1443060000     0.8128110000
| 18>  C        3.5687860000    -0.8712000000    -0.2837970000
| 19>  H        0.5457840000     0.8524650000     0.2308950000
| 20>  H        0.8758710000    -0.7967410000     0.7938490000
| 21>  H        0.7567010000    -0.4693640000    -0.9264530000
| 22>  H        2.7152460000     2.3002320000     0.4411060000
| 23>  H        5.2591090000     1.6444040000     0.8246340000
| 24>  H        5.0269570000     1.8268350000    -0.9054580000
| 25>  H        5.7387670000    -0.5661200000    -0.8476110000
| 26>  H        4.2111700000    -0.6282460000     1.6379610000
| 27>  H        3.3212620000    -1.7220590000    -0.9097780000
| 28> *
| 29>
| 30>                          ****END OF INPUT****
 Total Charge           Charge          ....    0
 Multiplicity           Mult            ....    1
 Number of Electrons    NEL             ....   52
 Basis Dimension        Dim             ....  143

MULLIKEN ATOMIC CHARGES
-----------------------
   0 C :    0.091671
   1 C :   -0.034504
   2 C :   -0.185817
   3 C :    0.176005
   4 C :   -0.098291
   5 N :   -0.132905
   6 C :   -0.055845
   7 H :    0.014357
   8 H :    0.033151
   9 H :    0.029172
  10 H :   -0.021900
  11 H :    0.029630
  12 H :    0.029980
  13 H :    0.017726
  14 H :    0.099016
  15 H :    0.008553
Sum of atomic charges:   -0.0000000

LOEWDIN ATOMIC CHARGES
----------------------
   0 C :   -0.057289
   1 C :   -0.051129
   2 C :   -0.053351
   3 C :   -0.043888
   4 C :    0.001103
   5 N :   -0.082232
   6 C :    0.000638
   7 H :    0.033109
   8 H :    0.038451
   9 H :    0.039113
  10 H :    0.017419
  11 H :    0.035829
  12 H :    0.037885
  13 H :    0.019164
  14 H :    0.047692
  15 H :    0.017486

  Mayer bond orders larger than 0.1
B(  0-C ,  1-C ) :   1.1220 B(  0-C ,  7-H ) :   0.9475 B(  0-C ,  8-H ) :   0.9391
B(  0-C ,  9-H ) :   0.9371 B(  1-C ,  2-C ) :   1.7782 B(  1-C ,  6-C ) :   0.9882
B(  2-C ,  3-C ) :   1.0025 B(  2-C , 10-H ) :   0.9749 B(  3-C ,  4-C ) :   1.0328
B(  3-C , 11-H ) :   0.9034 B(  3-C , 12-H ) :   0.9091 B(  4-C ,  5-N ) :   1.0143
B(  4-C ,  6-C ) :   0.9733 B(  4-C , 13-H ) :   0.9404 B(  5-N ,  6-C ) :   0.9960
B(  5-N , 14-H ) :   0.9417 B(  6-C , 15-H ) :   0.9576

FINAL SINGLE POINT ENERGY      -288.162942578409

DIPOLE MOMENT
-------------
                                X             Y             Z
Electronic contribution:      2.49972      -1.17346       0.18542
Nuclear contribution   :     -2.82640       1.68514      -0.28294
                        -----------------------------------------
Total Dipole Moment    :     -0.32668       0.51168      -0.09753
                        -----------------------------------------
Magnitude (a.u.)       :      0.61485
Magnitude (Debye)      :      1.56284

                             ****ORCA TERMINATED NORMALLY****
TOTAL RUN TIME: 0 days 0 hours 0 minutes 7 seconds 337 msec
