                         Program Version 3.0.3 - RELEASE   -
|  1> ! RI PBE def2-SVP def2-SVP/J NBO PAL2
|  2> % maxcore 2000
|  3> % output
|  4>     # printlevel mini
|  5>     print[ P_Basis ] 0
|  6>     print[ P_SCFInfo ] 1
|  7>     print[ P_SCFIterInfo ] 1
|  8>     print[ P_OrbEn ] 0
|  9>     print[ P_Cartesian ] 0
| 10> end
| 11> *xyz 0 1
| 12>  C        0.9215110000    -0.2079720000    -0.0338960000
| 13>  C        2.4198700000     0.0565900000     0.0510920000
| 14>  C        2.7922510000     1.3215580000     0.7840440000
| 15>  C        3.7340040000     1.1136740000     1.7026850000
| 16>  C        4.0746650000    -0.3298820000     1.7974530000
| 17>  N        2.9766210000    -1.2107780000     2.2146690000
| 18>  C        3.2145120000    -1.0089010000     0.7944170000
| 19>  H        0.4075110000     0.6114790000    -0.5419360000
| 20>  H        0.4791710000    -0.3106000000     0.9604670000
| 21>  H        0.7178120000    -1.1267070000    -0.5883150000
| 22>  H        2.8107980000     0.1168120000    -0.9738120000
| 23>  H        2.3090310000     2.2720410000     0.5857750000
| 24>  H        4.1735510000     1.8725600000     2.3390440000
| 25>  H        5.0704410000    -0.6604800000     2.0689920000
| 26>  H        2.1969320000    -0.6429220000     2.5350390000
| 27>  H        3.5325010000    -1.8959720000     0.2578910000
| 28> *
| 29>
| 30>                          ****END OF INPUT****
 Total Charge           Charge          ....    0
 Multiplicity           Mult            ....    1
 Number of Electrons    NEL             ....   52
 Basis Dimension        Dim             ....  143

MULLIKEN ATOMIC CHARGES
-----------------------
   0 C :    0.038982
   1 C :    0.002179
   2 C :   -0.069979
   3 C :    0.050643
   4 C :   -0.030704
   5 N :   -0.136946
   6 C :   -0.054042
   7 H :    0.024448
   8 H :    0.013429
   9 H :    0.024396
  10 H :    0.026105
  11 H :   -0.010484
  12 H :   -0.009127
  13 H :    0.016114
  14 H :    0.098571
  15 H :    0.016416
Sum of atomic charges:   -0.0000000

LOEWDIN ATOMIC CHARGES
----------------------
   0 C :   -0.052583
   1 C :   -0.048178
   2 C :   -0.027774
   3 C :   -0.042774
   4 C :   -0.001741
   5 N :   -0.080721
   6 C :    0.005910
   7 H :    0.028030
   8 H :    0.022560
   9 H :    0.030430
  10 H :    0.039867
  11 H :    0.020364
  12 H :    0.024758
  13 H :    0.018753
  14 H :    0.044304
  15 H :    0.018796

  Mayer bond orders larger than 0.1
B(  0-C ,  1-C ) :   1.0731 B(  0-C ,  7-H ) :   0.9607 B(  0-C ,  8-H ) :   0.9584
B(  0-C ,  9-H ) :   0.9602 B(  1-C ,  2-C ) :   0.9873 B(  1-C ,  6-C ) :   1.0004
B(  1-C , 10-H ) :   0.8856 B(  2-C ,  3-C ) :   1.7931 B(  2-C , 11-H ) :   0.9798
B(  3-C ,  4-C ) :   0.9952 B(  3-C , 12-H ) :   0.9975 B(  4-C ,  5-N ) :   0.9853
B(  4-C ,  6-C ) :   0.9741 B(  4-C , 13-H ) :   0.9523 B(  5-N ,  6-C ) :   1.0179
B(  5-N , 14-H ) :   0.9405 B(  6-C , 15-H ) :   0.9448

FINAL SINGLE POINT ENERGY      -288.156361265289

DIPOLE MOMENT
-------------
                                X             Y             Z
Electronic contribution:      3.40632      -0.20608       2.15273
Nuclear contribution   :     -3.57153       0.69181      -2.53993
                        -----------------------------------------
Total Dipole Moment    :     -0.16521       0.48573      -0.38720
                        -----------------------------------------
Magnitude (a.u.)       :      0.64277
Magnitude (Debye)      :      1.63379

                             ****ORCA TERMINATED NORMALLY****
TOTAL RUN TIME: 0 days 0 hours 0 minutes 7 seconds 388 msec
