                         Program Version 3.0.3 - RELEASE   -
|  1> ! RI PBE def2-SVP def2-SVP/J NBO PAL2
|  2> % maxcore 2000
|  3> % output
|  4>     # printlevel mini
|  5>     print[ P_Basis ] 0
|  6>     print[ P_SCFInfo ] 1
|  7>     print[ P_SCFIterInfo ] 1
|  8>     print[ P_OrbEn ] 0
|  9>     print[ P_Cartesian ] 0
| 10> end
| 11> *xyz 0 1
| 12>  C        1.1568510000     0.0512670000    -0.3632820000
| 13>  C        2.6407610000     0.0660190000    -0.0631170000
| 14>  C        3.0945940000     1.1844440000     0.8693990000
| 15>  C        4.4725900000     0.7376980000     1.3957980000
| 16>  C        4.5620120000    -0.7709330000     1.1019960000
| 17>  C        3.1640180000    -1.1881020000     0.6524590000
| 18>  N        3.1751730000    -2.4401190000    -0.0750850000
| 19>  H        0.8386180000     0.9658000000    -0.8702820000
| 20>  H        0.5759650000    -0.0344470000     0.5609860000
| 21>  H        0.8851370000    -0.7890730000    -1.0093680000
| 22>  H        3.1978020000     0.1482770000    -1.0088730000
| 23>  H        2.3804550000     1.2661130000     1.6966020000
| 24>  H        3.1212510000     2.1610650000     0.3805920000
| 25>  H        4.5747550000     0.9495360000     2.4619400000
| 26>  H        5.2780410000     1.2790090000     0.8949950000
| 27>  H        4.9115110000    -1.3604260000     1.9508520000
| 28>  H        5.2604750000    -0.9622620000     0.2796840000
| 29>  H        2.5366090000    -1.3403230000     1.5425500000
| 30>  H        3.7186370000    -2.3472390000    -0.9264490000
| 31>  H        2.2382360000    -2.7129030000    -0.3452960000
| 32> *
| 33>
| 34>                          ****END OF INPUT****
 Total Charge           Charge          ....    0
 Multiplicity           Mult            ....    1
 Number of Electrons    NEL             ....   56
 Basis Dimension        Dim             ....  163

MULLIKEN ATOMIC CHARGES
-----------------------
   0 C :    0.058542
   1 C :   -0.122158
   2 C :    0.038480
   3 C :    0.017288
   4 C :    0.064066
   5 C :   -0.091823
   6 N :   -0.137599
   7 H :    0.019358
   8 H :    0.007762
   9 H :   -0.001608
  10 H :   -0.017239
  11 H :   -0.001226
  12 H :    0.001660
  13 H :    0.002367
  14 H :    0.000948
  15 H :    0.010417
  16 H :   -0.011892
  17 H :   -0.002698
  18 H :    0.082342
  19 H :    0.083012
Sum of atomic charges:    0.0000000

LOEWDIN ATOMIC CHARGES
----------------------
   0 C :   -0.062840
   1 C :   -0.062936
   2 C :   -0.036831
   3 C :   -0.041768
   4 C :   -0.040259
   5 C :   -0.004151
   6 N :   -0.089170
   7 H :    0.027703
   8 H :    0.023868
   9 H :    0.017114
  10 H :    0.015838
  11 H :    0.021579
  12 H :    0.021465
  13 H :    0.024048
  14 H :    0.024055
  15 H :    0.026164
  16 H :    0.020280
  17 H :    0.018756
  18 H :    0.048078
  19 H :    0.049008

  Mayer bond orders larger than 0.1
B(  0-C ,  1-C ) :   1.0959 B(  0-C ,  7-H ) :   0.9599 B(  0-C ,  8-H ) :   0.9514
B(  0-C ,  9-H ) :   0.9474 B(  1-C ,  2-C ) :   1.0629 B(  1-C ,  5-C ) :   0.9788
B(  1-C , 10-H ) :   0.8943 B(  2-C ,  3-C ) :   1.1302 B(  2-C , 11-H ) :   0.9179
B(  2-C , 12-H ) :   0.9278 B(  3-C ,  4-C ) :   1.1232 B(  3-C , 13-H ) :   0.9265
B(  3-C , 14-H ) :   0.9223 B(  4-C ,  5-C ) :   1.0868 B(  4-C , 15-H ) :   0.9273
B(  4-C , 16-H ) :   0.9106 B(  5-C ,  6-N ) :   1.1392 B(  5-C , 17-H ) :   0.9015
B(  6-N , 18-H ) :   0.9614 B(  6-N , 19-H ) :   0.9651

FINAL SINGLE POINT ENERGY      -290.604872563272

DIPOLE MOMENT
-------------
                                X             Y             Z
Electronic contribution:      1.30687      -1.56514       0.29921
Nuclear contribution   :     -1.49152       1.81197      -0.61508
                        -----------------------------------------
Total Dipole Moment    :     -0.18465       0.24683      -0.31587
                        -----------------------------------------
Magnitude (a.u.)       :      0.44136
Magnitude (Debye)      :      1.12184

                             ****ORCA TERMINATED NORMALLY****
TOTAL RUN TIME: 0 days 0 hours 0 minutes 8 seconds 723 msec
