                         Program Version 3.0.3 - RELEASE   -
|  1> ! RI PBE def2-SVP def2-SVP/J NBO PAL2
|  2> % maxcore 2000
|  3> % output
|  4>     # printlevel mini
|  5>     print[ P_Basis ] 0
|  6>     print[ P_SCFInfo ] 1
|  7>     print[ P_SCFIterInfo ] 1
|  8>     print[ P_OrbEn ] 0
|  9>     print[ P_Cartesian ] 0
| 10> end
| 11> *xyz 0 1
| 12>  C        1.1002740000     0.0654960000    -0.0052740000
| 13>  C        2.5839960000     0.0187550000    -0.0689170000
| 14>  C        3.3652110000    -1.0583740000    -0.1066260000
| 15>  C        4.8256340000    -0.7183390000    -0.0771170000
| 16>  C        4.8252010000     0.7854580000    -0.3759680000
| 17>  C        3.4130530000     1.2834270000    -0.0094970000
| 18>  N        2.8601680000     2.3578480000    -0.8176710000
| 19>  H        0.6658380000    -0.9341400000    -0.0571840000
| 20>  H        0.6911770000     0.6750130000    -0.8147600000
| 21>  H        0.7698260000     0.5389490000     0.9257790000
| 22>  H        2.9989430000    -2.0797580000    -0.1011460000
| 23>  H        5.4181170000    -1.2944560000    -0.7942150000
| 24>  H        5.2495500000    -0.9320840000     0.9126660000
| 25>  H        4.9651290000     0.9425230000    -1.4506860000
| 26>  H        5.6177020000     1.3330550000     0.1391400000
| 27>  H        3.3977750000     1.6481740000     1.0285090000
| 28>  H        2.9468730000     2.1328900000    -1.8029570000
| 29>  H        3.3700440000     3.2187620000    -0.6642850000
| 30> *
| 31>
| 32>                          ****END OF INPUT****
 Total Charge           Charge          ....    0
 Multiplicity           Mult            ....    1
 Number of Electrons    NEL             ....   54
 Basis Dimension        Dim             ....  153

MULLIKEN ATOMIC CHARGES
-----------------------
   0 C :    0.114991
   1 C :   -0.150635
   2 C :   -0.103400
   3 C :    0.051465
   4 C :    0.049009
   5 C :   -0.012948
   6 N :   -0.160432
   7 H :    0.006219
   8 H :    0.023082
   9 H :    0.019158
  10 H :   -0.031765
  11 H :    0.014669
  12 H :    0.018903
  13 H :   -0.008767
  14 H :   -0.004779
  15 H :    0.005868
  16 H :    0.082973
  17 H :    0.086389
Sum of atomic charges:    0.0000000

LOEWDIN ATOMIC CHARGES
----------------------
   0 C :   -0.056227
   1 C :   -0.047016
   2 C :   -0.051408
   3 C :   -0.041238
   4 C :   -0.047093
   5 C :    0.001796
   6 N :   -0.092243
   7 H :    0.028580
   8 H :    0.035216
   9 H :    0.038172
  10 H :    0.015818
  11 H :    0.025021
  12 H :    0.028639
  13 H :    0.019694
  14 H :    0.018153
  15 H :    0.025075
  16 H :    0.047445
  17 H :    0.051614

  Mayer bond orders larger than 0.1
B(  0-C ,  1-C ) :   1.1149 B(  0-C ,  7-H ) :   0.9488 B(  0-C ,  8-H ) :   0.9324
B(  0-C ,  9-H ) :   0.9337 B(  1-C ,  2-C ) :   1.8419 B(  1-C ,  5-C ) :   1.0047
B(  2-C ,  3-C ) :   1.0191 B(  2-C , 10-H ) :   0.9829 B(  3-C ,  4-C ) :   1.0980
B(  3-C , 11-H ) :   0.9287 B(  3-C , 12-H ) :   0.9116 B(  4-C ,  5-C ) :   1.0516
B(  4-C , 13-H ) :   0.9218 B(  4-C , 14-H ) :   0.9233 B(  5-C ,  6-N ) :   1.1305
B(  5-C , 15-H ) :   0.8786 B(  6-N , 16-H ) :   0.9648 B(  6-N , 17-H ) :   0.9664

FINAL SINGLE POINT ENERGY      -289.392367093884

DIPOLE MOMENT
-------------
                                X             Y             Z
Electronic contribution:      0.27365      -0.25000       0.08054
Nuclear contribution   :      0.07858       0.38489      -0.19262
                        -----------------------------------------
Total Dipole Moment    :      0.35224       0.13489      -0.11209
                        -----------------------------------------
Magnitude (a.u.)       :      0.39348
Magnitude (Debye)      :      1.00016

                             ****ORCA TERMINATED NORMALLY****
TOTAL RUN TIME: 0 days 0 hours 0 minutes 8 seconds 58 msec
