                         Program Version 3.0.3 - RELEASE   -
|  1> ! RI PBE def2-SVP def2-SVP/J NBO PAL2
|  2> % maxcore 2000
|  3> % output
|  4>     # printlevel mini
|  5>     print[ P_Basis ] 0
|  6>     print[ P_SCFInfo ] 1
|  7>     print[ P_SCFIterInfo ] 1
|  8>     print[ P_OrbEn ] 0
|  9>     print[ P_Cartesian ] 0
| 10> end
| 11> *xyz 0 1
| 12>  C        0.9168840000     0.0381790000    -0.0949070000
| 13>  C        2.4004170000     0.0270990000    -0.0764340000
| 14>  C        3.2470890000     1.0615350000     0.0338120000
| 15>  C        4.6291330000     0.5763410000    -0.0091490000
| 16>  C        4.6302140000    -0.7541690000    -0.1485870000
| 17>  C        3.2142240000    -1.2512370000    -0.1644790000
| 18>  N        2.9409510000    -2.1751970000    -1.2535940000
| 19>  H        0.5261700000     1.0562190000    -0.0596100000
| 20>  H        0.4983830000    -0.5125600000     0.7546990000
| 21>  H        0.5264590000    -0.4394520000    -1.0013620000
| 22>  H        2.9658760000     2.1031170000     0.1376370000
| 23>  H        5.5027680000     1.2111790000     0.0686870000
| 24>  H        5.4847630000    -1.4124020000    -0.2209810000
| 25>  H        3.0515650000    -1.8002460000     0.7780060000
| 26>  H        3.0679570000    -1.7019760000    -2.1409280000
| 27>  H        1.9803370000    -2.4949390000    -1.2182190000
| 28> *
| 29>
| 30>                          ****END OF INPUT****
 Total Charge           Charge          ....    0
 Multiplicity           Mult            ....    1
 Number of Electrons    NEL             ....   52
 Basis Dimension        Dim             ....  143

MULLIKEN ATOMIC CHARGES
-----------------------
   0 C :    0.094417
   1 C :   -0.148081
   2 C :   -0.028978
   3 C :    0.025338
   4 C :   -0.039652
   5 C :    0.061349
   6 N :   -0.172712
   7 H :    0.015740
   8 H :    0.027390
   9 H :    0.008861
  10 H :   -0.032921
  11 H :   -0.019873
  12 H :   -0.012530
  13 H :    0.038274
  14 H :    0.093828
  15 H :    0.089550
Sum of atomic charges:   -0.0000000

LOEWDIN ATOMIC CHARGES
----------------------
   0 C :   -0.062396
   1 C :   -0.053377
   2 C :   -0.052019
   3 C :   -0.033128
   4 C :   -0.040794
   5 C :    0.005300
   6 N :   -0.082862
   7 H :    0.035210
   8 H :    0.036903
   9 H :    0.027254
  10 H :    0.017573
  11 H :    0.021775
  12 H :    0.022032
  13 H :    0.051559
  14 H :    0.056469
  15 H :    0.050500

  Mayer bond orders larger than 0.1
B(  0-C ,  1-C ) :   1.1145 B(  0-C ,  7-H ) :   0.9469 B(  0-C ,  8-H ) :   0.9396
B(  0-C ,  9-H ) :   0.9296 B(  1-C ,  2-C ) :   1.7294 B(  1-C ,  5-C ) :   0.9870
B(  2-C ,  3-C ) :   1.0549 B(  2-C , 10-H ) :   0.9979 B(  3-C ,  4-C ) :   1.7223
B(  3-C , 11-H ) :   0.9948 B(  4-C ,  5-C ) :   1.0151 B(  4-C , 12-H ) :   0.9980
B(  5-C ,  6-N ) :   1.1059 B(  5-C , 13-H ) :   0.8586 B(  6-N , 14-H ) :   0.9695
B(  6-N , 15-H ) :   0.9653

FINAL SINGLE POINT ENERGY      -288.174280079616

DIPOLE MOMENT
-------------
                                X             Y             Z
Electronic contribution:      3.38205       0.50660       0.33492
Nuclear contribution   :     -3.91580      -0.37104      -0.42013
                        -----------------------------------------
Total Dipole Moment    :     -0.53374       0.13556      -0.08522
                        -----------------------------------------
Magnitude (a.u.)       :      0.55724
Magnitude (Debye)      :      1.41640

                             ****ORCA TERMINATED NORMALLY****
TOTAL RUN TIME: 0 days 0 hours 0 minutes 7 seconds 261 msec
