                         Program Version 3.0.3 - RELEASE   -
|  1> ! RI PBE def2-SVP def2-SVP/J NBO PAL2
|  2> % maxcore 2000
|  3> % output
|  4>     # printlevel mini
|  5>     print[ P_Basis ] 0
|  6>     print[ P_SCFInfo ] 1
|  7>     print[ P_SCFIterInfo ] 1
|  8>     print[ P_OrbEn ] 0
|  9>     print[ P_Cartesian ] 0
| 10> end
| 11> *xyz 0 1
| 12>  C        0.8887110000    -0.1275320000     0.0451830000
| 13>  C        2.3989230000    -0.0815740000    -0.0463170000
| 14>  C        2.8515530000    -0.0261070000    -1.4940780000
| 15>  C        3.1267860000     0.9762670000     0.8195270000
| 16>  C        4.1765480000    -0.0834360000     1.2008640000
| 17>  C        3.1767240000    -1.1659100000     0.7804830000
| 18>  N        3.7061240000    -2.3772700000     0.2166540000
| 19>  H        0.4331590000     0.7534880000    -0.4180740000
| 20>  H        0.5572110000    -0.1659240000     1.0865990000
| 21>  H        0.4892800000    -1.0094700000    -0.4670610000
| 22>  H        2.4327900000     0.8534470000    -1.9912510000
| 23>  H        2.5194890000    -0.9096140000    -2.0481210000
| 24>  H        3.9399090000     0.0359920000    -1.5840440000
| 25>  H        2.5217690000     1.2766830000     1.6784040000
| 26>  H        3.4784790000     1.8757140000     0.3098510000
| 27>  H        4.5459850000    -0.1068430000     2.2267770000
| 28>  H        5.0367810000    -0.0617610000     0.5267230000
| 29>  H        2.5569170000    -1.4408970000     1.6408710000
| 30>  H        4.2366280000    -2.1911910000    -0.6254590000
| 31>  H        2.9738140000    -3.0352620000    -0.0184420000
| 32> *
| 33>
| 34>                          ****END OF INPUT****
 Total Charge           Charge          ....    0
 Multiplicity           Mult            ....    1
 Number of Electrons    NEL             ....   56
 Basis Dimension        Dim             ....  163

MULLIKEN ATOMIC CHARGES
-----------------------
   0 C :    0.091333
   1 C :   -0.368816
   2 C :    0.069450
   3 C :    0.103028
   4 C :    0.057261
   5 C :   -0.038903
   6 N :   -0.121373
   7 H :    0.013656
   8 H :    0.003210
   9 H :    0.005434
  10 H :    0.015161
  11 H :    0.002668
  12 H :    0.004252
  13 H :   -0.001639
  14 H :   -0.002547
  15 H :    0.005812
  16 H :    0.000537
  17 H :   -0.010497
  18 H :    0.081588
  19 H :    0.090385
Sum of atomic charges:    0.0000000

LOEWDIN ATOMIC CHARGES
----------------------
   0 C :   -0.056850
   1 C :   -0.078949
   2 C :   -0.054666
   3 C :   -0.024788
   4 C :   -0.033844
   5 C :    0.004532
   6 N :   -0.085569
   7 H :    0.025081
   8 H :    0.020286
   9 H :    0.022386
  10 H :    0.027616
  11 H :    0.018050
  12 H :    0.020166
  13 H :    0.021646
  14 H :    0.014704
  15 H :    0.017915
  16 H :    0.020360
  17 H :    0.019713
  18 H :    0.048159
  19 H :    0.054051

  Mayer bond orders larger than 0.1
B(  0-C ,  1-C ) :   1.0734 B(  0-C ,  7-H ) :   0.9573 B(  0-C ,  8-H ) :   0.9471
B(  0-C ,  9-H ) :   0.9549 B(  1-C ,  2-C ) :   1.0418 B(  1-C ,  3-C ) :   1.0529
B(  1-C ,  5-C ) :   0.9407 B(  2-C , 10-H ) :   0.9507 B(  2-C , 11-H ) :   0.9474
B(  2-C , 12-H ) :   0.9516 B(  3-C ,  4-C ) :   1.1296 B(  3-C , 13-H ) :   0.9147
B(  3-C , 14-H ) :   0.9214 B(  4-C ,  5-C ) :   1.0942 B(  4-C , 15-H ) :   0.9191
B(  4-C , 16-H ) :   0.9105 B(  5-C ,  6-N ) :   1.1955 B(  5-C , 17-H ) :   0.8972
B(  6-N , 18-H ) :   0.9544 B(  6-N , 19-H ) :   0.9659

FINAL SINGLE POINT ENERGY      -290.581247791602

DIPOLE MOMENT
-------------
                                X             Y             Z
Electronic contribution:      1.59049      -1.45704       1.68373
Nuclear contribution   :     -1.84125       1.47581      -2.04366
                        -----------------------------------------
Total Dipole Moment    :     -0.25076       0.01876      -0.35993
                        -----------------------------------------
Magnitude (a.u.)       :      0.43907
Magnitude (Debye)      :      1.11603

                             ****ORCA TERMINATED NORMALLY****
TOTAL RUN TIME: 0 days 0 hours 0 minutes 9 seconds 91 msec
