                         Program Version 3.0.3 - RELEASE   -
|  1> ! RI PBE def2-SVP def2-SVP/J NBO PAL2
|  2> % maxcore 2000
|  3> % output
|  4>     # printlevel mini
|  5>     print[ P_Basis ] 0
|  6>     print[ P_SCFInfo ] 1
|  7>     print[ P_SCFIterInfo ] 1
|  8>     print[ P_OrbEn ] 0
|  9>     print[ P_Cartesian ] 0
| 10> end
| 11> *xyz 0 1
| 12>  C        0.9905510000    -0.0597810000     0.0411110000
| 13>  C        2.4985510000    -0.0653540000    -0.1373990000
| 14>  C        3.0656160000    -1.2787700000    -0.8265170000
| 15>  C        4.1102570000    -0.9711880000    -1.5882290000
| 16>  C        4.4039240000     0.4992360000    -1.5305280000
| 17>  C        3.0867870000     1.0934990000    -0.9804530000
| 18>  N        2.1499100000     1.5050420000    -2.0138830000
| 19>  H        0.6827200000    -0.8888270000     0.6840760000
| 20>  H        0.4709100000    -0.1566070000    -0.9129010000
| 21>  H        0.6530630000     0.8708460000     0.5017340000
| 22>  H        2.9543180000    -0.0071390000     0.8625200000
| 23>  H        2.6782990000    -2.2794890000    -0.6678280000
| 24>  H        4.7066530000    -1.6808690000    -2.1500700000
| 25>  H        4.6733000000     0.9363490000    -2.4973550000
| 26>  H        5.2453500000     0.6933590000    -0.8511340000
| 27>  H        3.2752990000     1.9685390000    -0.3524890000
| 28>  H        1.9888950000     0.7381540000    -2.6588120000
| 29>  H        2.5455190000     2.2635010000    -2.5559530000
| 30> *
| 31>
| 32>                          ****END OF INPUT****
 Total Charge           Charge          ....    0
 Multiplicity           Mult            ....    1
 Number of Electrons    NEL             ....   54
 Basis Dimension        Dim             ....  153

MULLIKEN ATOMIC CHARGES
-----------------------
   0 C :    0.066793
   1 C :   -0.072395
   2 C :   -0.028916
   3 C :   -0.074998
   4 C :    0.122267
   5 C :   -0.064871
   6 N :   -0.143954
   7 H :    0.011742
   8 H :    0.010322
   9 H :    0.017286
  10 H :    0.019357
  11 H :   -0.018029
  12 H :   -0.013378
  13 H :   -0.009944
  14 H :    0.015519
  15 H :   -0.007446
  16 H :    0.084748
  17 H :    0.085897
Sum of atomic charges:   -0.0000000

LOEWDIN ATOMIC CHARGES
----------------------
   0 C :   -0.057831
   1 C :   -0.047872
   2 C :   -0.036833
   3 C :   -0.043075
   4 C :   -0.054857
   5 C :    0.013544
   6 N :   -0.087404
   7 H :    0.023116
   8 H :    0.023561
   9 H :    0.029935
  10 H :    0.034088
  11 H :    0.019624
  12 H :    0.019121
  13 H :    0.017051
  14 H :    0.031614
  15 H :    0.016750
  16 H :    0.049164
  17 H :    0.050304

  Mayer bond orders larger than 0.1
B(  0-C ,  1-C ) :   1.1056 B(  0-C ,  7-H ) :   0.9565 B(  0-C ,  8-H ) :   0.9512
B(  0-C ,  9-H ) :   0.9560 B(  1-C ,  2-C ) :   0.9869 B(  1-C ,  5-C ) :   1.0106
B(  1-C , 10-H ) :   0.8876 B(  2-C ,  3-C ) :   1.8431 B(  2-C , 11-H ) :   0.9911
B(  3-C ,  4-C ) :   1.0181 B(  3-C , 12-H ) :   0.9808 B(  4-C ,  5-C ) :   1.0402
B(  4-C , 13-H ) :   0.9249 B(  4-C , 14-H ) :   0.8980 B(  5-C ,  6-N ) :   1.1402
B(  5-C , 15-H ) :   0.9083 B(  6-N , 16-H ) :   0.9616 B(  6-N , 17-H ) :   0.9661

FINAL SINGLE POINT ENERGY      -289.384633089472

DIPOLE MOMENT
-------------
                                X             Y             Z
Electronic contribution:      1.88872      -0.80195      -0.80092
Nuclear contribution   :     -1.53561       0.80917       0.58921
                        -----------------------------------------
Total Dipole Moment    :      0.35310       0.00722      -0.21171
                        -----------------------------------------
Magnitude (a.u.)       :      0.41177
Magnitude (Debye)      :      1.04665

                             ****ORCA TERMINATED NORMALLY****
TOTAL RUN TIME: 0 days 0 hours 0 minutes 8 seconds 244 msec
