                         Program Version 3.0.3 - RELEASE   -
|  1> ! RI PBE def2-SVP def2-SVP/J NBO PAL2
|  2> % maxcore 2000
|  3> % output
|  4>     # printlevel mini
|  5>     print[ P_Basis ] 0
|  6>     print[ P_SCFInfo ] 1
|  7>     print[ P_SCFIterInfo ] 1
|  8>     print[ P_OrbEn ] 0
|  9>     print[ P_Cartesian ] 0
| 10> end
| 11> *xyz 0 1
| 12>  C        1.0705190000    -0.0646700000     0.1030740000
| 13>  C        2.5872840000    -0.1251140000     0.0071160000
| 14>  C        3.0443250000    -1.3517240000    -0.8086160000
| 15>  C        3.4313170000    -0.7704280000    -2.1346030000
| 16>  C        3.4634430000     0.5564330000    -2.1133450000
| 17>  C        3.1547210000     1.1091720000    -0.7519860000
| 18>  N        4.3469420000     1.7455170000    -0.2065860000
| 19>  H        0.6682240000    -0.9368400000     0.6248940000
| 20>  H        0.6237890000    -0.0377080000    -0.8957280000
| 21>  H        0.7406240000     0.8290960000     0.6400790000
| 22>  H        3.0066800000    -0.1465970000     1.0176610000
| 23>  H        2.2425430000    -2.0927240000    -0.8997850000
| 24>  H        3.8903570000    -1.8785800000    -0.3510100000
| 25>  H        3.6675440000    -1.3828590000    -2.9980830000
| 26>  H        3.7417220000     1.1962260000    -2.9423590000
| 27>  H        2.3868760000     1.8911640000    -0.8067090000
| 28>  H        5.1019530000     1.0729790000    -0.1374310000
| 29>  H        4.1697660000     2.1040480000     0.7242380000
| 30> *
| 31>
| 32>                          ****END OF INPUT****
 Total Charge           Charge          ....    0
 Multiplicity           Mult            ....    1
 Number of Electrons    NEL             ....   54
 Basis Dimension        Dim             ....  153

MULLIKEN ATOMIC CHARGES
-----------------------
   0 C :    0.032117
   1 C :   -0.103301
   2 C :    0.096850
   3 C :   -0.071195
   4 C :   -0.011759
   5 C :    0.002038
   6 N :   -0.155360
   7 H :    0.017644
   8 H :    0.019015
   9 H :    0.016471
  10 H :   -0.023960
  11 H :    0.014157
  12 H :    0.018332
  13 H :   -0.009445
  14 H :   -0.008859
  15 H :    0.001690
  16 H :    0.080661
  17 H :    0.084903
Sum of atomic charges:    0.0000000

LOEWDIN ATOMIC CHARGES
----------------------
   0 C :   -0.057994
   1 C :   -0.050723
   2 C :   -0.038646
   3 C :   -0.032756
   4 C :   -0.036279
   5 C :    0.000352
   6 N :   -0.092003
   7 H :    0.024201
   8 H :    0.026491
   9 H :    0.023214
  10 H :    0.014314
  11 H :    0.028498
  12 H :    0.029818
  13 H :    0.020817
  14 H :    0.022793
  15 H :    0.021665
  16 H :    0.047681
  17 H :    0.048556

  Mayer bond orders larger than 0.1
B(  0-C ,  1-C ) :   1.0674 B(  0-C ,  7-H ) :   0.9551 B(  0-C ,  8-H ) :   0.9609
B(  0-C ,  9-H ) :   0.9585 B(  1-C ,  2-C ) :   1.0445 B(  1-C ,  5-C ) :   0.9778
B(  1-C , 10-H ) :   0.9065 B(  2-C ,  3-C ) :   1.0318 B(  2-C , 11-H ) :   0.9237
B(  2-C , 12-H ) :   0.9103 B(  3-C ,  4-C ) :   1.8328 B(  3-C , 13-H ) :   0.9826
B(  4-C ,  5-C ) :   1.0153 B(  4-C , 14-H ) :   0.9880 B(  5-C ,  6-N ) :   1.1040
B(  5-C , 15-H ) :   0.9088 B(  6-N , 16-H ) :   0.9659 B(  6-N , 17-H ) :   0.9660

FINAL SINGLE POINT ENERGY      -289.384452599960

DIPOLE MOMENT
-------------
                                X             Y             Z
Electronic contribution:      2.66067       0.90785      -2.18963
Nuclear contribution   :     -2.69773      -1.24991       2.57345
                        -----------------------------------------
Total Dipole Moment    :     -0.03706      -0.34206       0.38382
                        -----------------------------------------
Magnitude (a.u.)       :      0.51546
Magnitude (Debye)      :      1.31021

                             ****ORCA TERMINATED NORMALLY****
TOTAL RUN TIME: 0 days 0 hours 0 minutes 8 seconds 170 msec
