                         Program Version 3.0.3 - RELEASE   -
|  1> ! RI PBE def2-SVP def2-SVP/J NBO PAL2
|  2> % maxcore 2000
|  3> % output
|  4>     # printlevel mini
|  5>     print[ P_Basis ] 0
|  6>     print[ P_SCFInfo ] 1
|  7>     print[ P_SCFIterInfo ] 1
|  8>     print[ P_OrbEn ] 0
|  9>     print[ P_Cartesian ] 0
| 10> end
| 11> *xyz 0 1
| 12>  C        0.9404910000     0.0949150000     0.0019630000
| 13>  C        2.4497030000     0.1176490000     0.0252060000
| 14>  C        3.1884760000     1.1618230000     0.8865580000
| 15>  C        4.2478440000     0.0933510000     1.2377080000
| 16>  C        5.4893380000     0.1538690000     0.3695060000
| 17>  C        3.2137740000    -0.9763670000     0.8126610000
| 18>  N        3.6972690000    -2.1915630000     0.2101920000
| 19>  H        0.5298440000     0.9798340000    -0.4926820000
| 20>  H        0.5361370000     0.0663450000     1.0186310000
| 21>  H        0.5632610000    -0.7830560000    -0.5317290000
| 22>  H        2.8382110000     0.1483360000    -0.9995060000
| 23>  H        2.5941820000     1.4511090000     1.7574830000
| 24>  H        3.5430100000     2.0677530000     0.3901250000
| 25>  H        4.5451000000     0.0465430000     2.2885830000
| 26>  H        5.2428240000     0.2552340000    -0.6922410000
| 27>  H        6.0985030000    -0.7452030000     0.4898050000
| 28>  H        6.1042320000     1.0158820000     0.6409960000
| 29>  H        2.6176240000    -1.2539350000     1.6891970000
| 30>  H        4.1383210000    -2.0068010000    -0.6823490000
| 31>  H        2.9437560000    -2.8467260000     0.0461150000
| 32> *
| 33>
| 34>                          ****END OF INPUT****
 Total Charge           Charge          ....    0
 Multiplicity           Mult            ....    1
 Number of Electrons    NEL             ....   56
 Basis Dimension        Dim             ....  163

MULLIKEN ATOMIC CHARGES
-----------------------
   0 C :    0.070503
   1 C :   -0.147070
   2 C :    0.118889
   3 C :   -0.137286
   4 C :    0.029400
   5 C :   -0.026296
   6 N :   -0.122868
   7 H :    0.019878
   8 H :    0.003705
   9 H :    0.009417
  10 H :   -0.018750
  11 H :   -0.004745
  12 H :   -0.003556
  13 H :   -0.004598
  14 H :    0.005297
  15 H :    0.029635
  16 H :    0.021032
  17 H :   -0.013523
  18 H :    0.080796
  19 H :    0.090140
Sum of atomic charges:   -0.0000000

LOEWDIN ATOMIC CHARGES
----------------------
   0 C :   -0.065645
   1 C :   -0.056406
   2 C :   -0.026741
   3 C :   -0.038004
   4 C :   -0.063974
   5 C :    0.001883
   6 N :   -0.090044
   7 H :    0.027301
   8 H :    0.021501
   9 H :    0.023463
  10 H :    0.015668
  11 H :    0.021377
  12 H :    0.014474
  13 H :    0.015746
  14 H :    0.019113
  15 H :    0.028607
  16 H :    0.028975
  17 H :    0.019925
  18 H :    0.048133
  19 H :    0.054648

  Mayer bond orders larger than 0.1
B(  0-C ,  1-C ) :   1.1013 B(  0-C ,  7-H ) :   0.9583 B(  0-C ,  8-H ) :   0.9495
B(  0-C ,  9-H ) :   0.9551 B(  1-C ,  2-C ) :   1.0886 B(  1-C ,  5-C ) :   1.0116
B(  1-C , 10-H ) :   0.8794 B(  2-C ,  3-C ) :   1.0874 B(  2-C , 11-H ) :   0.9091
B(  2-C , 12-H ) :   0.9201 B(  3-C ,  4-C ) :   1.0841 B(  3-C ,  5-C ) :   1.0317
B(  3-C , 13-H ) :   0.9038 B(  4-C , 14-H ) :   0.9568 B(  4-C , 15-H ) :   0.9502
B(  4-C , 16-H ) :   0.9545 B(  5-C ,  6-N ) :   1.1814 B(  5-C , 17-H ) :   0.8899
B(  6-N , 18-H ) :   0.9495 B(  6-N , 19-H ) :   0.9633

FINAL SINGLE POINT ENERGY      -290.580708634850

DIPOLE MOMENT
-------------
                                X             Y             Z
Electronic contribution:      0.49513      -1.50073       0.93697
Nuclear contribution   :     -0.77545       1.50467      -1.27954
                        -----------------------------------------
Total Dipole Moment    :     -0.28032       0.00395      -0.34257
                        -----------------------------------------
Magnitude (a.u.)       :      0.44266
Magnitude (Debye)      :      1.12515

                             ****ORCA TERMINATED NORMALLY****
TOTAL RUN TIME: 0 days 0 hours 0 minutes 8 seconds 992 msec
