                         Program Version 3.0.3 - RELEASE   -
|  1> ! RI PBE def2-SVP def2-SVP/J NBO PAL2
|  2> % maxcore 2000
|  3> % output
|  4>     # printlevel mini
|  5>     print[ P_Basis ] 0
|  6>     print[ P_SCFInfo ] 1
|  7>     print[ P_SCFIterInfo ] 1
|  8>     print[ P_OrbEn ] 0
|  9>     print[ P_Cartesian ] 0
| 10> end
| 11> *xyz 0 1
| 12>  C        1.0031750000    -0.1149020000     0.0804100000
| 13>  C        2.4943910000    -0.0422430000    -0.0194320000
| 14>  C        3.1647580000     1.1778920000    -0.0615520000
| 15>  C        4.5460720000     1.1885030000    -0.1541990000
| 16>  C        5.2205480000    -0.0198040000    -0.2022700000
| 17>  C        4.4689180000    -1.1842240000    -0.1545610000
| 18>  N        3.1453520000    -1.2054280000    -0.0658160000
| 19>  H        0.5503400000     0.8766040000     0.1134920000
| 20>  H        0.7126380000    -0.6649300000     0.9784550000
| 21>  H        0.5950880000    -0.6601220000    -0.7737780000
| 22>  H        2.6049040000     2.1052030000    -0.0218210000
| 23>  H        5.0875490000     2.1275380000    -0.1883280000
| 24>  H        6.3003860000    -0.0636310000    -0.2748120000
| 25>  H        4.9589910000    -2.1541640000    -0.1896970000
| 26> *
| 27>
| 28>                          ****END OF INPUT****
 Total Charge           Charge          ....    0
 Multiplicity           Mult            ....    1
 Number of Electrons    NEL             ....   50
 Basis Dimension        Dim             ....  133

MULLIKEN ATOMIC CHARGES
-----------------------
   0 C :    0.100160
   1 C :   -0.144331
   2 C :    0.014115
   3 C :    0.066588
   4 C :   -0.022868
   5 C :    0.032449
   6 N :   -0.093791
   7 H :    0.001755
   8 H :    0.039994
   9 H :    0.041070
  10 H :   -0.021827
  11 H :   -0.008348
  12 H :   -0.003152
  13 H :   -0.001816
Sum of atomic charges:   -0.0000000

LOEWDIN ATOMIC CHARGES
----------------------
   0 C :   -0.061195
   1 C :    0.002080
   2 C :   -0.047283
   3 C :   -0.002018
   4 C :   -0.055341
   5 C :    0.012334
   6 N :   -0.074064
   7 H :    0.027236
   8 H :    0.044013
   9 H :    0.044172
  10 H :    0.028013
  11 H :    0.031466
  12 H :    0.031330
  13 H :    0.019257

  Mayer bond orders larger than 0.1
B(  0-C ,  1-C ) :   1.0808 B(  0-C ,  7-H ) :   0.9475 B(  0-C ,  8-H ) :   0.9416
B(  0-C ,  9-H ) :   0.9419 B(  1-C ,  2-C ) :   1.3756 B(  1-C ,  6-N ) :   1.4946
B(  2-C ,  3-C ) :   1.4135 B(  2-C , 10-H ) :   0.9623 B(  3-C ,  4-C ) :   1.4078
B(  3-C , 11-H ) :   0.9745 B(  4-C ,  5-C ) :   1.3773 B(  4-C , 12-H ) :   0.9696
B(  5-C ,  6-N ) :   1.5443 B(  5-C , 13-H ) :   0.9667

FINAL SINGLE POINT ENERGY      -287.024320533212

DIPOLE MOMENT
-------------
                                X             Y             Z
Electronic contribution:      2.95564      -1.07123      -0.20281
Nuclear contribution   :     -2.76423       1.69109       0.18930
                        -----------------------------------------
Total Dipole Moment    :      0.19141       0.61987      -0.01351
                        -----------------------------------------
Magnitude (a.u.)       :      0.64889
Magnitude (Debye)      :      1.64934

                             ****ORCA TERMINATED NORMALLY****
TOTAL RUN TIME: 0 days 0 hours 0 minutes 6 seconds 279 msec
