                         Program Version 3.0.3 - RELEASE   -
|  1> ! RI PBE def2-SVP def2-SVP/J NBO PAL2
|  2> % maxcore 2000
|  3> % output
|  4>     # printlevel mini
|  5>     print[ P_Basis ] 0
|  6>     print[ P_SCFInfo ] 1
|  7>     print[ P_SCFIterInfo ] 1
|  8>     print[ P_OrbEn ] 0
|  9>     print[ P_Cartesian ] 0
| 10> end
| 11> *xyz 0 1
| 12>  C        0.9861620000     0.0000060000     0.2119940000
| 13>  C        2.5027800000    -0.0433460000     0.0227110000
| 14>  C        3.0104830000    -1.4429480000    -0.3214200000
| 15>  C        2.6848260000    -1.8411790000    -1.7558200000
| 16>  C        3.1861330000    -0.7816340000    -2.7273970000
| 17>  C        2.6441510000     0.5838760000    -2.3437990000
| 18>  N        3.0149680000     0.8930610000    -0.9738690000
| 19>  H        0.6778060000    -0.6686420000     1.0204320000
| 20>  H        0.4446320000    -0.2987060000    -0.6880120000
| 21>  H        0.6612540000     1.0106410000     0.4755600000
| 22>  H        2.9582680000     0.2462080000     0.9767570000
| 23>  H        2.5942440000    -2.1681200000     0.3842210000
| 24>  H        4.0974600000    -1.4507320000    -0.1908180000
| 25>  H        1.6020460000    -1.9625990000    -1.8777240000
| 26>  H        3.1293240000    -2.8144030000    -1.9838970000
| 27>  H        2.8930110000    -1.0235550000    -3.7532820000
| 28>  H        4.2806970000    -0.7456150000    -2.6974500000
| 29>  H        1.5530040000     0.5947440000    -2.5152320000
| 30>  H        3.0708800000     1.3553370000    -2.9910240000
| 31>  H        2.7345700000     1.8361250000    -0.7377320000
| 32> *
| 33>
| 34>                          ****END OF INPUT****
 Total Charge           Charge          ....    0
 Multiplicity           Mult            ....    1
 Number of Electrons    NEL             ....   56
 Basis Dimension        Dim             ....  163

MULLIKEN ATOMIC CHARGES
-----------------------
   0 C :    0.024943
   1 C :   -0.049907
   2 C :    0.030133
   3 C :   -0.008087
   4 C :   -0.007474
   5 C :    0.094336
   6 N :   -0.225070
   7 H :    0.010505
   8 H :    0.021562
   9 H :    0.005820
  10 H :   -0.008216
  11 H :    0.004851
  12 H :    0.009258
  13 H :    0.000905
  14 H :    0.004394
  15 H :    0.002772
  16 H :    0.011145
  17 H :   -0.017945
  18 H :    0.004305
  19 H :    0.091770
Sum of atomic charges:    0.0000000

LOEWDIN ATOMIC CHARGES
----------------------
   0 C :   -0.077780
   1 C :   -0.000098
   2 C :   -0.040779
   3 C :   -0.044800
   4 C :   -0.046958
   5 C :    0.008754
   6 N :   -0.095800
   7 H :    0.026225
   8 H :    0.021156
   9 H :    0.021415
  10 H :    0.020353
  11 H :    0.023389
  12 H :    0.026063
  13 H :    0.019824
  14 H :    0.024095
  15 H :    0.023293
  16 H :    0.024552
  17 H :   -0.004893
  18 H :    0.020968
  19 H :    0.051021

  Mayer bond orders larger than 0.1
B(  0-C ,  1-C ) :   1.0618 B(  0-C ,  7-H ) :   0.9505 B(  0-C ,  8-H ) :   0.9537
B(  0-C ,  9-H ) :   0.9554 B(  1-C ,  2-C ) :   1.0783 B(  1-C ,  6-N ) :   1.0625
B(  1-C , 10-H ) :   0.9108 B(  2-C ,  3-C ) :   1.0954 B(  2-C , 11-H ) :   0.9304
B(  2-C , 12-H ) :   0.9181 B(  3-C ,  4-C ) :   1.1021 B(  3-C , 13-H ) :   0.9298
B(  3-C , 14-H ) :   0.9286 B(  4-C ,  5-C ) :   1.1083 B(  4-C , 15-H ) :   0.9291
B(  4-C , 16-H ) :   0.9192 B(  5-C ,  6-N ) :   1.0618 B(  5-C , 17-H ) :   0.9111
B(  5-C , 18-H ) :   0.9317 B(  6-N , 19-H ) :   0.9404

FINAL SINGLE POINT ENERGY      -290.603757750918

DIPOLE MOMENT
-------------
                                X             Y             Z
Electronic contribution:      2.08057       1.37992       0.01553
Nuclear contribution   :     -2.37386      -1.28248       0.02044
                        -----------------------------------------
Total Dipole Moment    :     -0.29329       0.09744       0.03597
                        -----------------------------------------
Magnitude (a.u.)       :      0.31113
Magnitude (Debye)      :      0.79084

                             ****ORCA TERMINATED NORMALLY****
TOTAL RUN TIME: 0 days 0 hours 0 minutes 8 seconds 848 msec
