                         Program Version 3.0.3 - RELEASE   -
|  1> ! RI PBE def2-SVP def2-SVP/J NBO PAL2
|  2> % maxcore 2000
|  3> % output
|  4>     # printlevel mini
|  5>     print[ P_Basis ] 0
|  6>     print[ P_SCFInfo ] 1
|  7>     print[ P_SCFIterInfo ] 1
|  8>     print[ P_OrbEn ] 0
|  9>     print[ P_Cartesian ] 0
| 10> end
| 11> *xyz 0 1
| 12>  C        1.1705490000    -0.2930980000     0.3153390000
| 13>  C        2.6030190000    -0.0052810000    -0.1325260000
| 14>  C        2.6227090000     0.3311970000    -1.6183020000
| 15>  C        3.2322550000     1.1211310000     0.7273990000
| 16>  C        4.5031350000     0.5193610000     1.3270950000
| 17>  C        4.1638910000    -0.9592230000     1.3855320000
| 18>  N        3.4928310000    -1.1539560000     0.1141510000
| 19>  H        0.5320130000     0.5866130000     0.1940650000
| 20>  H        1.1431410000    -0.5841930000     1.3690630000
| 21>  H        0.7335520000    -1.1032880000    -0.2771630000
| 22>  H        1.9759400000     1.1848180000    -1.8407280000
| 23>  H        3.6395940000     0.5670000000    -1.9382400000
| 24>  H        2.2752540000    -0.5201330000    -2.2103020000
| 25>  H        2.5400540000     1.4091340000     1.5233870000
| 26>  H        3.4305040000     2.0167100000     0.1354950000
| 27>  H        4.7593830000     0.9421310000     2.3001310000
| 28>  H        5.3535320000     0.6676430000     0.6568500000
| 29>  H        3.5255710000    -1.1629980000     2.2632140000
| 30>  H        5.0456760000    -1.6010870000     1.4619180000
| 31>  H        2.9952880000    -2.0329930000     0.0591210000
| 32> *
| 33>
| 34>                          ****END OF INPUT****
 Total Charge           Charge          ....    0
 Multiplicity           Mult            ....    1
 Number of Electrons    NEL             ....   56
 Basis Dimension        Dim             ....  163

MULLIKEN ATOMIC CHARGES
-----------------------
   0 C :    0.065079
   1 C :   -0.277951
   2 C :    0.111578
   3 C :    0.069696
   4 C :   -0.013192
   5 C :    0.120980
   6 N :   -0.221668
   7 H :    0.016853
   8 H :    0.009064
   9 H :    0.009237
  10 H :    0.005771
  11 H :    0.006204
  12 H :    0.002736
  13 H :   -0.002961
  14 H :    0.001751
  15 H :    0.006495
  16 H :    0.014883
  17 H :   -0.016638
  18 H :    0.006280
  19 H :    0.085806
Sum of atomic charges:   -0.0000000

LOEWDIN ATOMIC CHARGES
----------------------
   0 C :   -0.067558
   1 C :   -0.017186
   2 C :   -0.057639
   3 C :   -0.030429
   4 C :   -0.040948
   5 C :    0.013986
   6 N :   -0.092103
   7 H :    0.026142
   8 H :    0.021119
   9 H :    0.021025
  10 H :    0.020885
  11 H :    0.022981
  12 H :    0.021481
  13 H :    0.024346
  14 H :    0.024932
  15 H :    0.022849
  16 H :    0.026134
  17 H :   -0.005895
  18 H :    0.017041
  19 H :    0.048836

  Mayer bond orders larger than 0.1
B(  0-C ,  1-C ) :   1.0658 B(  0-C ,  7-H ) :   0.9490 B(  0-C ,  8-H ) :   0.9492
B(  0-C ,  9-H ) :   0.9492 B(  1-C ,  2-C ) :   1.0552 B(  1-C ,  3-C ) :   1.0357
B(  1-C ,  6-N ) :   1.0515 B(  2-C , 10-H ) :   0.9535 B(  2-C , 11-H ) :   0.9480
B(  2-C , 12-H ) :   0.9509 B(  3-C ,  4-C ) :   1.1370 B(  3-C , 13-H ) :   0.9197
B(  3-C , 14-H ) :   0.9271 B(  4-C ,  5-C ) :   1.1030 B(  4-C , 15-H ) :   0.9355
B(  4-C , 16-H ) :   0.9220 B(  5-C ,  6-N ) :   1.0349 B(  5-C , 17-H ) :   0.9158
B(  5-C , 18-H ) :   0.9369 B(  6-N , 19-H ) :   0.9442

FINAL SINGLE POINT ENERGY      -290.599484725535

DIPOLE MOMENT
-------------
                                X             Y             Z
Electronic contribution:      1.90866      -1.26263       0.39066
Nuclear contribution   :     -2.13860       1.22774      -0.14843
                        -----------------------------------------
Total Dipole Moment    :     -0.22994      -0.03489       0.24223
                        -----------------------------------------
Magnitude (a.u.)       :      0.33580
Magnitude (Debye)      :      0.85355

                             ****ORCA TERMINATED NORMALLY****
TOTAL RUN TIME: 0 days 0 hours 0 minutes 8 seconds 805 msec
