                         Program Version 3.0.3 - RELEASE   -
|  1> ! RI PBE def2-SVP def2-SVP/J NBO PAL2
|  2> % maxcore 2000
|  3> % output
|  4>     # printlevel mini
|  5>     print[ P_Basis ] 0
|  6>     print[ P_SCFInfo ] 1
|  7>     print[ P_SCFIterInfo ] 1
|  8>     print[ P_OrbEn ] 0
|  9>     print[ P_Cartesian ] 0
| 10> end
| 11> *xyz 0 1
| 12>  C        1.0372830000    -0.0080660000    -0.4599420000
| 13>  C        2.4556830000    -0.1265640000     0.0955320000
| 14>  C        3.1300300000    -1.4231750000    -0.3474360000
| 15>  C        3.6591940000    -1.3165970000    -1.7424770000
| 16>  C        3.8344200000    -0.1493060000    -2.3494140000
| 17>  C        3.5379280000     1.1523320000    -1.6838560000
| 18>  N        3.3383320000     0.9794270000    -0.2575780000
| 19>  H        0.3987740000    -0.8050480000    -0.0695990000
| 20>  H        1.0273130000    -0.0788030000    -1.5503810000
| 21>  H        0.5879470000     0.9477620000    -0.1754040000
| 22>  H        2.3916810000    -0.1299890000     1.1887550000
| 23>  H        2.4200320000    -2.2543960000    -0.2786700000
| 24>  H        3.9512820000    -1.6621020000     0.3382500000
| 25>  H        3.9042110000    -2.2375270000    -2.2639570000
| 26>  H        4.2001350000    -0.1076810000    -3.3708080000
| 27>  H        2.6776750000     1.6197780000    -2.1997500000
| 28>  H        4.3821660000     1.8352150000    -1.8341310000
| 29>  H        3.0006040000     1.8401300000     0.1522850000
| 30> *
| 31>
| 32>                          ****END OF INPUT****
 Total Charge           Charge          ....    0
 Multiplicity           Mult            ....    1
 Number of Electrons    NEL             ....   54
 Basis Dimension        Dim             ....  153

MULLIKEN ATOMIC CHARGES
-----------------------
   0 C :    0.026268
   1 C :   -0.095020
   2 C :    0.138292
   3 C :   -0.101436
   4 C :   -0.083749
   5 C :    0.156503
   6 N :   -0.209618
   7 H :    0.012401
   8 H :    0.027013
   9 H :    0.008194
  10 H :    0.000091
  11 H :    0.005435
  12 H :    0.024400
  13 H :   -0.011378
  14 H :   -0.007930
  15 H :    0.001072
  16 H :    0.016594
  17 H :    0.092867
Sum of atomic charges:   -0.0000000

LOEWDIN ATOMIC CHARGES
----------------------
   0 C :   -0.079403
   1 C :    0.001046
   2 C :   -0.041030
   3 C :   -0.045151
   4 C :   -0.052952
   5 C :    0.006481
   6 N :   -0.092188
   7 H :    0.026529
   8 H :    0.027774
   9 H :    0.021218
  10 H :    0.022223
  11 H :    0.029031
  12 H :    0.037699
  13 H :    0.022687
  14 H :    0.025296
  15 H :    0.008586
  16 H :    0.029794
  17 H :    0.052359

  Mayer bond orders larger than 0.1
B(  0-C ,  1-C ) :   1.0534 B(  0-C ,  7-H ) :   0.9474 B(  0-C ,  8-H ) :   0.9540
B(  0-C ,  9-H ) :   0.9579 B(  1-C ,  2-C ) :   1.0610 B(  1-C ,  6-N ) :   1.0730
B(  1-C , 10-H ) :   0.9138 B(  2-C ,  3-C ) :   1.0417 B(  2-C , 11-H ) :   0.9202
B(  2-C , 12-H ) :   0.8934 B(  3-C ,  4-C ) :   1.9212 B(  3-C , 13-H ) :   0.9596
B(  4-C ,  5-C ) :   1.0374 B(  4-C , 14-H ) :   0.9570 B(  5-C ,  6-N ) :   1.0635
B(  5-C , 15-H ) :   0.8969 B(  5-C , 16-H ) :   0.9160 B(  6-N , 17-H ) :   0.9368

FINAL SINGLE POINT ENERGY      -289.383392213687

DIPOLE MOMENT
-------------
                                X             Y             Z
Electronic contribution:      3.12362       0.09188      -0.28763
Nuclear contribution   :     -3.43337       0.07795       0.29969
                        -----------------------------------------
Total Dipole Moment    :     -0.30975       0.16983       0.01206
                        -----------------------------------------
Magnitude (a.u.)       :      0.35346
Magnitude (Debye)      :      0.89841

                             ****ORCA TERMINATED NORMALLY****
TOTAL RUN TIME: 0 days 0 hours 0 minutes 8 seconds 539 msec
