                         Program Version 3.0.3 - RELEASE   -
|  1> ! RI PBE def2-SVP def2-SVP/J NBO PAL2
|  2> % maxcore 2000
|  3> % output
|  4>     # printlevel mini
|  5>     print[ P_Basis ] 0
|  6>     print[ P_SCFInfo ] 1
|  7>     print[ P_SCFIterInfo ] 1
|  8>     print[ P_OrbEn ] 0
|  9>     print[ P_Cartesian ] 0
| 10> end
| 11> *xyz 0 1
| 12>  C        1.0316430000     0.0145170000    -0.0082300000
| 13>  C        2.5401150000    -0.0220050000     0.0490850000
| 14>  C        3.1988610000     1.2301330000     0.6485110000
| 15>  C        4.5040230000     0.7133950000     1.1943950000
| 16>  C        5.5371890000     1.4300090000     1.6135570000
| 17>  C        4.4181350000    -0.8011460000     1.1657210000
| 18>  N        3.0328310000    -1.1389550000     0.8557310000
| 19>  H        0.6839590000     0.8379960000    -0.6357210000
| 20>  H        0.6106480000     0.1591110000     0.9925110000
| 21>  H        0.6347640000    -0.9176960000    -0.4148620000
| 22>  H        2.9323490000    -0.1657470000    -0.9667590000
| 23>  H        2.5730330000     1.6091510000     1.4669420000
| 24>  H        3.3303990000     2.0456280000    -0.0663970000
| 25>  H        5.5295160000     2.5142170000     1.5862660000
| 26>  H        6.4338910000     0.9568570000     2.0004910000
| 27>  H        4.7398410000    -1.2666270000     2.0994030000
| 28>  H        5.0685410000    -1.1893810000     0.3720520000
| 29>  H        2.4985630000    -1.1660570000     1.7186130000
| 30> *
| 31>
| 32>                          ****END OF INPUT****
 Total Charge           Charge          ....    0
 Multiplicity           Mult            ....    1
 Number of Electrons    NEL             ....   54
 Basis Dimension        Dim             ....  153

MULLIKEN ATOMIC CHARGES
-----------------------
   0 C :    0.043685
   1 C :   -0.098804
   2 C :    0.148595
   3 C :   -0.253047
   4 C :   -0.044268
   5 C :    0.199584
   6 N :   -0.234678
   7 H :    0.024096
   8 H :    0.006128
   9 H :    0.029475
  10 H :    0.011617
  11 H :    0.011051
  12 H :    0.017851
  13 H :    0.007578
  14 H :    0.002317
  15 H :    0.014372
  16 H :    0.022983
  17 H :    0.091465
Sum of atomic charges:   -0.0000000

LOEWDIN ATOMIC CHARGES
----------------------
   0 C :   -0.062851
   1 C :    0.000016
   2 C :   -0.047062
   3 C :   -0.043803
   4 C :   -0.085788
   5 C :    0.014053
   6 N :   -0.097292
   7 H :    0.032014
   8 H :    0.021537
   9 H :    0.031558
  10 H :    0.021194
  11 H :    0.033373
  12 H :    0.032801
  13 H :    0.021486
  14 H :    0.020902
  15 H :    0.028210
  16 H :    0.030446
  17 H :    0.049205

  Mayer bond orders larger than 0.1
B(  0-C ,  1-C ) :   1.1002 B(  0-C ,  7-H ) :   0.9587 B(  0-C ,  8-H ) :   0.9472
B(  0-C ,  9-H ) :   0.9554 B(  1-C ,  2-C ) :   1.0216 B(  1-C ,  6-N ) :   1.0546
B(  1-C , 10-H ) :   0.9056 B(  2-C ,  3-C ) :   1.0635 B(  2-C , 11-H ) :   0.8893
B(  2-C , 12-H ) :   0.9115 B(  3-C ,  4-C ) :   2.0271 B(  3-C ,  5-C ) :   0.9915
B(  4-C , 13-H ) :   0.9359 B(  4-C , 14-H ) :   0.9284 B(  5-C ,  6-N ) :   1.0701
B(  5-C , 15-H ) :   0.9368 B(  5-C , 16-H ) :   0.9088 B(  6-N , 17-H ) :   0.9454

FINAL SINGLE POINT ENERGY      -289.379622788374

DIPOLE MOMENT
-------------
                                X             Y             Z
Electronic contribution:      2.25591      -1.01245       0.60196
Nuclear contribution   :     -2.47989       1.25529      -0.44591
                        -----------------------------------------
Total Dipole Moment    :     -0.22398       0.24284       0.15605
                        -----------------------------------------
Magnitude (a.u.)       :      0.36537
Magnitude (Debye)      :      0.92869

                             ****ORCA TERMINATED NORMALLY****
TOTAL RUN TIME: 0 days 0 hours 0 minutes 8 seconds 69 msec
