                         Program Version 3.0.3 - RELEASE   -
|  1> ! RI PBE def2-SVP def2-SVP/J NBO PAL2
|  2> % maxcore 2000
|  3> % output
|  4>     # printlevel mini
|  5>     print[ P_Basis ] 0
|  6>     print[ P_SCFInfo ] 1
|  7>     print[ P_SCFIterInfo ] 1
|  8>     print[ P_OrbEn ] 0
|  9>     print[ P_Cartesian ] 0
| 10> end
| 11> *xyz 0 1
| 12>  C        1.0485450000     0.0073600000     0.7185040000
| 13>  C        2.3929130000     0.1231880000     0.0348870000
| 14>  C        3.3316090000     1.2257330000     0.5592830000
| 15>  C        4.2534410000     0.0985450000     1.0846080000
| 16>  C        4.2693840000    -0.0377840000     2.5967780000
| 17>  C        5.6664400000     0.1105800000     0.5341600000
| 18>  N        3.3953760000    -0.9000160000     0.3958910000
| 19>  H        0.3976020000     0.8391600000     0.4340730000
| 20>  H        1.1512760000     0.0159020000     1.8073780000
| 21>  H        0.5452400000    -0.9206620000     0.4309720000
| 22>  H        2.2346750000     0.1576690000    -1.0491710000
| 23>  H        2.9030930000     1.8720180000     1.3276230000
| 24>  H        3.7840170000     1.8460240000    -0.2153630000
| 25>  H        4.8384540000     0.7759010000     3.0556490000
| 26>  H        4.7419530000    -0.9805530000     2.8908900000
| 27>  H        3.2589930000    -0.0188610000     3.0120430000
| 28>  H        6.2360000000     0.9554040000     0.9330680000
| 29>  H        5.6499490000     0.1825440000    -0.5548070000
| 30>  H        6.1906410000    -0.8114730000     0.8014450000
| 31>  H        3.0400180000    -1.6300680000     1.0024910000
| 32> *
| 33>
| 34>                          ****END OF INPUT****
 Total Charge           Charge          ....    0
 Multiplicity           Mult            ....    1
 Number of Electrons    NEL             ....   56
 Basis Dimension        Dim             ....  163

MULLIKEN ATOMIC CHARGES
-----------------------
   0 C :    0.032735
   1 C :   -0.062596
   2 C :    0.130530
   3 C :   -0.310035
   4 C :    0.086564
   5 C :    0.105878
   6 N :   -0.165542
   7 H :    0.024416
   8 H :    0.006374
   9 H :    0.028281
  10 H :    0.001706
  11 H :   -0.009081
  12 H :   -0.006791
  13 H :    0.017251
  14 H :    0.016845
  15 H :    0.001653
  16 H :    0.009817
  17 H :    0.010808
  18 H :    0.010447
  19 H :    0.070738
Sum of atomic charges:    0.0000000

LOEWDIN ATOMIC CHARGES
----------------------
   0 C :   -0.077927
   1 C :    0.015985
   2 C :   -0.027992
   3 C :   -0.008223
   4 C :   -0.064207
   5 C :   -0.061390
   6 N :   -0.096315
   7 H :    0.031456
   8 H :    0.019975
   9 H :    0.028721
  10 H :    0.012688
  11 H :    0.018597
  12 H :    0.022423
  13 H :    0.029331
  14 H :    0.026232
  15 H :    0.018686
  16 H :    0.023554
  17 H :    0.025007
  18 H :    0.025150
  19 H :    0.038246

  Mayer bond orders larger than 0.1
B(  0-C ,  1-C ) :   1.0866 B(  0-C ,  7-H ) :   0.9481 B(  0-C ,  8-H ) :   0.9468
B(  0-C ,  9-H ) :   0.9533 B(  1-C ,  2-C ) :   1.0909 B(  1-C ,  6-N ) :   1.0847
B(  1-C , 10-H ) :   0.9067 B(  2-C ,  3-C ) :   1.0577 B(  2-C , 11-H ) :   0.9194
B(  2-C , 12-H ) :   0.8988 B(  3-C ,  4-C ) :   1.0560 B(  3-C ,  5-C ) :   1.0512
B(  3-C ,  6-N ) :   1.0713 B(  4-C , 13-H ) :   0.9483 B(  4-C , 14-H ) :   0.9506
B(  4-C , 15-H ) :   0.9466 B(  5-C , 16-H ) :   0.9517 B(  5-C , 17-H ) :   0.9447
B(  5-C , 18-H ) :   0.9518 B(  6-N , 19-H ) :   0.9452

FINAL SINGLE POINT ENERGY      -290.578089574470

DIPOLE MOMENT
-------------
                                X             Y             Z
Electronic contribution:     -0.02832      -0.99273      -2.06385
Nuclear contribution   :     -0.19457       1.14737       2.44833
                        -----------------------------------------
Total Dipole Moment    :     -0.22288       0.15463       0.38448
                        -----------------------------------------
Magnitude (a.u.)       :      0.47055
Magnitude (Debye)      :      1.19604

                             ****ORCA TERMINATED NORMALLY****
TOTAL RUN TIME: 0 days 0 hours 0 minutes 8 seconds 964 msec
