                         Program Version 3.0.3 - RELEASE   -
|  1> ! RI PBE def2-SVP def2-SVP/J NBO PAL2
|  2> % maxcore 2000
|  3> % output
|  4>     # printlevel mini
|  5>     print[ P_Basis ] 0
|  6>     print[ P_SCFInfo ] 1
|  7>     print[ P_SCFIterInfo ] 1
|  8>     print[ P_OrbEn ] 0
|  9>     print[ P_Cartesian ] 0
| 10> end
| 11> *xyz 0 1
| 12>  C        1.0203460000    -0.0874980000    -0.0652570000
| 13>  C        2.5007110000     0.0232990000    -0.0587330000
| 14>  C        3.3245590000     1.1192360000    -0.0563190000
| 15>  C        4.6658240000     0.6532610000    -0.0497420000
| 16>  C        4.6327440000    -0.7174010000    -0.0482780000
| 17>  C        5.7255530000    -1.7221560000    -0.0421960000
| 18>  N        3.3118200000    -1.0807830000    -0.0537900000
| 19>  H        0.5765010000     0.9081300000    -0.0683910000
| 20>  H        0.6417870000    -0.6147600000     0.8169670000
| 21>  H        0.6497240000    -0.6167810000    -0.9496400000
| 22>  H        2.9941380000     2.1469300000    -0.0590120000
| 23>  H        5.5622390000     1.2547340000    -0.0464200000
| 24>  H        6.6910790000    -1.2161630000    -0.0383740000
| 25>  H        5.6959450000    -2.3698700000    -0.9249320000
| 26>  H        5.6879210000    -2.3679010000     0.8416760000
| 27>  H        2.9822000000    -2.0295670000    -0.0541590000
| 28> *
| 29>
| 30>                          ****END OF INPUT****
 Total Charge           Charge          ....    0
 Multiplicity           Mult            ....    1
 Number of Electrons    NEL             ....   52
 Basis Dimension        Dim             ....  143

MULLIKEN ATOMIC CHARGES
-----------------------
   0 C :    0.089954
   1 C :   -0.076605
   2 C :   -0.059018
   3 C :   -0.052106
   4 C :   -0.079761
   5 C :    0.089038
   6 N :   -0.054898
   7 H :    0.017948
   8 H :    0.025126
   9 H :    0.025071
  10 H :   -0.042393
  11 H :   -0.042929
  12 H :    0.016617
  13 H :    0.026093
  14 H :    0.026021
  15 H :    0.091841
Sum of atomic charges:   -0.0000000

LOEWDIN ATOMIC CHARGES
----------------------
   0 C :   -0.066598
   1 C :   -0.044099
   2 C :   -0.095429
   3 C :   -0.094612
   4 C :   -0.044793
   5 C :   -0.066673
   6 N :    0.088499
   7 H :    0.041797
   8 H :    0.031949
   9 H :    0.031942
  10 H :    0.018661
  11 H :    0.018777
  12 H :    0.041388
  13 H :    0.032041
  14 H :    0.032039
  15 H :    0.075111

  Mayer bond orders larger than 0.1
B(  0-C ,  1-C ) :   1.1095 B(  0-C ,  7-H ) :   0.9411 B(  0-C ,  8-H ) :   0.9406
B(  0-C ,  9-H ) :   0.9405 B(  1-C ,  2-C ) :   1.5011 B(  1-C ,  4-C ) :   0.1095
B(  1-C ,  6-N ) :   1.2061 B(  2-C ,  3-C ) :   1.2520 B(  2-C , 10-H ) :   1.0067
B(  3-C ,  4-C ) :   1.5075 B(  3-C , 11-H ) :   1.0050 B(  4-C ,  5-C ) :   1.1035
B(  4-C ,  6-N ) :   1.2068 B(  5-C , 12-H ) :   0.9420 B(  5-C , 13-H ) :   0.9415
B(  5-C , 14-H ) :   0.9414 B(  6-N , 15-H ) :   0.9433

FINAL SINGLE POINT ENERGY      -288.223412565510

DIPOLE MOMENT
-------------
                                X             Y             Z
Electronic contribution:      0.43448       1.26050       0.00054
Nuclear contribution   :     -0.71030      -2.04456      -0.00081
                        -----------------------------------------
Total Dipole Moment    :     -0.27583      -0.78406      -0.00027
                        -----------------------------------------
Magnitude (a.u.)       :      0.83116
Magnitude (Debye)      :      2.11264

                             ****ORCA TERMINATED NORMALLY****
TOTAL RUN TIME: 0 days 0 hours 0 minutes 6 seconds 747 msec
