                         Program Version 3.0.3 - RELEASE   -
|  1> ! RI PBE def2-SVP def2-SVP/J NBO PAL2
|  2> % maxcore 2000
|  3> % output
|  4>     # printlevel mini
|  5>     print[ P_Basis ] 0
|  6>     print[ P_SCFInfo ] 1
|  7>     print[ P_SCFIterInfo ] 1
|  8>     print[ P_OrbEn ] 0
|  9>     print[ P_Cartesian ] 0
| 10> end
| 11> *xyz 0 1
| 12>  C        0.9546950000    -0.0180570000    -0.0781520000
| 13>  N        2.3922900000    -0.0215990000    -0.0726340000
| 14>  C        3.1827380000     1.0942180000    -0.0659250000
| 15>  C        4.4926080000     0.6942860000    -0.0620890000
| 16>  C        4.4921710000    -0.7206670000    -0.0666580000
| 17>  C        3.1828380000    -1.1409500000    -0.0731530000
| 18>  C        2.6129730000    -2.5116370000    -0.0798510000
| 19>  H        0.6039490000     1.0129140000    -0.0765490000
| 20>  H        0.5522070000    -0.5197230000     0.8059030000
| 21>  H        0.5590570000    -0.5146260000    -0.9681530000
| 22>  H        2.7429220000     2.0792380000    -0.0644560000
| 23>  H        5.3521000000     1.3461060000    -0.0566240000
| 24>  H        5.3536560000    -1.3713000000    -0.0653900000
| 25>  H        3.4225690000    -3.2413870000    -0.0788670000
| 26>  H        1.9966690000    -2.7033420000    -0.9649410000
| 27>  H        1.9894560000    -2.7089650000     0.7989280000
| 28> *
| 29>
| 30>                          ****END OF INPUT****
 Total Charge           Charge          ....    0
 Multiplicity           Mult            ....    1
 Number of Electrons    NEL             ....   52
 Basis Dimension        Dim             ....  143

MULLIKEN ATOMIC CHARGES
-----------------------
   0 C :    0.105398
   1 N :   -0.193047
   2 C :    0.045530
   3 C :   -0.019256
   4 C :   -0.053405
   5 C :   -0.069089
   6 C :    0.093772
   7 H :    0.033759
   8 H :    0.037736
   9 H :    0.037580
  10 H :   -0.015086
  11 H :   -0.028046
  12 H :   -0.042461
  13 H :    0.020559
  14 H :    0.022982
  15 H :    0.023074
Sum of atomic charges:   -0.0000000

LOEWDIN ATOMIC CHARGES
----------------------
   0 C :    0.024652
   1 N :    0.060500
   2 C :   -0.044485
   3 C :   -0.089613
   4 C :   -0.093446
   5 C :   -0.044751
   6 C :   -0.065408
   7 H :    0.034486
   8 H :    0.028997
   9 H :    0.028977
  10 H :    0.013397
  11 H :    0.021387
  12 H :    0.018635
  13 H :    0.042678
  14 H :    0.031991
  15 H :    0.032000

  Mayer bond orders larger than 0.1
B(  0-C ,  1-N ) :   1.0059 B(  0-C ,  7-H ) :   0.9658 B(  0-C ,  8-H ) :   0.9635
B(  0-C ,  9-H ) :   0.9634 B(  1-N ,  2-C ) :   1.1847 B(  1-N ,  5-C ) :   1.2066
B(  2-C ,  3-C ) :   1.4731 B(  2-C , 10-H ) :   0.9820 B(  3-C ,  4-C ) :   1.2939
B(  3-C , 11-H ) :   1.0018 B(  4-C ,  5-C ) :   1.4940 B(  4-C , 12-H ) :   1.0042
B(  5-C ,  6-C ) :   1.1225 B(  6-C , 13-H ) :   0.9357 B(  6-C , 14-H ) :   0.9344
B(  6-C , 15-H ) :   0.9345

FINAL SINGLE POINT ENERGY      -288.211974423484

DIPOLE MOMENT
-------------
                                X             Y             Z
Electronic contribution:      3.08475       2.68355       0.02084
Nuclear contribution   :     -3.98400      -2.81616      -0.02460
                        -----------------------------------------
Total Dipole Moment    :     -0.89925      -0.13262      -0.00376
                        -----------------------------------------
Magnitude (a.u.)       :      0.90899
Magnitude (Debye)      :      2.31046

                             ****ORCA TERMINATED NORMALLY****
TOTAL RUN TIME: 0 days 0 hours 0 minutes 7 seconds 19 msec
