                         Program Version 3.0.3 - RELEASE   -
|  1> ! RI PBE def2-SVP def2-SVP/J NBO PAL2
|  2> % maxcore 2000
|  3> % output
|  4>     # printlevel mini
|  5>     print[ P_Basis ] 0
|  6>     print[ P_SCFInfo ] 1
|  7>     print[ P_SCFIterInfo ] 1
|  8>     print[ P_OrbEn ] 0
|  9>     print[ P_Cartesian ] 0
| 10> end
| 11> *xyz 0 1
| 12>  C        1.1797210000     0.0184690000    -0.1224740000
| 13>  C        2.6812640000     0.0932530000     0.0531100000
| 14>  C        3.1436240000     1.2694700000     0.9156030000
| 15>  C        4.4333400000     0.7785050000     1.5983120000
| 16>  C        4.5873140000    -0.6587270000     1.1053750000
| 17>  N        3.2399590000    -1.0562710000     0.7496480000
| 18>  C        3.1886390000    -2.2940510000     0.0182930000
| 19>  H        0.8046560000     0.9438060000    -0.5663480000
| 20>  H        0.6957600000    -0.1214010000     0.8476130000
| 21>  H        0.8817830000    -0.8026520000    -0.7781750000
| 22>  H        3.1511830000     0.1817620000    -0.9487710000
| 23>  H        2.3764960000     1.5006830000     1.6588820000
| 24>  H        3.2951070000     2.1678700000     0.3145010000
| 25>  H        4.3290140000     0.8045010000     2.6840270000
| 26>  H        5.3029840000     1.3848060000     1.3403420000
| 27>  H        5.0056330000    -1.3351490000     1.8555160000
| 28>  H        5.2552660000    -0.6915520000     0.2225530000
| 29>  H        3.6421590000    -3.0921040000     0.6107110000
| 30>  H        3.7272960000    -2.2384650000    -0.9467160000
| 31>  H        2.1549910000    -2.5797400000    -0.1843930000
| 32> *
| 33>
| 34>                          ****END OF INPUT****
 Total Charge           Charge          ....    0
 Multiplicity           Mult            ....    1
 Number of Electrons    NEL             ....   56
 Basis Dimension        Dim             ....  163

MULLIKEN ATOMIC CHARGES
-----------------------
   0 C :    0.047847
   1 C :   -0.037444
   2 C :    0.062194
   3 C :   -0.018311
   4 C :    0.145840
   5 N :   -0.358009
   6 C :    0.120270
   7 H :    0.017790
   8 H :    0.018182
   9 H :    0.018056
  10 H :   -0.031879
  11 H :   -0.002218
  12 H :    0.004635
  13 H :    0.015852
  14 H :    0.007038
  15 H :    0.006976
  16 H :   -0.029806
  17 H :    0.015262
  18 H :   -0.018855
  19 H :    0.016581
Sum of atomic charges:   -0.0000000

LOEWDIN ATOMIC CHARGES
----------------------
   0 C :   -0.064630
   1 C :    0.008320
   2 C :   -0.035888
   3 C :   -0.046211
   4 C :    0.019938
   5 N :   -0.112609
   6 C :    0.002278
   7 H :    0.030352
   8 H :    0.026799
   9 H :    0.023898
  10 H :   -0.005918
  11 H :    0.024833
  12 H :    0.024330
  13 H :    0.028473
  14 H :    0.024854
  15 H :    0.017353
  16 H :   -0.005987
  17 H :    0.022763
  18 H :   -0.002951
  19 H :    0.020002

  Mayer bond orders larger than 0.1
B(  0-C ,  1-C ) :   1.0950 B(  0-C ,  7-H ) :   0.9554 B(  0-C ,  8-H ) :   0.9468
B(  0-C ,  9-H ) :   0.9505 B(  1-C ,  2-C ) :   1.1025 B(  1-C ,  5-N ) :   1.0007
B(  1-C , 10-H ) :   0.8771 B(  2-C ,  3-C ) :   1.1491 B(  2-C , 11-H ) :   0.9095
B(  2-C , 12-H ) :   0.9227 B(  3-C ,  4-C ) :   1.1423 B(  3-C , 13-H ) :   0.9156
B(  3-C , 14-H ) :   0.9244 B(  4-C ,  5-N ) :   1.0101 B(  4-C , 15-H ) :   0.9371
B(  4-C , 16-H ) :   0.8946 B(  5-N ,  6-C ) :   1.0422 B(  6-C , 17-H ) :   0.9655
B(  6-C , 18-H ) :   0.9318 B(  6-C , 19-H ) :   0.9650

FINAL SINGLE POINT ENERGY      -290.595035548367

DIPOLE MOMENT
-------------
                                X             Y             Z
Electronic contribution:      0.94838       0.21364       1.47628
Nuclear contribution   :     -0.88517      -0.17063      -1.58624
                        -----------------------------------------
Total Dipole Moment    :      0.06321       0.04301      -0.10996
                        -----------------------------------------
Magnitude (a.u.)       :      0.13393
Magnitude (Debye)      :      0.34043

                             ****ORCA TERMINATED NORMALLY****
TOTAL RUN TIME: 0 days 0 hours 0 minutes 9 seconds 63 msec
