                         Program Version 3.0.3 - RELEASE   -
|  1> ! RI PBE def2-SVP def2-SVP/J NBO PAL2
|  2> % maxcore 2000
|  3> % output
|  4>     # printlevel mini
|  5>     print[ P_Basis ] 0
|  6>     print[ P_SCFInfo ] 1
|  7>     print[ P_SCFIterInfo ] 1
|  8>     print[ P_OrbEn ] 0
|  9>     print[ P_Cartesian ] 0
| 10> end
| 11> *xyz 0 1
| 12>  C        1.0535300000    -0.3149200000    -0.5129520000
| 13>  C        2.4950360000     0.0359760000    -0.1325710000
| 14>  C        3.3912580000    -1.1604740000    -0.2639530000
| 15>  C        4.2145980000    -1.0234230000    -1.2934860000
| 16>  C        3.9990810000     0.2987280000    -1.9561860000
| 17>  N        3.1667510000     1.0009960000    -1.0008270000
| 18>  C        2.4139630000     2.1110960000    -1.5044260000
| 19>  H        0.6643680000    -1.0821200000     0.1613770000
| 20>  H        0.9999070000    -0.7044280000    -1.5327370000
| 21>  H        0.3963890000     0.5548890000    -0.4381270000
| 22>  H        2.4875340000     0.4219610000     0.8976790000
| 23>  H        3.3100980000    -2.0264150000     0.3811900000
| 24>  H        4.9334040000    -1.7540410000    -1.6417340000
| 25>  H        3.5167530000     0.1617880000    -2.9449130000
| 26>  H        4.9332220000     0.8459730000    -2.1411500000
| 27>  H        3.0932940000     2.8312140000    -1.9695080000
| 28>  H        1.9082830000     2.6259990000    -0.6831420000
| 29>  H        1.6520400000     1.8407190000    -2.2567320000
| 30> *
| 31>
| 32>                          ****END OF INPUT****
 Total Charge           Charge          ....    0
 Multiplicity           Mult            ....    1
 Number of Electrons    NEL             ....   54
 Basis Dimension        Dim             ....  153

MULLIKEN ATOMIC CHARGES
-----------------------
   0 C :    0.029727
   1 C :    0.057010
   2 C :   -0.034796
   3 C :   -0.107843
   4 C :    0.233732
   5 N :   -0.367105
   6 C :    0.098956
   7 H :    0.017330
   8 H :    0.014361
   9 H :    0.023700
  10 H :    0.007007
  11 H :   -0.007531
  12 H :   -0.004642
  13 H :   -0.005198
  14 H :    0.013750
  15 H :    0.018329
  16 H :    0.017433
  17 H :   -0.004220
Sum of atomic charges:    0.0000000

LOEWDIN ATOMIC CHARGES
----------------------
   0 C :   -0.072933
   1 C :    0.014199
   2 C :   -0.030841
   3 C :   -0.037190
   4 C :    0.026551
   5 N :   -0.114054
   6 C :   -0.000324
   7 H :    0.029224
   8 H :    0.026546
   9 H :    0.025047
  10 H :    0.018530
  11 H :    0.023394
  12 H :    0.024001
  13 H :    0.005500
  14 H :    0.019758
  15 H :    0.023118
  16 H :    0.022401
  17 H :   -0.002926

  Mayer bond orders larger than 0.1
B(  0-C ,  1-C ) :   1.0528 B(  0-C ,  7-H ) :   0.9521 B(  0-C ,  8-H ) :   0.9513
B(  0-C ,  9-H ) :   0.9496 B(  1-C ,  2-C ) :   1.0076 B(  1-C ,  5-N ) :   1.0253
B(  1-C , 10-H ) :   0.9032 B(  2-C ,  3-C ) :   1.8681 B(  2-C , 11-H ) :   0.9918
B(  3-C ,  4-C ) :   1.0194 B(  3-C , 12-H ) :   0.9892 B(  4-C ,  5-N ) :   1.0150
B(  4-C , 13-H ) :   0.8895 B(  4-C , 14-H ) :   0.9237 B(  5-N ,  6-C ) :   1.0598
B(  6-C , 15-H ) :   0.9637 B(  6-C , 16-H ) :   0.9659 B(  6-C , 17-H ) :   0.9377

FINAL SINGLE POINT ENERGY      -289.371003859525

DIPOLE MOMENT
-------------
                                X             Y             Z
Electronic contribution:      3.77449      -1.77299       1.29394
Nuclear contribution   :     -3.93749       1.67097      -1.39870
                        -----------------------------------------
Total Dipole Moment    :     -0.16301      -0.10202      -0.10476
                        -----------------------------------------
Magnitude (a.u.)       :      0.21898
Magnitude (Debye)      :      0.55661

                             ****ORCA TERMINATED NORMALLY****
TOTAL RUN TIME: 0 days 0 hours 0 minutes 8 seconds 743 msec
