                         Program Version 3.0.3 - RELEASE   -
|  1> ! RI PBE def2-SVP def2-SVP/J NBO PAL2
|  2> % maxcore 2000
|  3> % output
|  4>     # printlevel mini
|  5>     print[ P_Basis ] 0
|  6>     print[ P_SCFInfo ] 1
|  7>     print[ P_SCFIterInfo ] 1
|  8>     print[ P_OrbEn ] 0
|  9>     print[ P_Cartesian ] 0
| 10> end
| 11> *xyz 0 1
| 12>  C        0.9384130000     0.1682830000    -0.0088280000
| 13>  C        2.4284570000     0.0476940000    -0.0822840000
| 14>  C        3.1494950000    -0.7218160000    -1.1496690000
| 15>  C        2.4729540000    -1.4609420000    -2.2333860000
| 16>  C        1.8874780000    -0.9055070000    -3.2860640000
| 17>  N        3.1221700000     0.7228900000    -1.1543050000
| 18>  C        4.3584170000     1.3898220000    -0.8193920000
| 19>  H        0.5210060000    -0.5991420000     0.6483890000
| 20>  H        0.4914560000     0.0568250000    -0.9972460000
| 21>  H        0.6527980000     1.1458670000     0.3885720000
| 22>  H        2.9400560000     0.0491140000     0.8817810000
| 23>  H        4.0771120000    -1.1825180000    -0.8052190000
| 24>  H        2.4737550000    -2.5436570000    -2.1257570000
| 25>  H        1.8845450000     0.1714990000    -3.4115260000
| 26>  H        1.4041490000    -1.5099660000    -4.0443160000
| 27>  H        4.9836620000     1.4697390000    -1.7115430000
| 28>  H        4.9332820000     0.8638440000    -0.0399310000
| 29>  H        4.1425950000     2.3997690000    -0.4626560000
| 30> *
| 31>
| 32>                          ****END OF INPUT****
 Total Charge           Charge          ....    0
 Multiplicity           Mult            ....    1
 Number of Electrons    NEL             ....   54
 Basis Dimension        Dim             ....  153

MULLIKEN ATOMIC CHARGES
-----------------------
   0 C :    0.110798
   1 C :   -0.082032
   2 C :    0.045363
   3 C :   -0.033240
   4 C :   -0.025521
   5 N :   -0.275220
   6 C :    0.089438
   7 H :    0.018714
   8 H :    0.013635
   9 H :    0.020298
  10 H :    0.008201
  11 H :    0.005870
  12 H :   -0.000188
  13 H :    0.029374
  14 H :    0.020520
  15 H :    0.031152
  16 H :   -0.002032
  17 H :    0.024873
Sum of atomic charges:    0.0000000

LOEWDIN ATOMIC CHARGES
----------------------
   0 C :   -0.062838
   1 C :    0.008521
   2 C :   -0.002808
   3 C :   -0.040331
   4 C :   -0.057243
   5 N :   -0.097716
   6 C :    0.001612
   7 H :    0.030934
   8 H :    0.033539
   9 H :    0.031795
  10 H :    0.010243
  11 H :    0.015786
  12 H :    0.028176
  13 H :    0.023434
  14 H :    0.023340
  15 H :    0.026294
  16 H :    0.002585
  17 H :    0.024676

  Mayer bond orders larger than 0.1
B(  0-C ,  1-C ) :   1.1121 B(  0-C ,  7-H ) :   0.9518 B(  0-C ,  8-H ) :   0.9341
B(  0-C ,  9-H ) :   0.9515 B(  1-C ,  2-C ) :   0.9716 B(  1-C ,  5-N ) :   0.9201
B(  1-C , 10-H ) :   0.9267 B(  2-C ,  3-C ) :   1.0615 B(  2-C ,  5-N ) :   0.9302
B(  2-C , 11-H ) :   0.9136 B(  3-C ,  4-C ) :   1.9834 B(  3-C , 12-H ) :   0.9562
B(  4-C , 13-H ) :   0.9311 B(  4-C , 14-H ) :   0.9415 B(  5-N ,  6-C ) :   1.0266
B(  6-C , 15-H ) :   0.9709 B(  6-C , 16-H ) :   0.9368 B(  6-C , 17-H ) :   0.9691

FINAL SINGLE POINT ENERGY      -289.344642127129

DIPOLE MOMENT
-------------
                                X             Y             Z
Electronic contribution:      0.62032      -1.17738      -1.28019
Nuclear contribution   :     -0.38821       1.08727       1.68045
                        -----------------------------------------
Total Dipole Moment    :      0.23211      -0.09011       0.40027
                        -----------------------------------------
Magnitude (a.u.)       :      0.47139
Magnitude (Debye)      :      1.19817

                             ****ORCA TERMINATED NORMALLY****
TOTAL RUN TIME: 0 days 0 hours 0 minutes 7 seconds 950 msec
