                         Program Version 3.0.3 - RELEASE   -
|  1> ! RI PBE def2-SVP def2-SVP/J NBO PAL2
|  2> % maxcore 2000
|  3> % output
|  4>     # printlevel mini
|  5>     print[ P_Basis ] 0
|  6>     print[ P_SCFInfo ] 1
|  7>     print[ P_SCFIterInfo ] 1
|  8>     print[ P_OrbEn ] 0
|  9>     print[ P_Cartesian ] 0
| 10> end
| 11> *xyz 0 1
| 12>  C        1.1011740000     0.0238440000     0.0481540000
| 13>  C        2.5949610000    -0.0265430000    -0.0238510000
| 14>  C        3.3291310000    -0.7626800000    -1.1006010000
| 15>  C        2.6580070000    -1.4748700000    -2.1490590000
| 16>  C        2.1030810000    -2.1010650000    -3.0107300000
| 17>  N        3.2546090000     0.6929800000    -1.0840770000
| 18>  C        4.4835390000     1.3757190000    -0.7506470000
| 19>  H        0.7149600000    -0.8138690000     0.6340790000
| 20>  H        0.6690440000    -0.0244330000    -0.9515540000
| 21>  H        0.7726650000     0.9519440000     0.5228020000
| 22>  H        3.1114790000    -0.0343190000     0.9373660000
| 23>  H        4.2800180000    -1.2005730000    -0.7988930000
| 24>  H        1.6110980000    -2.6467710000    -3.7804960000
| 25>  H        5.0904560000     1.4925330000    -1.6509000000
| 26>  H        5.0815580000     0.8443800000     0.0069160000
| 27>  H        4.2472100000     2.3706000000    -0.3664170000
| 28> *
| 29>
| 30>                          ****END OF INPUT****
 Total Charge           Charge          ....    0
 Multiplicity           Mult            ....    1
 Number of Electrons    NEL             ....   52
 Basis Dimension        Dim             ....  143

MULLIKEN ATOMIC CHARGES
-----------------------
   0 C :    0.107184
   1 C :   -0.072254
   2 C :   -0.029560
   3 C :    0.466089
   4 C :   -0.479980
   5 N :   -0.265224
   6 C :    0.085331
   7 H :    0.024971
   8 H :    0.026467
   9 H :    0.023541
  10 H :    0.012404
  11 H :    0.035163
  12 H :    0.001397
  13 H :    0.034937
  14 H :    0.000650
  15 H :    0.028881
Sum of atomic charges:   -0.0000000

LOEWDIN ATOMIC CHARGES
----------------------
   0 C :   -0.059603
   1 C :    0.013036
   2 C :   -0.011478
   3 C :   -0.016712
   4 C :   -0.077742
   5 N :   -0.091221
   6 C :    0.002562
   7 H :    0.034038
   8 H :    0.037928
   9 H :    0.033365
  10 H :    0.012926
  11 H :    0.029834
  12 H :    0.034604
  13 H :    0.028184
  14 H :    0.003126
  15 H :    0.027154

  Mayer bond orders larger than 0.1
B(  0-C ,  1-C ) :   1.1129 B(  0-C ,  7-H ) :   0.9513 B(  0-C ,  8-H ) :   0.9344
B(  0-C ,  9-H ) :   0.9510 B(  1-C ,  2-C ) :   0.9649 B(  1-C ,  5-N ) :   0.9155
B(  1-C , 10-H ) :   0.9194 B(  2-C ,  3-C ) :   0.9920 B(  2-C ,  5-N ) :   0.9221
B(  2-C , 11-H ) :   0.9081 B(  3-C ,  4-C ) :   2.2825 B(  3-C , 12-H ) :  -0.1031
B(  4-C , 12-H ) :   1.0930 B(  5-N ,  6-C ) :   1.0243 B(  6-C , 13-H ) :   0.9702
B(  6-C , 14-H ) :   0.9375 B(  6-C , 15-H ) :   0.9682

FINAL SINGLE POINT ENERGY      -288.098469900688

DIPOLE MOMENT
-------------
                                X             Y             Z
Electronic contribution:     -0.08097      -3.07285      -3.68544
Nuclear contribution   :      0.32366       3.10228       4.17179
                        -----------------------------------------
Total Dipole Moment    :      0.24269       0.02942       0.48635
                        -----------------------------------------
Magnitude (a.u.)       :      0.54433
Magnitude (Debye)      :      1.38359

                             ****ORCA TERMINATED NORMALLY****
TOTAL RUN TIME: 0 days 0 hours 0 minutes 7 seconds 372 msec
