                         Program Version 3.0.3 - RELEASE   -
|  1> ! RI PBE def2-SVP def2-SVP/J NBO PAL2
|  2> % maxcore 2000
|  3> % output
|  4>     # printlevel mini
|  5>     print[ P_Basis ] 0
|  6>     print[ P_SCFInfo ] 1
|  7>     print[ P_SCFIterInfo ] 1
|  8>     print[ P_OrbEn ] 0
|  9>     print[ P_Cartesian ] 0
| 10> end
| 11> *xyz 0 1
| 12>  C        0.9461910000    -0.1155400000     0.1470640000
| 13>  C        2.4515490000    -0.0278210000     0.0912340000
| 14>  C        3.1748910000     1.0588120000     0.9044690000
| 15>  C        4.1811340000    -0.0387720000     1.2998330000
| 16>  C        5.4839570000     0.0120590000     0.5216620000
| 17>  N        3.1837830000    -1.0338110000     0.8644170000
| 18>  C        3.5758970000    -2.2658790000     0.2434130000
| 19>  H        0.4895640000     0.7353730000    -0.3665430000
| 20>  H        0.6054230000    -0.1233500000     1.1849050000
| 21>  H        0.5849070000    -1.0271660000    -0.3370420000
| 22>  H        2.7785250000    -0.0037800000    -0.9634600000
| 23>  H        2.5765860000     1.4114520000     1.7458980000
| 24>  H        3.5739800000     1.9113060000     0.3543960000
| 25>  H        4.4037390000    -0.1149150000     2.3706330000
| 26>  H        5.3146420000     0.1331140000    -0.5517640000
| 27>  H        6.0779110000    -0.8933330000     0.6712100000
| 28>  H        6.0826690000     0.8607520000     0.8627180000
| 29>  H        4.1500790000    -2.8747380000     0.9472390000
| 30>  H        4.1800640000    -2.1372390000    -0.6710340000
| 31>  H        2.6831970000    -2.8371230000    -0.0251390000
| 32> *
| 33>
| 34>                          ****END OF INPUT****
 Total Charge           Charge          ....    0
 Multiplicity           Mult            ....    1
 Number of Electrons    NEL             ....   56
 Basis Dimension        Dim             ....  163

MULLIKEN ATOMIC CHARGES
-----------------------
   0 C :    0.082832
   1 C :   -0.036431
   2 C :    0.067799
   3 C :   -0.041132
   4 C :    0.038844
   5 N :   -0.320491
   6 C :    0.086910
   7 H :    0.015338
   8 H :    0.005767
   9 H :    0.012850
  10 H :   -0.020353
  11 H :    0.000011
  12 H :    0.008076
  13 H :   -0.000521
  14 H :    0.013675
  15 H :    0.025844
  16 H :    0.023418
  17 H :    0.023213
  18 H :   -0.007142
  19 H :    0.021494
Sum of atomic charges:   -0.0000000

LOEWDIN ATOMIC CHARGES
----------------------
   0 C :   -0.069069
   1 C :    0.022237
   2 C :   -0.029694
   3 C :    0.020948
   4 C :   -0.076504
   5 N :   -0.116580
   6 C :   -0.010830
   7 H :    0.028598
   8 H :    0.023689
   9 H :    0.026534
  10 H :   -0.001706
  11 H :    0.025148
  12 H :    0.018165
  13 H :    0.009517
  14 H :    0.024951
  15 H :    0.027527
  16 H :    0.031794
  17 H :    0.024098
  18 H :   -0.003087
  19 H :    0.024263

  Mayer bond orders larger than 0.1
B(  0-C ,  1-C ) :   1.1073 B(  0-C ,  7-H ) :   0.9522 B(  0-C ,  8-H ) :   0.9437
B(  0-C ,  9-H ) :   0.9520 B(  1-C ,  2-C ) :   1.0717 B(  1-C ,  5-N ) :   1.0072
B(  1-C , 10-H ) :   0.8963 B(  2-C ,  3-C ) :   1.0875 B(  2-C , 11-H ) :   0.8962
B(  2-C , 12-H ) :   0.9392 B(  3-C ,  4-C ) :   1.0773 B(  3-C ,  5-N ) :   1.0217
B(  3-C , 13-H ) :   0.9207 B(  4-C , 14-H ) :   0.9473 B(  4-C , 15-H ) :   0.9484
B(  4-C , 16-H ) :   0.9498 B(  5-N ,  6-C ) :   1.0540 B(  6-C , 17-H ) :   0.9680
B(  6-C , 18-H ) :   0.9350 B(  6-C , 19-H ) :   0.9648

FINAL SINGLE POINT ENERGY      -290.571285742236

DIPOLE MOMENT
-------------
                                X             Y             Z
Electronic contribution:     -0.51150       0.31379       1.78219
Nuclear contribution   :      0.66905      -0.22706      -1.97336
                        -----------------------------------------
Total Dipole Moment    :      0.15755       0.08673      -0.19117
                        -----------------------------------------
Magnitude (a.u.)       :      0.26247
Magnitude (Debye)      :      0.66714

                             ****ORCA TERMINATED NORMALLY****
TOTAL RUN TIME: 0 days 0 hours 0 minutes 8 seconds 967 msec
