                         Program Version 3.0.3 - RELEASE   -
|  1> ! RI PBE def2-SVP def2-SVP/J NBO PAL2
|  2> % maxcore 2000
|  3> % output
|  4>     # printlevel mini
|  5>     print[ P_Basis ] 0
|  6>     print[ P_SCFInfo ] 1
|  7>     print[ P_SCFIterInfo ] 1
|  8>     print[ P_OrbEn ] 0
|  9>     print[ P_Cartesian ] 0
| 10> end
| 11> *xyz 0 1
| 12>  C        0.9358630000     0.0540180000     0.0170200000
| 13>  C        2.4159380000     0.0976820000    -0.0613010000
| 14>  C        3.2873470000     1.1598470000    -0.0848050000
| 15>  C        4.6056350000     0.6454730000    -0.1662810000
| 16>  C        4.5079770000    -0.7190770000    -0.1905620000
| 17>  N        3.1766690000    -1.0389510000    -0.1264400000
| 18>  N        2.6287510000    -2.3125740000    -0.1251910000
| 19>  H        0.5462480000     1.0712270000     0.0598950000
| 20>  H        0.5902880000    -0.4839830000     0.9037700000
| 21>  H        0.4962670000    -0.4460750000    -0.8500740000
| 22>  H        3.0000230000     2.1994850000    -0.0470410000
| 23>  H        5.5223510000     1.2132020000    -0.2027700000
| 24>  H        5.2586120000    -1.4915650000    -0.2474830000
| 25>  H        2.9789910000    -2.8343430000     0.6694470000
| 26>  H        2.8905490000    -2.7978650000    -0.9750850000
| 27> *
| 28>
| 29>                          ****END OF INPUT****
 Total Charge           Charge          ....    0
 Multiplicity           Mult            ....    1
 Number of Electrons    NEL             ....   52
 Basis Dimension        Dim             ....  138

MULLIKEN ATOMIC CHARGES
-----------------------
   0 C :    0.123684
   1 C :   -0.041672
   2 C :   -0.075425
   3 C :   -0.009153
   4 C :    0.047363
   5 N :   -0.181524
   6 N :   -0.056148
   7 H :    0.010817
   8 H :    0.022583
   9 H :    0.023354
  10 H :   -0.037476
  11 H :   -0.027929
  12 H :   -0.024326
  13 H :    0.113011
  14 H :    0.112841
Sum of atomic charges:   -0.0000000

LOEWDIN ATOMIC CHARGES
----------------------
   0 C :   -0.061027
   1 C :   -0.035941
   2 C :   -0.099765
   3 C :   -0.082518
   4 C :   -0.062408
   5 N :    0.083790
   6 N :   -0.018181
   7 H :    0.037423
   8 H :    0.035035
   9 H :    0.035121
  10 H :    0.019604
  11 H :    0.021644
  12 H :    0.010522
  13 H :    0.058393
  14 H :    0.058310

  Mayer bond orders larger than 0.1
B(  0-C ,  1-C ) :   1.1251 B(  0-C ,  7-H ) :   0.9400 B(  0-C ,  8-H ) :   0.9310
B(  0-C ,  9-H ) :   0.9315 B(  1-C ,  2-C ) :   1.4885 B(  1-C ,  5-N ) :   1.1925
B(  2-C ,  3-C ) :   1.2821 B(  2-C , 10-H ) :   1.0076 B(  3-C ,  4-C ) :   1.4752
B(  3-C , 11-H ) :   0.9996 B(  4-C ,  5-N ) :   1.1685 B(  4-C , 12-H ) :   0.9822
B(  5-N ,  6-N ) :   1.0371 B(  6-N , 13-H ) :   0.9680 B(  6-N , 14-H ) :   0.9679

FINAL SINGLE POINT ENERGY      -304.205433713333

DIPOLE MOMENT
-------------
                                X             Y             Z
Electronic contribution:      2.85144      -0.31673      -0.15903
Nuclear contribution   :     -2.82951      -0.57837       0.13814
                        -----------------------------------------
Total Dipole Moment    :      0.02194      -0.89510      -0.02088
                        -----------------------------------------
Magnitude (a.u.)       :      0.89561
Magnitude (Debye)      :      2.27647

                             ****ORCA TERMINATED NORMALLY****
TOTAL RUN TIME: 0 days 0 hours 0 minutes 6 seconds 671 msec
