                         Program Version 3.0.3 - RELEASE   -
|  1> ! RI PBE def2-SVP def2-SVP/J NBO PAL2
|  2> % maxcore 2000
|  3> % output
|  4>     # printlevel mini
|  5>     print[ P_Basis ] 0
|  6>     print[ P_SCFInfo ] 1
|  7>     print[ P_SCFIterInfo ] 1
|  8>     print[ P_OrbEn ] 0
|  9>     print[ P_Cartesian ] 0
| 10> end
| 11> *xyz 0 1
| 12>  C        1.0785730000     0.0120460000     0.0228470000
| 13>  C        2.5742260000     0.0323050000    -0.0533390000
| 14>  C        3.2986350000     1.2141780000    -0.1269330000
| 15>  C        4.6818600000     1.1658710000    -0.1952620000
| 16>  C        5.3012820000    -0.0731370000    -0.1877370000
| 17>  N        4.6313620000    -1.2191210000    -0.1180270000
| 18>  C        3.3086710000    -1.1528200000    -0.0533150000
| 19>  H        0.6694860000     1.0233170000     0.0114560000
| 20>  H        0.7354270000    -0.4789990000     0.9371800000
| 21>  H        0.6466960000    -0.5346900000    -0.8194330000
| 22>  H        2.7808750000     2.1683550000    -0.1306760000
| 23>  H        5.2712800000     2.0733240000    -0.2534460000
| 24>  H        6.3839370000    -0.1501370000    -0.2399920000
| 25>  H        2.7867800000    -2.1066930000     0.0028960000
| 26> *
| 27>
| 28>                          ****END OF INPUT****
 Total Charge           Charge          ....    0
 Multiplicity           Mult            ....    1
 Number of Electrons    NEL             ....   50
 Basis Dimension        Dim             ....  133

MULLIKEN ATOMIC CHARGES
-----------------------
   0 C :    0.063781
   1 C :   -0.118254
   2 C :    0.046989
   3 C :   -0.002192
   4 C :    0.014143
   5 N :   -0.077648
   6 C :    0.010126
   7 H :    0.015144
   8 H :    0.041129
   9 H :    0.042594
  10 H :   -0.018211
  11 H :   -0.010729
  12 H :    0.005325
  13 H :   -0.012197
Sum of atomic charges:   -0.0000000

LOEWDIN ATOMIC CHARGES
----------------------
   0 C :   -0.053717
   1 C :   -0.048475
   2 C :   -0.009331
   3 C :   -0.044015
   4 C :    0.000879
   5 N :   -0.064288
   6 C :    0.006261
   7 H :    0.031719
   8 H :    0.042008
   9 H :    0.042244
  10 H :    0.028442
  11 H :    0.031086
  12 H :    0.020086
  13 H :    0.017100

  Mayer bond orders larger than 0.1
B(  0-C ,  1-C ) :   1.0682 B(  0-C ,  7-H ) :   0.9534 B(  0-C ,  8-H ) :   0.9485
B(  0-C ,  9-H ) :   0.9487 B(  1-C ,  2-C ) :   1.4219 B(  1-C ,  6-C ) :   1.3578
B(  2-C ,  3-C ) :   1.4025 B(  2-C , 10-H ) :   0.9753 B(  3-C ,  4-C ) :   1.3901
B(  3-C , 11-H ) :   0.9644 B(  4-C ,  5-N ) :   1.5322 B(  4-C , 12-H ) :   0.9685
B(  5-N ,  6-C ) :   1.5623 B(  6-C , 13-H ) :   0.9744

FINAL SINGLE POINT ENERGY      -287.021514372260

DIPOLE MOMENT
-------------
                                X             Y             Z
Electronic contribution:      4.40704      -1.23313      -0.18584
Nuclear contribution   :     -5.00141       1.91184       0.19274
                        -----------------------------------------
Total Dipole Moment    :     -0.59437       0.67870       0.00690
                        -----------------------------------------
Magnitude (a.u.)       :      0.90220
Magnitude (Debye)      :      2.29320

                             ****ORCA TERMINATED NORMALLY****
TOTAL RUN TIME: 0 days 0 hours 0 minutes 6 seconds 318 msec
