                         Program Version 3.0.3 - RELEASE   -
|  1> ! RI PBE def2-SVP def2-SVP/J NBO PAL2
|  2> % maxcore 2000
|  3> % output
|  4>     # printlevel mini
|  5>     print[ P_Basis ] 0
|  6>     print[ P_SCFInfo ] 1
|  7>     print[ P_SCFIterInfo ] 1
|  8>     print[ P_OrbEn ] 0
|  9>     print[ P_Cartesian ] 0
| 10> end
| 11> *xyz 0 1
| 12>  C        0.9530780000     0.1322660000     0.2131000000
| 13>  C        2.4663040000     0.0760650000     0.0498830000
| 14>  C        2.9662590000    -1.3259090000    -0.3103660000
| 15>  C        2.6309000000    -1.7037420000    -1.7490400000
| 16>  C        3.1189160000    -0.6251590000    -2.7106680000
| 17>  N        2.6613900000     0.7130080000    -2.3778410000
| 18>  C        2.9671930000     1.0708130000    -1.0045980000
| 19>  H        0.6107230000    -0.5824100000     0.9661910000
| 20>  H        0.4288930000    -0.1029260000    -0.7171260000
| 21>  H        0.6308480000     1.1285760000     0.5283470000
| 22>  H        2.9141450000     0.3607010000     1.0100460000
| 23>  H        2.5572930000    -2.0643030000     0.3869410000
| 24>  H        4.0560970000    -1.3519800000    -0.1870260000
| 25>  H        1.5483780000    -1.8303780000    -1.8657140000
| 26>  H        3.0840710000    -2.6678030000    -2.0028610000
| 27>  H        2.8180190000    -0.8517320000    -3.7373780000
| 28>  H        4.2169500000    -0.6078160000    -2.7031980000
| 29>  H        1.6658170000     0.7906170000    -2.5466800000
| 30>  H        2.5642150000     2.0690140000    -0.8064580000
| 31>  H        4.0587000000     1.1509180000    -0.9233350000
| 32> *
| 33>
| 34>                          ****END OF INPUT****
 Total Charge           Charge          ....    0
 Multiplicity           Mult            ....    1
 Number of Electrons    NEL             ....   56
 Basis Dimension        Dim             ....  163

MULLIKEN ATOMIC CHARGES
-----------------------
   0 C :    0.025373
   1 C :   -0.138538
   2 C :    0.018412
   3 C :   -0.003517
   4 C :    0.079154
   5 N :   -0.233129
   6 C :    0.122381
   7 H :    0.016080
   8 H :    0.004755
   9 H :    0.011474
  10 H :   -0.007710
  11 H :    0.006247
  12 H :    0.000781
  13 H :    0.004808
  14 H :   -0.000121
  15 H :    0.003439
  16 H :    0.001383
  17 H :    0.092278
  18 H :   -0.002307
  19 H :   -0.001240
Sum of atomic charges:   -0.0000000

LOEWDIN ATOMIC CHARGES
----------------------
   0 C :   -0.062451
   1 C :   -0.063357
   2 C :   -0.040160
   3 C :   -0.060559
   4 C :    0.006716
   5 N :   -0.092941
   6 C :    0.011817
   7 H :    0.026059
   8 H :    0.014773
   9 H :    0.024833
  10 H :    0.023220
  11 H :    0.021940
  12 H :    0.022074
  13 H :    0.018218
  14 H :    0.023830
  15 H :    0.020015
  16 H :    0.019275
  17 H :    0.049076
  18 H :    0.018383
  19 H :    0.019237

  Mayer bond orders larger than 0.1
B(  0-C ,  1-C ) :   1.0719 B(  0-C ,  7-H ) :   0.9605 B(  0-C ,  8-H ) :   0.9550
B(  0-C ,  9-H ) :   0.9594 B(  1-C ,  2-C ) :   1.0662 B(  1-C ,  6-C ) :   1.0279
B(  1-C , 10-H ) :   0.8957 B(  2-C ,  3-C ) :   1.0867 B(  2-C , 11-H ) :   0.9316
B(  2-C , 12-H ) :   0.9288 B(  3-C ,  4-C ) :   1.0721 B(  3-C , 13-H ) :   0.9267
B(  3-C , 14-H ) :   0.9177 B(  4-C ,  5-N ) :   1.0918 B(  4-C , 15-H ) :   0.9422
B(  4-C , 16-H ) :   0.9276 B(  5-N ,  6-C ) :   1.1069 B(  5-N , 17-H ) :   0.9499
B(  6-C , 18-H ) :   0.9407 B(  6-C , 19-H ) :   0.9247

FINAL SINGLE POINT ENERGY      -290.602813987279

DIPOLE MOMENT
-------------
                                X             Y             Z
Electronic contribution:      1.28260       1.20735      -1.77165
Nuclear contribution   :     -1.52466      -1.42641       1.97233
                        -----------------------------------------
Total Dipole Moment    :     -0.24206      -0.21907       0.20068
                        -----------------------------------------
Magnitude (a.u.)       :      0.38322
Magnitude (Debye)      :      0.97407

                             ****ORCA TERMINATED NORMALLY****
TOTAL RUN TIME: 0 days 0 hours 0 minutes 9 seconds 82 msec
