                         Program Version 3.0.3 - RELEASE   -
|  1> ! RI PBE def2-SVP def2-SVP/J NBO PAL2
|  2> % maxcore 2000
|  3> % output
|  4>     # printlevel mini
|  5>     print[ P_Basis ] 0
|  6>     print[ P_SCFInfo ] 1
|  7>     print[ P_SCFIterInfo ] 1
|  8>     print[ P_OrbEn ] 0
|  9>     print[ P_Cartesian ] 0
| 10> end
| 11> *xyz 0 1
| 12>  C        1.0006820000    -0.0426260000     0.0010070000
| 13>  C        2.3271290000    -0.0925990000    -0.0400990000
| 14>  C        3.1114060000    -1.3713010000    -0.0530540000
| 15>  C        4.1037940000    -1.3860580000    -1.2169240000
| 16>  C        4.9265470000    -0.1026360000    -1.2378530000
| 17>  N        4.1247520000     1.1093630000    -1.2409860000
| 18>  C        3.1848500000     1.1398890000    -0.1264960000
| 19>  H        0.3977230000    -0.9440640000     0.0456550000
| 20>  H        0.4709630000     0.9048780000    -0.0006590000
| 21>  H        2.4424880000    -2.2347310000    -0.0910120000
| 22>  H        3.6774560000    -1.4435970000     0.8863480000
| 23>  H        3.5527690000    -1.4758320000    -2.1605370000
| 24>  H        4.7609420000    -2.2590720000    -1.1461230000
| 25>  H        5.5890240000    -0.0844550000    -2.1076840000
| 26>  H        5.5725100000    -0.0696090000    -0.3509790000
| 27>  H        3.6038790000     1.1630090000    -2.1097190000
| 28>  H        2.5673420000     2.0378420000    -0.2031520000
| 29>  H        3.7764330000     1.2345010000     0.7946770000
| 30> *
| 31>
| 32>                          ****END OF INPUT****
 Total Charge           Charge          ....    0
 Multiplicity           Mult            ....    1
 Number of Electrons    NEL             ....   54
 Basis Dimension        Dim             ....  153

MULLIKEN ATOMIC CHARGES
-----------------------
   0 C :   -0.032863
   1 C :   -0.239625
   2 C :    0.113120
   3 C :   -0.008333
   4 C :    0.057331
   5 N :   -0.232089
   6 C :    0.209539
   7 H :    0.004351
   8 H :    0.004164
   9 H :   -0.000861
  10 H :    0.007821
  11 H :    0.000399
  12 H :    0.006510
  13 H :    0.015900
  14 H :    0.002978
  15 H :    0.092058
  16 H :   -0.003803
  17 H :    0.003404
Sum of atomic charges:   -0.0000000

LOEWDIN ATOMIC CHARGES
----------------------
   0 C :   -0.078355
   1 C :   -0.050274
   2 C :   -0.033670
   3 C :   -0.054202
   4 C :    0.003844
   5 N :   -0.088774
   6 C :    0.016300
   7 H :    0.018403
   8 H :    0.018744
   9 H :    0.026932
  10 H :    0.031566
  11 H :    0.019967
  12 H :    0.024713
  13 H :    0.023493
  14 H :    0.018803
  15 H :    0.051796
  16 H :    0.024244
  17 H :    0.026469

  Mayer bond orders larger than 0.1
B(  0-C ,  1-C ) :   1.9990 B(  0-C ,  7-H ) :   0.9308 B(  0-C ,  8-H ) :   0.9294
B(  1-C ,  2-C ) :   1.0535 B(  1-C ,  6-C ) :   1.0238 B(  2-C ,  3-C ) :   1.0788
B(  2-C ,  9-H ) :   0.9211 B(  2-C , 10-H ) :   0.9069 B(  3-C ,  4-C ) :   1.0736
B(  3-C , 11-H ) :   0.9238 B(  3-C , 12-H ) :   0.9209 B(  4-C ,  5-N ) :   1.0930
B(  4-C , 13-H ) :   0.9434 B(  4-C , 14-H ) :   0.9306 B(  5-N ,  6-C ) :   1.0768
B(  5-N , 15-H ) :   0.9458 B(  6-C , 16-H ) :   0.9291 B(  6-C , 17-H ) :   0.9038

FINAL SINGLE POINT ENERGY      -289.384137492434

DIPOLE MOMENT
-------------
                                X             Y             Z
Electronic contribution:     -0.35301       1.61051      -0.04033
Nuclear contribution   :      0.33181      -1.91242      -0.10178
                        -----------------------------------------
Total Dipole Moment    :     -0.02120      -0.30191      -0.14211
                        -----------------------------------------
Magnitude (a.u.)       :      0.33436
Magnitude (Debye)      :      0.84987

                             ****ORCA TERMINATED NORMALLY****
TOTAL RUN TIME: 0 days 0 hours 0 minutes 8 seconds 183 msec
