                         Program Version 3.0.3 - RELEASE   -
|  1> ! RI PBE def2-SVP def2-SVP/J NBO PAL2
|  2> % maxcore 2000
|  3> % output
|  4>     # printlevel mini
|  5>     print[ P_Basis ] 0
|  6>     print[ P_SCFInfo ] 1
|  7>     print[ P_SCFIterInfo ] 1
|  8>     print[ P_OrbEn ] 0
|  9>     print[ P_Cartesian ] 0
| 10> end
| 11> *xyz 0 1
| 12>  C        0.9527120000    -0.1084970000    -0.1670800000
| 13>  C        2.4400760000    -0.0388280000    -0.0553330000
| 14>  C        3.1127150000     1.1088260000     0.0030620000
| 15>  C        4.6076300000     1.1819230000     0.0532970000
| 16>  C        5.2298030000    -0.1622960000    -0.3069890000
| 17>  N        4.5720470000    -1.2878900000     0.3325850000
| 18>  C        3.1669790000    -1.3574520000    -0.0227960000
| 19>  H        0.5060990000     0.8858020000    -0.2197390000
| 20>  H        0.5158360000    -0.6369990000     0.6875370000
| 21>  H        0.6523870000    -0.6639230000    -1.0627130000
| 22>  H        2.5618540000     2.0469030000     0.0027350000
| 23>  H        4.9368940000     1.4970410000     1.0533740000
| 24>  H        4.9659920000     1.9585090000    -0.6326290000
| 25>  H        6.2929360000    -0.1812840000    -0.0528030000
| 26>  H        5.1598790000    -0.3139110000    -1.3902550000
| 27>  H        4.6542030000    -1.1920460000     1.3380540000
| 28>  H        2.6652810000    -2.0321940000     0.6801910000
| 29>  H        3.0712780000    -1.8404030000    -1.0069880000
| 30> *
| 31>
| 32>                          ****END OF INPUT****
 Total Charge           Charge          ....    0
 Multiplicity           Mult            ....    1
 Number of Electrons    NEL             ....   54
 Basis Dimension        Dim             ....  153

MULLIKEN ATOMIC CHARGES
-----------------------
   0 C :    0.066893
   1 C :   -0.213157
   2 C :   -0.084061
   3 C :    0.049826
   4 C :    0.063623
   5 N :   -0.230654
   6 C :    0.155549
   7 H :    0.010263
   8 H :    0.023109
   9 H :    0.025810
  10 H :   -0.027356
  11 H :    0.010546
  12 H :    0.009406
  13 H :    0.009851
  14 H :    0.014650
  15 H :    0.094362
  16 H :    0.008892
  17 H :    0.012448
Sum of atomic charges:   -0.0000000

LOEWDIN ATOMIC CHARGES
----------------------
   0 C :   -0.055673
   1 C :   -0.066127
   2 C :   -0.062014
   3 C :   -0.062773
   4 C :    0.007350
   5 N :   -0.091815
   6 C :    0.007789
   7 H :    0.029197
   8 H :    0.032496
   9 H :    0.034128
  10 H :    0.018381
  11 H :    0.026894
  12 H :    0.031243
  13 H :    0.021001
  14 H :    0.023096
  15 H :    0.052959
  16 H :    0.027574
  17 H :    0.026293

  Mayer bond orders larger than 0.1
B(  0-C ,  1-C ) :   1.0948 B(  0-C ,  7-H ) :   0.9505 B(  0-C ,  8-H ) :   0.9421
B(  0-C ,  9-H ) :   0.9485 B(  1-C ,  2-C ) :   1.9012 B(  1-C ,  6-C ) :   0.9950
B(  2-C ,  3-C ) :   1.0414 B(  2-C , 10-H ) :   0.9534 B(  3-C ,  4-C ) :   1.0873
B(  3-C , 11-H ) :   0.9013 B(  3-C , 12-H ) :   0.9074 B(  4-C ,  5-N ) :   1.0863
B(  4-C , 13-H ) :   0.9398 B(  4-C , 14-H ) :   0.9358 B(  5-N ,  6-C ) :   1.1010
B(  5-N , 15-H ) :   0.9530 B(  6-C , 16-H ) :   0.9268 B(  6-C , 17-H ) :   0.9102

FINAL SINGLE POINT ENERGY      -289.388543023546

DIPOLE MOMENT
-------------
                                X             Y             Z
Electronic contribution:      1.61106      -0.49959       0.54986
Nuclear contribution   :     -1.77997       0.72124      -0.36166
                        -----------------------------------------
Total Dipole Moment    :     -0.16891       0.22164       0.18821
                        -----------------------------------------
Magnitude (a.u.)       :      0.33627
Magnitude (Debye)      :      0.85473

                             ****ORCA TERMINATED NORMALLY****
TOTAL RUN TIME: 0 days 0 hours 0 minutes 8 seconds 364 msec
