                         Program Version 3.0.3 - RELEASE   -
|  1> ! RI PBE def2-SVP def2-SVP/J NBO PAL2
|  2> % maxcore 2000
|  3> % output
|  4>     # printlevel mini
|  5>     print[ P_Basis ] 0
|  6>     print[ P_SCFInfo ] 1
|  7>     print[ P_SCFIterInfo ] 1
|  8>     print[ P_OrbEn ] 0
|  9>     print[ P_Cartesian ] 0
| 10> end
| 11> *xyz 0 1
| 12>  C        1.0319650000     0.0959390000     0.1273060000
| 13>  C        2.5108870000    -0.0077990000     0.0257700000
| 14>  C        3.2742070000    -1.0972470000    -0.0640700000
| 15>  C        2.8696830000    -2.5269390000    -0.0889870000
| 16>  C        4.7192980000    -0.7103600000    -0.1678930000
| 17>  N        4.7223960000     0.7177830000     0.1236450000
| 18>  C        3.3626250000     1.2259490000    -0.0082150000
| 19>  H        0.5469900000    -0.8806720000     0.1239190000
| 20>  H        0.6214930000     0.6780100000    -0.7051920000
| 21>  H        0.7384960000     0.6154910000     1.0457460000
| 22>  H        1.7886270000    -2.6527940000    -0.0222100000
| 23>  H        3.3255710000    -3.0768980000     0.7412550000
| 24>  H        3.2086590000    -3.0145230000    -1.0096940000
| 25>  H        5.1068150000    -0.9573560000    -1.1724120000
| 26>  H        5.3418850000    -1.2653100000     0.5480190000
| 27>  H        5.3823190000     1.2269120000    -0.4433090000
| 28>  H        3.1875050000     1.7819760000    -0.9465130000
| 29>  H        3.1130880000     1.9157360000     0.8103440000
| 30> *
| 31>
| 32>                          ****END OF INPUT****
 Total Charge           Charge          ....    0
 Multiplicity           Mult            ....    1
 Number of Electrons    NEL             ....   54
 Basis Dimension        Dim             ....  153

MULLIKEN ATOMIC CHARGES
-----------------------
   0 C :    0.079418
   1 C :   -0.245259
   2 C :   -0.240818
   3 C :    0.077416
   4 C :    0.209246
   5 N :   -0.284181
   6 C :    0.201551
   7 H :    0.009765
   8 H :    0.024472
   9 H :    0.025402
  10 H :    0.009458
  11 H :    0.026460
  12 H :    0.022240
  13 H :   -0.010635
  14 H :    0.003077
  15 H :    0.093137
  16 H :   -0.005190
  17 H :    0.004441
Sum of atomic charges:   -0.0000000

LOEWDIN ATOMIC CHARGES
----------------------
   0 C :   -0.058447
   1 C :   -0.060284
   2 C :   -0.059757
   3 C :   -0.058971
   4 C :    0.025243
   5 N :   -0.108322
   6 C :    0.024300
   7 H :    0.029523
   8 H :    0.035522
   9 H :    0.036487
  10 H :    0.029382
  11 H :    0.036840
  12 H :    0.035181
  13 H :    0.006015
  14 H :    0.014176
  15 H :    0.051707
  16 H :    0.007132
  17 H :    0.014274

  Mayer bond orders larger than 0.1
B(  0-C ,  1-C ) :   1.1300 B(  0-C ,  7-H ) :   0.9436 B(  0-C ,  8-H ) :   0.9382
B(  0-C ,  9-H ) :   0.9366 B(  1-C ,  2-C ) :   1.8798 B(  1-C ,  6-C ) :   1.0235
B(  2-C ,  3-C ) :   1.1331 B(  2-C ,  4-C ) :   1.0215 B(  3-C , 10-H ) :   0.9427
B(  3-C , 11-H ) :   0.9355 B(  3-C , 12-H ) :   0.9376 B(  4-C ,  5-N ) :   1.0539
B(  4-C , 13-H ) :   0.9020 B(  4-C , 14-H ) :   0.9156 B(  5-N ,  6-C ) :   1.0493
B(  5-N , 15-H ) :   0.9460 B(  6-C , 16-H ) :   0.9026 B(  6-C , 17-H ) :   0.9161

FINAL SINGLE POINT ENERGY      -289.387026258430

DIPOLE MOMENT
-------------
                                X             Y             Z
Electronic contribution:      2.62092       1.80447       0.42007
Nuclear contribution   :     -2.78977      -1.88747      -0.81463
                        -----------------------------------------
Total Dipole Moment    :     -0.16885      -0.08299      -0.39456
                        -----------------------------------------
Magnitude (a.u.)       :      0.43712
Magnitude (Debye)      :      1.11108

                             ****ORCA TERMINATED NORMALLY****
TOTAL RUN TIME: 0 days 0 hours 0 minutes 7 seconds 429 msec
