                         Program Version 3.0.3 - RELEASE   -
|  1> ! RI PBE def2-SVP def2-SVP/J NBO PAL2
|  2> % maxcore 2000
|  3> % output
|  4>     # printlevel mini
|  5>     print[ P_Basis ] 0
|  6>     print[ P_SCFInfo ] 1
|  7>     print[ P_SCFIterInfo ] 1
|  8>     print[ P_OrbEn ] 0
|  9>     print[ P_Cartesian ] 0
| 10> end
| 11> *xyz 0 1
| 12>  C        0.9949580000     0.1042150000    -0.0394810000
| 13>  C        2.4802870000     0.0583440000    -0.0882670000
| 14>  C        3.2578370000    -1.0220130000    -0.1498220000
| 15>  C        4.7143210000    -0.6715530000    -0.1216640000
| 16>  C        4.7206830000     0.8438870000    -0.4339350000
| 17>  N        4.9314300000     1.1677000000    -1.8388380000
| 18>  C        3.3159740000     1.3080360000    -0.0193840000
| 19>  H        0.5581650000    -0.8949120000    -0.0817500000
| 20>  H        0.5916200000     0.6921280000    -0.8707590000
| 21>  H        0.6489600000     0.5897530000     0.8796000000
| 22>  H        2.8887120000    -2.0418950000    -0.1795170000
| 23>  H        5.3159010000    -1.2298930000    -0.8470370000
| 24>  H        5.1451830000    -0.8806730000     0.8668790000
| 25>  H        5.4971590000     1.3617130000     0.1345000000
| 26>  H        4.2231470000     0.7066150000    -2.4013730000
| 27>  H        5.8265840000     0.8087600000    -2.1506540000
| 28>  H        2.9611410000     2.1063110000    -0.6787800000
| 29>  H        3.3057380000     1.7144600000     1.0000700000
| 30> *
| 31>
| 32>                          ****END OF INPUT****
 Total Charge           Charge          ....    0
 Multiplicity           Mult            ....    1
 Number of Electrons    NEL             ....   54
 Basis Dimension        Dim             ....  153

MULLIKEN ATOMIC CHARGES
-----------------------
   0 C :    0.091087
   1 C :   -0.187096
   2 C :   -0.110332
   3 C :    0.124057
   4 C :   -0.098089
   5 N :   -0.152159
   6 C :    0.110391
   7 H :    0.011316
   8 H :    0.026260
   9 H :    0.024243
  10 H :   -0.029454
  11 H :   -0.008281
  12 H :    0.012337
  13 H :   -0.006167
  14 H :    0.082581
  15 H :    0.081706
  16 H :    0.011452
  17 H :    0.016147
Sum of atomic charges:   -0.0000000

LOEWDIN ATOMIC CHARGES
----------------------
   0 C :   -0.058893
   1 C :   -0.046941
   2 C :   -0.060863
   3 C :   -0.054461
   4 C :    0.011542
   5 N :   -0.093843
   6 C :   -0.034449
   7 H :    0.031211
   8 H :    0.035840
   9 H :    0.036538
  10 H :    0.015376
  11 H :    0.017717
  12 H :    0.028353
  13 H :    0.017242
  14 H :    0.049084
  15 H :    0.047655
  16 H :    0.026120
  17 H :    0.032770

  Mayer bond orders larger than 0.1
B(  0-C ,  1-C ) :   1.1087 B(  0-C ,  7-H ) :   0.9499 B(  0-C ,  8-H ) :   0.9412
B(  0-C ,  9-H ) :   0.9386 B(  1-C ,  2-C ) :   1.8393 B(  1-C ,  6-C ) :   1.0361
B(  2-C ,  3-C ) :   0.9948 B(  2-C , 10-H ) :   0.9822 B(  3-C ,  4-C ) :   1.0302
B(  3-C , 11-H ) :   0.9208 B(  3-C , 12-H ) :   0.9016 B(  4-C ,  5-N ) :   1.1166
B(  4-C ,  6-C ) :   1.0558 B(  4-C , 13-H ) :   0.9129 B(  5-N , 14-H ) :   0.9657
B(  5-N , 15-H ) :   0.9671 B(  6-C , 16-H ) :   0.9208 B(  6-C , 17-H ) :   0.9032

FINAL SINGLE POINT ENERGY      -289.391673273592

DIPOLE MOMENT
-------------
                                X             Y             Z
Electronic contribution:      1.42204      -0.26494      -0.18451
Nuclear contribution   :     -1.46578      -0.08734       0.21780
                        -----------------------------------------
Total Dipole Moment    :     -0.04374      -0.35228       0.03329
                        -----------------------------------------
Magnitude (a.u.)       :      0.35654
Magnitude (Debye)      :      0.90625

                             ****ORCA TERMINATED NORMALLY****
TOTAL RUN TIME: 0 days 0 hours 0 minutes 8 seconds 83 msec
