                         Program Version 3.0.3 - RELEASE   -
|  1> ! RI PBE def2-SVP def2-SVP/J NBO PAL2
|  2> % maxcore 2000
|  3> % output
|  4>     # printlevel mini
|  5>     print[ P_Basis ] 0
|  6>     print[ P_SCFInfo ] 1
|  7>     print[ P_SCFIterInfo ] 1
|  8>     print[ P_OrbEn ] 0
|  9>     print[ P_Cartesian ] 0
| 10> end
| 11> *xyz 0 1
| 12>  C        1.1294450000     0.0675460000     0.4436270000
| 13>  C        2.4640720000     0.0694200000    -0.2849670000
| 14>  C        2.2546340000     0.0860580000    -1.7848070000
| 15>  C        3.4344350000     1.1345150000     0.2871490000
| 16>  C        4.0563090000     0.0598680000     1.1897020000
| 17>  N        5.4755150000     0.1498130000     1.4216090000
| 18>  C        3.4272560000    -1.0122100000     0.2660410000
| 19>  H        0.5445160000     0.9550820000     0.1841030000
| 20>  H        1.2586720000     0.0607510000     1.5289930000
| 21>  H        0.5397220000    -0.8135210000     0.1730670000
| 22>  H        1.6955740000     0.9750040000    -2.0938950000
| 23>  H        1.6889190000    -0.7915480000    -2.1133610000
| 24>  H        3.2090110000     0.0883710000    -2.3180410000
| 25>  H        3.0061820000     2.0201370000     0.7618600000
| 26>  H        4.1541680000     1.4581870000    -0.4714060000
| 27>  H        3.5623540000     0.0521520000     2.1650500000
| 28>  H        5.9841340000     0.0922310000     0.5468550000
| 29>  H        5.8000800000    -0.6092490000     2.0081910000
| 30>  H        2.9854760000    -1.9008700000     0.7250420000
| 31>  H        4.1450350000    -1.3282360000    -0.4977090000
| 32> *
| 33>
| 34>                          ****END OF INPUT****
 Total Charge           Charge          ....    0
 Multiplicity           Mult            ....    1
 Number of Electrons    NEL             ....   56
 Basis Dimension        Dim             ....  163

MULLIKEN ATOMIC CHARGES
-----------------------
   0 C :    0.084962
   1 C :   -0.501199
   2 C :    0.099638
   3 C :    0.231329
   4 C :   -0.203620
   5 N :   -0.126858
   6 C :    0.245669
   7 H :    0.015518
   8 H :    0.011249
   9 H :    0.014830
  10 H :    0.013345
  11 H :    0.012761
  12 H :    0.001124
  13 H :    0.003614
  14 H :   -0.026899
  15 H :    0.004793
  16 H :    0.078109
  17 H :    0.088129
  18 H :   -0.003688
  19 H :   -0.042806
Sum of atomic charges:    0.0000000

LOEWDIN ATOMIC CHARGES
----------------------
   0 C :   -0.050451
   1 C :   -0.059763
   2 C :   -0.055651
   3 C :   -0.022670
   4 C :    0.001279
   5 N :   -0.093045
   6 C :   -0.042816
   7 H :    0.025143
   8 H :    0.023858
   9 H :    0.024663
  10 H :    0.025490
  11 H :    0.025232
  12 H :    0.019494
  13 H :    0.015913
  14 H :    0.019882
  15 H :    0.019304
  16 H :    0.046037
  17 H :    0.052407
  18 H :    0.011244
  19 H :    0.014450

  Mayer bond orders larger than 0.1
B(  0-C ,  1-C ) :   1.0349 B(  0-C ,  7-H ) :   0.9532 B(  0-C ,  8-H ) :   0.9552
B(  0-C ,  9-H ) :   0.9532 B(  1-C ,  2-C ) :   1.0674 B(  1-C ,  3-C ) :   1.0329
B(  1-C ,  6-C ) :   1.0482 B(  2-C , 10-H ) :   0.9562 B(  2-C , 11-H ) :   0.9567
B(  2-C , 12-H ) :   0.9446 B(  3-C ,  4-C ) :   1.0686 B(  3-C , 13-H ) :   0.9215
B(  3-C , 14-H ) :   0.8789 B(  4-C ,  5-N ) :   1.1541 B(  4-C ,  6-C ) :   1.0385
B(  4-C , 15-H ) :   0.9024 B(  5-N , 16-H ) :   0.9548 B(  5-N , 17-H ) :   0.9646
B(  6-C , 18-H ) :   0.9227 B(  6-C , 19-H ) :   0.8602

FINAL SINGLE POINT ENERGY      -290.580137214484

DIPOLE MOMENT
-------------
                                X             Y             Z
Electronic contribution:      2.80439       0.24304       1.97918
Nuclear contribution   :     -2.77607      -0.64566      -2.12705
                        -----------------------------------------
Total Dipole Moment    :      0.02831      -0.40262      -0.14788
                        -----------------------------------------
Magnitude (a.u.)       :      0.42985
Magnitude (Debye)      :      1.09259

                             ****ORCA TERMINATED NORMALLY****
TOTAL RUN TIME: 0 days 0 hours 0 minutes 8 seconds 985 msec
