                         Program Version 3.0.3 - RELEASE   -
|  1> ! RI PBE def2-SVP def2-SVP/J NBO PAL2
|  2> % maxcore 2000
|  3> % output
|  4>     # printlevel mini
|  5>     print[ P_Basis ] 0
|  6>     print[ P_SCFInfo ] 1
|  7>     print[ P_SCFIterInfo ] 1
|  8>     print[ P_OrbEn ] 0
|  9>     print[ P_Cartesian ] 0
| 10> end
| 11> *xyz 0 1
| 12>  C        1.1034200000     0.1264690000     0.6912180000
| 13>  C        2.4012760000     0.0377550000    -0.0847480000
| 14>  C        3.4872090000     1.0686680000     0.3006590000
| 15>  C        4.3362270000    -0.0639030000     0.9559690000
| 16>  C        4.3100660000    -0.0283670000     2.4708620000
| 17>  N        5.7099260000    -0.2460470000     0.5329600000
| 18>  C        3.3634380000    -1.0961470000     0.3389080000
| 19>  H        0.5533720000     1.0365330000     0.4352440000
| 20>  H        1.2783250000     0.1395840000     1.7705670000
| 21>  H        0.4561170000    -0.7277960000     0.4732410000
| 22>  H        2.1731360000     0.0308500000    -1.1535320000
| 23>  H        3.1684150000     1.8800020000     0.9615480000
| 24>  H        3.9896620000     1.5053540000    -0.5657060000
| 25>  H        4.8876710000     0.8234050000     2.8459890000
| 26>  H        3.2922700000     0.0709560000     2.8513330000
| 27>  H        4.7471070000    -0.9439970000     2.8759200000
| 28>  H        6.2988810000     0.4924790000     0.9020290000
| 29>  H        5.7833800000    -0.2095490000    -0.4769840000
| 30>  H        2.9625940000    -1.8446240000     1.0272550000
| 31>  H        3.8129080000    -1.6182240000    -0.5087330000
| 32> *
| 33>
| 34>                          ****END OF INPUT****
 Total Charge           Charge          ....    0
 Multiplicity           Mult            ....    1
 Number of Electrons    NEL             ....   56
 Basis Dimension        Dim             ....  163

MULLIKEN ATOMIC CHARGES
-----------------------
   0 C :    0.044827
   1 C :   -0.246469
   2 C :    0.271320
   3 C :   -0.447488
   4 C :    0.084994
   5 N :   -0.115032
   6 C :    0.254503
   7 H :    0.021603
   8 H :    0.010555
   9 H :    0.023210
  10 H :   -0.004608
  11 H :   -0.013485
  12 H :   -0.043024
  13 H :    0.009166
  14 H :    0.000658
  15 H :    0.023542
  16 H :    0.082564
  17 H :    0.075238
  18 H :   -0.006313
  19 H :   -0.025762
Sum of atomic charges:    0.0000000

LOEWDIN ATOMIC CHARGES
----------------------
   0 C :   -0.064136
   1 C :   -0.038747
   2 C :   -0.041204
   3 C :   -0.018647
   4 C :   -0.055278
   5 N :   -0.086597
   6 C :   -0.023844
   7 H :    0.026936
   8 H :    0.021264
   9 H :    0.027454
  10 H :    0.018897
  11 H :    0.013598
  12 H :    0.014330
  13 H :    0.022646
  14 H :    0.022387
  15 H :    0.028149
  16 H :    0.048692
  17 H :    0.045012
  18 H :    0.017662
  19 H :    0.021427

  Mayer bond orders larger than 0.1
B(  0-C ,  1-C ) :   1.0658 B(  0-C ,  7-H ) :   0.9560 B(  0-C ,  8-H ) :   0.9573
B(  0-C ,  9-H ) :   0.9565 B(  1-C ,  2-C ) :   1.1423 B(  1-C ,  6-C ) :   1.1238
B(  1-C , 10-H ) :   0.8882 B(  2-C ,  3-C ) :   1.0386 B(  2-C ,  6-C ) :  -0.1125
B(  2-C , 11-H ) :   0.9130 B(  2-C , 12-H ) :   0.8546 B(  3-C ,  4-C ) :   1.0305
B(  3-C ,  5-N ) :   1.0893 B(  3-C ,  6-C ) :   1.0488 B(  4-C , 13-H ) :   0.9512
B(  4-C , 14-H ) :   0.9516 B(  4-C , 15-H ) :   0.9523 B(  5-N , 16-H ) :   0.9625
B(  5-N , 17-H ) :   0.9514 B(  6-C , 18-H ) :   0.9144 B(  6-C , 19-H ) :   0.8670

FINAL SINGLE POINT ENERGY      -290.580246660623

DIPOLE MOMENT
-------------
                                X             Y             Z
Electronic contribution:      2.52903      -0.49654      -1.68212
Nuclear contribution   :     -2.54976       0.87390       1.49182
                        -----------------------------------------
Total Dipole Moment    :     -0.02073       0.37736      -0.19030
                        -----------------------------------------
Magnitude (a.u.)       :      0.42314
Magnitude (Debye)      :      1.07554

                             ****ORCA TERMINATED NORMALLY****
TOTAL RUN TIME: 0 days 0 hours 0 minutes 9 seconds 36 msec
