                         Program Version 3.0.3 - RELEASE   -
|  1> ! RI PBE def2-SVP def2-SVP/J NBO PAL2
|  2> % maxcore 2000
|  3> % output
|  4>     # printlevel mini
|  5>     print[ P_Basis ] 0
|  6>     print[ P_SCFInfo ] 1
|  7>     print[ P_SCFIterInfo ] 1
|  8>     print[ P_OrbEn ] 0
|  9>     print[ P_Cartesian ] 0
| 10> end
| 11> *xyz 0 1
| 12>  C        1.0939950000    -0.0488600000     0.8340390000
| 13>  C        2.2931140000     0.0876350000    -0.0817020000
| 14>  C        3.3254460000     1.1388170000     0.3888860000
| 15>  C        4.1938580000    -0.0000790000     0.9608440000
| 16>  C        5.6842470000     0.0712520000     0.7347210000
| 17>  N        6.3340630000    -1.1576890000     1.1646990000
| 18>  C        3.3713430000    -1.0006810000     0.1250590000
| 19>  H        0.4506950000     0.8340560000     0.7788760000
| 20>  H        1.4031010000    -0.1689610000     1.8770980000
| 21>  H        0.4910690000    -0.9209810000     0.5658100000
| 22>  H        1.9521770000     0.2095940000    -1.1131830000
| 23>  H        2.9699710000     1.9044530000     1.0826330000
| 24>  H        3.8210480000     1.6347810000    -0.4505240000
| 25>  H        3.9969670000    -0.1350430000     2.0305830000
| 26>  H        6.0752700000     0.9793500000     1.2245490000
| 27>  H        5.8691600000     0.1914960000    -0.3390830000
| 28>  H        6.2370230000    -1.2747690000     2.1664150000
| 29>  H        7.3262380000    -1.1296510000     0.9670240000
| 30>  H        3.0537920000    -1.9252980000     0.6108030000
| 31>  H        3.8910140000    -1.2596250000    -0.8006380000
| 32> *
| 33>
| 34>                          ****END OF INPUT****
 Total Charge           Charge          ....    0
 Multiplicity           Mult            ....    1
 Number of Electrons    NEL             ....   56
 Basis Dimension        Dim             ....  163

MULLIKEN ATOMIC CHARGES
-----------------------
   0 C :    0.046918
   1 C :   -0.213188
   2 C :    0.139603
   3 C :   -0.250804
   4 C :    0.157827
   5 N :   -0.214944
   6 C :    0.160848
   7 H :    0.021392
   8 H :    0.007231
   9 H :    0.020413
  10 H :   -0.005412
  11 H :    0.003092
  12 H :   -0.010590
  13 H :    0.001344
  14 H :   -0.012737
  15 H :   -0.014848
  16 H :    0.085852
  17 H :    0.087463
  18 H :   -0.001060
  19 H :   -0.008399
Sum of atomic charges:    0.0000000

LOEWDIN ATOMIC CHARGES
----------------------
   0 C :   -0.061773
   1 C :   -0.037568
   2 C :   -0.026458
   3 C :   -0.042374
   4 C :    0.005229
   5 N :   -0.112778
   6 C :   -0.021618
   7 H :    0.025894
   8 H :    0.022484
   9 H :    0.026442
  10 H :    0.014403
  11 H :    0.014414
  12 H :    0.021461
  13 H :    0.018755
  14 H :   -0.001887
  15 H :    0.014988
  16 H :    0.049125
  17 H :    0.051803
  18 H :    0.015489
  19 H :    0.023969

  Mayer bond orders larger than 0.1
B(  0-C ,  1-C ) :   1.0668 B(  0-C ,  7-H ) :   0.9586 B(  0-C ,  8-H ) :   0.9584
B(  0-C ,  9-H ) :   0.9570 B(  1-C ,  2-C ) :   1.0962 B(  1-C ,  6-C ) :   1.0939
B(  1-C , 10-H ) :   0.9124 B(  2-C ,  3-C ) :   1.0862 B(  2-C , 11-H ) :   0.9268
B(  2-C , 12-H ) :   0.8961 B(  3-C ,  4-C ) :   1.0651 B(  3-C ,  6-C ) :   1.0881
B(  3-C , 13-H ) :   0.9015 B(  4-C ,  5-N ) :   1.0925 B(  4-C , 14-H ) :   0.9191
B(  4-C , 15-H ) :   0.9108 B(  5-N , 16-H ) :   0.9701 B(  5-N , 17-H ) :   0.9656
B(  6-C , 18-H ) :   0.9289 B(  6-C , 19-H ) :   0.8998

FINAL SINGLE POINT ENERGY      -290.573381819962

DIPOLE MOMENT
-------------
                                X             Y             Z
Electronic contribution:      1.98126      -0.50954      -0.36089
Nuclear contribution   :     -1.67556       0.75856       0.62461
                        -----------------------------------------
Total Dipole Moment    :      0.30570       0.24902       0.26372
                        -----------------------------------------
Magnitude (a.u.)       :      0.47435
Magnitude (Debye)      :      1.20571

                             ****ORCA TERMINATED NORMALLY****
TOTAL RUN TIME: 0 days 0 hours 0 minutes 8 seconds 227 msec
