                         Program Version 3.0.3 - RELEASE   -
|  1> ! RI PBE def2-SVP def2-SVP/J NBO PAL2
|  2> % maxcore 2000
|  3> % output
|  4>     # printlevel mini
|  5>     print[ P_Basis ] 0
|  6>     print[ P_SCFInfo ] 1
|  7>     print[ P_SCFIterInfo ] 1
|  8>     print[ P_OrbEn ] 0
|  9>     print[ P_Cartesian ] 0
| 10> end
| 11> *xyz 0 1
| 12>  C        0.9265650000    -0.0598150000     0.0937910000
| 13>  C        2.4066900000     0.0632210000     0.1005270000
| 14>  C        3.2377060000     1.1612470000     0.1051910000
| 15>  C        4.5492610000     0.6427000000     0.1106320000
| 16>  C        5.8365260000     1.3920390000     0.1170610000
| 17>  N        4.5305680000    -0.6811990000     0.1093990000
| 18>  N        3.2322710000    -1.0033440000     0.1033030000
| 19>  H        0.4717080000     0.9301520000     0.0925830000
| 20>  H        0.5603010000    -0.5940370000     0.9751990000
| 21>  H        0.5682190000    -0.5925560000    -0.7917580000
| 22>  H        2.9366220000     2.1970770000     0.1047310000
| 23>  H        5.6562960000     2.4675370000     0.1170880000
| 24>  H        6.4380730000     1.1469400000    -0.7611270000
| 25>  H        6.4300840000     1.1455590000     1.0002850000
| 26>  H        2.9721800000    -1.9737200000     0.1012950000
| 27> *
| 28>
| 29>                          ****END OF INPUT****
 Total Charge           Charge          ....    0
 Multiplicity           Mult            ....    1
 Number of Electrons    NEL             ....   52
 Basis Dimension        Dim             ....  138

MULLIKEN ATOMIC CHARGES
-----------------------
   0 C :    0.090796
   1 C :   -0.034100
   2 C :   -0.115689
   3 C :   -0.131002
   4 C :    0.103055
   5 N :   -0.132571
   6 N :   -0.026443
   7 H :    0.022703
   8 H :    0.035736
   9 H :    0.035634
  10 H :   -0.033527
  11 H :    0.006196
  12 H :    0.034033
  13 H :    0.033861
  14 H :    0.111318
Sum of atomic charges:   -0.0000000

LOEWDIN ATOMIC CHARGES
----------------------
   0 C :   -0.064158
   1 C :   -0.036112
   2 C :   -0.114472
   3 C :   -0.062416
   4 C :   -0.065648
   5 N :   -0.115107
   6 N :    0.126237
   7 H :    0.044293
   8 H :    0.038638
   9 H :    0.038623
  10 H :    0.022044
  11 H :    0.032420
  12 H :    0.039710
  13 H :    0.039686
  14 H :    0.076260

  Mayer bond orders larger than 0.1
B(  0-C ,  1-C ) :   1.1095 B(  0-C ,  7-H ) :   0.9372 B(  0-C ,  8-H ) :   0.9411
B(  0-C ,  9-H ) :   0.9411 B(  1-C ,  2-C ) :   1.4268 B(  1-C ,  5-N ) :   0.1194
B(  1-C ,  6-N ) :   1.2306 B(  2-C ,  3-C ) :   1.3041 B(  2-C , 10-H ) :   0.9903
B(  3-C ,  4-C ) :   1.1160 B(  3-C ,  5-N ) :   1.5623 B(  4-C , 11-H ) :   0.9425
B(  4-C , 12-H ) :   0.9410 B(  4-C , 13-H ) :   0.9409 B(  5-N ,  6-N ) :   1.1551
B(  6-N , 14-H ) :   0.9517

FINAL SINGLE POINT ENERGY      -304.238047174461

DIPOLE MOMENT
-------------
                                X             Y             Z
Electronic contribution:      1.09142      -3.01460       0.00225
Nuclear contribution   :     -2.01102       2.89317      -0.00648
                        -----------------------------------------
Total Dipole Moment    :     -0.91960      -0.12143      -0.00422
                        -----------------------------------------
Magnitude (a.u.)       :      0.92759
Magnitude (Debye)      :      2.35775

                             ****ORCA TERMINATED NORMALLY****
TOTAL RUN TIME: 0 days 0 hours 0 minutes 7 seconds 195 msec
