                         Program Version 3.0.3 - RELEASE   -
|  1> ! RI PBE def2-SVP def2-SVP/J NBO PAL2
|  2> % maxcore 2000
|  3> % output
|  4>     # printlevel mini
|  5>     print[ P_Basis ] 0
|  6>     print[ P_SCFInfo ] 1
|  7>     print[ P_SCFIterInfo ] 1
|  8>     print[ P_OrbEn ] 0
|  9>     print[ P_Cartesian ] 0
| 10> end
| 11> *xyz 0 1
| 12>  C        1.0755820000     0.0142910000    -0.1427640000
| 13>  C        2.5624860000     0.0987010000    -0.0177590000
| 14>  C        3.2428360000     1.3146610000    -0.0018160000
| 15>  C        4.6120330000     1.2800880000     0.1172710000
| 16>  C        5.2037880000     0.0287350000     0.2120830000
| 17>  N        4.5124520000    -1.1025170000     0.1922150000
| 18>  N        3.2035100000    -1.0663060000     0.0782540000
| 19>  H        0.6216430000     1.0029080000    -0.2169860000
| 20>  H        0.6539480000    -0.5035990000     0.7212160000
| 21>  H        0.8044800000    -0.5657950000    -1.0273180000
| 22>  H        2.7001950000     2.2498970000    -0.0813210000
| 23>  H        5.2101020000     2.1835910000     0.1370790000
| 24>  H        6.2780740000    -0.0875650000     0.3086460000
| 25> *
| 26>
| 27>                          ****END OF INPUT****
 Total Charge           Charge          ....    0
 Multiplicity           Mult            ....    1
 Number of Electrons    NEL             ....   50
 Basis Dimension        Dim             ....  128

MULLIKEN ATOMIC CHARGES
-----------------------
   0 C :    0.095698
   1 C :   -0.138938
   2 C :    0.046522
   3 C :    0.028043
   4 C :    0.027676
   5 N :   -0.072367
   6 N :   -0.093531
   7 H :    0.006060
   8 H :    0.049761
   9 H :    0.049063
  10 H :   -0.011589
  11 H :    0.001392
  12 H :    0.012211
Sum of atomic charges:   -0.0000000

LOEWDIN ATOMIC CHARGES
----------------------
   0 C :   -0.057957
   1 C :   -0.017956
   2 C :   -0.021356
   3 C :   -0.018294
   4 C :   -0.017284
   5 N :   -0.038689
   6 N :   -0.051756
   7 H :    0.029333
   8 H :    0.048612
   9 H :    0.048501
  10 H :    0.033002
  11 H :    0.036248
  12 H :    0.027597

  Mayer bond orders larger than 0.1
B(  0-C ,  1-C ) :   1.0863 B(  0-C ,  7-H ) :   0.9471 B(  0-C ,  8-H ) :   0.9422
B(  0-C ,  9-H ) :   0.9419 B(  1-C ,  2-C ) :   1.3269 B(  1-C ,  6-N ) :   1.5109
B(  2-C ,  3-C ) :   1.4197 B(  2-C , 10-H ) :   0.9765 B(  3-C ,  4-C ) :   1.3171
B(  3-C , 11-H ) :   0.9753 B(  4-C ,  5-N ) :   1.5653 B(  4-C , 12-H ) :   0.9812
B(  5-N ,  6-N ) :   1.3048

FINAL SINGLE POINT ENERGY      -303.009563800221

DIPOLE MOMENT
-------------
                                X             Y             Z
Electronic contribution:      3.97073      -2.15788       0.41848
Nuclear contribution   :     -4.17207       3.59526      -0.48504
                        -----------------------------------------
Total Dipole Moment    :     -0.20134       1.43738      -0.06656
                        -----------------------------------------
Magnitude (a.u.)       :      1.45294
Magnitude (Debye)      :      3.69308

                             ****ORCA TERMINATED NORMALLY****
TOTAL RUN TIME: 0 days 0 hours 0 minutes 6 seconds 166 msec
