                         Program Version 3.0.3 - RELEASE   -
|  1> ! RI PBE def2-SVP def2-SVP/J NBO PAL2
|  2> % maxcore 2000
|  3> % output
|  4>     # printlevel mini
|  5>     print[ P_Basis ] 0
|  6>     print[ P_SCFInfo ] 1
|  7>     print[ P_SCFIterInfo ] 1
|  8>     print[ P_OrbEn ] 0
|  9>     print[ P_Cartesian ] 0
| 10> end
| 11> *xyz 0 1
| 12>  C        1.0604580000    -0.1145500000     0.4139920000
| 13>  C        2.3332320000     0.0105780000     0.0426260000
| 14>  C        3.1210760000     1.2934590000    -0.1046360000
| 15>  C        4.5204390000     0.8565460000    -0.5538210000
| 16>  C        4.4619340000    -0.6541790000    -0.6388580000
| 17>  N        5.3466970000    -1.5042900000    -0.9610180000
| 18>  N        3.1904340000    -1.0204020000    -0.2837680000
| 19>  H        0.4742370000     0.7628120000     0.6490210000
| 20>  H        0.5782450000    -1.0809210000     0.4918250000
| 21>  H        3.1424920000     1.8312470000     0.8444540000
| 22>  H        2.6399720000     1.9474600000    -0.8334980000
| 23>  H        5.3004360000     1.1496570000     0.1514250000
| 24>  H        4.7966410000     1.2635170000    -1.5283950000
| 25>  H        6.2203760000    -1.0410390000    -1.1906180000
| 26>  H        2.9252300000    -1.9912950000    -0.2707420000
| 27> *
| 28>
| 29>                          ****END OF INPUT****
 Total Charge           Charge          ....    0
 Multiplicity           Mult            ....    1
 Number of Electrons    NEL             ....   52
 Basis Dimension        Dim             ....  138

MULLIKEN ATOMIC CHARGES
-----------------------
   0 C :   -0.081033
   1 C :   -0.049057
   2 C :    0.046624
   3 C :    0.049786
   4 C :   -0.188116
   5 N :   -0.085625
   6 N :   -0.041740
   7 H :    0.001839
   8 H :   -0.000540
   9 H :    0.039221
  10 H :    0.041471
  11 H :    0.039692
  12 H :    0.035777
  13 H :    0.084181
  14 H :    0.107520
Sum of atomic charges:   -0.0000000

LOEWDIN ATOMIC CHARGES
----------------------
   0 C :   -0.153092
   1 C :    0.006394
   2 C :   -0.032656
   3 C :   -0.055207
   4 C :    0.002732
   5 N :   -0.173156
   6 N :    0.057071
   7 H :    0.025732
   8 H :    0.020936
   9 H :    0.042098
  10 H :    0.042397
  11 H :    0.042275
  12 H :    0.041679
  13 H :    0.048899
  14 H :    0.083898

  Mayer bond orders larger than 0.1
B(  0-C ,  1-C ) :   1.9125 B(  0-C ,  7-H ) :   0.9235 B(  0-C ,  8-H ) :   0.9256
B(  1-C ,  2-C ) :   1.0173 B(  1-C ,  6-N ) :   1.1309 B(  2-C ,  3-C ) :   1.1193
B(  2-C ,  9-H ) :   0.9112 B(  2-C , 10-H ) :   0.9121 B(  3-C ,  4-C ) :   0.9897
B(  3-C , 11-H ) :   0.9107 B(  3-C , 12-H ) :   0.9100 B(  4-C ,  5-N ) :   2.0040
B(  4-C ,  6-N ) :   1.1395 B(  5-N , 13-H ) :   0.9263 B(  6-N , 14-H ) :   0.9252

FINAL SINGLE POINT ENERGY      -304.231422272333

DIPOLE MOMENT
-------------
                                X             Y             Z
Electronic contribution:      1.43231      -3.11560      -0.63806
Nuclear contribution   :     -1.44607       3.88580       0.69657
                        -----------------------------------------
Total Dipole Moment    :     -0.01375       0.77020       0.05851
                        -----------------------------------------
Magnitude (a.u.)       :      0.77254
Magnitude (Debye)      :      1.96365

                             ****ORCA TERMINATED NORMALLY****
TOTAL RUN TIME: 0 days 0 hours 0 minutes 7 seconds 114 msec
