                         Program Version 3.0.3 - RELEASE   -
|  1> ! RI PBE def2-SVP def2-SVP/J NBO PAL2
|  2> % maxcore 2000
|  3> % output
|  4>     # printlevel mini
|  5>     print[ P_Basis ] 0
|  6>     print[ P_SCFInfo ] 1
|  7>     print[ P_SCFIterInfo ] 1
|  8>     print[ P_OrbEn ] 0
|  9>     print[ P_Cartesian ] 0
| 10> end
| 11> *xyz 0 1
| 12>  C        1.0223290000     0.0438720000    -0.0053140000
| 13>  C        2.4898290000    -0.1133710000    -0.1381010000
| 14>  C        3.2413040000    -1.2193200000    -0.1478480000
| 15>  C        4.6798210000    -0.8276040000    -0.3089580000
| 16>  C        4.6256810000     0.6924570000    -0.3901430000
| 17>  N        5.5354280000     1.5676820000    -0.5277490000
| 18>  N        3.2934060000     1.0158450000    -0.2798190000
| 19>  H        0.5434400000    -0.9291180000     0.0960990000
| 20>  H        0.6000710000     0.5473230000    -0.8806330000
| 21>  H        0.7693570000     0.6467280000     0.8724770000
| 22>  H        2.8721840000    -2.2289010000    -0.0548490000
| 23>  H        5.1415290000    -1.2339160000    -1.2152700000
| 24>  H        5.3102000000    -1.1345530000     0.5325160000
| 25>  H        6.4481530000     1.1275060000    -0.5908690000
| 26>  H        2.9704790000     1.9665600000    -0.3027400000
| 27> *
| 28>
| 29>                          ****END OF INPUT****
 Total Charge           Charge          ....    0
 Multiplicity           Mult            ....    1
 Number of Electrons    NEL             ....   52
 Basis Dimension        Dim             ....  138

MULLIKEN ATOMIC CHARGES
-----------------------
   0 C :    0.087881
   1 C :   -0.008911
   2 C :   -0.196014
   3 C :    0.129218
   4 C :   -0.184110
   5 N :   -0.088788
   6 N :   -0.078746
   7 H :    0.022973
   8 H :    0.035786
   9 H :    0.035378
  10 H :   -0.027167
  11 H :    0.044834
  12 H :    0.047287
  13 H :    0.081649
  14 H :    0.098730
Sum of atomic charges:   -0.0000000

LOEWDIN ATOMIC CHARGES
----------------------
   0 C :   -0.061250
   1 C :    0.002841
   2 C :   -0.114624
   3 C :   -0.052086
   4 C :    0.011340
   5 N :   -0.178939
   6 N :    0.035595
   7 H :    0.042113
   8 H :    0.039454
   9 H :    0.039410
  10 H :    0.019481
  11 H :    0.046702
  12 H :    0.047163
  13 H :    0.047341
  14 H :    0.075458

  Mayer bond orders larger than 0.1
B(  0-C ,  1-C ) :   1.1163 B(  0-C ,  7-H ) :   0.9421 B(  0-C ,  8-H ) :   0.9366
B(  0-C ,  9-H ) :   0.9358 B(  1-C ,  2-C ) :   1.7271 B(  1-C ,  6-N ) :   1.0912
B(  2-C ,  3-C ) :   1.0188 B(  2-C , 10-H ) :   0.9911 B(  3-C ,  4-C ) :   0.9785
B(  3-C , 11-H ) :   0.8991 B(  3-C , 12-H ) :   0.8992 B(  4-C ,  5-N ) :   1.9962
B(  4-C ,  6-N ) :   1.1380 B(  5-N , 13-H ) :   0.9258 B(  6-N , 14-H ) :   0.9323

FINAL SINGLE POINT ENERGY      -304.231004015602

DIPOLE MOMENT
-------------
                                X             Y             Z
Electronic contribution:      2.87070       2.02291      -0.39210
Nuclear contribution   :     -3.51374      -2.54214       0.48382
                        -----------------------------------------
Total Dipole Moment    :     -0.64304      -0.51922       0.09172
                        -----------------------------------------
Magnitude (a.u.)       :      0.83157
Magnitude (Debye)      :      2.11368

                             ****ORCA TERMINATED NORMALLY****
TOTAL RUN TIME: 0 days 0 hours 0 minutes 6 seconds 959 msec
