                         Program Version 3.0.3 - RELEASE   -
|  1> ! RI PBE def2-SVP def2-SVP/J NBO PAL2
|  2> % maxcore 2000
|  3> % output
|  4>     # printlevel mini
|  5>     print[ P_Basis ] 0
|  6>     print[ P_SCFInfo ] 1
|  7>     print[ P_SCFIterInfo ] 1
|  8>     print[ P_OrbEn ] 0
|  9>     print[ P_Cartesian ] 0
| 10> end
| 11> *xyz 0 1
| 12>  C        1.0042790000     0.1063400000    -0.1526070000
| 13>  C        2.5248760000     0.0052900000    -0.0594760000
| 14>  C        2.9844200000     0.0203070000     1.3865440000
| 15>  C        3.0375150000    -1.2051470000    -0.8599220000
| 16>  C        3.3246060000    -0.5613360000    -2.1815280000
| 17>  N        3.3659070000     0.7108220000    -2.1229920000
| 18>  N        3.1627920000     1.1021590000    -0.8200810000
| 19>  H        0.5250530000    -0.7346210000     0.3558140000
| 20>  H        0.6796620000     0.1056180000    -1.1962220000
| 21>  H        0.6490420000     1.0271050000     0.3190820000
| 22>  H        2.5634420000    -0.8254100000     1.9361620000
| 23>  H        2.6611800000     0.9363730000     1.8883960000
| 24>  H        4.0728660000    -0.0304660000     1.4433590000
| 25>  H        2.3104900000    -2.0188280000    -0.9127780000
| 26>  H        3.9583230000    -1.6120350000    -0.4229560000
| 27>  H        3.5370370000    -1.0722720000    -3.1121520000
| 28>  H        2.6744910000     1.9873920000    -0.7925240000
| 29> *
| 30>
| 31>                          ****END OF INPUT****
 Total Charge           Charge          ....    0
 Multiplicity           Mult            ....    1
 Number of Electrons    NEL             ....   54
 Basis Dimension        Dim             ....  148

MULLIKEN ATOMIC CHARGES
-----------------------
   0 C :    0.090409
   1 C :   -0.294157
   2 C :    0.088400
   3 C :    0.100248
   4 C :   -0.060177
   5 N :   -0.088309
   6 N :   -0.096339
   7 H :    0.016826
   8 H :    0.021764
   9 H :    0.013289
  10 H :    0.018446
  11 H :    0.012922
  12 H :    0.021902
  13 H :    0.023448
  14 H :    0.019695
  15 H :    0.003860
  16 H :    0.107772
Sum of atomic charges:   -0.0000000

LOEWDIN ATOMIC CHARGES
----------------------
   0 C :   -0.058340
   1 C :   -0.024353
   2 C :   -0.055763
   3 C :   -0.049810
   4 C :   -0.061891
   5 N :   -0.042154
   6 N :   -0.009398
   7 H :    0.028255
   8 H :    0.028774
   9 H :    0.023747
  10 H :    0.028242
  11 H :    0.025983
  12 H :    0.027222
  13 H :    0.032368
  14 H :    0.035178
  15 H :    0.016380
  16 H :    0.055559

  Mayer bond orders larger than 0.1
B(  0-C ,  1-C ) :   1.0450 B(  0-C ,  7-H ) :   0.9481 B(  0-C ,  8-H ) :   0.9537
B(  0-C ,  9-H ) :   0.9522 B(  1-C ,  2-C ) :   1.0694 B(  1-C ,  3-C ) :   1.0486
B(  1-C ,  6-N ) :   0.9503 B(  2-C , 10-H ) :   0.9549 B(  2-C , 11-H ) :   0.9544
B(  2-C , 12-H ) :   0.9465 B(  3-C ,  4-C ) :   1.0035 B(  3-C , 13-H ) :   0.9333
B(  3-C , 14-H ) :   0.8919 B(  4-C ,  5-N ) :   1.8609 B(  4-C ,  6-N ) :   0.1139
B(  4-C , 15-H ) :   0.9775 B(  5-N ,  6-N ) :   1.0910 B(  6-N , 16-H ) :   0.9388

FINAL SINGLE POINT ENERGY      -305.401409380833

DIPOLE MOMENT
-------------
                                X             Y             Z
Electronic contribution:      3.08981       2.03564      -5.06644
Nuclear contribution   :     -3.62439      -2.42446       5.65920
                        -----------------------------------------
Total Dipole Moment    :     -0.53458      -0.38881       0.59277
                        -----------------------------------------
Magnitude (a.u.)       :      0.88787
Magnitude (Debye)      :      2.25680

                             ****ORCA TERMINATED NORMALLY****
TOTAL RUN TIME: 0 days 0 hours 0 minutes 8 seconds 129 msec
