                         Program Version 3.0.3 - RELEASE   -
|  1> ! RI PBE def2-SVP def2-SVP/J NBO PAL2
|  2> % maxcore 2000
|  3> % output
|  4>     # printlevel mini
|  5>     print[ P_Basis ] 0
|  6>     print[ P_SCFInfo ] 1
|  7>     print[ P_SCFIterInfo ] 1
|  8>     print[ P_OrbEn ] 0
|  9>     print[ P_Cartesian ] 0
| 10> end
| 11> *xyz 0 1
| 12>  C        1.0002580000     0.1654930000     0.4848690000
| 13>  C        2.3056400000     0.0272250000    -0.2644980000
| 14>  C        2.4204290000    -1.1761160000    -1.1969010000
| 15>  C        3.3076820000    -0.6044630000    -2.2714900000
| 16>  C        3.9866040000    -1.3982650000    -3.3235840000
| 17>  N        3.3505070000     0.6701570000    -2.2345250000
| 18>  N        2.5261690000     1.1225960000    -1.2180040000
| 19>  H        0.8583650000    -0.6686750000     1.1764140000
| 20>  H        0.1618330000     0.1877980000    -0.2146310000
| 21>  H        0.9773060000     1.0882340000     1.0701180000
| 22>  H        3.1400940000    -0.0138270000     0.4552500000
| 23>  H        1.4427160000    -1.4436540000    -1.6230580000
| 24>  H        2.8262980000    -2.0674780000    -0.7157010000
| 25>  H        4.6676340000    -2.1345240000    -2.8854370000
| 26>  H        4.5512970000    -0.7417460000    -3.9850430000
| 27>  H        3.2586100000    -1.9570780000    -3.9220320000
| 28>  H        2.9115770000     1.9666240000    -0.8176470000
| 29> *
| 30>
| 31>                          ****END OF INPUT****
 Total Charge           Charge          ....    0
 Multiplicity           Mult            ....    1
 Number of Electrons    NEL             ....   54
 Basis Dimension        Dim             ....  148

MULLIKEN ATOMIC CHARGES
-----------------------
   0 C :    0.045783
   1 C :   -0.058670
   2 C :    0.112907
   3 C :   -0.259494
   4 C :    0.094818
   5 N :   -0.088529
   6 N :   -0.126654
   7 H :    0.023411
   8 H :    0.019907
   9 H :    0.018315
  10 H :    0.010601
  11 H :    0.011122
  12 H :    0.013375
  13 H :    0.024214
  14 H :    0.027463
  15 H :    0.024846
  16 H :    0.106586
Sum of atomic charges:   -0.0000000

LOEWDIN ATOMIC CHARGES
----------------------
   0 C :   -0.065753
   1 C :    0.000774
   2 C :   -0.048093
   3 C :   -0.065345
   4 C :   -0.066311
   5 N :   -0.057432
   6 N :   -0.025622
   7 H :    0.029949
   8 H :    0.027562
   9 H :    0.027903
  10 H :    0.013394
  11 H :    0.033092
  12 H :    0.030024
  13 H :    0.034685
  14 H :    0.039261
  15 H :    0.036386
  16 H :    0.055525

  Mayer bond orders larger than 0.1
B(  0-C ,  1-C ) :   1.0936 B(  0-C ,  7-H ) :   0.9544 B(  0-C ,  8-H ) :   0.9506
B(  0-C ,  9-H ) :   0.9564 B(  1-C ,  2-C ) :   1.0639 B(  1-C ,  6-N ) :   0.9582
B(  1-C , 10-H ) :   0.9138 B(  2-C ,  3-C ) :   1.0139 B(  2-C , 11-H ) :   0.8774
B(  2-C , 12-H ) :   0.9313 B(  3-C ,  4-C ) :   1.1166 B(  3-C ,  5-N ) :   1.8880
B(  3-C ,  6-N ) :   0.1045 B(  4-C , 13-H ) :   0.9427 B(  4-C , 14-H ) :   0.9415
B(  4-C , 15-H ) :   0.9365 B(  5-N ,  6-N ) :   1.0628 B(  6-N , 16-H ) :   0.9366

FINAL SINGLE POINT ENERGY      -305.407643849212

DIPOLE MOMENT
-------------
                                X             Y             Z
Electronic contribution:      1.87430       3.35879      -1.87239
Nuclear contribution   :     -1.94067      -3.82959       2.51514
                        -----------------------------------------
Total Dipole Moment    :     -0.06637      -0.47081       0.64275
                        -----------------------------------------
Magnitude (a.u.)       :      0.79949
Magnitude (Debye)      :      2.03215

                             ****ORCA TERMINATED NORMALLY****
TOTAL RUN TIME: 0 days 0 hours 0 minutes 8 seconds 74 msec
