                         Program Version 3.0.3 - RELEASE   -
|  1> ! RI PBE def2-SVP def2-SVP/J NBO PAL2
|  2> % maxcore 2000
|  3> % output
|  4>     # printlevel mini
|  5>     print[ P_Basis ] 0
|  6>     print[ P_SCFInfo ] 1
|  7>     print[ P_SCFIterInfo ] 1
|  8>     print[ P_OrbEn ] 0
|  9>     print[ P_Cartesian ] 0
| 10> end
| 11> *xyz 0 1
| 12>  C        1.0190580000    -0.2043530000     0.6077230000
| 13>  C        2.2414620000     0.0383390000    -0.2540230000
| 14>  C        3.1954050000     1.1267160000     0.2780550000
| 15>  C        4.0632490000    -0.0297660000     0.8013100000
| 16>  C        5.5567180000     0.0321040000     0.5946970000
| 17>  N        6.1911840000    -1.1739010000     1.1059010000
| 18>  N        3.3346050000    -0.9373600000    -0.0958870000
| 19>  H        0.3028780000     0.6167050000     0.5094120000
| 20>  H        1.2890130000    -0.2935570000     1.6642640000
| 21>  H        0.5104660000    -1.1255370000     0.3082780000
| 22>  H        1.9323280000     0.1576560000    -1.2984690000
| 23>  H        2.7887310000     1.8234400000     1.0113780000
| 24>  H        3.6886380000     1.6843460000    -0.5200350000
| 25>  H        3.8624050000    -0.2197500000     1.8678810000
| 26>  H        5.9357980000     0.9643610000     1.0471310000
| 27>  H        5.7438690000     0.0897340000    -0.4812240000
| 28>  H        6.2106330000    -1.1628350000     2.1185970000
| 29>  H        7.1509740000    -1.2389120000     0.7934470000
| 30>  H        3.0832960000    -1.8413190000     0.2832720000
| 31> *
| 32>
| 33>                          ****END OF INPUT****
 Total Charge           Charge          ....    0
 Multiplicity           Mult            ....    1
 Number of Electrons    NEL             ....   56
 Basis Dimension        Dim             ....  158

MULLIKEN ATOMIC CHARGES
-----------------------
   0 C :    0.040615
   1 C :   -0.066822
   2 C :    0.070459
   3 C :   -0.066643
   4 C :    0.173201
   5 N :   -0.217872
   6 N :   -0.199706
   7 H :    0.021807
   8 H :    0.007717
   9 H :    0.023374
  10 H :   -0.003626
  11 H :    0.010995
  12 H :   -0.000937
  13 H :   -0.016765
  14 H :   -0.018844
  15 H :   -0.014159
  16 H :    0.083893
  17 H :    0.087992
  18 H :    0.085320
Sum of atomic charges:   -0.0000000

LOEWDIN ATOMIC CHARGES
----------------------
   0 C :   -0.077567
   1 C :    0.014534
   2 C :   -0.033017
   3 C :    0.011767
   4 C :   -0.003242
   5 N :   -0.111352
   6 N :   -0.092364
   7 H :    0.029415
   8 H :    0.022955
   9 H :    0.026652
  10 H :    0.008657
  11 H :    0.018381
  12 H :    0.025830
  13 H :    0.000244
  14 H :   -0.002858
  15 H :    0.019138
  16 H :    0.047940
  17 H :    0.052046
  18 H :    0.042839

  Mayer bond orders larger than 0.1
B(  0-C ,  1-C ) :   1.0710 B(  0-C ,  7-H ) :   0.9497 B(  0-C ,  8-H ) :   0.9501
B(  0-C ,  9-H ) :   0.9541 B(  1-C ,  2-C ) :   1.0902 B(  1-C ,  6-N ) :   1.0734
B(  1-C , 10-H ) :   0.9190 B(  2-C ,  3-C ) :   1.0621 B(  2-C , 11-H ) :   0.9371
B(  2-C , 12-H ) :   0.8911 B(  3-C ,  4-C ) :   1.0480 B(  3-C ,  6-N ) :   1.0627
B(  3-C , 13-H ) :   0.9034 B(  4-C ,  5-N ) :   1.1076 B(  4-C , 14-H ) :   0.9177
B(  4-C , 15-H ) :   0.8996 B(  5-N , 16-H ) :   0.9708 B(  5-N , 17-H ) :   0.9669
B(  6-N , 18-H ) :   0.9449

FINAL SINGLE POINT ENERGY      -306.587094269814

DIPOLE MOMENT
-------------
                                X             Y             Z
Electronic contribution:      1.72889      -1.29663      -1.15904
Nuclear contribution   :     -1.63041       1.56403       1.69786
                        -----------------------------------------
Total Dipole Moment    :      0.09848       0.26740       0.53881
                        -----------------------------------------
Magnitude (a.u.)       :      0.60953
Magnitude (Debye)      :      1.54929

                             ****ORCA TERMINATED NORMALLY****
TOTAL RUN TIME: 0 days 0 hours 0 minutes 7 seconds 668 msec
