                         Program Version 3.0.3 - RELEASE   -
|  1> ! RI PBE def2-SVP def2-SVP/J NBO PAL2
|  2> % maxcore 2000
|  3> % output
|  4>     # printlevel mini
|  5>     print[ P_Basis ] 0
|  6>     print[ P_SCFInfo ] 1
|  7>     print[ P_SCFIterInfo ] 1
|  8>     print[ P_OrbEn ] 0
|  9>     print[ P_Cartesian ] 0
| 10> end
| 11> *xyz 0 1
| 12>  C        0.9362580000    -0.0324460000    -0.1736330000
| 13>  C        2.4171270000    -0.0920440000     0.1785610000
| 14>  C        3.1699830000     1.1573050000    -0.2669530000
| 15>  C        3.4337330000     1.1032740000    -1.7667340000
| 16>  C        4.0971340000    -0.1964150000    -2.0826130000
| 17>  N        3.9335300000    -1.2633410000    -1.4004490000
| 18>  N        3.0421900000    -1.2819370000    -0.3948850000
| 19>  H        0.4544730000     0.8110460000     0.3292650000
| 20>  H        0.4310420000    -0.9503790000     0.1336010000
| 21>  H        0.7917320000     0.0782990000    -1.2506320000
| 22>  H        2.5028520000    -0.1787440000     1.2678370000
| 23>  H        4.1284410000     1.2093880000     0.2573590000
| 24>  H        2.5972820000     2.0461780000     0.0067330000
| 25>  H        4.0705580000     1.9341770000    -2.0812130000
| 26>  H        2.4955240000     1.2097920000    -2.3261210000
| 27>  H        4.8042260000    -0.2699410000    -2.9028800000
| 28>  H        3.2089150000    -2.0539120000     0.2252580000
| 29> *
| 30>
| 31>                          ****END OF INPUT****
 Total Charge           Charge          ....    0
 Multiplicity           Mult            ....    1
 Number of Electrons    NEL             ....   54
 Basis Dimension        Dim             ....  148

MULLIKEN ATOMIC CHARGES
-----------------------
   0 C :    0.057911
   1 C :   -0.045632
   2 C :    0.003870
   3 C :    0.047068
   4 C :   -0.123434
   5 N :   -0.074483
   6 N :   -0.113081
   7 H :    0.011544
   8 H :    0.016115
   9 H :    0.019391
  10 H :    0.014214
  11 H :    0.019625
  12 H :    0.007618
  13 H :    0.013849
  14 H :    0.026271
  15 H :    0.004149
  16 H :    0.115006
Sum of atomic charges:    0.0000000

LOEWDIN ATOMIC CHARGES
----------------------
   0 C :   -0.066435
   1 C :   -0.003792
   2 C :   -0.037887
   3 C :   -0.063489
   4 C :   -0.090338
   5 N :   -0.045582
   6 N :    0.007655
   7 H :    0.024651
   8 H :    0.026485
   9 H :    0.025709
  10 H :    0.025016
  11 H :    0.028532
  12 H :    0.027269
  13 H :    0.034102
  14 H :    0.031303
  15 H :    0.013984
  16 H :    0.062818

  Mayer bond orders larger than 0.1
B(  0-C ,  1-C ) :   1.0790 B(  0-C ,  7-H ) :   0.9510 B(  0-C ,  8-H ) :   0.9524
B(  0-C ,  9-H ) :   0.9556 B(  1-C ,  2-C ) :   1.0664 B(  1-C ,  6-N ) :   0.9662
B(  1-C , 10-H ) :   0.9182 B(  2-C ,  3-C ) :   1.0887 B(  2-C , 11-H ) :   0.9275
B(  2-C , 12-H ) :   0.9299 B(  3-C ,  4-C ) :   1.0155 B(  3-C , 13-H ) :   0.9202
B(  3-C , 14-H ) :   0.9134 B(  4-C ,  5-N ) :   1.8754 B(  4-C ,  6-N ) :   0.1446
B(  4-C , 15-H ) :   0.9696 B(  5-N ,  6-N ) :   1.1366 B(  6-N , 16-H ) :   0.9487

FINAL SINGLE POINT ENERGY      -305.400738074763

DIPOLE MOMENT
-------------
                                X             Y             Z
Electronic contribution:      3.66296      -3.91344      -1.17025
Nuclear contribution   :     -4.01573       4.39700       1.78535
                        -----------------------------------------
Total Dipole Moment    :     -0.35277       0.48356       0.61510
                        -----------------------------------------
Magnitude (a.u.)       :      0.85827
Magnitude (Debye)      :      2.18155

                             ****ORCA TERMINATED NORMALLY****
TOTAL RUN TIME: 0 days 0 hours 0 minutes 7 seconds 815 msec
