                         Program Version 3.0.3 - RELEASE   -
|  1> ! RI PBE def2-SVP def2-SVP/J NBO PAL2
|  2> % maxcore 2000
|  3> % output
|  4>     # printlevel mini
|  5>     print[ P_Basis ] 0
|  6>     print[ P_SCFInfo ] 1
|  7>     print[ P_SCFIterInfo ] 1
|  8>     print[ P_OrbEn ] 0
|  9>     print[ P_Cartesian ] 0
| 10> end
| 11> *xyz 0 1
| 12>  C        1.0626930000    -0.0519960000    -0.0458330000
| 13>  C        2.5750650000    -0.0196130000    -0.0002760000
| 14>  C        3.1609910000     1.1699570000     0.7654390000
| 15>  C        4.5103180000     0.6554690000     1.2580870000
| 16>  C        4.3200050000    -0.8457970000     1.3584670000
| 17>  N        5.0665370000    -1.7368920000     1.8740880000
| 18>  N        3.1356590000    -1.1309810000     0.7387280000
| 19>  H        0.6777350000     0.8251890000    -0.5716110000
| 20>  H        0.6509590000    -0.0618250000     0.9662440000
| 21>  H        0.6989740000    -0.9383980000    -0.5720010000
| 22>  H        2.9585570000    -0.0068130000    -1.0339500000
| 23>  H        2.5103210000     1.3953760000     1.6154430000
| 24>  H        3.2307660000     2.0657010000     0.1469390000
| 25>  H        4.8286330000     1.0838360000     2.2092160000
| 26>  H        5.3027210000     0.8489250000     0.5278060000
| 27>  H        5.8786930000    -1.3098590000     2.3083460000
| 28>  H        2.9379830000    -2.0879700000     0.4961860000
| 29> *
| 30>
| 31>                          ****END OF INPUT****
 Total Charge           Charge          ....    0
 Multiplicity           Mult            ....    1
 Number of Electrons    NEL             ....   54
 Basis Dimension        Dim             ....  148

MULLIKEN ATOMIC CHARGES
-----------------------
   0 C :    0.037701
   1 C :   -0.014126
   2 C :    0.007695
   3 C :    0.054413
   4 C :   -0.175905
   5 N :   -0.103819
   6 N :   -0.141104
   7 H :    0.022827
   8 H :    0.020173
   9 H :    0.020970
  10 H :    0.008343
  11 H :    0.017426
  12 H :    0.011608
  13 H :    0.022264
  14 H :    0.031519
  15 H :    0.076264
  16 H :    0.103750
Sum of atomic charges:   -0.0000000

LOEWDIN ATOMIC CHARGES
----------------------
   0 C :   -0.065893
   1 C :    0.016382
   2 C :   -0.034953
   3 C :   -0.057435
   4 C :   -0.004212
   5 N :   -0.191099
   6 N :   -0.003078
   7 H :    0.031699
   8 H :    0.027091
   9 H :    0.027471
  10 H :    0.011382
  11 H :    0.029091
  12 H :    0.026384
  13 H :    0.034009
  14 H :    0.039869
  15 H :    0.043696
  16 H :    0.069595

  Mayer bond orders larger than 0.1
B(  0-C ,  1-C ) :   1.1031 B(  0-C ,  7-H ) :   0.9550 B(  0-C ,  8-H ) :   0.9505
B(  0-C ,  9-H ) :   0.9585 B(  1-C ,  2-C ) :   1.0523 B(  1-C ,  6-N ) :   0.9770
B(  1-C , 10-H ) :   0.9124 B(  2-C ,  3-C ) :   1.1150 B(  2-C , 11-H ) :   0.9235
B(  2-C , 12-H ) :   0.9275 B(  3-C ,  4-C ) :   0.9699 B(  3-C , 13-H ) :   0.9250
B(  3-C , 14-H ) :   0.9075 B(  4-C ,  5-N ) :   1.9786 B(  4-C ,  6-N ) :   1.1864
B(  5-N , 15-H ) :   0.9245 B(  6-N , 16-H ) :   0.9303

FINAL SINGLE POINT ENERGY      -305.440619748418

DIPOLE MOMENT
-------------
                                X             Y             Z
Electronic contribution:      3.50958      -3.44709       1.66101
Nuclear contribution   :     -3.93618       4.31176      -2.19416
                        -----------------------------------------
Total Dipole Moment    :     -0.42659       0.86467      -0.53315
                        -----------------------------------------
Magnitude (a.u.)       :      1.10176
Magnitude (Debye)      :      2.80045

                             ****ORCA TERMINATED NORMALLY****
TOTAL RUN TIME: 0 days 0 hours 0 minutes 8 seconds 174 msec
