                         Program Version 3.0.3 - RELEASE   -
|  1> ! RI PBE def2-SVP def2-SVP/J NBO PAL2
|  2> % maxcore 2000
|  3> % output
|  4>     # printlevel mini
|  5>     print[ P_Basis ] 0
|  6>     print[ P_SCFInfo ] 1
|  7>     print[ P_SCFIterInfo ] 1
|  8>     print[ P_OrbEn ] 0
|  9>     print[ P_Cartesian ] 0
| 10> end
| 11> *xyz 0 1
| 12>  C        0.9879280000    -0.0923420000    -0.1019990000
| 13>  C        2.4705940000    -0.0283040000    -0.0554590000
| 14>  C        3.3237850000     1.0428720000     0.0496330000
| 15>  C        4.6532070000     0.5459240000     0.0574970000
| 16>  C        4.5773150000    -0.8202210000    -0.0485230000
| 17>  N        5.5332550000    -1.8514110000    -0.1156050000
| 18>  N        3.2508200000    -1.1484150000    -0.1171000000
| 19>  H        0.5743480000     0.9147560000    -0.0460870000
| 20>  H        0.5741550000    -0.6670180000     0.7333190000
| 21>  H        0.6234160000    -0.5484740000    -1.0284540000
| 22>  H        3.0186530000     2.0762240000     0.1189110000
| 23>  H        5.5633440000     1.1204800000     0.1392300000
| 24>  H        6.2821380000    -1.6246770000    -0.7546920000
| 25>  H        5.9408780000    -2.0591400000     0.7872760000
| 26>  H        2.9289440000    -2.0927440000    -0.2377470000
| 27> *
| 28>
| 29>                          ****END OF INPUT****
 Total Charge           Charge          ....    0
 Multiplicity           Mult            ....    1
 Number of Electrons    NEL             ....   52
 Basis Dimension        Dim             ....  138

MULLIKEN ATOMIC CHARGES
-----------------------
   0 C :    0.093581
   1 C :   -0.073111
   2 C :   -0.062929
   3 C :   -0.066606
   4 C :   -0.033184
   5 N :   -0.112993
   6 N :   -0.027440
   7 H :    0.015916
   8 H :    0.025700
   9 H :    0.023574
  10 H :   -0.041894
  11 H :   -0.053993
  12 H :    0.110199
  13 H :    0.111295
  14 H :    0.091884
Sum of atomic charges:   -0.0000000

LOEWDIN ATOMIC CHARGES
----------------------
   0 C :   -0.065989
   1 C :   -0.047211
   2 C :   -0.094913
   3 C :   -0.112383
   4 C :   -0.037201
   5 N :   -0.079496
   6 N :    0.092637
   7 H :    0.040657
   8 H :    0.032287
   9 H :    0.031664
  10 H :    0.017580
  11 H :    0.016942
  12 H :    0.066085
  13 H :    0.064469
  14 H :    0.074872

  Mayer bond orders larger than 0.1
B(  0-C ,  1-C ) :   1.1127 B(  0-C ,  7-H ) :   0.9414 B(  0-C ,  8-H ) :   0.9403
B(  0-C ,  9-H ) :   0.9402 B(  1-C ,  2-C ) :   1.4920 B(  1-C ,  4-C ) :   0.1163
B(  1-C ,  6-N ) :   1.2134 B(  2-C ,  3-C ) :   1.2394 B(  2-C , 10-H ) :   1.0044
B(  3-C ,  4-C ) :   1.4649 B(  3-C , 11-H ) :   1.0243 B(  4-C ,  5-N ) :   1.1924
B(  4-C ,  6-N ) :   1.1965 B(  5-N , 12-H ) :   0.9618 B(  5-N , 13-H ) :   0.9589
B(  6-N , 14-H ) :   0.9323

FINAL SINGLE POINT ENERGY      -304.240663312240

DIPOLE MOMENT
-------------
                                X             Y             Z
Electronic contribution:      2.75966      -0.70361      -0.01612
Nuclear contribution   :     -2.69079       0.18486       0.09870
                        -----------------------------------------
Total Dipole Moment    :      0.06887      -0.51875       0.08258
                        -----------------------------------------
Magnitude (a.u.)       :      0.52977
Magnitude (Debye)      :      1.34658

                             ****ORCA TERMINATED NORMALLY****
TOTAL RUN TIME: 0 days 0 hours 0 minutes 6 seconds 809 msec
