                         Program Version 3.0.3 - RELEASE   -
|  1> ! RI PBE def2-SVP def2-SVP/J NBO PAL2
|  2> % maxcore 2000
|  3> % output
|  4>     # printlevel mini
|  5>     print[ P_Basis ] 0
|  6>     print[ P_SCFInfo ] 1
|  7>     print[ P_SCFIterInfo ] 1
|  8>     print[ P_OrbEn ] 0
|  9>     print[ P_Cartesian ] 0
| 10> end
| 11> *xyz 0 1
| 12>  C        1.0687670000    -0.0427440000     0.2861600000
| 13>  C        2.5207080000     0.1538500000    -0.1335030000
| 14>  C        3.2408540000     1.2408650000     0.6952950000
| 15>  C        3.8197580000     0.0886000000     1.5269010000
| 16>  N        3.4410140000    -0.8519460000     0.4597900000
| 17>  C        2.6191580000     0.2121140000    -1.6254570000
| 18>  C        2.8358100000     1.2986890000    -2.3506030000
| 19>  H        0.9870670000    -0.1201390000     1.3742610000
| 20>  H        0.6619720000    -0.9580760000    -0.1546300000
| 21>  H        0.4496580000     0.7928580000    -0.0488960000
| 22>  H        2.6067500000     1.9615260000     1.2109380000
| 23>  H        4.0025310000     1.7668190000     0.1207920000
| 24>  H        3.2836690000    -0.0573040000     2.4726200000
| 25>  H        4.8917050000     0.1167340000     1.7372630000
| 26>  H        2.9901170000    -1.7037400000     0.7731400000
| 27>  H        2.4779890000    -0.7467570000    -2.1227340000
| 28>  H        2.9861000000     2.2710590000    -1.8920270000
| 29>  H        2.8730720000     1.2587050000    -3.4329000000
| 30> *
| 31>
| 32>                          ****END OF INPUT****
 Total Charge           Charge          ....    0
 Multiplicity           Mult            ....    1
 Number of Electrons    NEL             ....   54
 Basis Dimension        Dim             ....  153

MULLIKEN ATOMIC CHARGES
-----------------------
   0 C :    0.104969
   1 C :   -0.254317
   2 C :    0.049223
   3 C :    0.113297
   4 N :   -0.213804
   5 C :    0.047241
   6 C :   -0.051948
   7 H :    0.007217
   8 H :    0.013417
   9 H :    0.023153
  10 H :    0.012144
  11 H :    0.014060
  12 H :    0.003639
  13 H :    0.010263
  14 H :    0.083448
  15 H :   -0.002958
  16 H :    0.014756
  17 H :    0.026199
Sum of atomic charges:   -0.0000000

LOEWDIN ATOMIC CHARGES
----------------------
   0 C :   -0.058738
   1 C :   -0.012918
   2 C :   -0.029463
   3 C :    0.027491
   4 N :   -0.096746
   5 C :   -0.018824
   6 C :   -0.069745
   7 H :    0.023944
   8 H :    0.025797
   9 H :    0.031777
  10 H :    0.019887
  11 H :    0.028107
  12 H :    0.003816
  13 H :    0.012502
  14 H :    0.041181
  15 H :    0.026333
  16 H :    0.020015
  17 H :    0.025586

  Mayer bond orders larger than 0.1
B(  0-C ,  1-C ) :   1.0283 B(  0-C ,  7-H ) :   0.9433 B(  0-C ,  8-H ) :   0.9464
B(  0-C ,  9-H ) :   0.9477 B(  1-C ,  2-C ) :   1.0812 B(  1-C ,  4-N ) :   1.0260
B(  1-C ,  5-C ) :   0.9881 B(  2-C ,  3-C ) :   1.1214 B(  2-C , 10-H ) :   0.9376
B(  2-C , 11-H ) :   0.8896 B(  3-C ,  4-N ) :   1.0495 B(  3-C , 12-H ) :   0.9295
B(  3-C , 13-H ) :   0.9342 B(  4-N , 14-H ) :   0.9413 B(  5-C ,  6-C ) :   2.0247
B(  5-C , 15-H ) :   0.9460 B(  6-C , 16-H ) :   0.9378 B(  6-C , 17-H ) :   0.9419

FINAL SINGLE POINT ENERGY      -289.346380289614

DIPOLE MOMENT
-------------
                                X             Y             Z
Electronic contribution:      1.82410      -1.29057      -1.03769
Nuclear contribution   :     -2.21551       1.30389       1.39337
                        -----------------------------------------
Total Dipole Moment    :     -0.39141       0.01331       0.35569
                        -----------------------------------------
Magnitude (a.u.)       :      0.52905
Magnitude (Debye)      :      1.34474

                             ****ORCA TERMINATED NORMALLY****
TOTAL RUN TIME: 0 days 0 hours 0 minutes 7 seconds 817 msec
