                         Program Version 3.0.3 - RELEASE   -
|  1> ! RI PBE def2-SVP def2-SVP/J NBO PAL2
|  2> % maxcore 2000
|  3> % output
|  4>     # printlevel mini
|  5>     print[ P_Basis ] 0
|  6>     print[ P_SCFInfo ] 1
|  7>     print[ P_SCFIterInfo ] 1
|  8>     print[ P_OrbEn ] 0
|  9>     print[ P_Cartesian ] 0
| 10> end
| 11> *xyz 0 1
| 12>  C        1.1589450000    -0.0122540000     0.3906890000
| 13>  C        2.6189280000     0.1036040000    -0.0332770000
| 14>  C        3.3830570000     1.2115740000     0.7408380000
| 15>  C        3.9015250000     0.0844710000     1.6436130000
| 16>  N        3.5139610000    -0.8868460000     0.6098890000
| 17>  C        2.7210690000     0.1419730000    -1.4874420000
| 18>  C        2.7882540000     0.1915260000    -2.6855280000
| 19>  H        1.0805560000    -0.0041550000     1.4809340000
| 20>  H        0.7261810000    -0.9418840000     0.0132000000
| 21>  H        0.5719400000     0.8186390000    -0.0065010000
| 22>  H        2.7669820000     1.9871580000     1.1942830000
| 23>  H        4.1671100000     1.6644720000     0.1367940000
| 24>  H        3.3388090000     0.0038780000     2.5816080000
| 25>  H        4.9686410000     0.0865340000     1.8768890000
| 26>  H        3.0507680000    -1.7284540000     0.9312170000
| 27>  H        2.8612750000     0.2286750000    -3.7465960000
| 28> *
| 29>
| 30>                          ****END OF INPUT****
 Total Charge           Charge          ....    0
 Multiplicity           Mult            ....    1
 Number of Electrons    NEL             ....   52
 Basis Dimension        Dim             ....  143

MULLIKEN ATOMIC CHARGES
-----------------------
   0 C :    0.089961
   1 C :   -0.299242
   2 C :    0.068916
   3 C :    0.117339
   4 N :   -0.190702
   5 C :    0.558940
   6 C :   -0.554329
   7 H :    0.009592
   8 H :    0.030128
   9 H :    0.029598
  10 H :    0.019076
  11 H :    0.017381
  12 H :    0.004602
  13 H :    0.013398
  14 H :    0.089364
  15 H :   -0.004023
Sum of atomic charges:    0.0000000

LOEWDIN ATOMIC CHARGES
----------------------
   0 C :   -0.051796
   1 C :   -0.022162
   2 C :   -0.014454
   3 C :    0.025925
   4 N :   -0.085297
   5 C :   -0.011931
   6 C :   -0.084038
   7 H :    0.025535
   8 H :    0.031088
   9 H :    0.034717
  10 H :    0.022053
  11 H :    0.033594
  12 H :    0.004378
  13 H :    0.014334
  14 H :    0.044721
  15 H :    0.033333

  Mayer bond orders larger than 0.1
B(  0-C ,  1-C ) :   1.0290 B(  0-C ,  7-H ) :   0.9441 B(  0-C ,  8-H ) :   0.9518
B(  0-C ,  9-H ) :   0.9480 B(  1-C ,  2-C ) :   1.0591 B(  1-C ,  4-N ) :   1.0873
B(  1-C ,  5-C ) :   0.9071 B(  2-C ,  3-C ) :   1.1144 B(  2-C , 10-H ) :   0.9379
B(  2-C , 11-H ) :   0.8990 B(  3-C ,  4-N ) :   1.0494 B(  3-C , 12-H ) :   0.9273
B(  3-C , 13-H ) :   0.9355 B(  4-N , 14-H ) :   0.9406 B(  5-C ,  6-C ) :   2.2563
B(  5-C , 15-H ) :  -0.1222 B(  6-C , 15-H ) :   1.1112

FINAL SINGLE POINT ENERGY      -288.102486150988

DIPOLE MOMENT
-------------
                                X             Y             Z
Electronic contribution:      1.68938      -0.95177      -4.07499
Nuclear contribution   :     -2.05606       1.05752       4.55776
                        -----------------------------------------
Total Dipole Moment    :     -0.36668       0.10575       0.48277
                        -----------------------------------------
Magnitude (a.u.)       :      0.61539
Magnitude (Debye)      :      1.56419

                             ****ORCA TERMINATED NORMALLY****
TOTAL RUN TIME: 0 days 0 hours 0 minutes 7 seconds 466 msec
