                         Program Version 3.0.3 - RELEASE   -
|  1> ! RI PBE def2-SVP def2-SVP/J NBO PAL2
|  2> % maxcore 2000
|  3> % output
|  4>     # printlevel mini
|  5>     print[ P_Basis ] 0
|  6>     print[ P_SCFInfo ] 1
|  7>     print[ P_SCFIterInfo ] 1
|  8>     print[ P_OrbEn ] 0
|  9>     print[ P_Cartesian ] 0
| 10> end
| 11> *xyz 0 1
| 12>  C        1.0007310000    -0.0439310000     0.6921780000
| 13>  C        2.2848120000     0.1793550000    -0.0786000000
| 14>  C        3.2855270000     1.1336700000     0.5997050000
| 15>  C        4.0558690000    -0.1269870000     1.0261960000
| 16>  N        3.2830610000    -0.9049080000     0.0329460000
| 17>  C        5.5358820000    -0.1947480000     0.8651190000
| 18>  C        6.3527940000     0.8466580000     0.8107850000
| 19>  H        0.3557070000     0.8376680000     0.6371410000
| 20>  H        1.2017670000    -0.2495610000     1.7479850000
| 21>  H        0.4421970000    -0.8895540000     0.2801100000
| 22>  H        2.0488420000     0.4184560000    -1.1209620000
| 23>  H        2.8924260000     1.7703660000     1.3921520000
| 24>  H        3.8453850000     1.7386660000    -0.1135160000
| 25>  H        3.8081460000    -0.4047290000     2.0625640000
| 26>  H        2.9140700000    -1.7876080000     0.3671030000
| 27>  H        5.9447110000    -1.2021610000     0.8065350000
| 28>  H        5.9817710000     1.8654250000     0.8628450000
| 29>  H        7.4248220000     0.7210120000     0.7144360000
| 30> *
| 31>
| 32>                          ****END OF INPUT****
 Total Charge           Charge          ....    0
 Multiplicity           Mult            ....    1
 Number of Electrons    NEL             ....   54
 Basis Dimension        Dim             ....  153

MULLIKEN ATOMIC CHARGES
-----------------------
   0 C :    0.039158
   1 C :   -0.068916
   2 C :    0.060605
   3 C :    0.026495
   4 N :   -0.224648
   5 C :   -0.001751
   6 C :   -0.050490
   7 H :    0.026032
   8 H :    0.007170
   9 H :    0.026377
  10 H :    0.001531
  11 H :    0.013234
  12 H :    0.010378
  13 H :    0.008661
  14 H :    0.083818
  15 H :   -0.001241
  16 H :    0.017117
  17 H :    0.026471
Sum of atomic charges:   -0.0000000

LOEWDIN ATOMIC CHARGES
----------------------
   0 C :   -0.077120
   1 C :    0.016344
   2 C :   -0.031301
   3 C :    0.018114
   4 N :   -0.099971
   5 C :   -0.028455
   6 C :   -0.068061
   7 H :    0.031487
   8 H :    0.023281
   9 H :    0.027405
  10 H :    0.011553
  11 H :    0.020778
  12 H :    0.028265
  13 H :    0.014978
  14 H :    0.041024
  15 H :    0.026524
  16 H :    0.019968
  17 H :    0.025187

  Mayer bond orders larger than 0.1
B(  0-C ,  1-C ) :   1.0800 B(  0-C ,  7-H ) :   0.9496 B(  0-C ,  8-H ) :   0.9468
B(  0-C ,  9-H ) :   0.9537 B(  1-C ,  2-C ) :   1.0899 B(  1-C ,  4-N ) :   1.0633
B(  1-C , 10-H ) :   0.9176 B(  2-C ,  3-C ) :   1.0977 B(  2-C , 11-H ) :   0.9345
B(  2-C , 12-H ) :   0.8872 B(  3-C ,  4-N ) :   1.0069 B(  3-C ,  5-C ) :   1.0190
B(  3-C , 13-H ) :   0.8815 B(  4-N , 14-H ) :   0.9435 B(  5-C ,  6-C ) :   2.0194
B(  5-C , 15-H ) :   0.9514 B(  6-C , 16-H ) :   0.9411 B(  6-C , 17-H ) :   0.9428

FINAL SINGLE POINT ENERGY      -289.347575263996

DIPOLE MOMENT
-------------
                                X             Y             Z
Electronic contribution:      2.58634      -1.41114      -0.92213
Nuclear contribution   :     -2.97590       1.39398       1.29970
                        -----------------------------------------
Total Dipole Moment    :     -0.38956      -0.01716       0.37757
                        -----------------------------------------
Magnitude (a.u.)       :      0.54278
Magnitude (Debye)      :      1.37963

                             ****ORCA TERMINATED NORMALLY****
TOTAL RUN TIME: 0 days 0 hours 0 minutes 7 seconds 423 msec
