                         Program Version 3.0.3 - RELEASE   -
|  1> ! RI PBE def2-SVP def2-SVP/J NBO PAL2
|  2> % maxcore 2000
|  3> % output
|  4>     # printlevel mini
|  5>     print[ P_Basis ] 0
|  6>     print[ P_SCFInfo ] 1
|  7>     print[ P_SCFIterInfo ] 1
|  8>     print[ P_OrbEn ] 0
|  9>     print[ P_Cartesian ] 0
| 10> end
| 11> *xyz 0 1
| 12>  C        0.9111390000    -0.0345790000     0.5849100000
| 13>  C        2.1459350000     0.1366280000    -0.2750720000
| 14>  C        3.1451170000     1.1938370000     0.2310470000
| 15>  C        3.9641490000     0.0077550000     0.7893390000
| 16>  N        3.1935020000    -0.8881870000    -0.0927490000
| 17>  C        5.4043510000     0.0102380000     0.6080500000
| 18>  C        6.5973420000     0.0302990000     0.4718640000
| 19>  H        0.2300980000     0.8119780000     0.4599040000
| 20>  H        1.1688100000    -0.1059520000     1.6460310000
| 21>  H        0.3666430000    -0.9412250000     0.3053900000
| 22>  H        1.8506130000     0.2438290000    -1.3237290000
| 23>  H        2.7798800000     1.9181810000     0.9583220000
| 24>  H        3.6707450000     1.7059470000    -0.5731120000
| 25>  H        3.7515550000    -0.1409810000     1.8568260000
| 26>  H        2.8931560000    -1.7580390000     0.3308170000
| 27>  H        7.6534750000     0.0430790000     0.3416620000
| 28> *
| 29>
| 30>                          ****END OF INPUT****
 Total Charge           Charge          ....    0
 Multiplicity           Mult            ....    1
 Number of Electrons    NEL             ....   52
 Basis Dimension        Dim             ....  143

MULLIKEN ATOMIC CHARGES
-----------------------
   0 C :    0.035230
   1 C :   -0.072715
   2 C :    0.087147
   3 C :   -0.037715
   4 N :   -0.194285
   5 C :    0.486372
   6 C :   -0.527155
   7 H :    0.027979
   8 H :    0.012018
   9 H :    0.029278
  10 H :    0.005343
  11 H :    0.022271
  12 H :    0.013591
  13 H :    0.024653
  14 H :    0.089442
  15 H :   -0.001456
Sum of atomic charges:   -0.0000000

LOEWDIN ATOMIC CHARGES
----------------------
   0 C :   -0.077337
   1 C :    0.014061
   2 C :   -0.015306
   3 C :    0.008179
   4 N :   -0.087386
   5 C :   -0.022213
   6 C :   -0.079920
   7 H :    0.032635
   8 H :    0.024104
   9 H :    0.029063
  10 H :    0.013167
  11 H :    0.022912
  12 H :    0.033666
  13 H :    0.026096
  14 H :    0.044775
  15 H :    0.033502

  Mayer bond orders larger than 0.1
B(  0-C ,  1-C ) :   1.0725 B(  0-C ,  7-H ) :   0.9495 B(  0-C ,  8-H ) :   0.9507
B(  0-C ,  9-H ) :   0.9530 B(  1-C ,  2-C ) :   1.0861 B(  1-C ,  4-N ) :   1.0633
B(  1-C , 10-H ) :   0.9211 B(  2-C ,  3-C ) :   1.0731 B(  2-C , 11-H ) :   0.9364
B(  2-C , 12-H ) :   0.8925 B(  3-C ,  4-N ) :   1.0673 B(  3-C ,  5-C ) :   0.9593
B(  3-C , 13-H ) :   0.8784 B(  4-N , 14-H ) :   0.9419 B(  5-C ,  6-C ) :   2.2786
B(  5-C , 15-H ) :  -0.1141 B(  6-C , 15-H ) :   1.1035

FINAL SINGLE POINT ENERGY      -288.104092503802

DIPOLE MOMENT
-------------
                                X             Y             Z
Electronic contribution:      6.39430      -1.08038      -0.58509
Nuclear contribution   :     -6.92151       1.17410       0.94064
                        -----------------------------------------
Total Dipole Moment    :     -0.52722       0.09372       0.35555
                        -----------------------------------------
Magnitude (a.u.)       :      0.64277
Magnitude (Debye)      :      1.63380

                             ****ORCA TERMINATED NORMALLY****
TOTAL RUN TIME: 0 days 0 hours 0 minutes 7 seconds 175 msec
