                         Program Version 3.0.3 - RELEASE   -
|  1> ! RI PBE def2-SVP def2-SVP/J NBO PAL2
|  2> % maxcore 2000
|  3> % output
|  4>     # printlevel mini
|  5>     print[ P_Basis ] 0
|  6>     print[ P_SCFInfo ] 1
|  7>     print[ P_SCFIterInfo ] 1
|  8>     print[ P_OrbEn ] 0
|  9>     print[ P_Cartesian ] 0
| 10> end
| 11> *xyz 0 1
| 12>  C        1.0063300000    -0.0120230000     0.3543810000
| 13>  C        2.4647480000     0.1188740000    -0.0627830000
| 14>  C        3.2405940000     1.2198910000     0.7067570000
| 15>  C        3.8076680000     0.0765860000     1.5609130000
| 16>  N        3.3783550000    -0.8753000000     0.5248720000
| 17>  C        2.5550850000     0.1932000000    -1.5244120000
| 18>  N        2.6102030000     0.2729750000    -2.6702950000
| 19>  H        0.9336480000    -0.0212760000     1.4443300000
| 20>  H        0.5772750000    -0.9378720000    -0.0356310000
| 21>  H        0.4145590000     0.8227640000    -0.0270620000
| 22>  H        2.6249340000     1.9691840000     1.2016770000
| 23>  H        3.9943460000     1.7063850000     0.0906510000
| 24>  H        3.2904810000    -0.0305400000     2.5213190000
| 25>  H        4.8843610000     0.0821660000     1.7409390000
| 26>  H        2.9369210000    -1.7305950000     0.8388340000
| 27> *
| 28>
| 29>                          ****END OF INPUT****
 Total Charge           Charge          ....    0
 Multiplicity           Mult            ....    1
 Number of Electrons    NEL             ....   52
 Basis Dimension        Dim             ....  138

MULLIKEN ATOMIC CHARGES
-----------------------
   0 C :    0.085612
   1 C :   -0.377204
   2 C :    0.067979
   3 C :    0.126054
   4 N :   -0.185000
   5 C :   -0.084232
   6 N :    0.074416
   7 H :    0.020791
   8 H :    0.041319
   9 H :    0.041486
  10 H :    0.028969
  11 H :    0.029050
  12 H :    0.010285
  13 H :    0.022833
  14 H :    0.097643
Sum of atomic charges:   -0.0000000

LOEWDIN ATOMIC CHARGES
----------------------
   0 C :   -0.049227
   1 C :   -0.037993
   2 C :   -0.009552
   3 C :    0.030856
   4 N :   -0.076992
   5 C :   -0.040045
   6 N :   -0.064520
   7 H :    0.030538
   8 H :    0.035810
   9 H :    0.039860
  10 H :    0.026645
  11 H :    0.038294
  12 H :    0.008178
  13 H :    0.018561
  14 H :    0.049588

  Mayer bond orders larger than 0.1
B(  0-C ,  1-C ) :   1.0348 B(  0-C ,  7-H ) :   0.9453 B(  0-C ,  8-H ) :   0.9503
B(  0-C ,  9-H ) :   0.9463 B(  1-C ,  2-C ) :   1.0887 B(  1-C ,  4-N ) :   1.1664
B(  1-C ,  5-C ) :   1.0148 B(  2-C ,  3-C ) :   1.1209 B(  2-C , 10-H ) :   0.9383
B(  2-C , 11-H ) :   0.8957 B(  3-C ,  4-N ) :   1.0510 B(  3-C , 12-H ) :   0.9296
B(  3-C , 13-H ) :   0.9372 B(  4-N , 14-H ) :   0.9402 B(  5-C ,  6-N ) :   3.1009

FINAL SINGLE POINT ENERGY      -304.181795117722

DIPOLE MOMENT
-------------
                                X             Y             Z
Electronic contribution:      1.50558      -0.73801      -6.28433
Nuclear contribution   :     -1.91182       0.75562       8.04755
                        -----------------------------------------
Total Dipole Moment    :     -0.40625       0.01761       1.76322
                        -----------------------------------------
Magnitude (a.u.)       :      1.80950
Magnitude (Debye)      :      4.59939

                             ****ORCA TERMINATED NORMALLY****
TOTAL RUN TIME: 0 days 0 hours 0 minutes 7 seconds 129 msec
