                         Program Version 3.0.3 - RELEASE   -
|  1> ! RI PBE def2-SVP def2-SVP/J NBO PAL2
|  2> % maxcore 2000
|  3> % output
|  4>     # printlevel mini
|  5>     print[ P_Basis ] 0
|  6>     print[ P_SCFInfo ] 1
|  7>     print[ P_SCFIterInfo ] 1
|  8>     print[ P_OrbEn ] 0
|  9>     print[ P_Cartesian ] 0
| 10> end
| 11> *xyz 0 1
| 12>  C        0.8778340000     0.1004870000    -0.2813190000
| 13>  C        2.3737490000     0.0882040000    -0.3570330000
| 14>  C        3.1692770000    -0.8197670000    -1.2016760000
| 15>  C        2.6007150000    -1.8658570000    -2.1105610000
| 16>  N        2.9874880000     0.5856240000    -1.5986180000
| 17>  C        4.1191580000     1.4103060000    -1.4193720000
| 18>  N        4.4332430000     2.3746420000    -2.1618450000
| 19>  H        0.5298860000    -0.5736510000     0.5058800000
| 20>  H        0.4275530000    -0.2060500000    -1.2247890000
| 21>  H        0.5172070000     1.1051810000    -0.0486720000
| 22>  H        2.8726400000     0.4071200000     0.5581670000
| 23>  H        4.1561060000    -1.0577490000    -0.8045370000
| 24>  H        1.6248470000    -1.5726210000    -2.4959790000
| 25>  H        2.4944590000    -2.8157720000    -1.5799170000
| 26>  H        3.2630190000    -2.0286060000    -2.9640570000
| 27>  H        4.7627130000     1.1751060000    -0.5592370000
| 28>  H        3.7428070000     2.4647830000    -2.9100350000
| 29> *
| 30>
| 31>                          ****END OF INPUT****
 Total Charge           Charge          ....    0
 Multiplicity           Mult            ....    1
 Number of Electrons    NEL             ....   54
 Basis Dimension        Dim             ....  148

MULLIKEN ATOMIC CHARGES
-----------------------
   0 C :    0.101629
   1 C :   -0.062790
   2 C :   -0.067275
   3 C :    0.101910
   4 N :   -0.240492
   5 C :   -0.024088
   6 N :   -0.072416
   7 H :    0.026591
   8 H :    0.013581
   9 H :    0.028191
  10 H :    0.018743
  11 H :    0.020883
  12 H :    0.009080
  13 H :    0.026066
  14 H :    0.031525
  15 H :    0.000238
  16 H :    0.088624
Sum of atomic charges:   -0.0000000

LOEWDIN ATOMIC CHARGES
----------------------
   0 C :   -0.058459
   1 C :    0.012884
   2 C :    0.012720
   3 C :   -0.058959
   4 N :   -0.122568
   5 C :    0.024188
   6 N :   -0.095835
   7 H :    0.034418
   8 H :    0.031400
   9 H :    0.036047
  10 H :    0.016617
  11 H :    0.017061
  12 H :    0.031111
  13 H :    0.034291
  14 H :    0.036491
  15 H :   -0.001499
  16 H :    0.050090

  Mayer bond orders larger than 0.1
B(  0-C ,  1-C ) :   1.1167 B(  0-C ,  7-H ) :   0.9528 B(  0-C ,  8-H ) :   0.9417
B(  0-C ,  9-H ) :   0.9490 B(  1-C ,  2-C ) :   1.0009 B(  1-C ,  4-N ) :   0.8653
B(  1-C , 10-H ) :   0.9263 B(  2-C ,  3-C ) :   1.1197 B(  2-C ,  4-N ) :   0.8652
B(  2-C , 11-H ) :   0.9279 B(  3-C , 12-H ) :   0.9384 B(  3-C , 13-H ) :   0.9527
B(  3-C , 14-H ) :   0.9496 B(  4-N ,  5-C ) :   1.0518 B(  5-C ,  6-N ) :   2.1046
B(  5-C , 15-H ) :   0.9165 B(  6-N , 16-H ) :   0.9342

FINAL SINGLE POINT ENERGY      -305.381720862548

DIPOLE MOMENT
-------------
                                X             Y             Z
Electronic contribution:      3.87582       4.39894      -1.07988
Nuclear contribution   :     -4.48045      -5.31400       1.49331
                        -----------------------------------------
Total Dipole Moment    :     -0.60462      -0.91507       0.41342
                        -----------------------------------------
Magnitude (a.u.)       :      1.17211
Magnitude (Debye)      :      2.97926

                             ****ORCA TERMINATED NORMALLY****
TOTAL RUN TIME: 0 days 0 hours 0 minutes 7 seconds 750 msec
