                         Program Version 3.0.3 - RELEASE   -
|  1> ! RI PBE def2-SVP def2-SVP/J NBO PAL2
|  2> % maxcore 2000
|  3> % output
|  4>     # printlevel mini
|  5>     print[ P_Basis ] 0
|  6>     print[ P_SCFInfo ] 1
|  7>     print[ P_SCFIterInfo ] 1
|  8>     print[ P_OrbEn ] 0
|  9>     print[ P_Cartesian ] 0
| 10> end
| 11> *xyz 0 1
| 12>  C        1.0802760000    -0.0476940000     0.5615140000
| 13>  C        2.4209220000     0.1148190000    -0.1209800000
| 14>  C        3.3411220000     1.1849180000     0.5000110000
| 15>  C        4.0829040000     0.0078000000     1.1700270000
| 16>  N        3.4349130000    -0.9050300000     0.2229260000
| 17>  C        5.5409920000     0.0190220000     1.1351350000
| 18>  N        6.6903620000     0.0481600000     1.1206800000
| 19>  H        0.4229930000     0.7942320000     0.3281820000
| 20>  H        1.1868150000    -0.1011420000     1.6493060000
| 21>  H        0.5819900000    -0.9603470000     0.2227890000
| 22>  H        2.2784740000     0.2032540000    -1.2019650000
| 23>  H        2.8814110000     1.9076810000     1.1721130000
| 24>  H        3.9606160000     1.6986100000    -0.2327040000
| 25>  H        3.7784450000    -0.1228800000     2.2160770000
| 26>  H        3.0866480000    -1.7692240000     0.6192880000
| 27> *
| 28>
| 29>                          ****END OF INPUT****
 Total Charge           Charge          ....    0
 Multiplicity           Mult            ....    1
 Number of Electrons    NEL             ....   52
 Basis Dimension        Dim             ....  138

MULLIKEN ATOMIC CHARGES
-----------------------
   0 C :    0.033666
   1 C :   -0.081493
   2 C :    0.091630
   3 C :   -0.096317
   4 N :   -0.186852
   5 C :   -0.133160
   6 N :    0.074518
   7 H :    0.033417
   8 H :    0.016095
   9 H :    0.034552
  10 H :    0.018671
  11 H :    0.031255
  12 H :    0.026112
  13 H :    0.039740
  14 H :    0.098164
Sum of atomic charges:   -0.0000000

LOEWDIN ATOMIC CHARGES
----------------------
   0 C :   -0.076101
   1 C :    0.016698
   2 C :   -0.009761
   3 C :   -0.004908
   4 N :   -0.079173
   5 C :   -0.047292
   6 N :   -0.060180
   7 H :    0.035539
   8 H :    0.025484
   9 H :    0.031769
  10 H :    0.018044
  11 H :    0.027602
  12 H :    0.038640
  13 H :    0.033765
  14 H :    0.049873

  Mayer bond orders larger than 0.1
B(  0-C ,  1-C ) :   1.0768 B(  0-C ,  7-H ) :   0.9485 B(  0-C ,  8-H ) :   0.9514
B(  0-C ,  9-H ) :   0.9527 B(  1-C ,  2-C ) :   1.0892 B(  1-C ,  4-N ) :   1.0645
B(  1-C , 10-H ) :   0.9234 B(  2-C ,  3-C ) :   1.1047 B(  2-C , 11-H ) :   0.9360
B(  2-C , 12-H ) :   0.8903 B(  3-C ,  4-N ) :   1.1443 B(  3-C ,  5-C ) :   1.0775
B(  3-C , 13-H ) :   0.8694 B(  4-N , 14-H ) :   0.9408 B(  5-C ,  6-N ) :   3.0807

FINAL SINGLE POINT ENERGY      -304.182893924754

DIPOLE MOMENT
-------------
                                X             Y             Z
Electronic contribution:      9.02118      -1.06118       0.65569
Nuclear contribution   :    -10.87586       1.15081      -0.41036
                        -----------------------------------------
Total Dipole Moment    :     -1.85468       0.08963       0.24533
                        -----------------------------------------
Magnitude (a.u.)       :      1.87298
Magnitude (Debye)      :      4.76074

                             ****ORCA TERMINATED NORMALLY****
TOTAL RUN TIME: 0 days 0 hours 0 minutes 6 seconds 859 msec
