                         Program Version 3.0.3 - RELEASE   -
|  1> ! RI PBE def2-SVP def2-SVP/J NBO PAL2
|  2> % maxcore 2000
|  3> % output
|  4>     # printlevel mini
|  5>     print[ P_Basis ] 0
|  6>     print[ P_SCFInfo ] 1
|  7>     print[ P_SCFIterInfo ] 1
|  8>     print[ P_OrbEn ] 0
|  9>     print[ P_Cartesian ] 0
| 10> end
| 11> *xyz 0 1
| 12>  C        0.7672320000     0.2883100000     0.2501140000
| 13>  C        2.2360170000    -0.0237170000     0.1050180000
| 14>  C        3.2543480000     0.9484060000     0.7407480000
| 15>  C        3.8932320000    -0.2666170000     1.4388760000
| 16>  N        2.7628420000    -1.0687920000     0.9931800000
| 17>  C        2.7493650000    -2.4142360000     0.7941320000
| 18>  N        3.5396390000    -3.2921380000     1.2663050000
| 19>  H        0.5026080000     1.1576860000    -0.3578860000
| 20>  H        0.5214630000     0.5027140000     1.2926920000
| 21>  H        0.1492880000    -0.5500940000    -0.0807430000
| 22>  H        2.4756930000    -0.2309970000    -0.9467190000
| 23>  H        2.7877620000     1.6482910000     1.4345040000
| 24>  H        3.8923070000     1.4958600000     0.0496750000
| 25>  H        4.0135000000    -0.2059860000     2.5236850000
| 26>  H        4.8441620000    -0.5887540000     0.9954810000
| 27>  H        1.9218460000    -2.7425080000     0.1590330000
| 28>  H        4.2651050000    -2.8645290000     1.8432070000
| 29> *
| 30>
| 31>                          ****END OF INPUT****
 Total Charge           Charge          ....    0
 Multiplicity           Mult            ....    1
 Number of Electrons    NEL             ....   54
 Basis Dimension        Dim             ....  148

MULLIKEN ATOMIC CHARGES
-----------------------
   0 C :    0.070650
   1 C :   -0.029453
   2 C :   -0.017506
   3 C :    0.139618
   4 N :   -0.265302
   5 C :    0.008134
   6 N :   -0.156328
   7 H :    0.025512
   8 H :    0.013802
   9 H :    0.030851
  10 H :    0.013200
  11 H :    0.015002
  12 H :    0.030216
  13 H :    0.030007
  14 H :    0.011429
  15 H :    0.007504
  16 H :    0.072664
Sum of atomic charges:   -0.0000000

LOEWDIN ATOMIC CHARGES
----------------------
   0 C :   -0.066935
   1 C :    0.034223
   2 C :   -0.030109
   3 C :    0.037886
   4 N :   -0.059573
   5 C :    0.006278
   6 N :   -0.166538
   7 H :    0.033462
   8 H :    0.027170
   9 H :    0.032130
  10 H :    0.016062
  11 H :    0.028181
  12 H :    0.027130
  13 H :    0.018510
  14 H :    0.012214
  15 H :    0.012249
  16 H :    0.037659

  Mayer bond orders larger than 0.1
B(  0-C ,  1-C ) :   1.1063 B(  0-C ,  7-H ) :   0.9535 B(  0-C ,  8-H ) :   0.9425
B(  0-C ,  9-H ) :   0.9564 B(  1-C ,  2-C ) :   1.0834 B(  1-C ,  4-N ) :   0.9743
B(  1-C , 10-H ) :   0.9144 B(  2-C ,  3-C ) :   1.1216 B(  2-C , 11-H ) :   0.9113
B(  2-C , 12-H ) :   0.9343 B(  3-C ,  4-N ) :   1.0109 B(  3-C , 13-H ) :   0.9377
B(  3-C , 14-H ) :   0.9214 B(  4-N ,  5-C ) :   1.1411 B(  5-C ,  6-N ) :   1.9787
B(  5-C , 15-H ) :   0.9399 B(  6-N , 16-H ) :   0.9450

FINAL SINGLE POINT ENERGY      -305.397295463035

DIPOLE MOMENT
-------------
                                X             Y             Z
Electronic contribution:      1.78742      -4.05070       0.82444
Nuclear contribution   :     -1.88417       5.50699      -1.02398
                        -----------------------------------------
Total Dipole Moment    :     -0.09676       1.45629      -0.19954
                        -----------------------------------------
Magnitude (a.u.)       :      1.47307
Magnitude (Debye)      :      3.74426

                             ****ORCA TERMINATED NORMALLY****
TOTAL RUN TIME: 0 days 0 hours 0 minutes 7 seconds 900 msec
