                         Program Version 3.0.3 - RELEASE   -
|  1> ! RI PBE def2-SVP def2-SVP/J NBO PAL2
|  2> % maxcore 2000
|  3> % output
|  4>     # printlevel mini
|  5>     print[ P_Basis ] 0
|  6>     print[ P_SCFInfo ] 1
|  7>     print[ P_SCFIterInfo ] 1
|  8>     print[ P_OrbEn ] 0
|  9>     print[ P_Cartesian ] 0
| 10> end
| 11> *xyz 0 1
| 12>  C        0.9378850000    -0.0247430000     0.3122860000
| 13>  C        2.4273160000    -0.1872820000     0.3582010000
| 14>  C        3.2084370000    -0.8907230000    -0.6732110000
| 15>  C        2.6052450000    -1.5265650000    -1.8892620000
| 16>  N        3.3312440000     0.5821810000    -0.5336220000
| 17>  N        2.6159500000     1.2672120000    -1.5423630000
| 18>  C        3.1717880000     2.3566340000    -1.8533230000
| 19>  H        0.4667000000    -0.8350810000     0.8747270000
| 20>  H        0.5444520000    -0.0292140000    -0.7013540000
| 21>  H        0.6434120000     0.9192860000     0.7782980000
| 22>  H        2.8315080000    -0.2065250000     1.3671910000
| 23>  H        4.1249740000    -1.3715410000    -0.3406750000
| 24>  H        1.6786550000    -1.0491780000    -2.1987480000
| 25>  H        2.4050230000    -2.5818060000    -1.6858320000
| 26>  H        3.3016140000    -1.4757150000    -2.7304150000
| 27>  H        2.7031910000     2.9648280000    -2.6224780000
| 28>  H        4.0946190000     2.6961530000    -1.3780320000
| 29> *
| 30>
| 31>                          ****END OF INPUT****
 Total Charge           Charge          ....    0
 Multiplicity           Mult            ....    1
 Number of Electrons    NEL             ....   54
 Basis Dimension        Dim             ....  148

MULLIKEN ATOMIC CHARGES
-----------------------
   0 C :    0.091096
   1 C :   -0.070782
   2 C :   -0.065288
   3 C :    0.086325
   4 N :   -0.225421
   5 N :   -0.100438
   6 C :    0.026754
   7 H :    0.028046
   8 H :    0.021621
   9 H :    0.024146
  10 H :    0.023941
  11 H :    0.024312
  12 H :    0.016730
  13 H :    0.029442
  14 H :    0.029345
  15 H :    0.041979
  16 H :    0.018192
Sum of atomic charges:   -0.0000000

LOEWDIN ATOMIC CHARGES
----------------------
   0 C :   -0.065805
   1 C :   -0.004587
   2 C :   -0.003726
   3 C :   -0.067873
   4 N :   -0.084702
   5 N :   -0.035829
   6 C :   -0.003728
   7 H :    0.035180
   8 H :    0.030505
   9 H :    0.034482
  10 H :    0.024108
  11 H :    0.024533
  12 H :    0.030552
  13 H :    0.035595
  14 H :    0.035224
  15 H :    0.018190
  16 H :   -0.002117

  Mayer bond orders larger than 0.1
B(  0-C ,  1-C ) :   1.1060 B(  0-C ,  7-H ) :   0.9514 B(  0-C ,  8-H ) :   0.9412
B(  0-C ,  9-H ) :   0.9484 B(  1-C ,  2-C ) :   1.0177 B(  1-C ,  4-N ) :   0.9019
B(  1-C , 10-H ) :   0.9331 B(  2-C ,  3-C ) :   1.1167 B(  2-C ,  4-N ) :   0.9005
B(  2-C , 11-H ) :   0.9314 B(  3-C , 12-H ) :   0.9351 B(  3-C , 13-H ) :   0.9498
B(  3-C , 14-H ) :   0.9483 B(  4-N ,  5-N ) :   0.9783 B(  5-N ,  6-C ) :   1.9842
B(  6-C , 15-H ) :   0.9501 B(  6-C , 16-H ) :   0.9228

FINAL SINGLE POINT ENERGY      -305.343377648410

DIPOLE MOMENT
-------------
                                X             Y             Z
Electronic contribution:      2.82883       2.82541       0.20719
Nuclear contribution   :     -2.94950      -2.97087      -0.19377
                        -----------------------------------------
Total Dipole Moment    :     -0.12068      -0.14546       0.01342
                        -----------------------------------------
Magnitude (a.u.)       :      0.18948
Magnitude (Debye)      :      0.48161

                             ****ORCA TERMINATED NORMALLY****
TOTAL RUN TIME: 0 days 0 hours 0 minutes 7 seconds 538 msec
