                         Program Version 3.0.3 - RELEASE   -
|  1> ! RI PBE def2-SVP def2-SVP/J NBO PAL2
|  2> % maxcore 2000
|  3> % output
|  4>     # printlevel mini
|  5>     print[ P_Basis ] 0
|  6>     print[ P_SCFInfo ] 1
|  7>     print[ P_SCFIterInfo ] 1
|  8>     print[ P_OrbEn ] 0
|  9>     print[ P_Cartesian ] 0
| 10> end
| 11> *xyz 0 1
| 12>  C        0.9783080000     0.4689620000    -0.0136810000
| 13>  C        2.4199350000     0.1949280000    -0.3780450000
| 14>  C        3.4714050000     1.0230820000     0.3971240000
| 15>  C        3.7961770000    -0.2439890000     1.2081590000
| 16>  N        3.0049650000    -0.9990190000     0.2413410000
| 17>  N        2.3107510000    -2.1070680000     0.4604350000
| 18>  C        2.6564200000    -2.8878750000     1.4078400000
| 19>  H        0.6654530000     1.4313890000    -0.4271230000
| 20>  H        0.8427350000     0.5000760000     1.0708930000
| 21>  H        0.3247560000    -0.3077020000    -0.4138410000
| 22>  H        2.5405660000     0.2008650000    -1.4665120000
| 23>  H        3.0708540000     1.8603180000     0.9670320000
| 24>  H        4.3006280000     1.3664920000    -0.2197210000
| 25>  H        3.3554870000    -0.2613370000     2.2154640000
| 26>  H        4.8467920000    -0.5382590000     1.2804520000
| 27>  H        2.0902460000    -3.8022350000     1.5355050000
| 28>  H        3.4990310000    -2.6930280000     2.0738960000
| 29> *
| 30>
| 31>                          ****END OF INPUT****
 Total Charge           Charge          ....    0
 Multiplicity           Mult            ....    1
 Number of Electrons    NEL             ....   54
 Basis Dimension        Dim             ....  148

MULLIKEN ATOMIC CHARGES
-----------------------
   0 C :    0.063280
   1 C :   -0.033804
   2 C :   -0.001563
   3 C :    0.135765
   4 N :   -0.242222
   5 N :   -0.056197
   6 C :   -0.077648
   7 H :    0.019769
   8 H :    0.007625
   9 H :    0.042156
  10 H :    0.021921
  11 H :    0.016590
  12 H :    0.023036
  13 H :    0.007624
  14 H :    0.029543
  15 H :    0.033316
  16 H :    0.010810
Sum of atomic charges:   -0.0000000

LOEWDIN ATOMIC CHARGES
----------------------
   0 C :   -0.068388
   1 C :    0.023442
   2 C :   -0.031194
   3 C :    0.023309
   4 N :   -0.023603
   5 N :   -0.033082
   6 C :   -0.092419
   7 H :    0.031056
   8 H :    0.026392
   9 H :    0.035176
  10 H :    0.018090
  11 H :    0.024692
  12 H :    0.029373
  13 H :    0.012089
  14 H :    0.018212
  15 H :    0.015134
  16 H :   -0.008279

  Mayer bond orders larger than 0.1
B(  0-C ,  1-C ) :   1.0921 B(  0-C ,  7-H ) :   0.9515 B(  0-C ,  8-H ) :   0.9467
B(  0-C ,  9-H ) :   0.9478 B(  1-C ,  2-C ) :   1.0831 B(  1-C ,  4-N ) :   0.9895
B(  1-C , 10-H ) :   0.9219 B(  2-C ,  3-C ) :   1.1127 B(  2-C , 11-H ) :   0.9352
B(  2-C , 12-H ) :   0.9183 B(  3-C ,  4-N ) :   0.9887 B(  3-C , 13-H ) :   0.9095
B(  3-C , 14-H ) :   0.9366 B(  4-N ,  5-N ) :   1.1323 B(  4-N ,  6-C ) :   0.1439
B(  5-N ,  6-C ) :   1.8547 B(  6-C , 15-H ) :   0.9567 B(  6-C , 16-H ) :   0.9276

FINAL SINGLE POINT ENERGY      -305.364100921044

DIPOLE MOMENT
-------------
                                X             Y             Z
Electronic contribution:      1.19695      -3.22312      -1.36391
Nuclear contribution   :     -0.91497       3.91898       1.61882
                        -----------------------------------------
Total Dipole Moment    :      0.28198       0.69586       0.25491
                        -----------------------------------------
Magnitude (a.u.)       :      0.79291
Magnitude (Debye)      :      2.01542

                             ****ORCA TERMINATED NORMALLY****
TOTAL RUN TIME: 0 days 0 hours 0 minutes 7 seconds 657 msec
