                         Program Version 3.0.3 - RELEASE   -
|  1> ! RI PBE def2-SVP def2-SVP/J NBO PAL2
|  2> % maxcore 2000
|  3> % output
|  4>     # printlevel mini
|  5>     print[ P_Basis ] 0
|  6>     print[ P_SCFInfo ] 1
|  7>     print[ P_SCFIterInfo ] 1
|  8>     print[ P_OrbEn ] 0
|  9>     print[ P_Cartesian ] 0
| 10> end
| 11> *xyz 0 1
| 12>  C        0.9535190000     0.2451130000     0.2184900000
| 13>  C        2.4413810000     0.0332420000    -0.0271080000
| 14>  C        2.8109240000    -1.4242890000    -0.3594230000
| 15>  C        2.9548020000    -1.4611400000    -1.8821720000
| 16>  N        3.4034650000    -0.1196220000    -2.2915320000
| 17>  C        2.3030810000     0.8111310000    -2.5011300000
| 18>  C        3.0196520000     0.7983160000    -1.2121420000
| 19>  H        0.6396960000    -0.2612000000     1.1350100000
| 20>  H        0.3449560000    -0.1510630000    -0.5981420000
| 21>  H        0.7163040000     1.3065640000     0.3240530000
| 22>  H        2.9747250000     0.3511320000     0.8732210000
| 23>  H        2.0767290000    -2.1422490000     0.0148360000
| 24>  H        3.7719060000    -1.6716690000     0.0988650000
| 25>  H        2.0079230000    -1.7174040000    -2.3705610000
| 26>  H        3.6940870000    -2.1971100000    -2.2049700000
| 27>  H        1.2966830000     0.4033430000    -2.5346260000
| 28>  H        2.4926910000     1.6008900000    -3.2215300000
| 29>  H        3.7293640000     1.5928260000    -1.0010480000
| 30> *
| 31>
| 32>                          ****END OF INPUT****
 Total Charge           Charge          ....    0
 Multiplicity           Mult            ....    1
 Number of Electrons    NEL             ....   54
 Basis Dimension        Dim             ....  153

MULLIKEN ATOMIC CHARGES
-----------------------
   0 C :    0.046658
   1 C :   -0.103715
   2 C :    0.049594
   3 C :    0.109433
   4 N :   -0.280901
   5 C :    0.102335
   6 C :   -0.077624
   7 H :    0.016213
   8 H :    0.012994
   9 H :    0.021293
  10 H :    0.003513
  11 H :    0.001679
  12 H :    0.014800
  13 H :    0.001616
  14 H :    0.018761
  15 H :    0.019603
  16 H :    0.028027
  17 H :    0.015721
Sum of atomic charges:    0.0000000

LOEWDIN ATOMIC CHARGES
----------------------
   0 C :   -0.058452
   1 C :   -0.046824
   2 C :   -0.036296
   3 C :    0.014055
   4 N :   -0.118791
   5 C :    0.006789
   6 C :    0.000773
   7 H :    0.025582
   8 H :    0.020848
   9 H :    0.027836
  10 H :    0.029258
  11 H :    0.024163
  12 H :    0.028298
  13 H :    0.012249
  14 H :    0.022932
  15 H :    0.010256
  16 H :    0.020256
  17 H :    0.017068

  Mayer bond orders larger than 0.1
B(  0-C ,  1-C ) :   1.0871 B(  0-C ,  7-H ) :   0.9541 B(  0-C ,  8-H ) :   0.9517
B(  0-C ,  9-H ) :   0.9628 B(  1-C ,  2-C ) :   1.0722 B(  1-C ,  6-C ) :   1.0249
B(  1-C , 10-H ) :   0.9154 B(  2-C ,  3-C ) :   1.0960 B(  2-C , 11-H ) :   0.9284
B(  2-C , 12-H ) :   0.9256 B(  3-C ,  4-N ) :   1.0037 B(  3-C , 13-H ) :   0.9282
B(  3-C , 14-H ) :   0.9407 B(  4-N ,  5-C ) :   0.9806 B(  4-N ,  6-C ) :   0.9712
B(  5-C ,  6-C ) :   1.0443 B(  5-C , 15-H ) :   0.9194 B(  5-C , 16-H ) :   0.9406
B(  6-C , 17-H ) :   0.9444

FINAL SINGLE POINT ENERGY      -289.362795981465

DIPOLE MOMENT
-------------
                                X             Y             Z
Electronic contribution:      3.36270       0.87986      -2.44519
Nuclear contribution   :     -3.80098      -0.94757       2.87264
                        -----------------------------------------
Total Dipole Moment    :     -0.43828      -0.06771       0.42745
                        -----------------------------------------
Magnitude (a.u.)       :      0.61594
Magnitude (Debye)      :      1.56560

                             ****ORCA TERMINATED NORMALLY****
TOTAL RUN TIME: 0 days 0 hours 0 minutes 7 seconds 978 msec
