                         Program Version 3.0.3 - RELEASE   -
|  1> ! RI PBE def2-SVP def2-SVP/J NBO PAL2
|  2> % maxcore 2000
|  3> % output
|  4>     # printlevel mini
|  5>     print[ P_Basis ] 0
|  6>     print[ P_SCFInfo ] 1
|  7>     print[ P_SCFIterInfo ] 1
|  8>     print[ P_OrbEn ] 0
|  9>     print[ P_Cartesian ] 0
| 10> end
| 11> *xyz 0 1
| 12>  C        1.1242540000     0.1769510000     0.6569090000
| 13>  C        2.2440710000     0.0447470000    -0.0423580000
| 14>  C        2.8083280000    -1.2239420000    -0.6286170000
| 15>  C        4.3206320000    -0.9544520000    -0.6434370000
| 16>  N        4.5255810000     0.5002290000    -0.6559020000
| 17>  C        3.7738410000     1.1758440000    -1.6935380000
| 18>  C        3.2324330000     1.1106090000    -0.3118390000
| 19>  H        0.4788540000    -0.6703550000     0.8578960000
| 20>  H        0.8148650000     1.1390000000     1.0499560000
| 21>  H        2.4170150000    -1.3817120000    -1.6385090000
| 22>  H        2.5435720000    -2.1053670000    -0.0438340000
| 23>  H        4.8355650000    -1.4095810000    -1.4925010000
| 24>  H        4.7834750000    -1.3340980000     0.2707650000
| 25>  H        3.2836050000     0.5850140000    -2.4622210000
| 26>  H        4.2119010000     2.1047000000    -2.0421910000
| 27>  H        3.2477880000     1.9928020000     0.3184320000
| 28> *
| 29>
| 30>                          ****END OF INPUT****
 Total Charge           Charge          ....    0
 Multiplicity           Mult            ....    1
 Number of Electrons    NEL             ....   52
 Basis Dimension        Dim             ....  143

MULLIKEN ATOMIC CHARGES
-----------------------
   0 C :   -0.059845
   1 C :   -0.027207
   2 C :   -0.019695
   3 C :    0.148056
   4 N :   -0.274303
   5 C :    0.102736
   6 C :   -0.051497
   7 H :    0.008160
   8 H :    0.008187
   9 H :    0.037203
  10 H :    0.021483
  11 H :    0.012868
  12 H :    0.022460
  13 H :    0.025685
  14 H :    0.031163
  15 H :    0.014547
Sum of atomic charges:   -0.0000000

LOEWDIN ATOMIC CHARGES
----------------------
   0 C :   -0.076649
   1 C :   -0.033010
   2 C :   -0.050067
   3 C :    0.018981
   4 N :   -0.107202
   5 C :    0.011719
   6 C :    0.004173
   7 H :    0.023342
   8 H :    0.023737
   9 H :    0.035462
  10 H :    0.037064
  11 H :    0.022132
  12 H :    0.025008
  13 H :    0.014973
  14 H :    0.024749
  15 H :    0.025589

  Mayer bond orders larger than 0.1
B(  0-C ,  1-C ) :   2.0004 B(  0-C ,  7-H ) :   0.9234 B(  0-C ,  8-H ) :   0.9347
B(  1-C ,  2-C ) :   1.0216 B(  1-C ,  6-C ) :   1.0269 B(  2-C ,  3-C ) :   1.0562
B(  2-C ,  9-H ) :   0.9114 B(  2-C , 10-H ) :   0.9202 B(  3-C ,  4-N ) :   1.0362
B(  3-C , 11-H ) :   0.9406 B(  3-C , 12-H ) :   0.9448 B(  4-N ,  5-C ) :   0.9799
B(  4-N ,  6-C ) :   0.9300 B(  5-C ,  6-C ) :   1.0005 B(  5-C , 13-H ) :   0.9237
B(  5-C , 14-H ) :   0.9420 B(  6-C , 15-H ) :   0.9520

FINAL SINGLE POINT ENERGY      -288.150771021413

DIPOLE MOMENT
-------------
                                X             Y             Z
Electronic contribution:      1.35306       1.63097       0.49588
Nuclear contribution   :     -1.68504      -1.88739      -0.74548
                        -----------------------------------------
Total Dipole Moment    :     -0.33198      -0.25642      -0.24959
                        -----------------------------------------
Magnitude (a.u.)       :      0.48812
Magnitude (Debye)      :      1.24070

                             ****ORCA TERMINATED NORMALLY****
TOTAL RUN TIME: 0 days 0 hours 0 minutes 7 seconds 375 msec
