                         Program Version 3.0.3 - RELEASE   -
|  1> ! RI PBE def2-SVP def2-SVP/J NBO PAL2
|  2> % maxcore 2000
|  3> % output
|  4>     # printlevel mini
|  5>     print[ P_Basis ] 0
|  6>     print[ P_SCFInfo ] 1
|  7>     print[ P_SCFIterInfo ] 1
|  8>     print[ P_OrbEn ] 0
|  9>     print[ P_Cartesian ] 0
| 10> end
| 11> *xyz 0 1
| 12>  C        0.8978260000    -0.0743910000    -0.0930680000
| 13>  C        2.3526280000     0.1594880000     0.0977930000
| 14>  C        3.0550250000     1.2684510000    -0.1270200000
| 15>  C        4.4973660000     1.0765310000     0.2405950000
| 16>  N        4.6222340000    -0.3260810000     0.6634670000
| 17>  C        4.3341330000    -1.2941430000    -0.3804280000
| 18>  C        3.2753950000    -0.9036020000     0.5797420000
| 19>  H        0.3893230000     0.8260870000    -0.4395460000
| 20>  H        0.4288250000    -0.3916190000     0.8441220000
| 21>  H        0.7187870000    -0.8739000000    -0.8193190000
| 22>  H        2.6572290000     2.1918330000    -0.5322070000
| 23>  H        4.7978020000     1.7278630000     1.0700030000
| 24>  H        5.1859460000     1.2824400000    -0.5869900000
| 25>  H        4.8545390000    -2.2404730000    -0.2716920000
| 26>  H        4.2181220000    -0.9372330000    -1.4011310000
| 27>  H        2.9624100000    -1.5819520000     1.3690790000
| 28> *
| 29>
| 30>                          ****END OF INPUT****
 Total Charge           Charge          ....    0
 Multiplicity           Mult            ....    1
 Number of Electrons    NEL             ....   52
 Basis Dimension        Dim             ....  143

MULLIKEN ATOMIC CHARGES
-----------------------
   0 C :    0.084671
   1 C :   -0.040863
   2 C :   -0.187078
   3 C :    0.203258
   4 N :   -0.281221
   5 C :    0.102443
   6 C :   -0.063642
   7 H :    0.017330
   8 H :    0.031589
   9 H :    0.032689
  10 H :   -0.021772
  11 H :    0.028920
  12 H :    0.022659
  13 H :    0.030247
  14 H :    0.025073
  15 H :    0.015698
Sum of atomic charges:   -0.0000000

LOEWDIN ATOMIC CHARGES
----------------------
   0 C :   -0.056582
   1 C :   -0.044477
   2 C :   -0.063603
   3 C :    0.017771
   4 N :   -0.108652
   5 C :    0.012647
   6 C :    0.002487
   7 H :    0.034397
   8 H :    0.039241
   9 H :    0.038460
  10 H :    0.020140
  11 H :    0.026213
  12 H :    0.027088
  13 H :    0.020806
  14 H :    0.015031
  15 H :    0.019033

  Mayer bond orders larger than 0.1
B(  0-C ,  1-C ) :   1.1190 B(  0-C ,  7-H ) :   0.9461 B(  0-C ,  8-H ) :   0.9390
B(  0-C ,  9-H ) :   0.9400 B(  1-C ,  2-C ) :   1.8119 B(  1-C ,  6-C ) :   0.9992
B(  2-C ,  3-C ) :   0.9947 B(  2-C , 10-H ) :   0.9795 B(  3-C ,  4-N ) :   1.0344
B(  3-C , 11-H ) :   0.9230 B(  3-C , 12-H ) :   0.9199 B(  4-N ,  5-C ) :   0.9674
B(  4-N ,  6-C ) :   0.9624 B(  5-C ,  6-C ) :   1.0227 B(  5-C , 13-H ) :   0.9419
B(  5-C , 14-H ) :   0.9217 B(  6-C , 15-H ) :   0.9468

FINAL SINGLE POINT ENERGY      -288.154549328855

DIPOLE MOMENT
-------------
                                X             Y             Z
Electronic contribution:      2.63088      -0.09597       1.42248
Nuclear contribution   :     -3.11664       0.15858      -1.81187
                        -----------------------------------------
Total Dipole Moment    :     -0.48576       0.06261      -0.38939
                        -----------------------------------------
Magnitude (a.u.)       :      0.62571
Magnitude (Debye)      :      1.59043

                             ****ORCA TERMINATED NORMALLY****
TOTAL RUN TIME: 0 days 0 hours 0 minutes 7 seconds 376 msec
