                         Program Version 3.0.3 - RELEASE   -
|  1> ! RI PBE def2-SVP def2-SVP/J NBO PAL2
|  2> % maxcore 2000
|  3> % output
|  4>     # printlevel mini
|  5>     print[ P_Basis ] 0
|  6>     print[ P_SCFInfo ] 1
|  7>     print[ P_SCFIterInfo ] 1
|  8>     print[ P_OrbEn ] 0
|  9>     print[ P_Cartesian ] 0
| 10> end
| 11> *xyz 0 1
| 12>  C        0.9986070000    -0.0086490000    -0.0757470000
| 13>  C        2.5125400000     0.0570040000    -0.1297680000
| 14>  C        3.1224920000     1.2645770000     0.6133270000
| 15>  C        4.2676380000     0.6800830000     1.4507260000
| 16>  N        4.5248970000    -0.6030310000     0.8180870000
| 17>  C        3.2166190000    -1.1502530000     0.4989920000
| 18>  C        3.3105120000    -2.3666610000    -0.3950740000
| 19>  H        0.5485720000     0.8660920000    -0.5520240000
| 20>  H        0.6448020000    -0.0420150000     0.9592960000
| 21>  H        0.6152020000    -0.8949780000    -0.5889250000
| 22>  H        2.8275750000     0.0968870000    -1.1783150000
| 23>  H        2.3826140000     1.7569950000     1.2489260000
| 24>  H        3.4880940000     2.0117640000    -0.0930300000
| 25>  H        3.9434380000     0.5754280000     2.4993620000
| 26>  H        5.1639150000     1.3050780000     1.4442260000
| 27>  H        5.0703040000    -1.2226600000     1.4038210000
| 28>  H        2.6577110000    -1.4234390000     1.4165680000
| 29>  H        3.8585660000    -2.1200070000    -1.3077200000
| 30>  H        2.3170020000    -2.7302120000    -0.6691170000
| 31>  H        3.8336980000    -3.1873020000     0.1034900000
| 32> *
| 33>
| 34>                          ****END OF INPUT****
 Total Charge           Charge          ....    0
 Multiplicity           Mult            ....    1
 Number of Electrons    NEL             ....   56
 Basis Dimension        Dim             ....  163

MULLIKEN ATOMIC CHARGES
-----------------------
   0 C :    0.040235
   1 C :   -0.132144
   2 C :    0.042377
   3 C :    0.123847
   4 N :   -0.257027
   5 C :   -0.015789
   6 C :    0.071882
   7 H :    0.020757
   8 H :    0.012231
   9 H :    0.014156
  10 H :   -0.004714
  11 H :   -0.005839
  12 H :    0.007713
  13 H :   -0.018934
  14 H :    0.004533
  15 H :    0.092563
  16 H :   -0.027619
  17 H :    0.015614
  18 H :    0.007110
  19 H :    0.009047
Sum of atomic charges:   -0.0000000

LOEWDIN ATOMIC CHARGES
----------------------
   0 C :   -0.059158
   1 C :   -0.041280
   2 C :   -0.038486
   3 C :    0.012892
   4 N :   -0.100259
   5 C :    0.003934
   6 C :   -0.063232
   7 H :    0.027235
   8 H :    0.021815
   9 H :    0.024254
  10 H :    0.024323
  11 H :    0.021738
  12 H :    0.027209
  13 H :   -0.001342
  14 H :    0.016480
  15 H :    0.051295
  16 H :   -0.003957
  17 H :    0.026559
  18 H :    0.025608
  19 H :    0.024372

  Mayer bond orders larger than 0.1
B(  0-C ,  1-C ) :   1.0842 B(  0-C ,  7-H ) :   0.9583 B(  0-C ,  8-H ) :   0.9545
B(  0-C ,  9-H ) :   0.9568 B(  1-C ,  2-C ) :   1.1066 B(  1-C ,  5-C ) :   1.0617
B(  1-C , 10-H ) :   0.8865 B(  2-C ,  3-C ) :   1.1396 B(  2-C , 11-H ) :   0.9220
B(  2-C , 12-H ) :   0.9132 B(  3-C ,  4-N ) :   1.0639 B(  3-C , 13-H ) :   0.9065
B(  3-C , 14-H ) :   0.9351 B(  4-N ,  5-C ) :   1.0116 B(  4-N , 15-H ) :   0.9381
B(  5-C ,  6-C ) :   1.0953 B(  5-C , 16-H ) :   0.8888 B(  6-C , 17-H ) :   0.9462
B(  6-C , 18-H ) :   0.9496 B(  6-C , 19-H ) :   0.9535

FINAL SINGLE POINT ENERGY      -290.600286878827

DIPOLE MOMENT
-------------
                                X             Y             Z
Electronic contribution:      3.01836       0.70572       0.74827
Nuclear contribution   :     -3.11694      -0.78985      -0.48964
                        -----------------------------------------
Total Dipole Moment    :     -0.09858      -0.08413       0.25863
                        -----------------------------------------
Magnitude (a.u.)       :      0.28929
Magnitude (Debye)      :      0.73531

                             ****ORCA TERMINATED NORMALLY****
TOTAL RUN TIME: 0 days 0 hours 0 minutes 8 seconds 428 msec
