                         Program Version 3.0.3 - RELEASE   -
|  1> ! RI PBE def2-SVP def2-SVP/J NBO PAL2
|  2> % maxcore 2000
|  3> % output
|  4>     # printlevel mini
|  5>     print[ P_Basis ] 0
|  6>     print[ P_SCFInfo ] 1
|  7>     print[ P_SCFIterInfo ] 1
|  8>     print[ P_OrbEn ] 0
|  9>     print[ P_Cartesian ] 0
| 10> end
| 11> *xyz 0 1
| 12>  C        1.0075040000    -0.0740180000     0.0964320000
| 13>  C        2.5175880000    -0.0664750000     0.0897380000
| 14>  C        3.2695290000     1.0079840000     0.9017720000
| 15>  C        4.3168160000    -0.0469750000     1.3023000000
| 16>  N        5.5306500000     0.0743670000     0.5238340000
| 17>  C        3.2781600000    -1.1411720000     0.8968480000
| 18>  C        3.7356350000    -2.4050720000     0.2118440000
| 19>  H        0.6005100000     0.8018500000    -0.4171410000
| 20>  H        0.6242810000    -0.0658300000     1.1215170000
| 21>  H        0.6089710000    -0.9627780000    -0.4015750000
| 22>  H        2.8781100000    -0.0691120000    -0.9461960000
| 23>  H        2.6817840000     1.3445180000     1.7596180000
| 24>  H        3.6504300000     1.8844070000     0.3730520000
| 25>  H        4.6013930000    -0.0586640000     2.3575310000
| 26>  H        5.3276210000     0.1550010000    -0.4655120000
| 27>  H        6.1240340000    -0.7382410000     0.6419920000
| 28>  H        2.6853530000    -1.3921620000     1.7848480000
| 29>  H        4.3680800000    -2.1832180000    -0.6526740000
| 30>  H        2.8833680000    -2.9889320000    -0.1472780000
| 31>  H        4.3092820000    -3.0463670000     0.8880620000
| 32> *
| 33>
| 34>                          ****END OF INPUT****
 Total Charge           Charge          ....    0
 Multiplicity           Mult            ....    1
 Number of Electrons    NEL             ....   56
 Basis Dimension        Dim             ....  163

MULLIKEN ATOMIC CHARGES
-----------------------
   0 C :    0.073035
   1 C :   -0.183410
   2 C :    0.144018
   3 C :   -0.105785
   4 N :   -0.125449
   5 C :   -0.059925
   6 C :    0.056442
   7 H :    0.019137
   8 H :    0.003773
   9 H :    0.015802
  10 H :   -0.010597
  11 H :   -0.002232
  12 H :   -0.001025
  13 H :   -0.004100
  14 H :    0.077541
  15 H :    0.090628
  16 H :   -0.014434
  17 H :   -0.013256
  18 H :    0.019941
  19 H :    0.019896
Sum of atomic charges:   -0.0000000

LOEWDIN ATOMIC CHARGES
----------------------
   0 C :   -0.063669
   1 C :   -0.038235
   2 C :   -0.029107
   3 C :    0.008119
   4 N :   -0.084077
   5 C :   -0.054378
   6 C :   -0.072184
   7 H :    0.027453
   8 H :    0.021758
   9 H :    0.026391
  10 H :    0.017262
  11 H :    0.024809
  12 H :    0.016258
  13 H :    0.010287
  14 H :    0.046290
  15 H :    0.051544
  16 H :    0.021515
  17 H :    0.013130
  18 H :    0.029869
  19 H :    0.026967

  Mayer bond orders larger than 0.1
B(  0-C ,  1-C ) :   1.1070 B(  0-C ,  7-H ) :   0.9571 B(  0-C ,  8-H ) :   0.9489
B(  0-C ,  9-H ) :   0.9565 B(  1-C ,  2-C ) :   1.0887 B(  1-C ,  5-C ) :   1.0358
B(  1-C , 10-H ) :   0.8963 B(  2-C ,  3-C ) :   1.0958 B(  2-C , 11-H ) :   0.9080
B(  2-C , 12-H ) :   0.9121 B(  3-C ,  4-N ) :   1.1571 B(  3-C ,  5-C ) :   0.9785
B(  3-C , 13-H ) :   0.9128 B(  4-N , 14-H ) :   0.9645 B(  4-N , 15-H ) :   0.9638
B(  5-C ,  6-C ) :   1.1160 B(  5-C , 16-H ) :   0.8816 B(  6-C , 17-H ) :   0.9356
B(  6-C , 18-H ) :   0.9519 B(  6-C , 19-H ) :   0.9553

FINAL SINGLE POINT ENERGY      -290.579748908307

DIPOLE MOMENT
-------------
                                X             Y             Z
Electronic contribution:      2.46904       1.67010       1.07716
Nuclear contribution   :     -2.62441      -2.05916      -1.26978
                        -----------------------------------------
Total Dipole Moment    :     -0.15536      -0.38906      -0.19262
                        -----------------------------------------
Magnitude (a.u.)       :      0.46110
Magnitude (Debye)      :      1.17202

                             ****ORCA TERMINATED NORMALLY****
TOTAL RUN TIME: 0 days 0 hours 0 minutes 8 seconds 999 msec
