                         Program Version 3.0.3 - RELEASE   -
|  1> ! RI PBE def2-SVP def2-SVP/J NBO PAL2
|  2> % maxcore 2000
|  3> % output
|  4>     # printlevel mini
|  5>     print[ P_Basis ] 0
|  6>     print[ P_SCFInfo ] 1
|  7>     print[ P_SCFIterInfo ] 1
|  8>     print[ P_OrbEn ] 0
|  9>     print[ P_Cartesian ] 0
| 10> end
| 11> *xyz 0 1
| 12>  C        0.9558260000    -0.0208510000    -0.1965190000
| 13>  C        2.2733320000    -0.1042430000    -0.0010910000
| 14>  C        3.1172170000    -1.2670930000     0.2136230000
| 15>  C        4.3788600000    -0.8309770000     0.3591200000
| 16>  N        4.4448140000     0.5495860000     0.2571390000
| 17>  C        3.1838400000     1.0831170000     0.0334830000
| 18>  N        2.8308480000     2.2943350000    -0.1148190000
| 19>  H        0.3303030000    -0.9051010000    -0.2147430000
| 20>  H        0.4907610000     0.9466920000    -0.3412160000
| 21>  H        2.7894860000    -2.2934510000     0.2495190000
| 22>  H        5.2797840000    -1.4009500000     0.5341550000
| 23>  H        5.2837210000     1.0933410000     0.3334350000
| 24>  H        3.6201070000     2.9338960000    -0.0533970000
| 25> *
| 26>
| 27>                          ****END OF INPUT****
 Total Charge           Charge          ....    0
 Multiplicity           Mult            ....    1
 Number of Electrons    NEL             ....   50
 Basis Dimension        Dim             ....  128

MULLIKEN ATOMIC CHARGES
-----------------------
   0 C :   -0.043761
   1 C :   -0.010309
   2 C :   -0.031364
   3 C :    0.097081
   4 N :   -0.117430
   5 C :   -0.056945
   6 N :   -0.051650
   7 H :    0.014382
   8 H :    0.034958
   9 H :   -0.020241
  10 H :    0.002365
  11 H :    0.103161
  12 H :    0.079754
Sum of atomic charges:   -0.0000000

LOEWDIN ATOMIC CHARGES
----------------------
   0 C :   -0.015681
   1 C :   -0.045931
   2 C :   -0.090926
   3 C :    0.025644
   4 N :    0.019272
   5 C :    0.018076
   6 N :   -0.140759
   7 H :    0.025914
   8 H :    0.033563
   9 H :    0.028072
  10 H :    0.024242
  11 H :    0.073575
  12 H :    0.044939

  Mayer bond orders larger than 0.1
B(  0-C ,  1-C ) :   1.8981 B(  0-C ,  3-C ) :   0.1117 B(  0-C ,  6-N ) :   0.1198
B(  0-C ,  7-H ) :   0.9278 B(  0-C ,  8-H ) :   0.9168 B(  1-C ,  2-C ) :   1.1147
B(  1-C ,  5-C ) :   0.9361 B(  2-C ,  3-C ) :   1.6026 B(  2-C ,  9-H ) :   1.0115
B(  3-C ,  4-N ) :   1.1100 B(  3-C , 10-H ) :   0.9773 B(  4-N ,  5-C ) :   1.1009
B(  4-N , 11-H ) :   0.9393 B(  5-C ,  6-N ) :   2.0128 B(  6-N , 12-H ) :   0.9214

FINAL SINGLE POINT ENERGY      -303.011549383546

DIPOLE MOMENT
-------------
                                X             Y             Z
Electronic contribution:      1.61932       0.86879       0.16452
Nuclear contribution   :     -0.45921      -1.22225       0.03290
                        -----------------------------------------
Total Dipole Moment    :      1.16012      -0.35346       0.19742
                        -----------------------------------------
Magnitude (a.u.)       :      1.22873
Magnitude (Debye)      :      3.12318

                             ****ORCA TERMINATED NORMALLY****
TOTAL RUN TIME: 0 days 0 hours 0 minutes 6 seconds 849 msec
