                         Program Version 3.0.3 - RELEASE   -
|  1> ! RI PBE def2-SVP def2-SVP/J NBO PAL2
|  2> % maxcore 2000
|  3> % output
|  4>     # printlevel mini
|  5>     print[ P_Basis ] 0
|  6>     print[ P_SCFInfo ] 1
|  7>     print[ P_SCFIterInfo ] 1
|  8>     print[ P_OrbEn ] 0
|  9>     print[ P_Cartesian ] 0
| 10> end
| 11> *xyz 0 1
| 12>  C        1.1453660000    -0.1098820000     0.1536230000
| 13>  C        2.4600310000    -0.0194400000     0.0191400000
| 14>  C        3.3185910000     1.2116490000    -0.0402430000
| 15>  C        4.5911670000     0.7239480000    -0.7374120000
| 16>  N        4.6064230000    -0.6875500000    -0.4082680000
| 17>  C        3.3534130000    -1.1964090000    -0.1461670000
| 18>  N        2.9697640000    -2.4049910000    -0.0411300000
| 19>  H        0.5172130000     0.7690650000     0.2430050000
| 20>  H        0.6771960000    -1.0871170000     0.1782380000
| 21>  H        3.5602650000     1.5420170000     0.9752110000
| 22>  H        2.8446540000     2.0447980000    -0.5592850000
| 23>  H        5.4896650000     1.2240610000    -0.3695270000
| 24>  H        4.5285590000     0.8895240000    -1.8212200000
| 25>  H        5.3139980000    -1.2903590000    -0.7929050000
| 26>  H        3.7292860000    -3.0608040000    -0.2119680000
| 27> *
| 28>
| 29>                          ****END OF INPUT****
 Total Charge           Charge          ....    0
 Multiplicity           Mult            ....    1
 Number of Electrons    NEL             ....   52
 Basis Dimension        Dim             ....  138

MULLIKEN ATOMIC CHARGES
-----------------------
   0 C :   -0.041316
   1 C :   -0.144998
   2 C :    0.070573
   3 C :    0.122664
   4 N :   -0.192054
   5 C :   -0.051529
   6 N :   -0.079532
   7 H :    0.008153
   8 H :    0.033718
   9 H :    0.042437
  10 H :    0.022065
  11 H :    0.010636
  12 H :    0.025428
  13 H :    0.102094
  14 H :    0.071660
Sum of atomic charges:    0.0000000

LOEWDIN ATOMIC CHARGES
----------------------
   0 C :   -0.029327
   1 C :   -0.048761
   2 C :   -0.033149
   3 C :    0.032246
   4 N :   -0.024432
   5 C :   -0.000567
   6 N :   -0.171461
   7 H :    0.023255
   8 H :    0.034322
   9 H :    0.043601
  10 H :    0.035059
  11 H :    0.019093
  12 H :    0.014986
  13 H :    0.065262
  14 H :    0.039873

  Mayer bond orders larger than 0.1
B(  0-C ,  1-C ) :   2.0355 B(  0-C ,  7-H ) :   0.9284 B(  0-C ,  8-H ) :   0.9098
B(  1-C ,  2-C ) :   1.0658 B(  1-C ,  5-C ) :   0.9372 B(  2-C ,  3-C ) :   1.0883
B(  2-C ,  9-H ) :   0.9047 B(  2-C , 10-H ) :   0.9256 B(  3-C ,  4-N ) :   1.0079
B(  3-C , 11-H ) :   0.9383 B(  3-C , 12-H ) :   0.9326 B(  4-N ,  5-C ) :   1.1368
B(  4-N ,  6-N ) :   0.1013 B(  4-N , 13-H ) :   0.9330 B(  5-C ,  6-N ) :   2.0206
B(  6-N , 14-H ) :   0.9241

FINAL SINGLE POINT ENERGY      -304.217170471797

DIPOLE MOMENT
-------------
                                X             Y             Z
Electronic contribution:      0.29238      -2.90853       0.40538
Nuclear contribution   :      0.69253       3.68328      -0.83174
                        -----------------------------------------
Total Dipole Moment    :      0.98492       0.77475      -0.42637
                        -----------------------------------------
Magnitude (a.u.)       :      1.32366
Magnitude (Debye)      :      3.36448

                             ****ORCA TERMINATED NORMALLY****
TOTAL RUN TIME: 0 days 0 hours 0 minutes 7 seconds 621 msec
