                         Program Version 3.0.3 - RELEASE   -
|  1> ! RI PBE def2-SVP def2-SVP/J NBO PAL2
|  2> % maxcore 2000
|  3> % output
|  4>     # printlevel mini
|  5>     print[ P_Basis ] 0
|  6>     print[ P_SCFInfo ] 1
|  7>     print[ P_SCFIterInfo ] 1
|  8>     print[ P_OrbEn ] 0
|  9>     print[ P_Cartesian ] 0
| 10> end
| 11> *xyz 0 1
| 12>  C        0.9707120000    -0.0197000000    -0.0824480000
| 13>  C        2.4486850000     0.0160330000    -0.0825130000
| 14>  C        3.3062920000     1.0460020000    -0.0805540000
| 15>  C        4.6587790000     0.4612410000    -0.0818320000
| 16>  N        4.6811010000    -0.8221530000    -0.0843710000
| 17>  C        3.3091280000    -1.2012050000    -0.0850000000
| 18>  N        2.8719930000    -2.3864020000    -0.0873060000
| 19>  H        0.5461740000     0.9843850000    -0.0804530000
| 20>  H        0.6008890000    -0.5634230000     0.7908670000
| 21>  H        0.6007280000    -0.5600190000    -0.9578050000
| 22>  H        3.0780580000     2.1029340000    -0.0784440000
| 23>  H        5.5791560000     1.0389300000    -0.0807730000
| 24>  H        3.6629150000    -3.0337250000    -0.0886570000
| 25> *
| 26>
| 27>                          ****END OF INPUT****
 Total Charge           Charge          ....    0
 Multiplicity           Mult            ....    1
 Number of Electrons    NEL             ....   50
 Basis Dimension        Dim             ....  128

MULLIKEN ATOMIC CHARGES
-----------------------
   0 C :    0.104575
   1 C :   -0.033782
   2 C :   -0.094557
   3 C :    0.077401
   4 N :   -0.127709
   5 C :   -0.147206
   6 N :    0.011823
   7 H :    0.016032
   8 H :    0.045447
   9 H :    0.045409
  10 H :   -0.012871
  11 H :    0.005656
  12 H :    0.109781
Sum of atomic charges:   -0.0000000

LOEWDIN ATOMIC CHARGES
----------------------
   0 C :   -0.051380
   1 C :   -0.022313
   2 C :   -0.063714
   3 C :    0.048586
   4 N :   -0.121748
   5 C :    0.004046
   6 N :   -0.037195
   7 H :    0.035173
   8 H :    0.050424
   9 H :    0.050417
  10 H :    0.026339
  11 H :    0.019513
  12 H :    0.061853

  Mayer bond orders larger than 0.1
B(  0-C ,  1-C ) :   1.1328 B(  0-C ,  7-H ) :   0.9433 B(  0-C ,  8-H ) :   0.9299
B(  0-C ,  9-H ) :   0.9299 B(  1-C ,  2-C ) :   1.6829 B(  1-C ,  5-C ) :   0.9501
B(  2-C ,  3-C ) :   0.9977 B(  2-C , 10-H ) :   1.0040 B(  3-C ,  4-N ) :   1.7989
B(  3-C ,  6-N ) :   0.1178 B(  3-C , 11-H ) :   0.9765 B(  4-N ,  5-C ) :   1.1246
B(  5-C ,  6-N ) :   2.0602 B(  6-N , 12-H ) :   0.9184

FINAL SINGLE POINT ENERGY      -303.006764988312

DIPOLE MOMENT
-------------
                                X             Y             Z
Electronic contribution:      4.27745      -1.69329      -0.00367
Nuclear contribution   :     -4.52602       2.43077       0.00523
                        -----------------------------------------
Total Dipole Moment    :     -0.24857       0.73748       0.00156
                        -----------------------------------------
Magnitude (a.u.)       :      0.77825
Magnitude (Debye)      :      1.97815

                             ****ORCA TERMINATED NORMALLY****
TOTAL RUN TIME: 0 days 0 hours 0 minutes 6 seconds 738 msec
