                         Program Version 3.0.3 - RELEASE   -
|  1> ! RI PBE def2-SVP def2-SVP/J NBO PAL2
|  2> % maxcore 2000
|  3> % output
|  4>     # printlevel mini
|  5>     print[ P_Basis ] 0
|  6>     print[ P_SCFInfo ] 1
|  7>     print[ P_SCFIterInfo ] 1
|  8>     print[ P_OrbEn ] 0
|  9>     print[ P_Cartesian ] 0
| 10> end
| 11> *xyz 0 1
| 12>  C        0.9918030000    -0.0447860000     0.0480580000
| 13>  C        2.4691510000    -0.1333690000    -0.0089780000
| 14>  C        3.2589710000    -1.2048290000    -0.0963970000
| 15>  C        4.6987550000    -0.8072770000    -0.1250880000
| 16>  N        4.6111150000     0.6250880000    -0.0423540000
| 17>  C        3.3183650000     1.0792570000     0.0284740000
| 18>  N        2.8528860000     2.2644120000     0.1107550000
| 19>  H        0.5298660000    -1.0319620000     0.0094340000
| 20>  H        0.6161910000     0.5607650000    -0.7804670000
| 21>  H        0.6776810000     0.4637750000     0.9628950000
| 22>  H        2.9397840000    -2.2378100000    -0.1425600000
| 23>  H        5.1936680000    -1.1422070000    -1.0475500000
| 24>  H        5.2559410000    -1.2403470000     0.7175550000
| 25>  H        5.4088490000     1.2321940000    -0.0367960000
| 26>  H        3.5926560000     2.9636780000     0.1235290000
| 27> *
| 28>
| 29>                          ****END OF INPUT****
 Total Charge           Charge          ....    0
 Multiplicity           Mult            ....    1
 Number of Electrons    NEL             ....   52
 Basis Dimension        Dim             ....  138

MULLIKEN ATOMIC CHARGES
-----------------------
   0 C :    0.110367
   1 C :   -0.061599
   2 C :   -0.187656
   3 C :    0.213622
   4 N :   -0.195965
   5 C :   -0.090371
   6 N :   -0.086650
   7 H :    0.004454
   8 H :    0.038118
   9 H :    0.036433
  10 H :   -0.012631
  11 H :    0.031117
  12 H :    0.033220
  13 H :    0.097019
  14 H :    0.070521
Sum of atomic charges:    0.0000000

LOEWDIN ATOMIC CHARGES
----------------------
   0 C :   -0.050263
   1 C :   -0.035661
   2 C :   -0.045005
   3 C :    0.033229
   4 N :   -0.019803
   5 C :   -0.000989
   6 N :   -0.188021
   7 H :    0.029535
   8 H :    0.046253
   9 H :    0.046019
  10 H :    0.023533
  11 H :    0.028810
  12 H :    0.029349
  13 H :    0.064863
  14 H :    0.038151

  Mayer bond orders larger than 0.1
B(  0-C ,  1-C ) :   1.1356 B(  0-C ,  7-H ) :   0.9440 B(  0-C ,  8-H ) :   0.9309
B(  0-C ,  9-H ) :   0.9305 B(  1-C ,  2-C ) :   1.7868 B(  1-C ,  5-C ) :   0.9820
B(  2-C ,  3-C ) :   1.0108 B(  2-C , 10-H ) :   0.9928 B(  3-C ,  4-N ) :   1.0263
B(  3-C , 11-H ) :   0.9113 B(  3-C , 12-H ) :   0.9111 B(  4-N ,  5-C ) :   1.1418
B(  4-N , 13-H ) :   0.9393 B(  5-C ,  6-N ) :   2.0013 B(  6-N , 14-H ) :   0.9244

FINAL SINGLE POINT ENERGY      -304.228269200472

DIPOLE MOMENT
-------------
                                X             Y             Z
Electronic contribution:      2.18488       1.79541       0.02180
Nuclear contribution   :     -1.16388      -2.47641      -0.09666
                        -----------------------------------------
Total Dipole Moment    :      1.02100      -0.68100      -0.07486
                        -----------------------------------------
Magnitude (a.u.)       :      1.22956
Magnitude (Debye)      :      3.12528

                             ****ORCA TERMINATED NORMALLY****
TOTAL RUN TIME: 0 days 0 hours 0 minutes 7 seconds 528 msec
