                         Program Version 3.0.3 - RELEASE   -
|  1> ! RI PBE def2-SVP def2-SVP/J NBO PAL2
|  2> % maxcore 2000
|  3> % output
|  4>     # printlevel mini
|  5>     print[ P_Basis ] 0
|  6>     print[ P_SCFInfo ] 1
|  7>     print[ P_SCFIterInfo ] 1
|  8>     print[ P_OrbEn ] 0
|  9>     print[ P_Cartesian ] 0
| 10> end
| 11> *xyz 0 1
| 12>  C        0.7863380000     0.1398700000    -0.2076400000
| 13>  C        2.2750890000     0.0866420000    -0.0043950000
| 14>  C        2.7130860000     0.1143910000     1.4336030000
| 15>  C        3.1168600000    -0.7231810000    -0.9768090000
| 16>  N        2.6102930000    -1.5038700000    -2.0639560000
| 17>  C        3.1485400000     0.7644900000    -1.0474090000
| 18>  N        4.3512630000     1.4917390000    -0.7780750000
| 19>  H        0.2887140000    -0.7141470000     0.2647230000
| 20>  H        0.5206270000     0.1298280000    -1.2664620000
| 21>  H        0.3646880000     1.0491530000     0.2318480000
| 22>  H        2.2901560000    -0.7299350000     1.9867460000
| 23>  H        2.3835570000     1.0320190000     1.9330740000
| 24>  H        3.7994040000     0.0614530000     1.5280210000
| 25>  H        4.0008830000    -1.1653570000    -0.5177200000
| 26>  H        2.1634820000    -0.9330440000    -2.7665550000
| 27>  H        1.9484190000    -2.2037770000    -1.7547240000
| 28>  H        2.5817050000     1.1821680000    -1.8793140000
| 29>  H        5.0800000000     0.8988370000    -0.4085940000
| 30>  H        4.1997040000     2.2522020000    -0.1282620000
| 31> *
| 32>
| 33>                          ****END OF INPUT****
 Total Charge           Charge          ....    0
 Multiplicity           Mult            ....    1
 Number of Electrons    NEL             ....   56
 Basis Dimension        Dim             ....  158

MULLIKEN ATOMIC CHARGES
-----------------------
   0 C :    0.101002
   1 C :   -0.245115
   2 C :    0.094962
   3 C :   -0.052603
   4 N :   -0.105288
   5 C :   -0.066395
   6 N :   -0.104847
   7 H :    0.011016
   8 H :   -0.017743
   9 H :    0.012471
  10 H :    0.014823
  11 H :    0.011224
  12 H :   -0.014565
  13 H :    0.002927
  14 H :    0.081786
  15 H :    0.093449
  16 H :    0.006763
  17 H :    0.082833
  18 H :    0.093302
Sum of atomic charges:   -0.0000000

LOEWDIN ATOMIC CHARGES
----------------------
   0 C :   -0.049761
   1 C :   -0.097437
   2 C :   -0.051462
   3 C :   -0.008558
   4 N :   -0.077887
   5 C :   -0.009965
   6 N :   -0.077943
   7 H :    0.023697
   8 H :    0.015587
   9 H :    0.027694
  10 H :    0.028202
  11 H :    0.023665
  12 H :    0.016411
  13 H :    0.014413
  14 H :    0.049854
  15 H :    0.054280
  16 H :    0.014962
  17 H :    0.050041
  18 H :    0.054207

  Mayer bond orders larger than 0.1
B(  0-C ,  1-C ) :   1.0952 B(  0-C ,  7-H ) :   0.9528 B(  0-C ,  8-H ) :   0.9368
B(  0-C ,  9-H ) :   0.9542 B(  1-C ,  2-C ) :   1.0969 B(  1-C ,  3-C ) :   0.8435
B(  1-C ,  5-C ) :   0.8443 B(  2-C , 10-H ) :   0.9536 B(  2-C , 11-H ) :   0.9531
B(  2-C , 12-H ) :   0.9351 B(  3-C ,  4-N ) :   1.1960 B(  3-C ,  5-C ) :   0.9491
B(  3-C , 13-H ) :   0.9377 B(  4-N , 14-H ) :   0.9638 B(  4-N , 15-H ) :   0.9694
B(  5-C ,  6-N ) :   1.1953 B(  5-C , 16-H ) :   0.9389 B(  6-N , 17-H ) :   0.9635
B(  6-N , 18-H ) :   0.9695

FINAL SINGLE POINT ENERGY      -306.589672021636

DIPOLE MOMENT
-------------
                                X             Y             Z
Electronic contribution:      2.34689      -0.18086      -2.76099
Nuclear contribution   :     -2.77094       0.21137       3.25707
                        -----------------------------------------
Total Dipole Moment    :     -0.42405       0.03052       0.49608
                        -----------------------------------------
Magnitude (a.u.)       :      0.65334
Magnitude (Debye)      :      1.66065

                             ****ORCA TERMINATED NORMALLY****
TOTAL RUN TIME: 0 days 0 hours 0 minutes 8 seconds 495 msec
