                         Program Version 3.0.3 - RELEASE   -
|  1> ! RI PBE def2-SVP def2-SVP/J NBO PAL2
|  2> % maxcore 2000
|  3> % output
|  4>     # printlevel mini
|  5>     print[ P_Basis ] 0
|  6>     print[ P_SCFInfo ] 1
|  7>     print[ P_SCFIterInfo ] 1
|  8>     print[ P_OrbEn ] 0
|  9>     print[ P_Cartesian ] 0
| 10> end
| 11> *xyz 0 1
| 12>  C        0.9607730000    -0.0713760000    -0.0473110000
| 13>  C        2.4799580000    -0.1088360000     0.0589910000
| 14>  C        3.1358250000    -1.3365220000    -0.5091180000
| 15>  C        4.0277820000    -0.9627900000    -1.4241480000
| 16>  N        4.0765220000     0.4255020000    -1.5425620000
| 17>  C        3.1369770000     1.0227580000    -0.7232480000
| 18>  N        2.8276990000     2.2472430000    -0.6011380000
| 19>  H        0.5107520000    -0.8512310000     0.5709570000
| 20>  H        0.6431810000    -0.2280020000    -1.0804480000
| 21>  H        0.5915960000     0.9008960000     0.2820300000
| 22>  H        2.7582590000     0.0204970000     1.1127860000
| 23>  H        2.9219800000    -2.3505970000    -0.2089980000
| 24>  H        4.6850750000    -1.5732490000    -2.0271940000
| 25>  H        4.5767870000     0.9155450000    -2.2618670000
| 26>  H        3.3781340000     2.8453530000    -1.2142420000
| 27> *
| 28>
| 29>                          ****END OF INPUT****
 Total Charge           Charge          ....    0
 Multiplicity           Mult            ....    1
 Number of Electrons    NEL             ....   52
 Basis Dimension        Dim             ....  138

MULLIKEN ATOMIC CHARGES
-----------------------
   0 C :    0.048920
   1 C :   -0.053491
   2 C :   -0.072500
   3 C :    0.088003
   4 N :   -0.106154
   5 C :   -0.109699
   6 N :   -0.075125
   7 H :    0.015877
   8 H :    0.012936
   9 H :    0.036279
  10 H :    0.050118
  11 H :   -0.009966
  12 H :   -0.002070
  13 H :    0.102410
  14 H :    0.074462
Sum of atomic charges:    0.0000000

LOEWDIN ATOMIC CHARGES
----------------------
   0 C :   -0.042142
   1 C :   -0.043252
   2 C :   -0.085380
   3 C :    0.007766
   4 N :    0.016448
   5 C :    0.016915
   6 N :   -0.166042
   7 H :    0.025282
   8 H :    0.025873
   9 H :    0.032968
  10 H :    0.051887
  11 H :    0.023997
  12 H :    0.022631
  13 H :    0.071659
  14 H :    0.041389

  Mayer bond orders larger than 0.1
B(  0-C ,  1-C ) :   1.0832 B(  0-C ,  7-H ) :   0.9625 B(  0-C ,  8-H ) :   0.9648
B(  0-C ,  9-H ) :   0.9532 B(  1-C ,  2-C ) :   1.0305 B(  1-C ,  5-C ) :   0.9310
B(  1-C , 10-H ) :   0.8751 B(  2-C ,  3-C ) :   1.7408 B(  2-C , 11-H ) :   0.9962
B(  3-C ,  4-N ) :   1.0764 B(  3-C , 12-H ) :   0.9801 B(  4-N ,  5-C ) :   1.1367
B(  4-N , 13-H ) :   0.9360 B(  5-C ,  6-N ) :   2.0122 B(  6-N , 14-H ) :   0.9218

FINAL SINGLE POINT ENERGY      -304.221766467826

DIPOLE MOMENT
-------------
                                X             Y             Z
Electronic contribution:      3.88706       1.33371      -1.36873
Nuclear contribution   :     -3.18419      -1.82001       0.67160
                        -----------------------------------------
Total Dipole Moment    :      0.70287      -0.48631      -0.69713
                        -----------------------------------------
Magnitude (a.u.)       :      1.10296
Magnitude (Debye)      :      2.80349

                             ****ORCA TERMINATED NORMALLY****
TOTAL RUN TIME: 0 days 0 hours 0 minutes 7 seconds 628 msec
