                         Program Version 3.0.3 - RELEASE   -
|  1> ! RI PBE def2-SVP def2-SVP/J NBO PAL2
|  2> % maxcore 2000
|  3> % output
|  4>     # printlevel mini
|  5>     print[ P_Basis ] 0
|  6>     print[ P_SCFInfo ] 1
|  7>     print[ P_SCFIterInfo ] 1
|  8>     print[ P_OrbEn ] 0
|  9>     print[ P_Cartesian ] 0
| 10> end
| 11> *xyz 0 1
| 12>  C        0.9067020000     0.0813530000    -0.0431370000
| 13>  C        2.4162560000     0.0849390000    -0.0275900000
| 14>  C        3.1703650000     1.1289330000     0.8241160000
| 15>  C        4.2103040000     0.0570940000     1.1966040000
| 16>  N        5.4160680000     0.1625030000     0.4025640000
| 17>  C        3.1707290000    -1.0137300000     0.7640260000
| 18>  N        3.6768130000    -2.2161170000     0.1569680000
| 19>  H        0.5045750000     0.9674760000    -0.5424800000
| 20>  H        0.5083270000     0.0667850000     0.9761740000
| 21>  H        0.5153500000    -0.7963470000    -0.5666170000
| 22>  H        2.7963480000     0.1037160000    -1.0567170000
| 23>  H        2.5814630000     1.4447150000     1.6886320000
| 24>  H        3.5579100000     2.0177020000     0.3223510000
| 25>  H        4.5047470000     0.0111580000     2.2479070000
| 26>  H        5.2055030000     0.3480780000    -0.5709270000
| 27>  H        5.9427190000    -0.7026630000     0.4434920000
| 28>  H        2.5735030000    -1.2981840000     1.6375020000
| 29>  H        4.0947960000    -2.0195450000    -0.7441330000
| 30>  H        2.9435090000    -2.8969650000     0.0084750000
| 31> *
| 32>
| 33>                          ****END OF INPUT****
 Total Charge           Charge          ....    0
 Multiplicity           Mult            ....    1
 Number of Electrons    NEL             ....   56
 Basis Dimension        Dim             ....  158

MULLIKEN ATOMIC CHARGES
-----------------------
   0 C :    0.070907
   1 C :   -0.153106
   2 C :    0.130612
   3 C :   -0.078803
   4 N :   -0.137494
   5 C :   -0.026488
   6 N :   -0.120558
   7 H :    0.020365
   8 H :    0.005308
   9 H :    0.010349
  10 H :   -0.026463
  11 H :    0.000828
  12 H :    0.000214
  13 H :   -0.004210
  14 H :    0.072268
  15 H :    0.092960
  16 H :   -0.015159
  17 H :    0.065618
  18 H :    0.092851
Sum of atomic charges:    0.0000000

LOEWDIN ATOMIC CHARGES
----------------------
   0 C :   -0.065190
   1 C :   -0.059235
   2 C :   -0.030909
   3 C :    0.003683
   4 N :   -0.086281
   5 C :   -0.018649
   6 N :   -0.091392
   7 H :    0.027303
   8 H :    0.022257
   9 H :    0.023962
  10 H :    0.012657
  11 H :    0.025199
  12 H :    0.017268
  13 H :    0.010484
  14 H :    0.043647
  15 H :    0.051796
  16 H :    0.019268
  17 H :    0.038874
  18 H :    0.055259

  Mayer bond orders larger than 0.1
B(  0-C ,  1-C ) :   1.1055 B(  0-C ,  7-H ) :   0.9578 B(  0-C ,  8-H ) :   0.9499
B(  0-C ,  9-H ) :   0.9548 B(  1-C ,  2-C ) :   1.0925 B(  1-C ,  5-C ) :   1.0019
B(  1-C , 10-H ) :   0.8734 B(  2-C ,  3-C ) :   1.0937 B(  2-C , 11-H ) :   0.9125
B(  2-C , 12-H ) :   0.9095 B(  3-C ,  4-N ) :   1.1542 B(  3-C ,  5-C ) :   0.9763
B(  3-C , 13-H ) :   0.9055 B(  4-N , 14-H ) :   0.9651 B(  4-N , 15-H ) :   0.9602
B(  5-C ,  6-N ) :   1.1742 B(  5-C , 16-H ) :   0.8862 B(  6-N , 17-H ) :   0.9450
B(  6-N , 18-H ) :   0.9651

FINAL SINGLE POINT ENERGY      -306.596815337185

DIPOLE MOMENT
-------------
                                X             Y             Z
Electronic contribution:      3.07946      -0.83359       0.81557
Nuclear contribution   :     -3.55957       0.49590      -1.37600
                        -----------------------------------------
Total Dipole Moment    :     -0.48011      -0.33770      -0.56042
                        -----------------------------------------
Magnitude (a.u.)       :      0.81155
Magnitude (Debye)      :      2.06280

                             ****ORCA TERMINATED NORMALLY****
TOTAL RUN TIME: 0 days 0 hours 0 minutes 8 seconds 534 msec
