                         Program Version 3.0.3 - RELEASE   -
|  1> ! RI PBE def2-SVP def2-SVP/J NBO PAL2
|  2> % maxcore 2000
|  3> % output
|  4>     # printlevel mini
|  5>     print[ P_Basis ] 0
|  6>     print[ P_SCFInfo ] 1
|  7>     print[ P_SCFIterInfo ] 1
|  8>     print[ P_OrbEn ] 0
|  9>     print[ P_Cartesian ] 0
| 10> end
| 11> *xyz 0 1
| 12>  C        0.8809600000     0.0130180000    -0.0238370000
| 13>  C        2.3933060000     0.0369170000     0.0293370000
| 14>  C        3.0169760000     1.1874100000     0.8196640000
| 15>  C        4.3688100000     0.6313860000     1.2564480000
| 16>  N        4.0684470000    -0.7745670000     1.4224440000
| 17>  C        3.0025410000    -1.1967890000     0.6681370000
| 18>  N        2.5515920000    -2.3708520000     0.4834420000
| 19>  H        0.4931200000     0.8840830000    -0.5576260000
| 20>  H        0.4604670000     0.0142370000     0.9851860000
| 21>  H        0.5362330000    -0.8913250000    -0.5262730000
| 22>  H        2.7862760000     0.0592320000    -0.9964000000
| 23>  H        2.4049640000     1.3967360000     1.7023280000
| 24>  H        3.1071930000     2.1094380000     0.2443430000
| 25>  H        4.7269280000     1.0738250000     2.1890950000
| 26>  H        5.1341640000     0.8008490000     0.4858150000
| 27>  H        4.7722550000    -1.4290700000     1.7186930000
| 28>  H        3.1054480000    -3.0717600000     0.9729130000
| 29> *
| 30>
| 31>                          ****END OF INPUT****
 Total Charge           Charge          ....    0
 Multiplicity           Mult            ....    1
 Number of Electrons    NEL             ....   54
 Basis Dimension        Dim             ....  148

MULLIKEN ATOMIC CHARGES
-----------------------
   0 C :    0.063621
   1 C :   -0.144704
   2 C :    0.007449
   3 C :    0.137684
   4 N :   -0.173912
   5 C :   -0.107630
   6 N :   -0.096174
   7 H :    0.010429
   8 H :    0.008767
   9 H :    0.036811
  10 H :    0.030079
  11 H :    0.019633
  12 H :    0.013600
  13 H :    0.013056
  14 H :    0.014104
  15 H :    0.099015
  16 H :    0.068174
Sum of atomic charges:   -0.0000000

LOEWDIN ATOMIC CHARGES
----------------------
   0 C :   -0.050490
   1 C :   -0.051096
   2 C :   -0.034994
   3 C :    0.027777
   4 N :   -0.023340
   5 C :    0.002409
   6 N :   -0.183241
   7 H :    0.023581
   8 H :    0.025707
   9 H :    0.034722
  10 H :    0.040421
  11 H :    0.028413
  12 H :    0.026840
  13 H :    0.019546
  14 H :    0.011787
  15 H :    0.064116
  16 H :    0.037843

  Mayer bond orders larger than 0.1
B(  0-C ,  1-C ) :   1.1155 B(  0-C ,  7-H ) :   0.9591 B(  0-C ,  8-H ) :   0.9566
B(  0-C ,  9-H ) :   0.9483 B(  1-C ,  2-C ) :   1.0815 B(  1-C ,  5-C ) :   0.9243
B(  1-C , 10-H ) :   0.8858 B(  2-C ,  3-C ) :   1.0873 B(  2-C , 11-H ) :   0.9278
B(  2-C , 12-H ) :   0.9329 B(  3-C ,  4-N ) :   1.0029 B(  3-C , 13-H ) :   0.9396
B(  3-C , 14-H ) :   0.9323 B(  4-N ,  5-C ) :   1.1811 B(  4-N ,  6-N ) :   0.1029
B(  4-N , 15-H ) :   0.9336 B(  5-C ,  6-N ) :   2.0097 B(  6-N , 16-H ) :   0.9237

FINAL SINGLE POINT ENERGY      -305.437782176233

DIPOLE MOMENT
-------------
                                X             Y             Z
Electronic contribution:      2.34556      -3.57590       0.86878
Nuclear contribution   :     -1.37196       4.22309      -0.47112
                        -----------------------------------------
Total Dipole Moment    :      0.97360       0.64718       0.39766
                        -----------------------------------------
Magnitude (a.u.)       :      1.23486
Magnitude (Debye)      :      3.13877

                             ****ORCA TERMINATED NORMALLY****
TOTAL RUN TIME: 0 days 0 hours 0 minutes 8 seconds 206 msec
