                         Program Version 3.0.3 - RELEASE   -
|  1> ! RI PBE def2-SVP def2-SVP/J NBO PAL2
|  2> % maxcore 2000
|  3> % output
|  4>     # printlevel mini
|  5>     print[ P_Basis ] 0
|  6>     print[ P_SCFInfo ] 1
|  7>     print[ P_SCFIterInfo ] 1
|  8>     print[ P_OrbEn ] 0
|  9>     print[ P_Cartesian ] 0
| 10> end
| 11> *xyz 0 1
| 12>  C        0.9800150000     0.0688120000    -0.0438370000
| 13>  C        2.4751400000     0.0893270000    -0.1091680000
| 14>  C        3.1933970000     1.2779250000    -0.1284340000
| 15>  C        4.5788320000     1.2375010000    -0.1896220000
| 16>  N        5.2840090000     0.1138090000    -0.2321230000
| 17>  C        4.5960180000    -1.0241000000    -0.2136560000
| 18>  C        3.2141680000    -1.0892110000    -0.1537130000
| 19>  H        0.5683820000     1.0782650000    -0.0149440000
| 20>  H        0.6361910000    -0.4648050000     0.8460530000
| 21>  H        0.5591540000    -0.4458930000    -0.9114930000
| 22>  H        2.6800110000     2.2328430000    -0.0960790000
| 23>  H        5.1495210000     2.1627190000    -0.2051290000
| 24>  H        5.1828140000    -1.9385330000    -0.2488040000
| 25>  H        2.7175580000    -2.0537600000    -0.1418510000
| 26> *
| 27>
| 28>                          ****END OF INPUT****
 Total Charge           Charge          ....    0
 Multiplicity           Mult            ....    1
 Number of Electrons    NEL             ....   50
 Basis Dimension        Dim             ....  133

MULLIKEN ATOMIC CHARGES
-----------------------
   0 C :    0.066118
   1 C :   -0.045056
   2 C :   -0.025829
   3 C :    0.036447
   4 N :   -0.094284
   5 C :    0.036350
   6 C :   -0.027015
   7 H :    0.017985
   8 H :    0.042212
   9 H :    0.042669
  10 H :   -0.021930
  11 H :   -0.002905
  12 H :   -0.001680
  13 H :   -0.023084
Sum of atomic charges:   -0.0000000

LOEWDIN ATOMIC CHARGES
----------------------
   0 C :   -0.053341
   1 C :   -0.009132
   2 C :   -0.050993
   3 C :    0.011316
   4 N :   -0.075288
   5 C :    0.010832
   6 C :   -0.048461
   7 H :    0.032604
   8 H :    0.043444
   9 H :    0.043520
  10 H :    0.027850
  11 H :    0.019743
  12 H :    0.019852
  13 H :    0.028054

  Mayer bond orders larger than 0.1
B(  0-C ,  1-C ) :   1.0798 B(  0-C ,  7-H ) :   0.9532 B(  0-C ,  8-H ) :   0.9467
B(  0-C ,  9-H ) :   0.9468 B(  1-C ,  2-C ) :   1.4098 B(  1-C ,  6-C ) :   1.3936
B(  2-C ,  3-C ) :   1.3805 B(  2-C , 10-H ) :   0.9634 B(  3-C ,  4-N ) :   1.5466
B(  3-C , 11-H ) :   0.9642 B(  4-N ,  5-C ) :   1.5303 B(  5-C ,  6-C ) :   1.3944
B(  5-C , 12-H ) :   0.9659 B(  6-C , 13-H ) :   0.9700

FINAL SINGLE POINT ENERGY      -287.022355678399

DIPOLE MOMENT
-------------
                                X             Y             Z
Electronic contribution:      5.13320       0.05714      -0.22436
Nuclear contribution   :     -6.16501      -0.09187       0.26936
                        -----------------------------------------
Total Dipole Moment    :     -1.03181      -0.03473       0.04500
                        -----------------------------------------
Magnitude (a.u.)       :      1.03338
Magnitude (Debye)      :      2.62664

                             ****ORCA TERMINATED NORMALLY****
TOTAL RUN TIME: 0 days 0 hours 0 minutes 6 seconds 515 msec
