                         Program Version 3.0.3 - RELEASE   -
|  1> ! RI PBE def2-SVP def2-SVP/J NBO PAL2
|  2> % maxcore 2000
|  3> % output
|  4>     # printlevel mini
|  5>     print[ P_Basis ] 0
|  6>     print[ P_SCFInfo ] 1
|  7>     print[ P_SCFIterInfo ] 1
|  8>     print[ P_OrbEn ] 0
|  9>     print[ P_Cartesian ] 0
| 10> end
| 11> *xyz 0 1
| 12>  C        0.9999090000    -0.0114190000     0.0779620000
| 13>  N        2.4378400000    -0.0319860000     0.0847620000
| 14>  C        3.2479720000     1.0619580000     0.0875840000
| 15>  C        4.5513620000     0.6302840000     0.0941120000
| 16>  C        4.5360590000    -0.7866220000     0.0952930000
| 17>  C        5.7236040000    -1.6917900000     0.1015310000
| 18>  C        3.2107670000    -1.1577910000     0.0896060000
| 19>  H        0.6586170000     1.0229900000     0.0754360000
| 20>  H        0.5959380000    -0.5062790000     0.9647740000
| 21>  H        0.6042850000    -0.5078670000    -0.8117220000
| 22>  H        2.8322290000     2.0573960000     0.0846980000
| 23>  H        5.4275090000     1.2612940000     0.0976160000
| 24>  H        6.6481870000    -1.1119680000     0.1062680000
| 25>  H        5.7485320000    -2.3395700000    -0.7792250000
| 26>  H        5.7393790000    -2.3393920000     0.9826220000
| 27>  H        2.7574120000    -2.1376390000     0.0884820000
| 28> *
| 29>
| 30>                          ****END OF INPUT****
 Total Charge           Charge          ....    0
 Multiplicity           Mult            ....    1
 Number of Electrons    NEL             ....   52
 Basis Dimension        Dim             ....  143

MULLIKEN ATOMIC CHARGES
-----------------------
   0 C :    0.103075
   1 N :   -0.179538
   2 C :    0.050730
   3 C :   -0.054590
   4 C :   -0.095002
   5 C :    0.081847
   6 C :    0.008803
   7 H :    0.031848
   8 H :    0.039884
   9 H :    0.039816
  10 H :   -0.015066
  11 H :   -0.037886
  12 H :    0.005519
  13 H :    0.024754
  14 H :    0.024709
  15 H :   -0.028904
Sum of atomic charges:   -0.0000000

LOEWDIN ATOMIC CHARGES
----------------------
   0 C :    0.025436
   1 N :    0.067937
   2 C :   -0.042599
   3 C :   -0.093234
   4 C :   -0.081517
   5 C :   -0.058888
   6 C :   -0.052551
   7 H :    0.033518
   8 H :    0.029749
   9 H :    0.029740
  10 H :    0.014129
  11 H :    0.019676
  12 H :    0.030732
  13 H :    0.032839
  14 H :    0.032839
  15 H :    0.012196

  Mayer bond orders larger than 0.1
B(  0-C ,  1-N ) :   0.9949 B(  0-C ,  7-H ) :   0.9687 B(  0-C ,  8-H ) :   0.9662
B(  0-C ,  9-H ) :   0.9662 B(  1-N ,  2-C ) :   1.2171 B(  1-N ,  6-C ) :   1.1961
B(  2-C ,  3-C ) :   1.4348 B(  2-C , 10-H ) :   0.9799 B(  3-C ,  4-C ) :   1.3485
B(  3-C , 11-H ) :   1.0063 B(  4-C ,  5-C ) :   1.0988 B(  4-C ,  6-C ) :   1.4587
B(  5-C , 12-H ) :   0.9515 B(  5-C , 13-H ) :   0.9496 B(  5-C , 14-H ) :   0.9496
B(  6-C , 15-H ) :   0.9934

FINAL SINGLE POINT ENERGY      -288.209239759384

DIPOLE MOMENT
-------------
                                X             Y             Z
Electronic contribution:     -0.33511       1.74796      -0.00274
Nuclear contribution   :     -0.45299      -1.77950      -0.00090
                        -----------------------------------------
Total Dipole Moment    :     -0.78810      -0.03154      -0.00364
                        -----------------------------------------
Magnitude (a.u.)       :      0.78874
Magnitude (Debye)      :      2.00481

                             ****ORCA TERMINATED NORMALLY****
TOTAL RUN TIME: 0 days 0 hours 0 minutes 6 seconds 947 msec
