                         Program Version 3.0.3 - RELEASE   -
|  1> ! RI PBE def2-SVP def2-SVP/J NBO PAL2
|  2> % maxcore 2000
|  3> % output
|  4>     # printlevel mini
|  5>     print[ P_Basis ] 0
|  6>     print[ P_SCFInfo ] 1
|  7>     print[ P_SCFIterInfo ] 1
|  8>     print[ P_OrbEn ] 0
|  9>     print[ P_Cartesian ] 0
| 10> end
| 11> *xyz 0 1
| 12>  C        0.9722790000     0.1012580000     0.2842710000
| 13>  C        2.4815560000     0.0477720000     0.0772430000
| 14>  C        2.9673140000    -1.3487160000    -0.3222910000
| 15>  C        2.6323970000    -1.6833280000    -1.7669420000
| 16>  N        3.1920940000    -0.6701970000    -2.6432820000
| 17>  C        2.6305580000     0.6427010000    -2.3812810000
| 18>  C        2.9654060000     1.0655670000    -0.9599400000
| 19>  H        0.6601040000    -0.6090210000     1.0547740000
| 20>  H        0.4182400000    -0.1395250000    -0.6257280000
| 21>  H        0.6587540000     1.0989050000     0.6036850000
| 22>  H        2.9480620000     0.3014040000     1.0361560000
| 23>  H        2.5363210000    -2.1035420000     0.3433740000
| 24>  H        4.0552560000    -1.3952430000    -0.2082410000
| 25>  H        1.5372610000    -1.7785190000    -1.8822860000
| 26>  H        3.0645170000    -2.6525260000    -2.0308250000
| 27>  H        3.0501310000    -0.9259820000    -3.6113190000
| 28>  H        1.5353270000     0.6669040000    -2.5281600000
| 29>  H        3.0613490000     1.3558370000    -3.0894920000
| 30>  H        2.5330400000     2.0500090000    -0.7536410000
| 31>  H        4.0532340000     1.1639500000    -0.8841660000
| 32> *
| 33>
| 34>                          ****END OF INPUT****
 Total Charge           Charge          ....    0
 Multiplicity           Mult            ....    1
 Number of Electrons    NEL             ....   56
 Basis Dimension        Dim             ....  163

MULLIKEN ATOMIC CHARGES
-----------------------
   0 C :    0.027275
   1 C :   -0.153889
   2 C :    0.029541
   3 C :    0.101744
   4 N :   -0.246172
   5 C :    0.091748
   6 C :    0.040107
   7 H :    0.011704
   8 H :    0.017371
   9 H :    0.010026
  10 H :   -0.001651
  11 H :    0.001978
  12 H :    0.006628
  13 H :   -0.019651
  14 H :   -0.000479
  15 H :    0.094105
  16 H :   -0.019663
  17 H :    0.004247
  18 H :   -0.001619
  19 H :    0.006651
Sum of atomic charges:   -0.0000000

LOEWDIN ATOMIC CHARGES
----------------------
   0 C :   -0.061379
   1 C :   -0.048041
   2 C :   -0.041588
   3 C :    0.010055
   4 N :   -0.101392
   5 C :    0.008997
   6 C :   -0.040645
   7 H :    0.024571
   8 H :    0.018207
   9 H :    0.024614
  10 H :    0.023938
  11 H :    0.022631
  12 H :    0.025102
  13 H :   -0.003324
  14 H :    0.020099
  15 H :    0.053682
  16 H :   -0.003812
  17 H :    0.021231
  18 H :    0.021803
  19 H :    0.025251

  Mayer bond orders larger than 0.1
B(  0-C ,  1-C ) :   1.0749 B(  0-C ,  7-H ) :   0.9577 B(  0-C ,  8-H ) :   0.9600
B(  0-C ,  9-H ) :   0.9564 B(  1-C ,  2-C ) :   1.0753 B(  1-C ,  6-C ) :   1.0734
B(  1-C , 10-H ) :   0.9090 B(  2-C ,  3-C ) :   1.1046 B(  2-C , 11-H ) :   0.9275
B(  2-C , 12-H ) :   0.9165 B(  3-C ,  4-N ) :   1.0624 B(  3-C , 13-H ) :   0.9106
B(  3-C , 14-H ) :   0.9305 B(  4-N ,  5-C ) :   1.0659 B(  4-N , 15-H ) :   0.9391
B(  5-C ,  6-C ) :   1.1026 B(  5-C , 16-H ) :   0.9116 B(  5-C , 17-H ) :   0.9301
B(  6-C , 18-H ) :   0.9276 B(  6-C , 19-H ) :   0.9157

FINAL SINGLE POINT ENERGY      -290.602494236340

DIPOLE MOMENT
-------------
                                X             Y             Z
Electronic contribution:      2.37124      -0.51278      -1.95267
Nuclear contribution   :     -2.61549       0.47130       1.79227
                        -----------------------------------------
Total Dipole Moment    :     -0.24425      -0.04148      -0.16040
                        -----------------------------------------
Magnitude (a.u.)       :      0.29514
Magnitude (Debye)      :      0.75019

                             ****ORCA TERMINATED NORMALLY****
TOTAL RUN TIME: 0 days 0 hours 0 minutes 9 seconds 277 msec
