                         Program Version 3.0.3 - RELEASE   -
|  1> ! RI PBE def2-SVP def2-SVP/J NBO PAL2
|  2> % maxcore 2000
|  3> % output
|  4>     # printlevel mini
|  5>     print[ P_Basis ] 0
|  6>     print[ P_SCFInfo ] 1
|  7>     print[ P_SCFIterInfo ] 1
|  8>     print[ P_OrbEn ] 0
|  9>     print[ P_Cartesian ] 0
| 10> end
| 11> *xyz 0 1
| 12>  C        1.0753660000    -0.0545290000     0.0593430000
| 13>  C        2.4027280000    -0.0729700000     0.0088290000
| 14>  C        3.2040370000    -1.3401560000    -0.0281120000
| 15>  C        4.1703500000    -1.3222160000    -1.2093000000
| 16>  N        4.9911850000    -0.1290160000    -1.1441560000
| 17>  C        4.2020080000     1.0820290000    -1.2550990000
| 18>  C        3.2370950000     1.1703600000    -0.0759340000
| 19>  H        0.4976000000    -0.9719770000     0.1025350000
| 20>  H        0.5219720000     0.8787890000     0.0672830000
| 21>  H        2.5478840000    -2.2120000000    -0.0837920000
| 22>  H        3.7971590000    -1.4200780000     0.8909350000
| 23>  H        3.5836700000    -1.3793370000    -2.1440950000
| 24>  H        4.8205380000    -2.2003820000    -1.1740140000
| 25>  H        5.7052690000    -0.1520470000    -1.8596080000
| 26>  H        3.6165660000     1.1189360000    -2.1916850000
| 27>  H        4.8751010000     1.9434850000    -1.2529520000
| 28>  H        2.6040900000     2.0564210000    -0.1650960000
| 29>  H        3.8325800000     1.2695770000     0.8396990000
| 30> *
| 31>
| 32>                          ****END OF INPUT****
 Total Charge           Charge          ....    0
 Multiplicity           Mult            ....    1
 Number of Electrons    NEL             ....   54
 Basis Dimension        Dim             ....  153

MULLIKEN ATOMIC CHARGES
-----------------------
   0 C :   -0.032934
   1 C :   -0.235482
   2 C :    0.126464
   3 C :    0.090949
   4 N :   -0.257198
   5 C :    0.089260
   6 C :    0.127769
   7 H :    0.002764
   8 H :    0.002974
   9 H :   -0.003921
  10 H :    0.011491
  11 H :   -0.020463
  12 H :    0.004772
  13 H :    0.101268
  14 H :   -0.020794
  15 H :    0.005526
  16 H :   -0.004403
  17 H :    0.011960
Sum of atomic charges:   -0.0000000

LOEWDIN ATOMIC CHARGES
----------------------
   0 C :   -0.080340
   1 C :   -0.032099
   2 C :   -0.035398
   3 C :    0.016324
   4 N :   -0.102658
   5 C :    0.016045
   6 C :   -0.035266
   7 H :    0.018546
   8 H :    0.018568
   9 H :    0.027705
  10 H :    0.033670
  11 H :   -0.002623
  12 H :    0.020750
  13 H :    0.057126
  14 H :   -0.002676
  15 H :    0.020901
  16 H :    0.027649
  17 H :    0.033777

  Mayer bond orders larger than 0.1
B(  0-C ,  1-C ) :   2.0067 B(  0-C ,  7-H ) :   0.9293 B(  0-C ,  8-H ) :   0.9296
B(  1-C ,  2-C ) :   1.0638 B(  1-C ,  6-C ) :   1.0639 B(  2-C ,  3-C ) :   1.0890
B(  2-C ,  9-H ) :   0.9157 B(  2-C , 10-H ) :   0.8918 B(  3-C ,  4-N ) :   1.0666
B(  3-C , 11-H ) :   0.9068 B(  3-C , 12-H ) :   0.9335 B(  4-N ,  5-C ) :   1.0668
B(  4-N , 13-H ) :   0.9395 B(  5-C ,  6-C ) :   1.0894 B(  5-C , 14-H ) :   0.9067
B(  5-C , 15-H ) :   0.9334 B(  6-C , 16-H ) :   0.9156 B(  6-C , 17-H ) :   0.8917

FINAL SINGLE POINT ENERGY      -289.385251609294

DIPOLE MOMENT
-------------
                                X             Y             Z
Electronic contribution:      0.74693       0.00049       0.55295
Nuclear contribution   :     -0.49759      -0.01068      -0.90486
                        -----------------------------------------
Total Dipole Moment    :      0.24934      -0.01020      -0.35192
                        -----------------------------------------
Magnitude (a.u.)       :      0.43142
Magnitude (Debye)      :      1.09657

                             ****ORCA TERMINATED NORMALLY****
TOTAL RUN TIME: 0 days 0 hours 0 minutes 7 seconds 882 msec
