                         Program Version 3.0.3 - RELEASE   -
|  1> ! RI PBE def2-SVP def2-SVP/J NBO PAL2
|  2> % maxcore 2000
|  3> % output
|  4>     # printlevel mini
|  5>     print[ P_Basis ] 0
|  6>     print[ P_SCFInfo ] 1
|  7>     print[ P_SCFIterInfo ] 1
|  8>     print[ P_OrbEn ] 0
|  9>     print[ P_Cartesian ] 0
| 10> end
| 11> *xyz 0 1
| 12>  C        0.9089660000    -0.0601180000     0.0072600000
| 13>  C        2.4025810000    -0.0345830000     0.0304110000
| 14>  C        3.1056220000     1.0927890000    -0.0565000000
| 15>  C        4.6041990000     1.1373750000     0.0047750000
| 16>  N        5.2309700000    -0.1049540000     0.4214470000
| 17>  C        4.5819350000    -1.2543200000    -0.1821060000
| 18>  C        3.0987540000    -1.3605310000     0.1550450000
| 19>  H        0.4891160000     0.9449780000    -0.0600250000
| 20>  H        0.5122260000    -0.5370800000     0.9105700000
| 21>  H        0.5391320000    -0.6457970000    -0.8414460000
| 22>  H        2.5866550000     2.0408430000    -0.1832050000
| 23>  H        4.9258850000     1.9312420000     0.6868760000
| 24>  H        5.0024050000     1.4208560000    -0.9806500000
| 25>  H        5.1710500000    -0.1826350000     1.4301410000
| 26>  H        5.1136300000    -2.1613590000     0.1178550000
| 27>  H        4.6988070000    -1.1644850000    -1.2681970000
| 28>  H        2.9643550000    -1.7505950000     1.1739150000
| 29>  H        2.6134200000    -2.0912040000    -0.5042750000
| 30> *
| 31>
| 32>                          ****END OF INPUT****
 Total Charge           Charge          ....    0
 Multiplicity           Mult            ....    1
 Number of Electrons    NEL             ....   54
 Basis Dimension        Dim             ....  153

MULLIKEN ATOMIC CHARGES
-----------------------
   0 C :    0.073199
   1 C :   -0.169351
   2 C :   -0.132041
   3 C :    0.164270
   4 N :   -0.242810
   5 C :    0.084949
   6 C :    0.046387
   7 H :    0.009177
   8 H :    0.021234
   9 H :    0.024140
  10 H :   -0.028181
  11 H :    0.010044
  12 H :    0.014692
  13 H :    0.096100
  14 H :    0.003232
  15 H :    0.011494
  16 H :    0.009229
  17 H :    0.004237
Sum of atomic charges:    0.0000000

LOEWDIN ATOMIC CHARGES
----------------------
   0 C :   -0.055142
   1 C :   -0.051101
   2 C :   -0.077153
   3 C :    0.005457
   4 N :   -0.094561
   5 C :    0.009521
   6 C :   -0.056706
   7 H :    0.028443
   8 H :    0.032843
   9 H :    0.032573
  10 H :    0.018474
  11 H :    0.028121
  12 H :    0.026125
  13 H :    0.052941
  14 H :    0.020272
  15 H :    0.023077
  16 H :    0.027264
  17 H :    0.029552

  Mayer bond orders larger than 0.1
B(  0-C ,  1-C ) :   1.1017 B(  0-C ,  7-H ) :   0.9515 B(  0-C ,  8-H ) :   0.9455
B(  0-C ,  9-H ) :   0.9434 B(  1-C ,  2-C ) :   1.9006 B(  1-C ,  6-C ) :   1.0398
B(  2-C ,  3-C ) :   1.0021 B(  2-C , 10-H ) :   0.9413 B(  3-C ,  4-N ) :   1.0962
B(  3-C , 11-H ) :   0.9290 B(  3-C , 12-H ) :   0.9140 B(  4-N ,  5-C ) :   1.0870
B(  4-N , 13-H ) :   0.9527 B(  5-C ,  6-C ) :   1.0819 B(  5-C , 14-H ) :   0.9384
B(  5-C , 15-H ) :   0.9350 B(  6-C , 16-H ) :   0.8986 B(  6-C , 17-H ) :   0.9047

FINAL SINGLE POINT ENERGY      -289.388524224045

DIPOLE MOMENT
-------------
                                X             Y             Z
Electronic contribution:      2.49996       0.95690       0.38024
Nuclear contribution   :     -2.86119      -1.05681      -0.17234
                        -----------------------------------------
Total Dipole Moment    :     -0.36123      -0.09990       0.20790
                        -----------------------------------------
Magnitude (a.u.)       :      0.42859
Magnitude (Debye)      :      1.08939

                             ****ORCA TERMINATED NORMALLY****
TOTAL RUN TIME: 0 days 0 hours 0 minutes 7 seconds 647 msec
