                         Program Version 3.0.3 - RELEASE   -
|  1> ! RI PBE def2-SVP def2-SVP/J NBO PAL2
|  2> % maxcore 2000
|  3> % output
|  4>     # printlevel mini
|  5>     print[ P_Basis ] 0
|  6>     print[ P_SCFInfo ] 1
|  7>     print[ P_SCFIterInfo ] 1
|  8>     print[ P_OrbEn ] 0
|  9>     print[ P_Cartesian ] 0
| 10> end
| 11> *xyz 0 1
| 12>  C        1.0253750000     0.0052120000    -0.0682550000
| 13>  C        2.5114950000    -0.0065740000    -0.1246970000
| 14>  C        3.3077900000    -1.0727090000    -0.1671000000
| 15>  C        4.7658570000    -0.7172440000    -0.1316780000
| 16>  N        5.3439160000    -1.1573640000     1.1336890000
| 17>  C        4.7412310000     0.8057730000    -0.4085840000
| 18>  C        3.3100760000     1.2693780000    -0.1075090000
| 19>  H        0.6138010000    -1.0050350000    -0.0603790000
| 20>  H        0.6044230000     0.5415110000    -0.9252710000
| 21>  H        0.6727230000     0.5267940000     0.8281000000
| 22>  H        2.9698110000    -2.1029080000    -0.1483650000
| 23>  H        5.3248160000    -1.2367190000    -0.9181850000
| 24>  H        4.8621400000    -0.7162580000     1.9087940000
| 25>  H        6.3210900000    -0.8959980000     1.1921940000
| 26>  H        4.9672580000     0.9865190000    -1.4628060000
| 27>  H        5.4981440000     1.3314550000     0.1781290000
| 28>  H        2.9439820000     1.9907970000    -0.8453140000
| 29>  H        3.2146730000     1.7639910000     0.8677380000
| 30> *
| 31>
| 32>                          ****END OF INPUT****
 Total Charge           Charge          ....    0
 Multiplicity           Mult            ....    1
 Number of Electrons    NEL             ....   54
 Basis Dimension        Dim             ....  153

MULLIKEN ATOMIC CHARGES
-----------------------
   0 C :    0.089248
   1 C :   -0.193925
   2 C :   -0.047336
   3 C :   -0.017680
   4 N :   -0.170759
   5 C :    0.063111
   6 C :    0.058825
   7 H :    0.014773
   8 H :    0.026155
   9 H :    0.023923
  10 H :   -0.026930
  11 H :    0.000940
  12 H :    0.077907
  13 H :    0.084729
  14 H :    0.003583
  15 H :   -0.016283
  16 H :    0.015529
  17 H :    0.014190
Sum of atomic charges:   -0.0000000

LOEWDIN ATOMIC CHARGES
----------------------
   0 C :   -0.058370
   1 C :   -0.040084
   2 C :   -0.051768
   3 C :   -0.000944
   4 N :   -0.098454
   5 C :   -0.048550
   6 C :   -0.037601
   7 H :    0.032452
   8 H :    0.036290
   9 H :    0.036216
  10 H :    0.018832
  11 H :    0.021407
  12 H :    0.046268
  13 H :    0.047811
  14 H :    0.026133
  15 H :    0.015569
  16 H :    0.027616
  17 H :    0.027178

  Mayer bond orders larger than 0.1
B(  0-C ,  1-C ) :   1.1050 B(  0-C ,  7-H ) :   0.9514 B(  0-C ,  8-H ) :   0.9407
B(  0-C ,  9-H ) :   0.9412 B(  1-C ,  2-C ) :   1.8266 B(  1-C ,  6-C ) :   1.0466
B(  2-C ,  3-C ) :   1.0061 B(  2-C , 10-H ) :   0.9936 B(  3-C ,  4-N ) :   1.0932
B(  3-C ,  5-C ) :   1.0300 B(  3-C , 11-H ) :   0.9024 B(  4-N , 12-H ) :   0.9661
B(  4-N , 13-H ) :   0.9666 B(  5-C ,  6-C ) :   1.0850 B(  5-C , 14-H ) :   0.9213
B(  5-C , 15-H ) :   0.9255 B(  6-C , 16-H ) :   0.9256 B(  6-C , 17-H ) :   0.9087

FINAL SINGLE POINT ENERGY      -289.390727890277

DIPOLE MOMENT
-------------
                                X             Y             Z
Electronic contribution:      1.39679      -1.79779      -0.05986
Nuclear contribution   :     -1.44797       2.33821       0.11590
                        -----------------------------------------
Total Dipole Moment    :     -0.05119       0.54042       0.05604
                        -----------------------------------------
Magnitude (a.u.)       :      0.54572
Magnitude (Debye)      :      1.38712

                             ****ORCA TERMINATED NORMALLY****
TOTAL RUN TIME: 0 days 0 hours 0 minutes 8 seconds 60 msec
