                         Program Version 3.0.3 - RELEASE   -
|  1> ! RI PBE def2-SVP def2-SVP/J NBO PAL2
|  2> % maxcore 2000
|  3> % output
|  4>     # printlevel mini
|  5>     print[ P_Basis ] 0
|  6>     print[ P_SCFInfo ] 1
|  7>     print[ P_SCFIterInfo ] 1
|  8>     print[ P_OrbEn ] 0
|  9>     print[ P_Cartesian ] 0
| 10> end
| 11> *xyz 0 1
| 12>  C        0.8373200000     0.1093420000     0.1127450000
| 13>  C        2.3204280000     0.0258120000     0.0348970000
| 14>  C        3.0892210000    -1.0691930000    -0.0578840000
| 15>  C        4.5452670000    -0.6822180000    -0.0710900000
| 16>  N        5.4027870000    -1.1963460000    -1.1304990000
| 17>  C        4.4799390000     0.8173780000    -0.0386410000
| 18>  C        3.2039020000     1.2058400000     0.0475140000
| 19>  H        0.3784000000    -0.8783730000     0.0534780000
| 20>  H        0.4358940000     0.7234100000    -0.6999030000
| 21>  H        0.5182060000     0.5780390000     1.0490520000
| 22>  H        2.7441870000    -2.0956550000    -0.0910880000
| 23>  H        4.9868280000    -1.0051940000     0.8862680000
| 24>  H        5.0058020000    -0.9507940000    -2.0305710000
| 25>  H        5.4347130000    -2.2081650000    -1.0912230000
| 26>  H        5.3617240000     1.4428190000    -0.0669420000
| 27>  H        2.8481910000     2.2269890000     0.1195790000
| 28> *
| 29>
| 30>                          ****END OF INPUT****
 Total Charge           Charge          ....    0
 Multiplicity           Mult            ....    1
 Number of Electrons    NEL             ....   52
 Basis Dimension        Dim             ....  143

MULLIKEN ATOMIC CHARGES
-----------------------
   0 C :    0.085035
   1 C :   -0.087670
   2 C :   -0.090923
   3 C :    0.067612
   4 N :   -0.181269
   5 C :   -0.031264
   6 C :    0.015336
   7 H :    0.013568
   8 H :    0.028861
   9 H :    0.028997
  10 H :   -0.033674
  11 H :    0.038224
  12 H :    0.092281
  13 H :    0.090358
  14 H :   -0.009199
  15 H :   -0.026272
Sum of atomic charges:    0.0000000

LOEWDIN ATOMIC CHARGES
----------------------
   0 C :   -0.060102
   1 C :   -0.041157
   2 C :   -0.072071
   3 C :    0.000584
   4 N :   -0.088185
   5 C :   -0.030072
   6 C :   -0.032704
   7 H :    0.032566
   8 H :    0.037285
   9 H :    0.038186
  10 H :    0.013186
  11 H :    0.051314
  12 H :    0.055153
  13 H :    0.052657
  14 H :    0.023027
  15 H :    0.020333

  Mayer bond orders larger than 0.1
B(  0-C ,  1-C ) :   1.0970 B(  0-C ,  7-H ) :   0.9521 B(  0-C ,  8-H ) :   0.9410
B(  0-C ,  9-H ) :   0.9404 B(  1-C ,  2-C ) :   1.7362 B(  1-C ,  6-C ) :   1.0691
B(  2-C ,  3-C ) :   0.9818 B(  2-C , 10-H ) :   0.9935 B(  3-C ,  4-N ) :   1.0782
B(  3-C ,  5-C ) :   1.0314 B(  3-C , 11-H ) :   0.8582 B(  4-N , 12-H ) :   0.9711
B(  4-N , 13-H ) :   0.9672 B(  5-C ,  6-C ) :   1.7209 B(  5-C , 14-H ) :   0.9940
B(  6-C , 15-H ) :   1.0025

FINAL SINGLE POINT ENERGY      -288.173407143574

DIPOLE MOMENT
-------------
                                X             Y             Z
Electronic contribution:      2.47508       0.52843       0.13350
Nuclear contribution   :     -2.87737      -0.79156      -0.21757
                        -----------------------------------------
Total Dipole Moment    :     -0.40229      -0.26314      -0.08407
                        -----------------------------------------
Magnitude (a.u.)       :      0.48800
Magnitude (Debye)      :      1.24041

                             ****ORCA TERMINATED NORMALLY****
TOTAL RUN TIME: 0 days 0 hours 0 minutes 7 seconds 155 msec
