                         Program Version 3.0.3 - RELEASE   -
|  1> ! RI PBE def2-SVP def2-SVP/J NBO PAL2
|  2> % maxcore 2000
|  3> % output
|  4>     # printlevel mini
|  5>     print[ P_Basis ] 0
|  6>     print[ P_SCFInfo ] 1
|  7>     print[ P_SCFIterInfo ] 1
|  8>     print[ P_OrbEn ] 0
|  9>     print[ P_Cartesian ] 0
| 10> end
| 11> *xyz 0 1
| 12>  C        0.6095220000    -0.0674960000    -0.3816100000
| 13>  C        2.0870450000    -0.0551940000    -0.0813570000
| 14>  C        2.4698670000    -0.0647490000     1.3804650000
| 15>  C        2.0435450000     1.1721520000     2.1528710000
| 16>  N        2.5596160000     1.1163350000     3.5139660000
| 17>  C        2.9820650000    -0.8039060000    -1.0231160000
| 18>  C        2.9824200000     0.6980750000    -1.0212510000
| 19>  H        0.1253510000    -0.9385510000     0.0715880000
| 20>  H        0.4319120000    -0.1117930000    -1.4587960000
| 21>  H        0.1095880000     0.8279150000    -0.0026490000
| 22>  H        3.5560720000    -0.1616900000     1.4745400000
| 23>  H        2.0377710000    -0.9547060000     1.8591070000
| 24>  H        0.9491200000     1.2797080000     2.1052860000
| 25>  H        2.4668680000     2.0571390000     1.6665260000
| 26>  H        2.1587690000     0.3268300000     4.0069740000
| 27>  H        2.2951880000     1.9458360000     4.0304230000
| 28>  H        2.5246480000    -1.3102810000    -1.8652430000
| 29>  H        3.8460600000    -1.3118080000    -0.6108380000
| 30>  H        2.5280380000     1.2078050000    -1.8628050000
| 31>  H        3.8480250000     1.2028990000    -0.6079600000
| 32> *
| 33>
| 34>                          ****END OF INPUT****
 Total Charge           Charge          ....    0
 Multiplicity           Mult            ....    1
 Number of Electrons    NEL             ....   56
 Basis Dimension        Dim             ....  163

MULLIKEN ATOMIC CHARGES
-----------------------
   0 C :    0.104583
   1 C :   -0.314440
   2 C :    0.079294
   3 C :    0.071971
   4 N :   -0.208781
   5 C :   -0.008343
   6 C :   -0.008521
   7 H :    0.011900
   8 H :    0.001047
   9 H :    0.019518
  10 H :   -0.004694
  11 H :   -0.003450
  12 H :   -0.004714
  13 H :   -0.002927
  14 H :    0.085871
  15 H :    0.085478
  16 H :    0.021622
  17 H :    0.023649
  18 H :    0.022791
  19 H :    0.028146
Sum of atomic charges:   -0.0000000

LOEWDIN ATOMIC CHARGES
----------------------
   0 C :   -0.047486
   1 C :   -0.060469
   2 C :   -0.032714
   3 C :    0.005562
   4 N :   -0.113526
   5 C :   -0.042242
   6 C :   -0.044169
   7 H :    0.026288
   8 H :    0.025936
   9 H :    0.023574
  10 H :    0.026144
  11 H :    0.020125
  12 H :   -0.001058
  13 H :    0.019161
  14 H :    0.048568
  15 H :    0.051734
  16 H :    0.022639
  17 H :    0.023877
  18 H :    0.023384
  19 H :    0.024673

  Mayer bond orders larger than 0.1
B(  0-C ,  1-C ) :   1.0802 B(  0-C ,  7-H ) :   0.9541 B(  0-C ,  8-H ) :   0.9390
B(  0-C ,  9-H ) :   0.9550 B(  1-C ,  2-C ) :   1.0688 B(  1-C ,  5-C ) :   0.9788
B(  1-C ,  6-C ) :   0.9734 B(  2-C ,  3-C ) :   1.0978 B(  2-C , 10-H ) :   0.9034
B(  2-C , 11-H ) :   0.9221 B(  3-C ,  4-N ) :   1.0874 B(  3-C , 12-H ) :   0.9261
B(  3-C , 13-H ) :   0.9287 B(  4-N , 14-H ) :   0.9694 B(  4-N , 15-H ) :   0.9636
B(  5-C ,  6-C ) :   1.0314 B(  5-C , 16-H ) :   0.9431 B(  5-C , 17-H ) :   0.9410
B(  6-C , 18-H ) :   0.9461 B(  6-C , 19-H ) :   0.9429

FINAL SINGLE POINT ENERGY      -290.569692005435

DIPOLE MOMENT
-------------
                                X             Y             Z
Electronic contribution:      1.48393      -0.02351       0.54148
Nuclear contribution   :     -1.98247       0.08857      -0.38274
                        -----------------------------------------
Total Dipole Moment    :     -0.49854       0.06506       0.15875
                        -----------------------------------------
Magnitude (a.u.)       :      0.52724
Magnitude (Debye)      :      1.34013

                             ****ORCA TERMINATED NORMALLY****
TOTAL RUN TIME: 0 days 0 hours 0 minutes 8 seconds 701 msec
