                         Program Version 3.0.3 - RELEASE   -
|  1> ! RI PBE def2-SVP def2-SVP/J NBO PAL2
|  2> % maxcore 2000
|  3> % output
|  4>     # printlevel mini
|  5>     print[ P_Basis ] 0
|  6>     print[ P_SCFInfo ] 1
|  7>     print[ P_SCFIterInfo ] 1
|  8>     print[ P_OrbEn ] 0
|  9>     print[ P_Cartesian ] 0
| 10> end
| 11> *xyz 0 1
| 12>  C        0.9015910000    -0.0326400000    -0.1250930000
| 13>  C        2.4269860000    -0.0704990000    -0.0569640000
| 14>  C        2.9781880000    -1.3541490000     0.5922750000
| 15>  C        3.3324260000    -0.9932030000     2.0529060000
| 16>  N        4.5205180000    -1.6087860000     2.6211530000
| 17>  C        3.4410650000     0.5046940000     1.9920600000
| 18>  C        2.9711020000     0.9980900000     0.8532710000
| 19>  H        0.5203750000    -0.8147370000    -0.7869810000
| 20>  H        0.5451340000     0.9290070000    -0.5034480000
| 21>  H        0.4647710000    -0.1816140000     0.8662070000
| 22>  H        2.8118220000     0.0501790000    -1.0763570000
| 23>  H        3.9037600000    -1.6517800000     0.0895330000
| 24>  H        2.2830840000    -2.1946290000     0.5183300000
| 25>  H        2.5046080000    -1.2595720000     2.7244830000
| 26>  H        5.3201130000    -1.4389340000     2.0208970000
| 27>  H        4.4050800000    -2.6127020000     2.6877210000
| 28>  H        3.8360470000     1.0789610000     2.8221390000
| 29>  H        2.9150310000     2.0534130000     0.6075700000
| 30> *
| 31>
| 32>                          ****END OF INPUT****
 Total Charge           Charge          ....    0
 Multiplicity           Mult            ....    1
 Number of Electrons    NEL             ....   54
 Basis Dimension        Dim             ....  153

MULLIKEN ATOMIC CHARGES
-----------------------
   0 C :    0.041981
   1 C :   -0.107149
   2 C :    0.099481
   3 C :   -0.010114
   4 N :   -0.170590
   5 C :   -0.031192
   6 C :   -0.015818
   7 H :    0.019659
   8 H :    0.014083
   9 H :    0.015265
  10 H :    0.004895
  11 H :   -0.016472
  12 H :   -0.005907
  13 H :    0.014276
  14 H :    0.080386
  15 H :    0.087046
  16 H :   -0.009157
  17 H :   -0.010673
Sum of atomic charges:   -0.0000000

LOEWDIN ATOMIC CHARGES
----------------------
   0 C :   -0.055042
   1 C :   -0.043458
   2 C :   -0.043696
   3 C :   -0.003353
   4 N :   -0.094542
   5 C :   -0.036518
   6 C :   -0.028135
   7 H :    0.024852
   8 H :    0.025001
   9 H :    0.024702
  10 H :    0.023906
  11 H :    0.020367
  12 H :    0.018842
  13 H :    0.027101
  14 H :    0.046176
  15 H :    0.050696
  16 H :    0.022920
  17 H :    0.020182

  Mayer bond orders larger than 0.1
B(  0-C ,  1-C ) :   1.0625 B(  0-C ,  7-H ) :   0.9588 B(  0-C ,  8-H ) :   0.9606
B(  0-C ,  9-H ) :   0.9621 B(  1-C ,  2-C ) :   1.0538 B(  1-C ,  6-C ) :   1.0050
B(  1-C , 10-H ) :   0.9084 B(  2-C ,  3-C ) :   1.0400 B(  2-C , 11-H ) :   0.9099
B(  2-C , 12-H ) :   0.9253 B(  3-C ,  4-N ) :   1.1036 B(  3-C ,  5-C ) :   1.0153
B(  3-C , 13-H ) :   0.8844 B(  4-N , 14-H ) :   0.9679 B(  4-N , 15-H ) :   0.9681
B(  5-C ,  6-C ) :   1.8374 B(  5-C , 16-H ) :   0.9897 B(  6-C , 17-H ) :   0.9848

FINAL SINGLE POINT ENERGY      -289.384665796716

DIPOLE MOMENT
-------------
                                X             Y             Z
Electronic contribution:      2.60350       1.15264       1.96961
Nuclear contribution   :     -2.66821      -1.42600      -2.37743
                        -----------------------------------------
Total Dipole Moment    :     -0.06471      -0.27336      -0.40782
                        -----------------------------------------
Magnitude (a.u.)       :      0.49521
Magnitude (Debye)      :      1.25871

                             ****ORCA TERMINATED NORMALLY****
TOTAL RUN TIME: 0 days 0 hours 0 minutes 7 seconds 779 msec
