                         Program Version 3.0.3 - RELEASE   -
|  1> ! RI PBE def2-SVP def2-SVP/J NBO PAL2
|  2> % maxcore 2000
|  3> % output
|  4>     # printlevel mini
|  5>     print[ P_Basis ] 0
|  6>     print[ P_SCFInfo ] 1
|  7>     print[ P_SCFIterInfo ] 1
|  8>     print[ P_OrbEn ] 0
|  9>     print[ P_Cartesian ] 0
| 10> end
| 11> *xyz 0 1
| 12>  C        1.0725510000     0.0296240000    -0.0232070000
| 13>  C        2.5617080000     0.1023800000    -0.0913880000
| 14>  C        3.2498460000     1.3098030000    -0.1190180000
| 15>  C        4.6301560000     1.2531410000    -0.1826550000
| 16>  N        5.2971090000     0.1049720000    -0.2171180000
| 17>  C        4.5460590000    -0.9891240000    -0.1862200000
| 18>  N        3.2243740000    -1.0552470000    -0.1256840000
| 19>  H        0.6174820000     1.0197950000     0.0012720000
| 20>  H        0.7686480000    -0.5253830000     0.8672440000
| 21>  H        0.6880710000    -0.5190420000    -0.8860170000
| 22>  H        2.7269520000     2.2580040000    -0.0918380000
| 23>  H        5.2254200000     2.1625380000    -0.2070030000
| 24>  H        5.0747340000    -1.9387620000    -0.2136660000
| 25> *
| 26>
| 27>                          ****END OF INPUT****
 Total Charge           Charge          ....    0
 Multiplicity           Mult            ....    1
 Number of Electrons    NEL             ....   50
 Basis Dimension        Dim             ....  128

MULLIKEN ATOMIC CHARGES
-----------------------
   0 C :    0.105246
   1 C :   -0.130257
   2 C :   -0.000997
   3 C :    0.065533
   4 N :   -0.114023
   5 C :    0.069878
   6 N :   -0.108567
   7 H :    0.008316
   8 H :    0.047857
   9 H :    0.048541
  10 H :   -0.011469
  11 H :    0.006079
  12 H :    0.013863
Sum of atomic charges:   -0.0000000

LOEWDIN ATOMIC CHARGES
----------------------
   0 C :   -0.058768
   1 C :    0.021038
   2 C :   -0.064626
   3 C :    0.035241
   4 N :   -0.084498
   5 C :    0.032672
   6 N :   -0.082900
   7 H :    0.030215
   8 H :    0.049324
   9 H :    0.049423
  10 H :    0.031914
  11 H :    0.024163
  12 H :    0.016802

  Mayer bond orders larger than 0.1
B(  0-C ,  1-C ) :   1.0903 B(  0-C ,  7-H ) :   0.9468 B(  0-C ,  8-H ) :   0.9379
B(  0-C ,  9-H ) :   0.9381 B(  1-C ,  2-C ) :   1.3723 B(  1-C ,  6-N ) :   1.4928
B(  2-C ,  3-C ) :   1.3905 B(  2-C , 10-H ) :   0.9579 B(  3-C ,  4-N ) :   1.5371
B(  3-C , 11-H ) :   0.9681 B(  4-N ,  5-C ) :   1.5054 B(  5-C ,  6-N ) :   1.5127
B(  5-C , 12-H ) :   0.9614

FINAL SINGLE POINT ENERGY      -303.045665350642

DIPOLE MOMENT
-------------
                                X             Y             Z
Electronic contribution:      4.72006      -1.07008      -0.22040
Nuclear contribution   :     -5.41019       1.72142       0.25428
                        -----------------------------------------
Total Dipole Moment    :     -0.69013       0.65134       0.03388
                        -----------------------------------------
Magnitude (a.u.)       :      0.94956
Magnitude (Debye)      :      2.41360

                             ****ORCA TERMINATED NORMALLY****
TOTAL RUN TIME: 0 days 0 hours 0 minutes 6 seconds 355 msec
