                         Program Version 3.0.3 - RELEASE   -
|  1> ! RI PBE def2-SVP def2-SVP/J NBO PAL2
|  2> % maxcore 2000
|  3> % output
|  4>     # printlevel mini
|  5>     print[ P_Basis ] 0
|  6>     print[ P_SCFInfo ] 1
|  7>     print[ P_SCFIterInfo ] 1
|  8>     print[ P_OrbEn ] 0
|  9>     print[ P_Cartesian ] 0
| 10> end
| 11> *xyz 0 1
| 12>  C        1.1292550000     0.0016780000    -0.0162710000
| 13>  N        2.5639620000     0.0833920000    -0.0103840000
| 14>  C        3.3284920000     1.1909100000    -0.0094940000
| 15>  C        4.6371310000     0.7670890000    -0.0030740000
| 16>  C        4.5578080000    -0.6373270000    -0.0004390000
| 17>  C        5.6703280000    -1.6270370000     0.0063480000
| 18>  N        3.2907160000    -1.0352250000    -0.0049520000
| 19>  H        0.7179420000     1.0101580000    -0.0201100000
| 20>  H        0.7778800000    -0.5279680000     0.8708180000
| 21>  H        0.7853710000    -0.5316690000    -0.9040780000
| 22>  H        2.8938950000     2.1783570000    -0.0134160000
| 23>  H        5.5228580000     1.3815980000    -0.0006310000
| 24>  H        6.6364630000    -1.1211810000     0.0094560000
| 25>  H        5.6265200000    -2.2735380000    -0.8731690000
| 26>  H        5.6189700000    -2.2699460000     0.8880850000
| 27> *
| 28>
| 29>                          ****END OF INPUT****
 Total Charge           Charge          ....    0
 Multiplicity           Mult            ....    1
 Number of Electrons    NEL             ....   52
 Basis Dimension        Dim             ....  138

MULLIKEN ATOMIC CHARGES
-----------------------
   0 C :    0.119641
   1 N :   -0.138708
   2 C :    0.101777
   3 C :   -0.088878
   4 C :   -0.123316
   5 C :    0.107519
   6 N :   -0.137190
   7 H :    0.027728
   8 H :    0.048194
   9 H :    0.048168
  10 H :   -0.010524
  11 H :   -0.023522
  12 H :    0.002225
  13 H :    0.033502
  14 H :    0.033385
Sum of atomic charges:   -0.0000000

LOEWDIN ATOMIC CHARGES
----------------------
   0 C :    0.022507
   1 N :    0.099113
   2 C :   -0.029279
   3 C :   -0.109228
   4 C :   -0.059964
   5 C :   -0.062495
   6 N :   -0.116390
   7 H :    0.031471
   8 H :    0.034678
   9 H :    0.034677
  10 H :    0.020098
  11 H :    0.024373
  12 H :    0.031511
  13 H :    0.039469
  14 H :    0.039461

  Mayer bond orders larger than 0.1
B(  0-C ,  1-N ) :   0.9852 B(  0-C ,  7-H ) :   0.9644 B(  0-C ,  8-H ) :   0.9644
B(  0-C ,  9-H ) :   0.9644 B(  1-N ,  2-C ) :   1.2324 B(  1-N ,  6-N ) :   1.1436
B(  2-C ,  3-C ) :   1.4168 B(  2-C ,  6-N ) :   0.1231 B(  2-C , 10-H ) :   0.9736
B(  3-C ,  4-C ) :   1.3358 B(  3-C , 11-H ) :   0.9881 B(  4-C ,  5-C ) :   1.1064
B(  4-C ,  6-N ) :   1.5175 B(  5-C , 12-H ) :   0.9457 B(  5-C , 13-H ) :   0.9442
B(  5-C , 14-H ) :   0.9441

FINAL SINGLE POINT ENERGY      -304.229734044402

DIPOLE MOMENT
-------------
                                X             Y             Z
Electronic contribution:     -0.50775       1.12143      -0.00450
Nuclear contribution   :      0.03435      -0.52791       0.00125
                        -----------------------------------------
Total Dipole Moment    :     -0.47340       0.59352      -0.00325
                        -----------------------------------------
Magnitude (a.u.)       :      0.75919
Magnitude (Debye)      :      1.92972

                             ****ORCA TERMINATED NORMALLY****
TOTAL RUN TIME: 0 days 0 hours 0 minutes 7 seconds 48 msec
