                         Program Version 3.0.3 - RELEASE   -
|  1> ! RI PBE def2-SVP def2-SVP/J NBO PAL2
|  2> % maxcore 2000
|  3> % output
|  4>     # printlevel mini
|  5>     print[ P_Basis ] 0
|  6>     print[ P_SCFInfo ] 1
|  7>     print[ P_SCFIterInfo ] 1
|  8>     print[ P_OrbEn ] 0
|  9>     print[ P_Cartesian ] 0
| 10> end
| 11> *xyz 0 1
| 12>  C        0.9107560000    -0.1123730000     0.2574780000
| 13>  C        2.2049900000    -0.0869790000    -0.0599790000
| 14>  C        2.9751700000     1.1411880000    -0.4378370000
| 15>  C        4.3872830000     1.0885400000     0.1351540000
| 16>  N        5.0851820000    -0.1464200000    -0.1697040000
| 17>  C        4.3573400000    -1.1803140000    -0.2583300000
| 18>  N        2.9894130000    -1.2307370000    -0.1272410000
| 19>  H        0.3358210000     0.8029460000     0.2704550000
| 20>  H        0.3963480000    -1.0360510000     0.4972440000
| 21>  H        2.4416030000     2.0350620000    -0.1120310000
| 22>  H        3.0449430000     1.1781670000    -1.5318140000
| 23>  H        4.3531770000     1.2050890000     1.2266520000
| 24>  H        4.9772960000     1.9252570000    -0.2466990000
| 25>  H        4.8197750000    -2.1481150000    -0.4486530000
| 26>  H        2.5417050000    -2.1303510000    -0.0936940000
| 27> *
| 28>
| 29>                          ****END OF INPUT****
 Total Charge           Charge          ....    0
 Multiplicity           Mult            ....    1
 Number of Electrons    NEL             ....   52
 Basis Dimension        Dim             ....  138

MULLIKEN ATOMIC CHARGES
-----------------------
   0 C :   -0.062986
   1 C :   -0.052742
   2 C :    0.028385
   3 C :    0.106105
   4 N :   -0.214520
   5 C :    0.061109
   6 N :   -0.071982
   7 H :    0.007449
   8 H :   -0.003214
   9 H :    0.005987
  10 H :    0.046702
  11 H :    0.026095
  12 H :    0.009194
  13 H :    0.005414
  14 H :    0.109005
Sum of atomic charges:   -0.0000000

LOEWDIN ATOMIC CHARGES
----------------------
   0 C :   -0.131238
   1 C :    0.005495
   2 C :   -0.047984
   3 C :    0.004097
   4 N :   -0.145814
   5 C :    0.013818
   6 N :    0.029025
   7 H :    0.026622
   8 H :    0.018256
   9 H :    0.035963
  10 H :    0.042255
  11 H :    0.028321
  12 H :    0.025269
  13 H :    0.015024
  14 H :    0.080893

  Mayer bond orders larger than 0.1
B(  0-C ,  1-C ) :   1.9078 B(  0-C ,  7-H ) :   0.9207 B(  0-C ,  8-H ) :   0.9298
B(  1-C ,  2-C ) :   1.0398 B(  1-C ,  6-N ) :   1.1196 B(  2-C ,  3-C ) :   1.0643
B(  2-C ,  9-H ) :   0.9084 B(  2-C , 10-H ) :   0.9093 B(  3-C ,  4-N ) :   1.0577
B(  3-C , 11-H ) :   0.9330 B(  3-C , 12-H ) :   0.9286 B(  4-N ,  5-C ) :   1.9001
B(  5-C ,  6-N ) :   1.1273 B(  5-C , 13-H ) :   0.9521 B(  6-N , 14-H ) :   0.9229

FINAL SINGLE POINT ENERGY      -304.220097789328

DIPOLE MOMENT
-------------
                                X             Y             Z
Electronic contribution:      2.32543      -2.63022      -0.30432
Nuclear contribution   :     -3.04231       2.27670       0.28809
                        -----------------------------------------
Total Dipole Moment    :     -0.71688      -0.35353      -0.01624
                        -----------------------------------------
Magnitude (a.u.)       :      0.79947
Magnitude (Debye)      :      2.03210

                             ****ORCA TERMINATED NORMALLY****
TOTAL RUN TIME: 0 days 0 hours 0 minutes 7 seconds 184 msec
