                         Program Version 3.0.3 - RELEASE   -
|  1> ! RI PBE def2-SVP def2-SVP/J NBO PAL2
|  2> % maxcore 2000
|  3> % output
|  4>     # printlevel mini
|  5>     print[ P_Basis ] 0
|  6>     print[ P_SCFInfo ] 1
|  7>     print[ P_SCFIterInfo ] 1
|  8>     print[ P_OrbEn ] 0
|  9>     print[ P_Cartesian ] 0
| 10> end
| 11> *xyz 0 1
| 12>  C        0.9859610000    -0.1964760000     0.0829500000
| 13>  C        2.4645390000    -0.0484320000     0.0038430000
| 14>  C        3.1288190000     1.1051850000    -0.0192370000
| 15>  C        4.6282440000     1.1512380000    -0.1006050000
| 16>  N        5.2765640000    -0.1533470000    -0.1513520000
| 17>  C        4.5592930000    -1.1935130000    -0.1240520000
| 18>  N        3.1889560000    -1.2380020000    -0.0493740000
| 19>  H        0.5054150000     0.7801100000     0.1203030000
| 20>  H        0.6943390000    -0.7581510000     0.9768550000
| 21>  H        0.5979890000    -0.7381240000    -0.7863510000
| 22>  H        2.5735090000     2.0353020000     0.0217390000
| 23>  H        5.0451720000     1.7025060000     0.7541630000
| 24>  H        4.9502840000     1.7229010000    -0.9825550000
| 25>  H        5.0389530000    -2.1718110000    -0.1617300000
| 26>  H        2.7154730000    -2.1218870000    -0.0337990000
| 27> *
| 28>
| 29>                          ****END OF INPUT****
 Total Charge           Charge          ....    0
 Multiplicity           Mult            ....    1
 Number of Electrons    NEL             ....   52
 Basis Dimension        Dim             ....  138

MULLIKEN ATOMIC CHARGES
-----------------------
   0 C :    0.068883
   1 C :   -0.047073
   2 C :   -0.174273
   3 C :    0.189220
   4 N :   -0.216763
   5 C :    0.071932
   6 N :   -0.092447
   7 H :    0.021576
   8 H :    0.033105
   9 H :    0.033485
  10 H :   -0.025931
  11 H :    0.017849
  12 H :    0.017712
  13 H :    0.002205
  14 H :    0.100519
Sum of atomic charges:   -0.0000000

LOEWDIN ATOMIC CHARGES
----------------------
   0 C :   -0.059268
   1 C :   -0.010178
   2 C :   -0.103677
   3 C :    0.006716
   4 N :   -0.134080
   5 C :    0.023901
   6 N :    0.009600
   7 H :    0.040549
   8 H :    0.035293
   9 H :    0.035342
  10 H :    0.022642
  11 H :    0.022510
  12 H :    0.022458
  13 H :    0.013583
  14 H :    0.074608

  Mayer bond orders larger than 0.1
B(  0-C ,  1-C ) :   1.0981 B(  0-C ,  7-H ) :   0.9436 B(  0-C ,  8-H ) :   0.9419
B(  0-C ,  9-H ) :   0.9422 B(  1-C ,  2-C ) :   1.8287 B(  1-C ,  6-N ) :   1.0899
B(  2-C ,  3-C ) :   1.0134 B(  2-C , 10-H ) :   0.9387 B(  3-C ,  4-N ) :   1.0639
B(  3-C , 11-H ) :   0.9251 B(  3-C , 12-H ) :   0.9253 B(  4-N ,  5-C ) :   1.9363
B(  5-C ,  6-N ) :   1.1127 B(  5-C , 13-H ) :   0.9501 B(  6-N , 14-H ) :   0.9252

FINAL SINGLE POINT ENERGY      -304.219169601866

DIPOLE MOMENT
-------------
                                X             Y             Z
Electronic contribution:      3.85190      -1.67919      -0.22974
Nuclear contribution   :     -5.02139       1.13535       0.28774
                        -----------------------------------------
Total Dipole Moment    :     -1.16949      -0.54384       0.05800
                        -----------------------------------------
Magnitude (a.u.)       :      1.29106
Magnitude (Debye)      :      3.28161

                             ****ORCA TERMINATED NORMALLY****
TOTAL RUN TIME: 0 days 0 hours 0 minutes 7 seconds 561 msec
