                         Program Version 3.0.3 - RELEASE   -
|  1> ! RI PBE def2-SVP def2-SVP/J NBO PAL2
|  2> % maxcore 2000
|  3> % output
|  4>     # printlevel mini
|  5>     print[ P_Basis ] 0
|  6>     print[ P_SCFInfo ] 1
|  7>     print[ P_SCFIterInfo ] 1
|  8>     print[ P_OrbEn ] 0
|  9>     print[ P_Cartesian ] 0
| 10> end
| 11> *xyz 0 1
| 12>  C        0.8404600000     0.0266710000     0.1110220000
| 13>  C        2.3609600000     0.0521230000     0.0232930000
| 14>  C        2.9825060000     0.1319700000     1.4115920000
| 15>  C        2.9217500000    -1.1489290000    -0.8037230000
| 16>  N        3.6029660000    -0.6104760000    -1.9792120000
| 17>  C        3.4904870000     0.6554400000    -1.8953880000
| 18>  N        2.8198440000     1.1500220000    -0.8218140000
| 19>  H        0.5047590000    -0.8465990000     0.6769710000
| 20>  H        0.4009830000    -0.0210710000    -0.8873510000
| 21>  H        0.4560110000     0.9185590000     0.6152050000
| 22>  H        2.6983480000    -0.7390900000     2.0083290000
| 23>  H        2.6477900000     1.0259600000     1.9465840000
| 24>  H        4.0717390000     0.1600930000     1.3414570000
| 25>  H        2.1168520000    -1.8222190000    -1.1169860000
| 26>  H        3.6226110000    -1.7443940000    -0.2090660000
| 27>  H        3.9010760000     1.3401480000    -2.6326160000
| 28>  H        2.6574570000     2.1217020000    -0.6356970000
| 29> *
| 30>
| 31>                          ****END OF INPUT****
 Total Charge           Charge          ....    0
 Multiplicity           Mult            ....    1
 Number of Electrons    NEL             ....   54
 Basis Dimension        Dim             ....  148

MULLIKEN ATOMIC CHARGES
-----------------------
   0 C :    0.079934
   1 C :   -0.282329
   2 C :    0.068705
   3 C :    0.214040
   4 N :   -0.247677
   5 C :    0.100323
   6 N :   -0.165304
   7 H :    0.022426
   8 H :    0.023131
   9 H :    0.007300
  10 H :    0.024376
  11 H :    0.009844
  12 H :    0.026671
  13 H :    0.002570
  14 H :    0.004589
  15 H :    0.007221
  16 H :    0.104181
Sum of atomic charges:   -0.0000000

LOEWDIN ATOMIC CHARGES
----------------------
   0 C :   -0.058419
   1 C :   -0.019326
   2 C :   -0.060847
   3 C :    0.018350
   4 N :   -0.167392
   5 C :    0.017055
   6 N :   -0.012576
   7 H :    0.029313
   8 H :    0.027360
   9 H :    0.021736
  10 H :    0.029649
  11 H :    0.022131
  12 H :    0.028091
  13 H :    0.021914
  14 H :    0.022336
  15 H :    0.014771
  16 H :    0.065855

  Mayer bond orders larger than 0.1
B(  0-C ,  1-C ) :   1.0632 B(  0-C ,  7-H ) :   0.9555 B(  0-C ,  8-H ) :   0.9528
B(  0-C ,  9-H ) :   0.9532 B(  1-C ,  2-C ) :   1.0662 B(  1-C ,  3-C ) :   1.0038
B(  1-C ,  6-N ) :   0.9642 B(  2-C , 10-H ) :   0.9541 B(  2-C , 11-H ) :   0.9524
B(  2-C , 12-H ) :   0.9526 B(  3-C ,  4-N ) :   1.0894 B(  3-C , 13-H ) :   0.9216
B(  3-C , 14-H ) :   0.9230 B(  4-N ,  5-C ) :   1.8263 B(  4-N ,  6-N ) :   0.1478
B(  5-C ,  6-N ) :   1.1633 B(  5-C , 15-H ) :   0.9598 B(  6-N , 16-H ) :   0.9462

FINAL SINGLE POINT ENERGY      -305.425111926953

DIPOLE MOMENT
-------------
                                X             Y             Z
Electronic contribution:      3.11297       0.91426      -5.22236
Nuclear contribution   :     -3.62800      -0.06442       5.99641
                        -----------------------------------------
Total Dipole Moment    :     -0.51503       0.84984       0.77405
                        -----------------------------------------
Magnitude (a.u.)       :      1.25962
Magnitude (Debye)      :      3.20169

                             ****ORCA TERMINATED NORMALLY****
TOTAL RUN TIME: 0 days 0 hours 0 minutes 7 seconds 526 msec
