                         Program Version 3.0.3 - RELEASE   -
|  1> ! RI PBE def2-SVP def2-SVP/J NBO PAL2
|  2> % maxcore 2000
|  3> % output
|  4>     # printlevel mini
|  5>     print[ P_Basis ] 0
|  6>     print[ P_SCFInfo ] 1
|  7>     print[ P_SCFIterInfo ] 1
|  8>     print[ P_OrbEn ] 0
|  9>     print[ P_Cartesian ] 0
| 10> end
| 11> *xyz 0 1
| 12>  C        0.8355490000     0.1437200000    -0.3459580000
| 13>  C        2.2937060000     0.0061400000     0.0022090000
| 14>  C        2.6431080000     0.1459020000     1.4634440000
| 15>  C        2.1061410000    -0.9724560000     2.3395230000
| 16>  N        2.5076240000    -0.7622570000     3.7221550000
| 17>  C        3.1432100000    -0.8396310000    -0.8625560000
| 18>  N        3.2684490000     0.6182320000    -0.9011810000
| 19>  H        0.2273780000    -0.6107160000     0.1591860000
| 20>  H        0.6774660000     0.0290980000    -1.4214830000
| 21>  H        0.4591760000     1.1273590000    -0.0481930000
| 22>  H        2.2728480000     1.1047120000     1.8426250000
| 23>  H        3.7347290000     0.1810420000     1.5438800000
| 24>  H        2.4327360000    -1.9392910000     1.9226420000
| 25>  H        1.0118520000    -0.9740100000     2.3109130000
| 26>  H        3.5174440000    -0.7859930000     3.8016050000
| 27>  H        2.1484370000    -1.4983830000     4.3166370000
| 28>  H        2.6743630000    -1.3454160000    -1.7014190000
| 29>  H        3.9986900000    -1.3590330000    -0.4418480000
| 30>  H        2.7993060000     0.9829710000    -1.7239720000
| 31> *
| 32>
| 33>                          ****END OF INPUT****
 Total Charge           Charge          ....    0
 Multiplicity           Mult            ....    1
 Number of Electrons    NEL             ....   56
 Basis Dimension        Dim             ....  158

MULLIKEN ATOMIC CHARGES
-----------------------
   0 C :    0.115406
   1 C :   -0.338746
   2 C :    0.125648
   3 C :    0.061187
   4 N :   -0.207682
   5 C :    0.067866
   6 N :   -0.167319
   7 H :    0.026501
   8 H :   -0.002777
   9 H :    0.020716
  10 H :    0.002957
  11 H :   -0.008684
  12 H :   -0.016900
  13 H :    0.009873
  14 H :    0.087253
  15 H :    0.085446
  16 H :    0.020414
  17 H :    0.023443
  18 H :    0.095399
Sum of atomic charges:   -0.0000000

LOEWDIN ATOMIC CHARGES
----------------------
   0 C :   -0.057054
   1 C :   -0.032888
   2 C :   -0.037039
   3 C :    0.005208
   4 N :   -0.112920
   5 C :   -0.000567
   6 N :   -0.099991
   7 H :    0.031330
   8 H :    0.024526
   9 H :    0.030703
  10 H :    0.026858
  11 H :    0.027022
  12 H :   -0.002851
  13 H :    0.017945
  14 H :    0.049360
  15 H :    0.051831
  16 H :    0.012579
  17 H :    0.016800
  18 H :    0.049150

  Mayer bond orders larger than 0.1
B(  0-C ,  1-C ) :   1.0757 B(  0-C ,  7-H ) :   0.9480 B(  0-C ,  8-H ) :   0.9319
B(  0-C ,  9-H ) :   0.9510 B(  1-C ,  2-C ) :   1.0293 B(  1-C ,  5-C ) :   1.0299
B(  1-C ,  6-N ) :   0.9839 B(  2-C ,  3-C ) :   1.0891 B(  2-C , 10-H ) :   0.9149
B(  2-C , 11-H ) :   0.9014 B(  3-C ,  4-N ) :   1.0916 B(  3-C , 12-H ) :   0.9286
B(  3-C , 13-H ) :   0.9264 B(  4-N , 14-H ) :   0.9697 B(  4-N , 15-H ) :   0.9630
B(  5-C ,  6-N ) :   1.0076 B(  5-C , 16-H ) :   0.9419 B(  5-C , 17-H ) :   0.9331
B(  6-N , 18-H ) :   0.9412

FINAL SINGLE POINT ENERGY      -306.582483731437

DIPOLE MOMENT
-------------
                                X             Y             Z
Electronic contribution:      2.19816       1.24634      -0.96415
Nuclear contribution   :     -2.55777      -1.92096       0.77122
                        -----------------------------------------
Total Dipole Moment    :     -0.35961      -0.67462      -0.19293
                        -----------------------------------------
Magnitude (a.u.)       :      0.78845
Magnitude (Debye)      :      2.00408

                             ****ORCA TERMINATED NORMALLY****
TOTAL RUN TIME: 0 days 0 hours 0 minutes 8 seconds 323 msec
