                         Program Version 3.0.3 - RELEASE   -
|  1> ! RI PBE def2-SVP def2-SVP/J NBO PAL2
|  2> % maxcore 2000
|  3> % output
|  4>     # printlevel mini
|  5>     print[ P_Basis ] 0
|  6>     print[ P_SCFInfo ] 1
|  7>     print[ P_SCFIterInfo ] 1
|  8>     print[ P_OrbEn ] 0
|  9>     print[ P_Cartesian ] 0
| 10> end
| 11> *xyz 0 1
| 12>  C        1.0089260000    -0.0953320000    -0.1512680000
| 13>  C        2.5338320000    -0.0417730000    -0.0954080000
| 14>  C        3.0268210000     1.2126670000     0.5706280000
| 15>  C        3.4196390000     1.1788800000     1.8397810000
| 16>  N        3.4375160000    -0.0311080000     2.5287970000
| 17>  C        3.3916360000    -1.1806610000     1.7663270000
| 18>  N        3.0329650000    -1.2533710000     0.5562980000
| 19>  H        0.6147980000     0.7525530000    -0.7179820000
| 20>  H        0.5894990000    -0.0583470000     0.8569390000
| 21>  H        0.6825200000    -1.0214380000    -0.6300210000
| 22>  H        2.8980180000    -0.0685450000    -1.1296060000
| 23>  H        3.0497060000     2.1450930000     0.0200330000
| 24>  H        3.7615900000     2.0462130000     2.3900780000
| 25>  H        3.9337570000    -0.0752980000     3.4015340000
| 26>  H        3.7159670000    -2.0819220000     2.2860590000
| 27> *
| 28>
| 29>                          ****END OF INPUT****
 Total Charge           Charge          ....    0
 Multiplicity           Mult            ....    1
 Number of Electrons    NEL             ....   52
 Basis Dimension        Dim             ....  138

MULLIKEN ATOMIC CHARGES
-----------------------
   0 C :    0.043502
   1 C :    0.057042
   2 C :   -0.112114
   3 C :    0.063676
   4 N :   -0.097106
   5 C :    0.055520
   6 N :   -0.182895
   7 H :    0.009051
   8 H :    0.012709
   9 H :    0.025268
  10 H :    0.003894
  11 H :   -0.004653
  12 H :   -0.000973
  13 H :    0.119450
  14 H :    0.007627
Sum of atomic charges:    0.0000000

LOEWDIN ATOMIC CHARGES
----------------------
   0 C :   -0.061972
   1 C :   -0.002264
   2 C :   -0.085497
   3 C :   -0.006040
   4 N :    0.009646
   5 C :    0.021148
   6 N :   -0.120371
   7 H :    0.025155
   8 H :    0.023460
   9 H :    0.027851
  10 H :    0.023627
  11 H :    0.027068
  12 H :    0.024287
  13 H :    0.079301
  14 H :    0.014603

  Mayer bond orders larger than 0.1
B(  0-C ,  1-C ) :   1.0620 B(  0-C ,  7-H ) :   0.9568 B(  0-C ,  8-H ) :   0.9598
B(  0-C ,  9-H ) :   0.9544 B(  1-C ,  2-C ) :   1.0055 B(  1-C ,  6-N ) :   1.0236
B(  1-C , 10-H ) :   0.9035 B(  2-C ,  3-C ) :   1.8248 B(  2-C , 11-H ) :   0.9611
B(  3-C ,  4-N ) :   1.1013 B(  3-C , 12-H ) :   0.9592 B(  4-N ,  5-C ) :   1.1196
B(  4-N , 13-H ) :   0.9263 B(  5-C ,  6-N ) :   1.9234 B(  5-C , 14-H ) :   0.9509

FINAL SINGLE POINT ENERGY      -304.216188538969

DIPOLE MOMENT
-------------
                                X             Y             Z
Electronic contribution:      3.42700      -1.23722       2.38515
Nuclear contribution   :     -3.07764       1.79916      -1.48638
                        -----------------------------------------
Total Dipole Moment    :      0.34936       0.56194       0.89877
                        -----------------------------------------
Magnitude (a.u.)       :      1.11607
Magnitude (Debye)      :      2.83683

                             ****ORCA TERMINATED NORMALLY****
TOTAL RUN TIME: 0 days 0 hours 0 minutes 7 seconds 173 msec
