                         Program Version 3.0.3 - RELEASE   -
|  1> ! RI PBE def2-SVP def2-SVP/J NBO PAL2
|  2> % maxcore 2000
|  3> % output
|  4>     # printlevel mini
|  5>     print[ P_Basis ] 0
|  6>     print[ P_SCFInfo ] 1
|  7>     print[ P_SCFIterInfo ] 1
|  8>     print[ P_OrbEn ] 0
|  9>     print[ P_Cartesian ] 0
| 10> end
| 11> *xyz 0 1
| 12>  C        0.9979270000    -0.0070970000     0.3683040000
| 13>  C        2.4366240000     0.1773180000    -0.0918870000
| 14>  C        3.1442040000     1.3470450000     0.6238350000
| 15>  C        4.4380110000     0.7611110000     1.1986780000
| 16>  N        5.5415910000     0.9368040000     0.2656090000
| 17>  C        4.0245720000    -0.6937700000     1.4221170000
| 18>  N        3.2991950000    -0.9756010000     0.1953190000
| 19>  H        0.4011800000     0.8837860000     0.1527990000
| 20>  H        0.9533370000    -0.1886710000     1.4465670000
| 21>  H        0.5255850000    -0.8520450000    -0.1414580000
| 22>  H        2.4285380000     0.3434420000    -1.1753680000
| 23>  H        2.5118450000     1.7194690000     1.4342060000
| 24>  H        3.3609350000     2.1839290000    -0.0404770000
| 25>  H        4.7110410000     1.2504700000     2.1368070000
| 26>  H        5.3630710000     0.3706950000    -0.5581900000
| 27>  H        6.3992170000     0.5839850000     0.6744540000
| 28>  H        3.4113620000    -0.7741150000     2.3366290000
| 29>  H        4.8837520000    -1.3615510000     1.5330170000
| 30>  H        2.7863230000    -1.8461140000     0.2208400000
| 31> *
| 32>
| 33>                          ****END OF INPUT****
 Total Charge           Charge          ....    0
 Multiplicity           Mult            ....    1
 Number of Electrons    NEL             ....   56
 Basis Dimension        Dim             ....  158

MULLIKEN ATOMIC CHARGES
-----------------------
   0 C :    0.010772
   1 C :   -0.057558
   2 C :    0.112312
   3 C :   -0.138736
   4 N :   -0.144221
   5 C :    0.175987
   6 N :   -0.240728
   7 H :    0.022621
   8 H :    0.014672
   9 H :    0.017698
  10 H :    0.003675
  11 H :   -0.000265
  12 H :    0.007676
  13 H :   -0.003554
  14 H :    0.081984
  15 H :    0.081231
  16 H :   -0.019504
  17 H :   -0.010884
  18 H :    0.086821
Sum of atomic charges:    0.0000000

LOEWDIN ATOMIC CHARGES
----------------------
   0 C :   -0.078646
   1 C :    0.002723
   2 C :   -0.038216
   3 C :   -0.002890
   4 N :   -0.095205
   5 C :   -0.000125
   6 N :   -0.101503
   7 H :    0.028954
   8 H :    0.022609
   9 H :    0.022648
  10 H :    0.015471
  11 H :    0.026962
  12 H :    0.028521
  13 H :    0.018541
  14 H :    0.047363
  15 H :    0.048794
  16 H :   -0.005327
  17 H :    0.009625
  18 H :    0.049700

  Mayer bond orders larger than 0.1
B(  0-C ,  1-C ) :   1.0934 B(  0-C ,  7-H ) :   0.9494 B(  0-C ,  8-H ) :   0.9532
B(  0-C ,  9-H ) :   0.9533 B(  1-C ,  2-C ) :   1.0647 B(  1-C ,  6-N ) :   1.0750
B(  1-C , 10-H ) :   0.9134 B(  2-C ,  3-C ) :   1.0896 B(  2-C , 11-H ) :   0.9192
B(  2-C , 12-H ) :   0.9081 B(  3-C ,  4-N ) :   1.1173 B(  3-C ,  5-C ) :   1.0260
B(  3-C , 13-H ) :   0.9180 B(  4-N , 14-H ) :   0.9613 B(  4-N , 15-H ) :   0.9676
B(  5-C ,  6-N ) :   1.0149 B(  5-C , 16-H ) :   0.9082 B(  5-C , 17-H ) :   0.9284
B(  6-N , 18-H ) :   0.9474

FINAL SINGLE POINT ENERGY      -306.615024126014

DIPOLE MOMENT
-------------
                                X             Y             Z
Electronic contribution:      2.83394      -0.30399      -0.84703
Nuclear contribution   :     -3.08496      -0.17244       1.13268
                        -----------------------------------------
Total Dipole Moment    :     -0.25102      -0.47643       0.28565
                        -----------------------------------------
Magnitude (a.u.)       :      0.60959
Magnitude (Debye)      :      1.54945

                             ****ORCA TERMINATED NORMALLY****
TOTAL RUN TIME: 0 days 0 hours 0 minutes 8 seconds 609 msec
