                         Program Version 3.0.3 - RELEASE   -
|  1> ! RI PBE def2-SVP def2-SVP/J NBO PAL2
|  2> % maxcore 2000
|  3> % output
|  4>     # printlevel mini
|  5>     print[ P_Basis ] 0
|  6>     print[ P_SCFInfo ] 1
|  7>     print[ P_SCFIterInfo ] 1
|  8>     print[ P_OrbEn ] 0
|  9>     print[ P_Cartesian ] 0
| 10> end
| 11> *xyz 0 1
| 12>  C        0.8772670000    -0.0438460000    -0.1849610000
| 13>  C        2.3618810000    -0.1277430000     0.1412340000
| 14>  C        3.1430840000     1.0988090000    -0.3234680000
| 15>  C        3.4136370000     1.0346700000    -1.8211980000
| 16>  N        4.0789900000    -0.1857490000    -2.2273590000
| 17>  C        3.8178290000    -1.2145160000    -1.5272650000
| 18>  N        2.9810130000    -1.2978500000    -0.4546470000
| 19>  H        0.4172990000     0.7951590000     0.3441110000
| 20>  H        0.3598160000    -0.9585930000     0.1141010000
| 21>  H        0.7186820000     0.0933920000    -1.2568250000
| 22>  H        2.4675020000    -0.2150750000     1.2288920000
| 23>  H        4.1019750000     1.1301330000     0.2028080000
| 24>  H        2.5947660000     2.0075010000    -0.0618590000
| 25>  H        4.0320720000     1.8841960000    -2.1239380000
| 26>  H        2.4734360000     1.1343450000    -2.3811510000
| 27>  H        4.2918690000    -2.1612990000    -1.7895050000
| 28>  H        2.9271720000    -2.1739530000     0.0321490000
| 29> *
| 30>
| 31>                          ****END OF INPUT****
 Total Charge           Charge          ....    0
 Multiplicity           Mult            ....    1
 Number of Electrons    NEL             ....   54
 Basis Dimension        Dim             ....  148

MULLIKEN ATOMIC CHARGES
-----------------------
   0 C :    0.055877
   1 C :   -0.025830
   2 C :   -0.037677
   3 C :    0.127598
   4 N :   -0.230474
   5 C :    0.053253
   6 N :   -0.154573
   7 H :    0.015988
   8 H :    0.012496
   9 H :    0.020518
  10 H :    0.015502
  11 H :    0.020577
  12 H :    0.007869
  13 H :    0.005467
  14 H :    0.008879
  15 H :   -0.004129
  16 H :    0.108656
Sum of atomic charges:    0.0000000

LOEWDIN ATOMIC CHARGES
----------------------
   0 C :   -0.066348
   1 C :    0.010772
   2 C :   -0.052145
   3 C :    0.000182
   4 N :   -0.169933
   5 C :    0.006014
   6 N :   -0.011908
   7 H :    0.027542
   8 H :    0.024583
   9 H :    0.026860
  10 H :    0.025073
  11 H :    0.029015
  12 H :    0.027310
  13 H :    0.022444
  14 H :    0.019112
  15 H :    0.011538
  16 H :    0.069889

  Mayer bond orders larger than 0.1
B(  0-C ,  1-C ) :   1.0842 B(  0-C ,  7-H ) :   0.9516 B(  0-C ,  8-H ) :   0.9537
B(  0-C ,  9-H ) :   0.9553 B(  1-C ,  2-C ) :   1.0654 B(  1-C ,  6-N ) :   0.9794
B(  1-C , 10-H ) :   0.9178 B(  2-C ,  3-C ) :   1.0699 B(  2-C , 11-H ) :   0.9184
B(  2-C , 12-H ) :   0.9291 B(  3-C ,  4-N ) :   1.0688 B(  3-C , 13-H ) :   0.9310
B(  3-C , 14-H ) :   0.9265 B(  4-N ,  5-C ) :   1.8781 B(  4-N ,  6-N ) :   0.1336
B(  5-C ,  6-N ) :   1.1844 B(  5-C , 15-H ) :   0.9499 B(  6-N , 16-H ) :   0.9346

FINAL SINGLE POINT ENERGY      -305.429105060853

DIPOLE MOMENT
-------------
                                X             Y             Z
Electronic contribution:      3.89501      -2.71936      -1.97910
Nuclear contribution   :     -4.54813       2.41418       3.06092
                        -----------------------------------------
Total Dipole Moment    :     -0.65313      -0.30519       1.08182
                        -----------------------------------------
Magnitude (a.u.)       :      1.30002
Magnitude (Debye)      :      3.30438

                             ****ORCA TERMINATED NORMALLY****
TOTAL RUN TIME: 0 days 0 hours 0 minutes 7 seconds 544 msec
