                         Program Version 3.0.3 - RELEASE   -
|  1> ! RI PBE def2-SVP def2-SVP/J NBO PAL2
|  2> % maxcore 2000
|  3> % output
|  4>     # printlevel mini
|  5>     print[ P_Basis ] 0
|  6>     print[ P_SCFInfo ] 1
|  7>     print[ P_SCFIterInfo ] 1
|  8>     print[ P_OrbEn ] 0
|  9>     print[ P_Cartesian ] 0
| 10> end
| 11> *xyz 0 1
| 12>  C        0.9614680000    -0.1153710000     0.0217750000
| 13>  C        2.4451490000    -0.0538050000     0.0282100000
| 14>  C        3.2912220000     1.0320540000     0.0326130000
| 15>  C        4.6283340000     0.5479850000     0.0380440000
| 16>  N        5.7616740000     1.3299370000     0.0434350000
| 17>  C        4.5566200000    -0.8253580000     0.0367860000
| 18>  N        3.2189820000    -1.1670700000     0.0307740000
| 19>  H        0.5490570000     0.8936680000     0.0206420000
| 20>  H        0.5675350000    -0.6322120000     0.9031640000
| 21>  H        0.5751530000    -0.6310810000    -0.8636400000
| 22>  H        2.9815470000     2.0668630000     0.0319890000
| 23>  H        5.6898070000     2.3259870000     0.0441680000
| 24>  H        6.6733480000     0.9212870000     0.0474440000
| 25>  H        5.3311100000    -1.5745290000     0.0395970000
| 26>  H        2.8712850000    -2.1073330000     0.0286100000
| 27> *
| 28>
| 29>                          ****END OF INPUT****
 Total Charge           Charge          ....    0
 Multiplicity           Mult            ....    1
 Number of Electrons    NEL             ....   52
 Basis Dimension        Dim             ....  138

MULLIKEN ATOMIC CHARGES
-----------------------
   0 C :    0.093377
   1 C :   -0.083693
   2 C :   -0.102067
   3 C :    0.050712
   4 N :   -0.076059
   5 C :   -0.068956
   6 N :   -0.050410
   7 H :    0.013903
   8 H :    0.023739
   9 H :    0.023637
  10 H :   -0.064454
  11 H :    0.096933
  12 H :    0.093606
  13 H :   -0.045253
  14 H :    0.094984
Sum of atomic charges:   -0.0000000

LOEWDIN ATOMIC CHARGES
----------------------
   0 C :   -0.065646
   1 C :   -0.042951
   2 C :   -0.130869
   3 C :   -0.032153
   4 N :   -0.031037
   5 C :   -0.109814
   6 N :    0.087958
   7 H :    0.040176
   8 H :    0.031512
   9 H :    0.031496
  10 H :    0.013628
  11 H :    0.063685
  12 H :    0.062332
  13 H :    0.006604
  14 H :    0.075077

  Mayer bond orders larger than 0.1
B(  0-C ,  1-C ) :   1.1098 B(  0-C ,  7-H ) :   0.9412 B(  0-C ,  8-H ) :   0.9403
B(  0-C ,  9-H ) :   0.9402 B(  1-C ,  2-C ) :   1.4277 B(  1-C ,  5-C ) :   0.1063
B(  1-C ,  6-N ) :   1.2720 B(  2-C ,  3-C ) :   1.2691 B(  2-C , 10-H ) :   1.0133
B(  3-C ,  4-N ) :   1.2062 B(  3-C ,  5-C ) :   1.4253 B(  4-N , 11-H ) :   0.9561
B(  4-N , 12-H ) :   0.9580 B(  5-C ,  6-N ) :   1.1342 B(  5-C , 13-H ) :   0.9966
B(  6-N , 14-H ) :   0.9438

FINAL SINGLE POINT ENERGY      -304.235148227402

DIPOLE MOMENT
-------------
                                X             Y             Z
Electronic contribution:      3.10073      -0.63480       0.01291
Nuclear contribution   :     -3.01236       0.35775      -0.01217
                        -----------------------------------------
Total Dipole Moment    :      0.08838      -0.27705       0.00074
                        -----------------------------------------
Magnitude (a.u.)       :      0.29080
Magnitude (Debye)      :      0.73916

                             ****ORCA TERMINATED NORMALLY****
TOTAL RUN TIME: 0 days 0 hours 0 minutes 6 seconds 803 msec
