                         Program Version 3.0.3 - RELEASE   -
|  1> ! RI PBE def2-SVP def2-SVP/J NBO PAL2
|  2> % maxcore 2000
|  3> % output
|  4>     # printlevel mini
|  5>     print[ P_Basis ] 0
|  6>     print[ P_SCFInfo ] 1
|  7>     print[ P_SCFIterInfo ] 1
|  8>     print[ P_OrbEn ] 0
|  9>     print[ P_Cartesian ] 0
| 10> end
| 11> *xyz 0 1
| 12>  C        0.9277560000     0.0007740000    -0.0064980000
| 13>  C        2.4074650000     0.1293230000    -0.0106030000
| 14>  C        3.2283630000     1.2356090000    -0.0089370000
| 15>  C        2.8139280000     2.6677990000    -0.0022330000
| 16>  C        4.5691410000     0.7580630000    -0.0148980000
| 17>  C        4.5268680000    -0.6089180000    -0.0199550000
| 18>  N        3.2139240000    -0.9778070000    -0.0172980000
| 19>  H        0.4613160000     0.9855910000    -0.0015340000
| 20>  H        0.5646730000    -0.5364230000     0.8761960000
| 21>  H        0.5592340000    -0.5300850000    -0.8907690000
| 22>  H        1.7278730000     2.7760020000     0.0018190000
| 23>  H        3.1909390000     3.1985410000    -0.8815540000
| 24>  H        3.1968490000     3.1919960000     0.8784570000
| 25>  H        5.4642830000     1.3617740000    -0.0153750000
| 26>  H        5.3168940000    -1.3425450000    -0.0251790000
| 27>  H        2.8811850000    -1.9244040000    -0.0198580000
| 28> *
| 29>
| 30>                          ****END OF INPUT****
 Total Charge           Charge          ....    0
 Multiplicity           Mult            ....    1
 Number of Electrons    NEL             ....   52
 Basis Dimension        Dim             ....  143

MULLIKEN ATOMIC CHARGES
-----------------------
   0 C :    0.090914
   1 C :   -0.129509
   2 C :   -0.125598
   3 C :    0.073937
   4 C :   -0.046332
   5 C :    0.041552
   6 N :   -0.052591
   7 H :    0.012650
   8 H :    0.024326
   9 H :    0.024284
  10 H :    0.000415
  11 H :    0.023142
  12 H :    0.022954
  13 H :   -0.044470
  14 H :   -0.014693
  15 H :    0.099018
Sum of atomic charges:   -0.0000000

LOEWDIN ATOMIC CHARGES
----------------------
   0 C :   -0.067195
   1 C :   -0.050879
   2 C :   -0.090654
   3 C :   -0.059773
   4 C :   -0.089908
   5 C :   -0.041360
   6 N :    0.093012
   7 H :    0.038681
   8 H :    0.032407
   9 H :    0.032397
  10 H :    0.025928
  11 H :    0.033062
  12 H :    0.033025
  13 H :    0.018745
  14 H :    0.015184
  15 H :    0.077329

  Mayer bond orders larger than 0.1
B(  0-C ,  1-C ) :   1.1273 B(  0-C ,  7-H ) :   0.9352 B(  0-C ,  8-H ) :   0.9379
B(  0-C ,  9-H ) :   0.9379 B(  1-C ,  2-C ) :   1.4962 B(  1-C ,  6-N ) :   1.2164
B(  2-C ,  3-C ) :   1.1277 B(  2-C ,  4-C ) :   1.3109 B(  3-C , 10-H ) :   0.9444
B(  3-C , 11-H ) :   0.9428 B(  3-C , 12-H ) :   0.9428 B(  4-C ,  5-C ) :   1.4646
B(  4-C , 13-H ) :   1.0082 B(  5-C ,  6-N ) :   1.2095 B(  5-C , 14-H ) :   0.9846
B(  6-N , 15-H ) :   0.9430

FINAL SINGLE POINT ENERGY      -288.220702913820

DIPOLE MOMENT
-------------
                                X             Y             Z
Electronic contribution:      3.47178      -3.48356      -0.02405
Nuclear contribution   :     -3.85635       2.84342       0.02273
                        -----------------------------------------
Total Dipole Moment    :     -0.38457      -0.64014      -0.00132
                        -----------------------------------------
Magnitude (a.u.)       :      0.74678
Magnitude (Debye)      :      1.89817

                             ****ORCA TERMINATED NORMALLY****
TOTAL RUN TIME: 0 days 0 hours 0 minutes 7 seconds 482 msec
