                         Program Version 3.0.3 - RELEASE   -
|  1> ! RI PBE def2-SVP def2-SVP/J NBO PAL2
|  2> % maxcore 2000
|  3> % output
|  4>     # printlevel mini
|  5>     print[ P_Basis ] 0
|  6>     print[ P_SCFInfo ] 1
|  7>     print[ P_SCFIterInfo ] 1
|  8>     print[ P_OrbEn ] 0
|  9>     print[ P_Cartesian ] 0
| 10> end
| 11> *xyz 0 1
| 12>  C        0.9793040000     0.0129680000    -0.0388100000
| 13>  C        2.4698870000     0.0232930000    -0.0428250000
| 14>  C        3.2886210000     1.1308480000    -0.0418070000
| 15>  N        2.9781170000     2.4705740000    -0.0371220000
| 16>  N        4.5848940000     0.7081810000    -0.0465810000
| 17>  C        4.6263320000    -0.6700940000    -0.0507490000
| 18>  C        3.3365550000    -1.1104680000    -0.0485140000
| 19>  H        0.5638370000     1.0244020000    -0.0352580000
| 20>  H        0.5753910000    -0.4967160000     0.8419010000
| 21>  H        0.5706690000    -0.4924270000    -0.9198080000
| 22>  H        2.0217480000     2.7588800000    -0.0324490000
| 23>  H        3.6840610000     3.1774100000    -0.0360190000
| 24>  H        5.3880510000     1.3083960000    -0.0470360000
| 25>  H        5.5643140000    -1.1993260000    -0.0548980000
| 26>  H        3.0261310000    -2.1447300000    -0.0507150000
| 27> *
| 28>
| 29>                          ****END OF INPUT****
 Total Charge           Charge          ....    0
 Multiplicity           Mult            ....    1
 Number of Electrons    NEL             ....   52
 Basis Dimension        Dim             ....  138

MULLIKEN ATOMIC CHARGES
-----------------------
   0 C :    0.079688
   1 C :   -0.146634
   2 C :   -0.032444
   3 N :   -0.047093
   4 N :   -0.071811
   5 C :    0.031851
   6 C :   -0.058775
   7 H :   -0.018466
   8 H :    0.020472
   9 H :    0.020469
  10 H :    0.100575
  11 H :    0.097255
  12 H :    0.094514
  13 H :   -0.026049
  14 H :   -0.043550
Sum of atomic charges:    0.0000000

LOEWDIN ATOMIC CHARGES
----------------------
   0 C :   -0.059253
   1 C :   -0.143242
   2 C :    0.001363
   3 N :   -0.030552
   4 N :    0.067907
   5 C :   -0.064342
   6 C :   -0.086068
   7 H :    0.019563
   8 H :    0.030011
   9 H :    0.030023
  10 H :    0.069088
  11 H :    0.063657
  12 H :    0.072654
  13 H :    0.011068
  14 H :    0.018122

  Mayer bond orders larger than 0.1
B(  0-C ,  1-C ) :   1.1276 B(  0-C ,  7-H ) :   0.9456 B(  0-C ,  8-H ) :   0.9440
B(  0-C ,  9-H ) :   0.9440 B(  1-C ,  2-C ) :   1.4409 B(  1-C ,  6-C ) :   1.2841
B(  2-C ,  3-N ) :   1.2159 B(  2-C ,  4-N ) :   1.2131 B(  3-N , 10-H ) :   0.9477
B(  3-N , 11-H ) :   0.9460 B(  4-N ,  5-C ) :   1.1399 B(  4-N , 12-H ) :   0.9398
B(  5-C ,  6-C ) :   1.4987 B(  5-C , 13-H ) :   0.9874 B(  6-C , 14-H ) :   1.0120

FINAL SINGLE POINT ENERGY      -304.232265013259

DIPOLE MOMENT
-------------
                                X             Y             Z
Electronic contribution:      4.06773       0.68379      -0.00958
Nuclear contribution   :     -3.66141       0.49467       0.01308
                        -----------------------------------------
Total Dipole Moment    :      0.40631       1.17846       0.00351
                        -----------------------------------------
Magnitude (a.u.)       :      1.24654
Magnitude (Debye)      :      3.16846

                             ****ORCA TERMINATED NORMALLY****
TOTAL RUN TIME: 0 days 0 hours 0 minutes 6 seconds 850 msec
