                         Program Version 3.0.3 - RELEASE   -
|  1> ! RI PBE def2-SVP def2-SVP/J NBO PAL2
|  2> % maxcore 2000
|  3> % output
|  4>     # printlevel mini
|  5>     print[ P_Basis ] 0
|  6>     print[ P_SCFInfo ] 1
|  7>     print[ P_SCFIterInfo ] 1
|  8>     print[ P_OrbEn ] 0
|  9>     print[ P_Cartesian ] 0
| 10> end
| 11> *xyz 0 1
| 12>  C        0.9790410000     0.1286910000     0.0024630000
| 13>  N        2.4147890000     0.0597500000    -0.0016770000
| 14>  N        3.1339370000     1.1879820000    -0.0070230000
| 15>  C        4.3942590000     0.7881150000    -0.0097590000
| 16>  C        4.4905290000    -0.6110040000    -0.0061620000
| 17>  C        3.1846900000    -1.0535500000    -0.0009500000
| 18>  C        2.6151010000    -2.4241860000     0.0046040000
| 19>  H        0.7071030000     1.1814440000     0.0006510000
| 20>  H        0.5640760000    -0.3483980000     0.8939080000
| 21>  H        0.5587210000    -0.3528350000    -0.8840780000
| 22>  H        5.1866760000     1.5218240000    -0.0142120000
| 23>  H        5.3791930000    -1.2214810000    -0.0071760000
| 24>  H        3.4195690000    -3.1591620000     0.0040560000
| 25>  H        1.9911090000    -2.6108500000    -0.8748600000
| 26>  H        1.9967160000    -2.6060310000     0.8890240000
| 27> *
| 28>
| 29>                          ****END OF INPUT****
 Total Charge           Charge          ....    0
 Multiplicity           Mult            ....    1
 Number of Electrons    NEL             ....   52
 Basis Dimension        Dim             ....  138

MULLIKEN ATOMIC CHARGES
-----------------------
   0 C :    0.118665
   1 N :   -0.175115
   2 N :   -0.110095
   3 C :    0.033516
   4 C :   -0.108807
   5 C :   -0.022842
   6 C :    0.092047
   7 H :    0.047581
   8 H :    0.036002
   9 H :    0.036126
  10 H :   -0.010473
  11 H :   -0.026794
  12 H :    0.025199
  13 H :    0.032533
  14 H :    0.032457
Sum of atomic charges:    0.0000000

LOEWDIN ATOMIC CHARGES
----------------------
   0 C :    0.017832
   1 N :    0.090417
   2 N :   -0.102113
   3 C :   -0.057118
   4 C :   -0.111080
   5 C :   -0.035343
   6 C :   -0.063335
   7 H :    0.040693
   8 H :    0.029400
   9 H :    0.029418
  10 H :    0.017530
  11 H :    0.023519
  12 H :    0.044420
  13 H :    0.037883
  14 H :    0.037876

  Mayer bond orders larger than 0.1
B(  0-C ,  1-N ) :   0.9914 B(  0-C ,  7-H ) :   0.9584 B(  0-C ,  8-H ) :   0.9642
B(  0-C ,  9-H ) :   0.9642 B(  1-N ,  2-N ) :   1.1665 B(  1-N ,  5-C ) :   1.2098
B(  2-N ,  3-C ) :   1.5758 B(  2-N ,  5-C ) :   0.1100 B(  3-C ,  4-C ) :   1.3075
B(  3-C , 10-H ) :   0.9862 B(  4-C ,  5-C ) :   1.4518 B(  4-C , 11-H ) :   0.9899
B(  5-C ,  6-C ) :   1.1279 B(  6-C , 12-H ) :   0.9336 B(  6-C , 13-H ) :   0.9351
B(  6-C , 14-H ) :   0.9351

FINAL SINGLE POINT ENERGY      -304.229928090884

DIPOLE MOMENT
-------------
                                X             Y             Z
Electronic contribution:      3.14388       4.02025      -0.02076
Nuclear contribution   :     -3.73808      -4.90809       0.02497
                        -----------------------------------------
Total Dipole Moment    :     -0.59420      -0.88785       0.00421
                        -----------------------------------------
Magnitude (a.u.)       :      1.06835
Magnitude (Debye)      :      2.71552

                             ****ORCA TERMINATED NORMALLY****
TOTAL RUN TIME: 0 days 0 hours 0 minutes 7 seconds 117 msec
