                         Program Version 3.0.3 - RELEASE   -
|  1> ! RI PBE def2-SVP def2-SVP/J NBO PAL2
|  2> % maxcore 2000
|  3> % output
|  4>     # printlevel mini
|  5>     print[ P_Basis ] 0
|  6>     print[ P_SCFInfo ] 1
|  7>     print[ P_SCFIterInfo ] 1
|  8>     print[ P_OrbEn ] 0
|  9>     print[ P_Cartesian ] 0
| 10> end
| 11> *xyz 0 1
| 12>  C        1.0283890000     0.0839680000     0.0902800000
| 13>  C        2.5232050000     0.0458060000     0.0350380000
| 14>  C        3.2762760000    -0.6854850000    -1.0309730000
| 15>  C        2.5980830000    -1.3829870000    -2.0894110000
| 16>  N        2.0537680000    -1.9665690000    -2.9179080000
| 17>  N        3.1912030000     0.7648600000    -1.0182160000
| 18>  C        4.4158670000     1.4576600000    -0.6832390000
| 19>  H        0.6418620000    -0.7636000000     0.6608650000
| 20>  H        0.6037650000     0.0495760000    -0.9135170000
| 21>  H        0.6918800000     1.0035120000     0.5748700000
| 22>  H        3.0327620000     0.0333280000     0.9996160000
| 23>  H        4.2191820000    -1.1419070000    -0.7367680000
| 24>  H        5.0279710000     1.5657410000    -1.5803870000
| 25>  H        5.0076310000     0.9389530000     0.0866350000
| 26>  H        4.1675650000     2.4550540000    -0.3154950000
| 27> *
| 28>
| 29>                          ****END OF INPUT****
 Total Charge           Charge          ....    0
 Multiplicity           Mult            ....    1
 Number of Electrons    NEL             ....   52
 Basis Dimension        Dim             ....  138

MULLIKEN ATOMIC CHARGES
-----------------------
   0 C :    0.104911
   1 C :   -0.068358
   2 C :   -0.084434
   3 C :   -0.097096
   4 N :    0.060455
   5 N :   -0.259452
   6 C :    0.080465
   7 H :    0.033820
   8 H :    0.036018
   9 H :    0.030282
  10 H :    0.022592
  11 H :    0.053414
  12 H :    0.042971
  13 H :    0.007345
  14 H :    0.037067
Sum of atomic charges:   -0.0000000

LOEWDIN ATOMIC CHARGES
----------------------
   0 C :   -0.058679
   1 C :    0.020818
   2 C :   -0.027917
   3 C :   -0.040595
   4 N :   -0.058792
   5 N :   -0.081874
   6 C :    0.005227
   7 H :    0.038084
   8 H :    0.041459
   9 H :    0.037767
  10 H :    0.017661
  11 H :    0.037766
  12 H :    0.031666
  13 H :    0.006273
  14 H :    0.031134

  Mayer bond orders larger than 0.1
B(  0-C ,  1-C ) :   1.1162 B(  0-C ,  7-H ) :   0.9507 B(  0-C ,  8-H ) :   0.9352
B(  0-C ,  9-H ) :   0.9473 B(  1-C ,  2-C ) :   0.9792 B(  1-C ,  5-N ) :   0.9038
B(  1-C , 10-H ) :   0.9206 B(  2-C ,  3-C ) :   1.1171 B(  2-C ,  5-N ) :   0.9774
B(  2-C , 11-H ) :   0.9023 B(  3-C ,  4-N ) :   3.0247 B(  5-N ,  6-C ) :   1.0188
B(  6-C , 12-H ) :   0.9701 B(  6-C , 13-H ) :   0.9401 B(  6-C , 14-H ) :   0.9685

FINAL SINGLE POINT ENERGY      -304.176487849118

DIPOLE MOMENT
-------------
                                X             Y             Z
Electronic contribution:     -0.63636      -4.58727      -5.26872
Nuclear contribution   :      1.38843       5.31954       6.69140
                        -----------------------------------------
Total Dipole Moment    :      0.75207       0.73228       1.42268
                        -----------------------------------------
Magnitude (a.u.)       :      1.76801
Magnitude (Debye)      :      4.49393

                             ****ORCA TERMINATED NORMALLY****
TOTAL RUN TIME: 0 days 0 hours 0 minutes 6 seconds 979 msec
