                         Program Version 3.0.3 - RELEASE   -
|  1> ! RI PBE def2-SVP def2-SVP/J NBO PAL2
|  2> % maxcore 2000
|  3> % output
|  4>     # printlevel mini
|  5>     print[ P_Basis ] 0
|  6>     print[ P_SCFInfo ] 1
|  7>     print[ P_SCFIterInfo ] 1
|  8>     print[ P_OrbEn ] 0
|  9>     print[ P_Cartesian ] 0
| 10> end
| 11> *xyz 0 1
| 12>  C        0.9545990000     0.0519520000     0.0627240000
| 13>  C        2.4468780000    -0.0996220000     0.0246470000
| 14>  C        3.2001410000    -0.9431010000    -0.9386920000
| 15>  C        2.5813620000    -1.7414690000    -2.0466470000
| 16>  N        3.4830870000    -1.7502940000    -3.1901360000
| 17>  N        3.1815320000     0.5036940000    -1.0697150000
| 18>  C        4.4006140000     1.1990920000    -0.7254960000
| 19>  H        0.4974490000    -0.7387900000     0.6638270000
| 20>  H        0.5252610000     0.0185220000    -0.9382050000
| 21>  H        0.6815850000     1.0118530000     0.5095660000
| 22>  H        2.9253680000    -0.0173810000     1.0020140000
| 23>  H        4.1314430000    -1.3678190000    -0.5626360000
| 24>  H        1.5848920000    -1.3399860000    -2.2736850000
| 25>  H        2.4452560000    -2.7733960000    -1.7057510000
| 26>  H        3.5858090000    -0.8020230000    -3.5335760000
| 27>  H        3.0941320000    -2.2977190000    -3.9476460000
| 28>  H        5.0675570000     1.2214560000    -1.5906010000
| 29>  H        4.9413580000     0.7289010000     0.1111240000
| 30>  H        4.1679760000     2.2301390000    -0.4477050000
| 31> *
| 32>
| 33>                          ****END OF INPUT****
 Total Charge           Charge          ....    0
 Multiplicity           Mult            ....    1
 Number of Electrons    NEL             ....   56
 Basis Dimension        Dim             ....  158

MULLIKEN ATOMIC CHARGES
-----------------------
   0 C :    0.099769
   1 C :   -0.068865
   2 C :   -0.060823
   3 C :    0.203057
   4 N :   -0.224518
   5 N :   -0.291137
   6 C :    0.087207
   7 H :    0.021849
   8 H :    0.009614
   9 H :    0.016861
  10 H :    0.003264
  11 H :    0.005293
  12 H :   -0.029494
  13 H :    0.003816
  14 H :    0.089377
  15 H :    0.085968
  16 H :    0.028287
  17 H :   -0.001806
  18 H :    0.022282
Sum of atomic charges:   -0.0000000

LOEWDIN ATOMIC CHARGES
----------------------
   0 C :   -0.064166
   1 C :   -0.001314
   2 C :   -0.003877
   3 C :    0.007075
   4 N :   -0.111808
   5 N :   -0.114728
   6 C :   -0.000482
   7 H :    0.030953
   8 H :    0.026907
   9 H :    0.031178
  10 H :    0.010999
  11 H :    0.012263
  12 H :    0.002255
  13 H :    0.023498
  14 H :    0.051050
  15 H :    0.050733
  16 H :    0.023785
  17 H :    0.002761
  18 H :    0.022917

  Mayer bond orders larger than 0.1
B(  0-C ,  1-C ) :   1.0983 B(  0-C ,  7-H ) :   0.9547 B(  0-C ,  8-H ) :   0.9398
B(  0-C ,  9-H ) :   0.9472 B(  1-C ,  2-C ) :   0.9932 B(  1-C ,  5-N ) :   0.9359
B(  1-C , 10-H ) :   0.9204 B(  2-C ,  3-C ) :   1.0812 B(  2-C ,  5-N ) :   0.8972
B(  2-C , 11-H ) :   0.9250 B(  3-C ,  4-N ) :   1.0829 B(  3-C , 12-H ) :   0.9014
B(  3-C , 13-H ) :   0.9183 B(  4-N , 14-H ) :   0.9683 B(  4-N , 15-H ) :   0.9635
B(  5-N ,  6-C ) :   1.0277 B(  6-C , 16-H ) :   0.9712 B(  6-C , 17-H ) :   0.9389
B(  6-C , 18-H ) :   0.9691

FINAL SINGLE POINT ENERGY      -306.580225334172

DIPOLE MOMENT
-------------
                                X             Y             Z
Electronic contribution:      0.85271      -0.59721      -1.02766
Nuclear contribution   :     -1.06948       0.62616       1.10037
                        -----------------------------------------
Total Dipole Moment    :     -0.21677       0.02895       0.07271
                        -----------------------------------------
Magnitude (a.u.)       :      0.23047
Magnitude (Debye)      :      0.58580

                             ****ORCA TERMINATED NORMALLY****
TOTAL RUN TIME: 0 days 0 hours 0 minutes 8 seconds 309 msec
