                         Program Version 3.0.3 - RELEASE   -
|  1> ! RI PBE def2-SVP def2-SVP/J NBO PAL2
|  2> % maxcore 2000
|  3> % output
|  4>     # printlevel mini
|  5>     print[ P_Basis ] 0
|  6>     print[ P_SCFInfo ] 1
|  7>     print[ P_SCFIterInfo ] 1
|  8>     print[ P_OrbEn ] 0
|  9>     print[ P_Cartesian ] 0
| 10> end
| 11> *xyz 0 1
| 12>  C        1.1392610000     0.0455960000     0.2793710000
| 13>  C        2.5691640000    -0.0109610000    -0.2091230000
| 14>  C        2.9317500000    -1.2415250000    -1.0395430000
| 15>  C        3.9430930000    -0.6362450000    -1.9645500000
| 16>  N        3.9000490000     0.6372020000    -1.9874290000
| 17>  N        2.9094150000     1.0744910000    -1.1374770000
| 18>  C        3.1855560000     2.3633890000    -0.5602890000
| 19>  H        0.9305320000    -0.7942200000     0.9463250000
| 20>  H        0.4468140000     0.0004220000    -0.5640590000
| 21>  H        0.9409190000     0.9638810000     0.8364080000
| 22>  H        3.2552650000     0.0462990000     0.6565540000
| 23>  H        2.0645070000    -1.6033770000    -1.6095720000
| 24>  H        3.3082830000    -2.0747890000    -0.4449830000
| 25>  H        4.6085280000    -1.1713750000    -2.6300520000
| 26>  H        3.4711890000     3.0510870000    -1.3552290000
| 27>  H        3.9985630000     2.3262380000     0.1827820000
| 28>  H        2.2872130000     2.7479670000    -0.0745130000
| 29> *
| 30>
| 31>                          ****END OF INPUT****
 Total Charge           Charge          ....    0
 Multiplicity           Mult            ....    1
 Number of Electrons    NEL             ....   54
 Basis Dimension        Dim             ....  148

MULLIKEN ATOMIC CHARGES
-----------------------
   0 C :    0.038826
   1 C :   -0.013568
   2 C :    0.056923
   3 C :   -0.073767
   4 N :   -0.046553
   5 N :   -0.267606
   6 C :    0.118423
   7 H :    0.026169
   8 H :    0.024564
   9 H :    0.021793
  10 H :   -0.004476
  11 H :    0.020697
  12 H :    0.029187
  13 H :    0.008258
  14 H :    0.037737
  15 H :    0.004439
  16 H :    0.018955
Sum of atomic charges:    0.0000000

LOEWDIN ATOMIC CHARGES
----------------------
   0 C :   -0.064702
   1 C :    0.011156
   2 C :   -0.056217
   3 C :   -0.057237
   4 N :   -0.033206
   5 N :   -0.043082
   6 C :   -0.000917
   7 H :    0.032009
   8 H :    0.028849
   9 H :    0.027413
  10 H :    0.009923
  11 H :    0.034950
  12 H :    0.033465
  13 H :    0.017546
  14 H :    0.032497
  15 H :    0.006009
  16 H :    0.021544

  Mayer bond orders larger than 0.1
B(  0-C ,  1-C ) :   1.1060 B(  0-C ,  7-H ) :   0.9557 B(  0-C ,  8-H ) :   0.9476
B(  0-C ,  9-H ) :   0.9528 B(  1-C ,  2-C ) :   1.0655 B(  1-C ,  5-N ) :   0.9326
B(  1-C , 10-H ) :   0.8965 B(  2-C ,  3-C ) :   1.0078 B(  2-C , 11-H ) :   0.8894
B(  2-C , 12-H ) :   0.9370 B(  3-C ,  4-N ) :   1.8647 B(  3-C ,  5-N ) :   0.1143
B(  3-C , 13-H ) :   0.9775 B(  4-N ,  5-N ) :   1.0526 B(  5-N ,  6-C ) :   1.0153
B(  6-C , 14-H ) :   0.9638 B(  6-C , 15-H ) :   0.9466 B(  6-C , 16-H ) :   0.9652

FINAL SINGLE POINT ENERGY      -305.395951364538

DIPOLE MOMENT
-------------
                                X             Y             Z
Electronic contribution:      3.27303      -0.41351      -4.15249
Nuclear contribution   :     -3.61153       0.05634       4.77364
                        -----------------------------------------
Total Dipole Moment    :     -0.33850      -0.35717       0.62115
                        -----------------------------------------
Magnitude (a.u.)       :      0.79245
Magnitude (Debye)      :      2.01424

                             ****ORCA TERMINATED NORMALLY****
TOTAL RUN TIME: 0 days 0 hours 0 minutes 7 seconds 946 msec
