                         Program Version 3.0.3 - RELEASE   -
|  1> ! RI PBE def2-SVP def2-SVP/J NBO PAL2
|  2> % maxcore 2000
|  3> % output
|  4>     # printlevel mini
|  5>     print[ P_Basis ] 0
|  6>     print[ P_SCFInfo ] 1
|  7>     print[ P_SCFIterInfo ] 1
|  8>     print[ P_OrbEn ] 0
|  9>     print[ P_Cartesian ] 0
| 10> end
| 11> *xyz 0 1
| 12>  C        0.9466490000     0.0440860000     0.0955090000
| 13>  C        2.4391190000     0.0744710000     0.0621730000
| 14>  C        3.1747440000     1.2384510000    -0.0053450000
| 15>  C        4.5591940000     1.1309610000    -0.0302360000
| 16>  N        5.2091410000    -0.0223400000     0.0071130000
| 17>  N        4.5168570000    -1.1439790000     0.0718190000
| 18>  C        3.1954570000    -1.0996460000     0.0981670000
| 19>  H        0.5281340000     1.0504220000     0.0597300000
| 20>  H        0.5865660000    -0.4434720000     1.0051480000
| 21>  H        0.5489290000    -0.5215630000    -0.7510570000
| 22>  H        2.6952450000     2.2110520000    -0.0383120000
| 23>  H        5.1894370000     2.0131940000    -0.0829680000
| 24>  H        2.7073180000    -2.0695470000     0.1517510000
| 25> *
| 26>
| 27>                          ****END OF INPUT****
 Total Charge           Charge          ....    0
 Multiplicity           Mult            ....    1
 Number of Electrons    NEL             ....   50
 Basis Dimension        Dim             ....  128

MULLIKEN ATOMIC CHARGES
-----------------------
   0 C :    0.067817
   1 C :   -0.075205
   2 C :    0.001892
   3 C :    0.034164
   4 N :   -0.079559
   5 N :   -0.070760
   6 C :    0.007577
   7 H :    0.022632
   8 H :    0.049112
   9 H :    0.050436
  10 H :   -0.011315
  11 H :    0.007651
  12 H :   -0.004443
Sum of atomic charges:   -0.0000000

LOEWDIN ATOMIC CHARGES
----------------------
   0 C :   -0.051620
   1 C :   -0.027423
   2 C :   -0.027789
   3 C :   -0.007172
   4 N :   -0.049928
   5 N :   -0.039148
   6 C :   -0.011946
   7 H :    0.034720
   8 H :    0.047546
   9 H :    0.047758
  10 H :    0.032631
  11 H :    0.027561
  12 H :    0.024812

  Mayer bond orders larger than 0.1
B(  0-C ,  1-C ) :   1.0768 B(  0-C ,  7-H ) :   0.9528 B(  0-C ,  8-H ) :   0.9447
B(  0-C ,  9-H ) :   0.9449 B(  1-C ,  2-C ) :   1.4344 B(  1-C ,  6-C ) :   1.2921
B(  2-C ,  3-C ) :   1.3119 B(  2-C , 10-H ) :   0.9791 B(  3-C ,  4-N ) :   1.5813
B(  3-C , 11-H ) :   0.9760 B(  4-N ,  5-N ) :   1.2882 B(  5-N ,  6-C ) :   1.6032
B(  6-C , 12-H ) :   0.9872

FINAL SINGLE POINT ENERGY      -303.008156027154

DIPOLE MOMENT
-------------
                                X             Y             Z
Electronic contribution:      6.08355      -1.18863      -0.07839
Nuclear contribution   :     -7.65635       1.93957       0.07785
                        -----------------------------------------
Total Dipole Moment    :     -1.57279       0.75094      -0.00054
                        -----------------------------------------
Magnitude (a.u.)       :      1.74287
Magnitude (Debye)      :      4.43002

                             ****ORCA TERMINATED NORMALLY****
TOTAL RUN TIME: 0 days 0 hours 0 minutes 5 seconds 969 msec
