                         Program Version 3.0.3 - RELEASE   -
|  1> ! RI PBE def2-SVP def2-SVP/J NBO PAL2
|  2> % maxcore 2000
|  3> % output
|  4>     # printlevel mini
|  5>     print[ P_Basis ] 0
|  6>     print[ P_SCFInfo ] 1
|  7>     print[ P_SCFIterInfo ] 1
|  8>     print[ P_OrbEn ] 0
|  9>     print[ P_Cartesian ] 0
| 10> end
| 11> *xyz 0 1
| 12>  C        0.9240100000    -0.0115440000    -0.1663350000
| 13>  C        2.4136720000    -0.0032080000    -0.1066430000
| 14>  C        3.2296220000     1.0986990000    -0.1796430000
| 15>  N        4.5253800000     0.6814720000    -0.0861760000
| 16>  N        5.6022770000     1.5548890000    -0.1286650000
| 17>  C        4.5633320000    -0.6762910000     0.0461600000
| 18>  C        3.2690930000    -1.1289760000     0.0370600000
| 19>  H        0.5305100000     0.9998490000    -0.2838880000
| 20>  H        0.4867210000    -0.4328820000     0.7435280000
| 21>  H        0.5580130000    -0.6085990000    -1.0066480000
| 22>  H        3.0074930000     2.1478930000    -0.2897770000
| 23>  H        6.1374250000     1.4763660000     0.7280670000
| 24>  H        6.2014290000     1.3177280000    -0.9105500000
| 25>  H        5.5029630000    -1.1989050000     0.1347920000
| 26>  H        2.9633620000    -2.1610900000     0.1244070000
| 27> *
| 28>
| 29>                          ****END OF INPUT****
 Total Charge           Charge          ....    0
 Multiplicity           Mult            ....    1
 Number of Electrons    NEL             ....   52
 Basis Dimension        Dim             ....  138

MULLIKEN ATOMIC CHARGES
-----------------------
   0 C :    0.083617
   1 C :   -0.088435
   2 C :    0.032457
   3 N :   -0.164192
   4 N :   -0.055709
   5 C :    0.051140
   6 C :   -0.058543
   7 H :    0.005445
   8 H :    0.023571
   9 H :    0.024492
  10 H :   -0.022277
  11 H :    0.111154
  12 H :    0.112254
  13 H :   -0.019312
  14 H :   -0.035663
Sum of atomic charges:   -0.0000000

LOEWDIN ATOMIC CHARGES
----------------------
   0 C :   -0.057361
   1 C :   -0.087515
   2 C :   -0.041517
   3 N :    0.089584
   4 N :   -0.019659
   5 C :   -0.057511
   6 C :   -0.087269
   7 H :    0.030328
   8 H :    0.032547
   9 H :    0.032771
  10 H :    0.016827
  11 H :    0.058067
  12 H :    0.058374
  13 H :    0.012127
  14 H :    0.020207

  Mayer bond orders larger than 0.1
B(  0-C ,  1-C ) :   1.1085 B(  0-C ,  7-H ) :   0.9511 B(  0-C ,  8-H ) :   0.9471
B(  0-C ,  9-H ) :   0.9470 B(  1-C ,  2-C ) :   1.4557 B(  1-C ,  6-C ) :   1.3226
B(  2-C ,  3-N ) :   1.1786 B(  2-C , 10-H ) :   0.9958 B(  3-N ,  4-N ) :   1.0142
B(  3-N ,  5-C ) :   1.2014 B(  4-N , 11-H ) :   0.9689 B(  4-N , 12-H ) :   0.9689
B(  5-C ,  6-C ) :   1.4511 B(  5-C , 13-H ) :   0.9797 B(  6-C , 14-H ) :   1.0095

FINAL SINGLE POINT ENERGY      -304.202556012038

DIPOLE MOMENT
-------------
                                X             Y             Z
Electronic contribution:      3.55237       0.46507       0.10136
Nuclear contribution   :     -2.74134      -0.43576      -0.07216
                        -----------------------------------------
Total Dipole Moment    :      0.81104       0.02931       0.02920
                        -----------------------------------------
Magnitude (a.u.)       :      0.81209
Magnitude (Debye)      :      2.06418

                             ****ORCA TERMINATED NORMALLY****
TOTAL RUN TIME: 0 days 0 hours 0 minutes 7 seconds 71 msec
