                         Program Version 3.0.3 - RELEASE   -
|  1> ! RI PBE def2-SVP def2-SVP/J NBO PAL2
|  2> % maxcore 2000
|  3> % output
|  4>     # printlevel mini
|  5>     print[ P_Basis ] 0
|  6>     print[ P_SCFInfo ] 1
|  7>     print[ P_SCFIterInfo ] 1
|  8>     print[ P_OrbEn ] 0
|  9>     print[ P_Cartesian ] 0
| 10> end
| 11> *xyz 0 1
| 12>  C        0.9277180000    -0.0153700000    -0.0661280000
| 13>  C        2.2572590000     0.0900210000    -0.0640210000
| 14>  C        3.0149450000     1.3823410000    -0.0758010000
| 15>  C        4.4910730000     1.1567050000    -0.0693220000
| 16>  N        5.1018350000     0.0448490000    -0.0560270000
| 17>  N        4.3604270000    -1.1571550000    -0.0456310000
| 18>  C        3.0856100000    -1.1061080000    -0.0494760000
| 19>  H        0.2793840000     0.8538800000    -0.0767960000
| 20>  H        0.4507330000    -0.9892420000    -0.0570800000
| 21>  H        2.7544610000     2.0064820000     0.7877480000
| 22>  H        2.7592610000     1.9877660000    -0.9539940000
| 23>  H        5.1300380000     2.0395700000    -0.0767190000
| 24>  H        2.5759360000    -2.0695510000    -0.0408430000
| 25> *
| 26>
| 27>                          ****END OF INPUT****
 Total Charge           Charge          ....    0
 Multiplicity           Mult            ....    1
 Number of Electrons    NEL             ....   50
 Basis Dimension        Dim             ....  128

MULLIKEN ATOMIC CHARGES
-----------------------
   0 C :   -0.019811
   1 C :   -0.148042
   2 C :    0.134615
   3 C :   -0.064712
   4 N :   -0.071240
   5 N :   -0.060329
   6 C :    0.034479
   7 H :    0.023115
   8 H :    0.029730
   9 H :    0.059523
  10 H :    0.059283
  11 H :    0.023005
  12 H :    0.000385
Sum of atomic charges:    0.0000000

LOEWDIN ATOMIC CHARGES
----------------------
   0 C :   -0.023893
   1 C :   -0.060872
   2 C :   -0.059259
   3 C :    0.013504
   4 N :   -0.055376
   5 N :   -0.050402
   6 C :    0.005723
   7 H :    0.026611
   8 H :    0.029924
   9 H :    0.059609
  10 H :    0.059572
  11 H :    0.026765
  12 H :    0.028093

  Mayer bond orders larger than 0.1
B(  0-C ,  1-C ) :   1.8998 B(  0-C ,  5-N ) :   0.1124 B(  0-C ,  7-H ) :   0.9411
B(  0-C ,  8-H ) :   0.9346 B(  1-C ,  2-C ) :   1.0245 B(  1-C ,  6-C ) :   1.0634
B(  2-C ,  3-C ) :   0.9887 B(  2-C ,  9-H ) :   0.8879 B(  2-C , 10-H ) :   0.8880
B(  3-C ,  4-N ) :   1.9749 B(  3-C , 11-H ) :   0.9574 B(  4-N ,  5-N ) :   1.0026
B(  5-N ,  6-C ) :   1.8867 B(  6-C , 12-H ) :   0.9645

FINAL SINGLE POINT ENERGY      -302.959682131631

DIPOLE MOMENT
-------------
                                X             Y             Z
Electronic contribution:      4.17624      -2.19450       0.03391
Nuclear contribution   :     -5.56168       3.20331      -0.04812
                        -----------------------------------------
Total Dipole Moment    :     -1.38544       1.00881      -0.01421
                        -----------------------------------------
Magnitude (a.u.)       :      1.71387
Magnitude (Debye)      :      4.35630

                             ****ORCA TERMINATED NORMALLY****
TOTAL RUN TIME: 0 days 0 hours 0 minutes 6 seconds 367 msec
