                         Program Version 3.0.3 - RELEASE   -
|  1> ! RI PBE def2-SVP def2-SVP/J NBO PAL2
|  2> % maxcore 2000
|  3> % output
|  4>     # printlevel mini
|  5>     print[ P_Basis ] 0
|  6>     print[ P_SCFInfo ] 1
|  7>     print[ P_SCFIterInfo ] 1
|  8>     print[ P_OrbEn ] 0
|  9>     print[ P_Cartesian ] 0
| 10> end
| 11> *xyz 0 1
| 12>  C        0.9122430000    -0.1260900000    -0.3202050000
| 13>  C        2.2221850000    -0.0207930000    -0.0880220000
| 14>  C        2.9233060000     1.2812650000     0.1772250000
| 15>  C        4.3536380000     1.1780760000    -0.3192850000
| 16>  N        4.9704330000     0.0180990000     0.2883180000
| 17>  N        4.3542460000    -1.1756810000     0.1573610000
| 18>  C        3.0844300000    -1.1926350000    -0.0333860000
| 19>  H        0.2699610000     0.7464220000    -0.3611830000
| 20>  H        0.4465170000    -1.0938100000    -0.4715850000
| 21>  H        2.9361370000     1.4702780000     1.2564160000
| 22>  H        2.4024290000     2.1139670000    -0.2994380000
| 23>  H        4.9364380000     2.0612020000    -0.0502230000
| 24>  H        4.3502790000     1.0870870000    -1.4173610000
| 25>  H        5.9582330000    -0.0846370000     0.1203360000
| 26>  H        2.6350350000    -2.1782510000    -0.1149680000
| 27> *
| 28>
| 29>                          ****END OF INPUT****
 Total Charge           Charge          ....    0
 Multiplicity           Mult            ....    1
 Number of Electrons    NEL             ....   52
 Basis Dimension        Dim             ....  138

MULLIKEN ATOMIC CHARGES
-----------------------
   0 C :   -0.041296
   1 C :   -0.139949
   2 C :    0.101690
   3 C :    0.059837
   4 N :   -0.111793
   5 N :   -0.082563
   6 C :   -0.008407
   7 H :    0.009270
   8 H :    0.013347
   9 H :    0.036594
  10 H :    0.011497
  11 H :    0.013283
  12 H :    0.028136
  13 H :    0.122364
  14 H :   -0.012010
Sum of atomic charges:   -0.0000000

LOEWDIN ATOMIC CHARGES
----------------------
   0 C :   -0.059296
   1 C :   -0.057904
   2 C :   -0.036549
   3 C :    0.006545
   4 N :    0.007863
   5 N :   -0.042362
   6 C :   -0.068838
   7 H :    0.020501
   8 H :    0.023423
   9 H :    0.041386
  10 H :    0.034865
  11 H :    0.026716
  12 H :    0.017923
  13 H :    0.065409
  14 H :    0.020318

  Mayer bond orders larger than 0.1
B(  0-C ,  1-C ) :   1.9052 B(  0-C ,  7-H ) :   0.9348 B(  0-C ,  8-H ) :   0.9338
B(  1-C ,  2-C ) :   1.0458 B(  1-C ,  6-C ) :   1.0813 B(  2-C ,  3-C ) :   1.0770
B(  2-C ,  9-H ) :   0.9075 B(  2-C , 10-H ) :   0.9168 B(  3-C ,  4-N ) :   1.0219
B(  3-C , 11-H ) :   0.9286 B(  3-C , 12-H ) :   0.9304 B(  4-N ,  5-N ) :   1.1299
B(  4-N ,  6-C ) :   0.1049 B(  4-N , 13-H ) :   0.9401 B(  5-N ,  6-C ) :   1.7971
B(  6-C , 14-H ) :   0.9662

FINAL SINGLE POINT ENERGY      -304.190025324104

DIPOLE MOMENT
-------------
                                X             Y             Z
Electronic contribution:      2.43988      -2.94865       0.84213
Nuclear contribution   :     -2.26602       3.75226      -1.08734
                        -----------------------------------------
Total Dipole Moment    :      0.17385       0.80361      -0.24521
                        -----------------------------------------
Magnitude (a.u.)       :      0.85799
Magnitude (Debye)      :      2.18083

                             ****ORCA TERMINATED NORMALLY****
TOTAL RUN TIME: 0 days 0 hours 0 minutes 7 seconds 225 msec
