                         Program Version 3.0.3 - RELEASE   -
|  1> ! RI PBE def2-SVP def2-SVP/J NBO PAL2
|  2> % maxcore 2000
|  3> % output
|  4>     # printlevel mini
|  5>     print[ P_Basis ] 0
|  6>     print[ P_SCFInfo ] 1
|  7>     print[ P_SCFIterInfo ] 1
|  8>     print[ P_OrbEn ] 0
|  9>     print[ P_Cartesian ] 0
| 10> end
| 11> *xyz 0 1
| 12>  C        1.0317320000    -0.0031270000     0.0632770000
| 13>  C        2.5167300000     0.0335890000     0.0604410000
| 14>  C        3.2453300000     1.1523700000     0.0668920000
| 15>  C        4.6909550000     1.0932250000     0.0633870000
| 16>  N        5.3351930000    -0.0180070000     0.0546210000
| 17>  N        4.6408990000    -1.1511310000     0.0485110000
| 18>  C        3.1979070000    -1.3044530000     0.0491840000
| 19>  H        0.6036400000     0.9997330000     0.0714000000
| 20>  H        0.6566720000    -0.5485180000     0.9378260000
| 21>  H        0.6530270000    -0.5358430000    -0.8174970000
| 22>  H        2.7575280000     2.1216800000     0.0748870000
| 23>  H        5.2921830000     1.9939030000     0.0683000000
| 24>  H        5.2161070000    -1.9718950000     0.0415080000
| 25>  H        2.8675670000    -1.8916080000     0.9242910000
| 26>  H        2.8650520000    -1.8781100000    -0.8339280000
| 27> *
| 28>
| 29>                          ****END OF INPUT****
 Total Charge           Charge          ....    0
 Multiplicity           Mult            ....    1
 Number of Electrons    NEL             ....   52
 Basis Dimension        Dim             ....  138

MULLIKEN ATOMIC CHARGES
-----------------------
   0 C :    0.068240
   1 C :   -0.247471
   2 C :    0.013534
   3 C :   -0.054462
   4 N :   -0.050166
   5 N :   -0.137963
   6 C :    0.243349
   7 H :    0.018335
   8 H :    0.027821
   9 H :    0.027702
  10 H :   -0.029618
  11 H :   -0.011885
  12 H :    0.120177
  13 H :    0.006339
  14 H :    0.006066
Sum of atomic charges:    0.0000000

LOEWDIN ATOMIC CHARGES
----------------------
   0 C :   -0.052725
   1 C :   -0.040763
   2 C :   -0.069410
   3 C :   -0.091549
   4 N :   -0.029697
   5 N :    0.026727
   6 C :    0.018663
   7 H :    0.033586
   8 H :    0.035637
   9 H :    0.035610
  10 H :    0.026814
  11 H :    0.016692
  12 H :    0.065786
  13 H :    0.012381
  14 H :    0.012248

  Mayer bond orders larger than 0.1
B(  0-C ,  1-C ) :   1.1138 B(  0-C ,  7-H ) :   0.9524 B(  0-C ,  8-H ) :   0.9384
B(  0-C ,  9-H ) :   0.9384 B(  1-C ,  2-C ) :   1.7836 B(  1-C ,  6-C ) :   1.0253
B(  2-C ,  3-C ) :   1.0557 B(  2-C , 10-H ) :   0.9643 B(  3-C ,  4-N ) :   1.7868
B(  3-C ,  5-N ) :   0.1366 B(  3-C , 11-H ) :   0.9673 B(  4-N ,  5-N ) :   1.1768
B(  5-N ,  6-C ) :   0.9745 B(  5-N , 12-H ) :   0.9461 B(  6-C , 13-H ) :   0.9134
B(  6-C , 14-H ) :   0.9133

FINAL SINGLE POINT ENERGY      -304.190343148983

DIPOLE MOMENT
-------------
                                X             Y             Z
Electronic contribution:      5.97728       0.58654      -0.00620
Nuclear contribution   :     -6.68851      -1.10855       0.00404
                        -----------------------------------------
Total Dipole Moment    :     -0.71123      -0.52201      -0.00216
                        -----------------------------------------
Magnitude (a.u.)       :      0.88224
Magnitude (Debye)      :      2.24247

                             ****ORCA TERMINATED NORMALLY****
TOTAL RUN TIME: 0 days 0 hours 0 minutes 6 seconds 608 msec
