                         Program Version 3.0.3 - RELEASE   -
|  1> ! RI PBE def2-SVP def2-SVP/J NBO PAL2
|  2> % maxcore 2000
|  3> % output
|  4>     # printlevel mini
|  5>     print[ P_Basis ] 0
|  6>     print[ P_SCFInfo ] 1
|  7>     print[ P_SCFIterInfo ] 1
|  8>     print[ P_OrbEn ] 0
|  9>     print[ P_Cartesian ] 0
| 10> end
| 11> *xyz 0 1
| 12>  C        1.0904930000     0.0618840000     0.0222960000
| 13>  C        2.5717150000    -0.0088800000    -0.0203120000
| 14>  C        3.3589390000    -1.0860750000    -0.0385800000
| 15>  C        4.7762850000    -0.6836680000    -0.0813000000
| 16>  N        5.8521380000    -1.3697610000    -0.1095450000
| 17>  N        4.7520800000     0.6855110000    -0.0863900000
| 18>  C        3.4268040000     1.2256250000    -0.0502640000
| 19>  H        0.6458700000    -0.9333930000     0.0392140000
| 20>  H        0.6973140000     0.5983610000    -0.8471960000
| 21>  H        0.7481700000     0.6054820000     0.9087120000
| 22>  H        3.0390220000    -2.1195310000    -0.0249800000
| 23>  H        5.6337430000    -2.3606330000    -0.0990510000
| 24>  H        5.5951830000     1.2276550000    -0.1130230000
| 25>  H        3.1930910000     1.8428590000    -0.9302630000
| 26>  H        3.2442740000     1.8502740000     0.8365830000
| 27> *
| 28>
| 29>                          ****END OF INPUT****
 Total Charge           Charge          ....    0
 Multiplicity           Mult            ....    1
 Number of Electrons    NEL             ....   52
 Basis Dimension        Dim             ....  138

MULLIKEN ATOMIC CHARGES
-----------------------
   0 C :    0.089417
   1 C :   -0.239469
   2 C :   -0.017258
   3 C :   -0.072410
   4 N :   -0.096743
   5 N :   -0.189504
   6 C :    0.237325
   7 H :    0.022741
   8 H :    0.035053
   9 H :    0.034585
  10 H :   -0.038092
  11 H :    0.077404
  12 H :    0.104262
  13 H :    0.026375
  14 H :    0.026314
Sum of atomic charges:   -0.0000000

LOEWDIN ATOMIC CHARGES
----------------------
   0 C :   -0.056236
   1 C :   -0.027619
   2 C :   -0.063100
   3 C :   -0.006279
   4 N :   -0.191966
   5 N :   -0.008674
   6 C :    0.037419
   7 H :    0.037622
   8 H :    0.040916
   9 H :    0.040854
  10 H :    0.025491
  11 H :    0.043280
  12 H :    0.070606
  13 H :    0.028852
  14 H :    0.028833

  Mayer bond orders larger than 0.1
B(  0-C ,  1-C ) :   1.1082 B(  0-C ,  7-H ) :   0.9503 B(  0-C ,  8-H ) :   0.9393
B(  0-C ,  9-H ) :   0.9391 B(  1-C ,  2-C ) :   1.7566 B(  1-C ,  6-C ) :   1.0301
B(  2-C ,  3-C ) :   0.9714 B(  2-C , 10-H ) :   1.0128 B(  3-C ,  4-N ) :   1.9089
B(  3-C ,  5-N ) :   1.1582 B(  4-N , 11-H ) :   0.9240 B(  5-N ,  6-C ) :   1.0349
B(  5-N , 12-H ) :   0.9331 B(  6-C , 13-H ) :   0.9058 B(  6-C , 14-H ) :   0.9059

FINAL SINGLE POINT ENERGY      -304.227783058876

DIPOLE MOMENT
-------------
                                X             Y             Z
Electronic contribution:      5.01164      -1.21275      -0.14007
Nuclear contribution   :     -6.26176       1.81789       0.17377
                        -----------------------------------------
Total Dipole Moment    :     -1.25012       0.60514       0.03370
                        -----------------------------------------
Magnitude (a.u.)       :      1.38929
Magnitude (Debye)      :      3.53130

                             ****ORCA TERMINATED NORMALLY****
TOTAL RUN TIME: 0 days 0 hours 0 minutes 7 seconds 780 msec
