                         Program Version 3.0.3 - RELEASE   -
|  1> ! RI PBE def2-SVP def2-SVP/J NBO PAL2
|  2> % maxcore 2000
|  3> % output
|  4>     # printlevel mini
|  5>     print[ P_Basis ] 0
|  6>     print[ P_SCFInfo ] 1
|  7>     print[ P_SCFIterInfo ] 1
|  8>     print[ P_OrbEn ] 0
|  9>     print[ P_Cartesian ] 0
| 10> end
| 11> *xyz 0 1
| 12>  C        0.9506640000     0.0251350000    -0.0959600000
| 13>  C        2.4273870000    -0.0937110000    -0.0967980000
| 14>  C        3.2172840000    -1.1738430000    -0.0967260000
| 15>  C        4.6137070000    -0.6837530000    -0.0978280000
| 16>  N        5.7067220000    -1.3221590000    -0.0981670000
| 17>  N        4.6028530000     0.7424400000    -0.0985600000
| 18>  C        3.3650910000     1.0617810000    -0.0979630000
| 19>  H        0.4670950000    -0.9517410000    -0.0951360000
| 20>  H        0.6043600000     0.5800520000    -0.9737170000
| 21>  H        0.6054320000     0.5810030000     0.7816160000
| 22>  H        2.9284660000    -2.2156870000    -0.0960140000
| 23>  H        5.5213980000    -2.3257470000    -0.0975410000
| 24>  H        3.0477330000     2.1022300000    -0.0983060000
| 25> *
| 26>
| 27>                          ****END OF INPUT****
 Total Charge           Charge          ....    0
 Multiplicity           Mult            ....    1
 Number of Electrons    NEL             ....   50
 Basis Dimension        Dim             ....  128

MULLIKEN ATOMIC CHARGES
-----------------------
   0 C :    0.083479
   1 C :   -0.110410
   2 C :   -0.020268
   3 C :   -0.133836
   4 N :    0.034668
   5 N :   -0.092507
   6 C :    0.055076
   7 H :    0.026575
   8 H :    0.044160
   9 H :    0.044161
  10 H :   -0.027357
  11 H :    0.098998
  12 H :   -0.002739
Sum of atomic charges:   -0.0000000

LOEWDIN ATOMIC CHARGES
----------------------
   0 C :   -0.057414
   1 C :   -0.042128
   2 C :   -0.068495
   3 C :    0.003410
   4 N :   -0.028647
   5 N :   -0.080198
   6 C :    0.037745
   7 H :    0.038702
   8 H :    0.046888
   9 H :    0.046888
  10 H :    0.026191
  11 H :    0.058563
  12 H :    0.018493

  Mayer bond orders larger than 0.1
B(  0-C ,  1-C ) :   1.1022 B(  0-C ,  7-H ) :   0.9511 B(  0-C ,  8-H ) :   0.9359
B(  0-C ,  9-H ) :   0.9359 B(  1-C ,  2-C ) :   1.6762 B(  1-C ,  6-C ) :   0.9948
B(  2-C ,  3-C ) :   0.9471 B(  2-C , 10-H ) :   1.0096 B(  3-C ,  4-N ) :   1.9804
B(  3-C ,  5-N ) :   1.1208 B(  4-N ,  6-C ) :   0.1083 B(  4-N , 11-H ) :   0.9187
B(  5-N ,  6-C ) :   1.8495 B(  6-C , 12-H ) :   0.9847

FINAL SINGLE POINT ENERGY      -302.999981385069

DIPOLE MOMENT
-------------
                                X             Y             Z
Electronic contribution:      5.92429       0.30467      -0.00375
Nuclear contribution   :     -7.52283      -0.85175       0.00502
                        -----------------------------------------
Total Dipole Moment    :     -1.59855      -0.54709       0.00127
                        -----------------------------------------
Magnitude (a.u.)       :      1.68957
Magnitude (Debye)      :      4.29455

                             ****ORCA TERMINATED NORMALLY****
TOTAL RUN TIME: 0 days 0 hours 0 minutes 6 seconds 168 msec
