                         Program Version 3.0.3 - RELEASE   -
|  1> ! RI PBE def2-SVP def2-SVP/J NBO PAL2
|  2> % maxcore 2000
|  3> % output
|  4>     # printlevel mini
|  5>     print[ P_Basis ] 0
|  6>     print[ P_SCFInfo ] 1
|  7>     print[ P_SCFIterInfo ] 1
|  8>     print[ P_OrbEn ] 0
|  9>     print[ P_Cartesian ] 0
| 10> end
| 11> *xyz 0 1
| 12>  C        0.9419900000     0.0470990000     0.0104870000
| 13>  C        2.4318380000     0.1406450000     0.0053570000
| 14>  C        3.0954220000     1.2976960000    -0.0078250000
| 15>  C        4.5905130000     1.3664520000    -0.0127580000
| 16>  N        5.1488870000     0.0233990000    -0.0010050000
| 17>  N        4.4839410000    -1.1230170000     0.0119970000
| 18>  C        3.2005810000    -1.0969100000     0.0152780000
| 19>  H        0.4779590000     1.0341940000     0.0021640000
| 20>  H        0.5892720000    -0.4918950000     0.8954220000
| 21>  H        0.5843020000    -0.5090460000    -0.8617500000
| 22>  H        2.5627560000     2.2435800000    -0.0155630000
| 23>  H        4.9492200000     1.9370260000     0.8596990000
| 24>  H        4.9442240000     1.9196040000    -0.8983830000
| 25>  H        6.1446810000    -0.0911010000    -0.0026890000
| 26>  H        2.7032040000    -2.0602260000     0.0260600000
| 27> *
| 28>
| 29>                          ****END OF INPUT****
 Total Charge           Charge          ....    0
 Multiplicity           Mult            ....    1
 Number of Electrons    NEL             ....   52
 Basis Dimension        Dim             ....  138

MULLIKEN ATOMIC CHARGES
-----------------------
   0 C :    0.063689
   1 C :   -0.048656
   2 C :   -0.189021
   3 C :    0.238554
   4 N :   -0.144066
   5 N :   -0.036989
   6 C :   -0.076947
   7 H :    0.011959
   8 H :    0.033751
   9 H :    0.034023
  10 H :   -0.013902
  11 H :    0.013038
  12 H :    0.012669
  13 H :    0.122391
  14 H :   -0.020494
Sum of atomic charges:   -0.0000000

LOEWDIN ATOMIC CHARGES
----------------------
   0 C :   -0.051673
   1 C :   -0.059173
   2 C :   -0.055756
   3 C :    0.015060
   4 N :    0.027420
   5 N :   -0.019789
   6 C :   -0.094821
   7 H :    0.029878
   8 H :    0.038215
   9 H :    0.038258
  10 H :    0.023360
  11 H :    0.014226
  12 H :    0.014114
  13 H :    0.065664
  14 H :    0.015016

  Mayer bond orders larger than 0.1
B(  0-C ,  1-C ) :   1.0863 B(  0-C ,  7-H ) :   0.9539 B(  0-C ,  8-H ) :   0.9454
B(  0-C ,  9-H ) :   0.9454 B(  1-C ,  2-C ) :   1.8109 B(  1-C ,  6-C ) :   1.0304
B(  2-C ,  3-C ) :   1.0313 B(  2-C , 10-H ) :   0.9531 B(  3-C ,  4-N ) :   0.9696
B(  3-C , 11-H ) :   0.9204 B(  3-C , 12-H ) :   0.9203 B(  4-N ,  5-N ) :   1.1839
B(  4-N ,  6-C ) :   0.1432 B(  4-N , 13-H ) :   0.9462 B(  5-N ,  6-C ) :   1.7976
B(  6-C , 14-H ) :   0.9743

FINAL SINGLE POINT ENERGY      -304.187563642578

DIPOLE MOMENT
-------------
                                X             Y             Z
Electronic contribution:      4.22198      -2.29639       0.01087
Nuclear contribution   :     -4.16146       2.97219      -0.01761
                        -----------------------------------------
Total Dipole Moment    :      0.06051       0.67581      -0.00675
                        -----------------------------------------
Magnitude (a.u.)       :      0.67855
Magnitude (Debye)      :      1.72473

                             ****ORCA TERMINATED NORMALLY****
TOTAL RUN TIME: 0 days 0 hours 0 minutes 7 seconds 91 msec
