                         Program Version 3.0.3 - RELEASE   -
|  1> ! RI PBE def2-SVP def2-SVP/J NBO PAL2
|  2> % maxcore 2000
|  3> % output
|  4>     # printlevel mini
|  5>     print[ P_Basis ] 0
|  6>     print[ P_SCFInfo ] 1
|  7>     print[ P_SCFIterInfo ] 1
|  8>     print[ P_OrbEn ] 0
|  9>     print[ P_Cartesian ] 0
| 10> end
| 11> *xyz 0 1
| 12>  C        0.9167640000    -0.0677050000    -0.0034180000
| 13>  C        2.4492770000    -0.0682070000     0.0074360000
| 14>  C        2.9880040000    -0.0657830000     1.4421780000
| 15>  C        3.0208820000     1.0432030000    -0.8130320000
| 16>  N        3.7140150000     0.6443460000    -1.8056250000
| 17>  N        3.7135190000    -0.7882570000    -1.8030070000
| 18>  C        3.0201090000    -1.1830020000    -0.8089650000
| 19>  H        0.5353840000     0.8166950000     0.5117520000
| 20>  H        0.5347760000    -0.9500210000     0.5148640000
| 21>  H        0.5268110000    -0.0693700000    -1.0226520000
| 22>  H        2.6349190000     0.8186720000     1.9770440000
| 23>  H        4.0791930000    -0.0661330000     1.4566880000
| 24>  H        2.6343140000    -0.9480430000     1.9802620000
| 25>  H        2.8839770000     2.1024270000    -0.6182830000
| 26>  H        2.8824660000    -2.2414110000    -0.6103440000
| 27> *
| 28>
| 29>                          ****END OF INPUT****
 Total Charge           Charge          ....    0
 Multiplicity           Mult            ....    1
 Number of Electrons    NEL             ....   52
 Basis Dimension        Dim             ....  138

MULLIKEN ATOMIC CHARGES
-----------------------
   0 C :    0.068754
   1 C :   -0.368585
   2 C :    0.061082
   3 C :    0.078974
   4 N :   -0.091186
   5 N :   -0.091240
   6 C :    0.079152
   7 H :    0.032019
   8 H :    0.032051
   9 H :    0.042547
  10 H :    0.033783
  11 H :    0.045965
  12 H :    0.033815
  13 H :    0.021465
  14 H :    0.021404
Sum of atomic charges:    0.0000000

LOEWDIN ATOMIC CHARGES
----------------------
   0 C :   -0.026870
   1 C :   -0.106394
   2 C :   -0.028802
   3 C :    0.005631
   4 N :   -0.051355
   5 N :   -0.051370
   6 C :    0.005664
   7 H :    0.032198
   8 H :    0.032203
   9 H :    0.036637
  10 H :    0.032439
  11 H :    0.037368
  12 H :    0.032444
  13 H :    0.025107
  14 H :    0.025100

  Mayer bond orders larger than 0.1
B(  0-C ,  1-C ) :   1.0044 B(  0-C ,  7-H ) :   0.9608 B(  0-C ,  8-H ) :   0.9608
B(  0-C ,  9-H ) :   0.9600 B(  1-C ,  2-C ) :   1.0067 B(  1-C ,  3-C ) :   0.9630
B(  1-C ,  6-C ) :   0.9631 B(  2-C , 10-H ) :   0.9601 B(  2-C , 11-H ) :   0.9587
B(  2-C , 12-H ) :   0.9601 B(  3-C ,  4-N ) :   1.9028 B(  3-C , 13-H ) :   0.9751
B(  4-N ,  5-N ) :   1.0096 B(  5-N ,  6-C ) :   1.9027 B(  6-C , 14-H ) :   0.9751

FINAL SINGLE POINT ENERGY      -304.179370702612

DIPOLE MOMENT
-------------
                                X             Y             Z
Electronic contribution:      4.34092      -0.01290      -6.22546
Nuclear contribution   :     -5.37236       0.01588       7.69747
                        -----------------------------------------
Total Dipole Moment    :     -1.03144       0.00298       1.47201
                        -----------------------------------------
Magnitude (a.u.)       :      1.79742
Magnitude (Debye)      :      4.56867

                             ****ORCA TERMINATED NORMALLY****
TOTAL RUN TIME: 0 days 0 hours 0 minutes 6 seconds 959 msec
