                         Program Version 3.0.3 - RELEASE   -
|  1> ! RI PBE def2-SVP def2-SVP/J NBO PAL2
|  2> % maxcore 2000
|  3> % output
|  4>     # printlevel mini
|  5>     print[ P_Basis ] 0
|  6>     print[ P_SCFInfo ] 1
|  7>     print[ P_SCFIterInfo ] 1
|  8>     print[ P_OrbEn ] 0
|  9>     print[ P_Cartesian ] 0
| 10> end
| 11> *xyz 0 1
| 12>  C        0.9800460000     0.0852450000     0.0714560000
| 13>  C        2.5106560000     0.0346890000     0.0426390000
| 14>  C        3.0273120000     0.2020310000    -1.3772630000
| 15>  C        3.0387730000    -1.2280010000     0.7400810000
| 16>  N        3.1337960000    -0.7908470000     2.1307450000
| 17>  N        3.3890130000     0.5648570000     2.1464420000
| 18>  C        3.0560690000     1.0526910000     1.0186070000
| 19>  H        0.5580520000    -0.6816350000    -0.5847350000
| 20>  H        0.6166350000     1.0575400000    -0.2708330000
| 21>  H        0.6065920000    -0.0824770000     1.0838720000
| 22>  H        2.6677980000    -0.6065240000    -2.0202090000
| 23>  H        4.1192410000     0.2006280000    -1.4064470000
| 24>  H        2.6780190000     1.1438080000    -1.8088680000
| 25>  H        4.0252620000    -1.4965360000     0.3339690000
| 26>  H        2.3687840000    -2.0841610000     0.6379920000
| 27>  H        3.7982570000    -1.2814460000     2.7103470000
| 28>  H        3.0986950000     2.1226380000     0.8490140000
| 29> *
| 30>
| 31>                          ****END OF INPUT****
 Total Charge           Charge          ....    0
 Multiplicity           Mult            ....    1
 Number of Electrons    NEL             ....   54
 Basis Dimension        Dim             ....  148

MULLIKEN ATOMIC CHARGES
-----------------------
   0 C :    0.091319
   1 C :   -0.409349
   2 C :    0.062322
   3 C :    0.230903
   4 N :   -0.147096
   5 N :   -0.084185
   6 C :    0.009822
   7 H :    0.016134
   8 H :    0.014243
   9 H :    0.029742
  10 H :    0.022314
  11 H :    0.021449
  12 H :    0.019401
  13 H :   -0.002588
  14 H :    0.006126
  15 H :    0.114881
  16 H :    0.004561
Sum of atomic charges:    0.0000000

LOEWDIN ATOMIC CHARGES
----------------------
   0 C :   -0.042456
   1 C :   -0.088071
   2 C :   -0.050582
   3 C :    0.022455
   4 N :   -0.019939
   5 N :   -0.040869
   6 C :   -0.052242
   7 H :    0.024204
   8 H :    0.026041
   9 H :    0.031599
  10 H :    0.027495
  11 H :    0.024966
  12 H :    0.028447
  13 H :    0.010932
  14 H :    0.022088
  15 H :    0.058429
  16 H :    0.017502

  Mayer bond orders larger than 0.1
B(  0-C ,  1-C ) :   1.0179 B(  0-C ,  7-H ) :   0.9556 B(  0-C ,  8-H ) :   0.9598
B(  0-C ,  9-H ) :   0.9544 B(  1-C ,  2-C ) :   1.0591 B(  1-C ,  3-C ) :   1.0241
B(  1-C ,  6-C ) :   0.9465 B(  2-C , 10-H ) :   0.9585 B(  2-C , 11-H ) :   0.9541
B(  2-C , 12-H ) :   0.9603 B(  3-C ,  4-N ) :   0.9938 B(  3-C , 13-H ) :   0.9271
B(  3-C , 14-H ) :   0.9255 B(  4-N ,  5-N ) :   1.0927 B(  4-N ,  6-C ) :   0.1022
B(  4-N , 15-H ) :   0.9407 B(  5-N ,  6-C ) :   1.8932 B(  6-C , 16-H ) :   0.9819

FINAL SINGLE POINT ENERGY      -305.396739278145

DIPOLE MOMENT
-------------
                                X             Y             Z
Electronic contribution:      2.58699       0.80277       6.02318
Nuclear contribution   :     -2.55203      -1.30467      -6.67998
                        -----------------------------------------
Total Dipole Moment    :      0.03497      -0.50190      -0.65680
                        -----------------------------------------
Magnitude (a.u.)       :      0.82735
Magnitude (Debye)      :      2.10296

                             ****ORCA TERMINATED NORMALLY****
TOTAL RUN TIME: 0 days 0 hours 0 minutes 7 seconds 812 msec
