                         Program Version 3.0.3 - RELEASE   -
|  1> ! RI PBE def2-SVP def2-SVP/J NBO PAL2
|  2> % maxcore 2000
|  3> % output
|  4>     # printlevel mini
|  5>     print[ P_Basis ] 0
|  6>     print[ P_SCFInfo ] 1
|  7>     print[ P_SCFIterInfo ] 1
|  8>     print[ P_OrbEn ] 0
|  9>     print[ P_Cartesian ] 0
| 10> end
| 11> *xyz 0 1
| 12>  C        0.8303860000     0.0023810000    -0.2565220000
| 13>  C        2.3057530000     0.0422870000     0.1379520000
| 14>  C        3.0390760000     1.2790760000    -0.3712700000
| 15>  C        3.2899280000     1.0956280000    -1.8331200000
| 16>  N        3.5058820000    -0.0348000000    -2.3741150000
| 17>  N        3.6587270000    -1.1448590000    -1.5341100000
| 18>  C        3.0558600000    -1.1362870000    -0.4137700000
| 19>  H        0.2973720000     0.8584460000     0.1650820000
| 20>  H        0.3535430000    -0.9074950000     0.1139310000
| 21>  H        0.7110560000     0.0233500000    -1.3417880000
| 22>  H        2.3745990000     0.0026250000     1.2285610000
| 23>  H        3.9951830000     1.3995400000     0.1548240000
| 24>  H        2.4622410000     2.1906120000    -0.1988380000
| 25>  H        3.2350820000     1.9455300000    -2.5110770000
| 26>  H        3.1412220000    -2.0468620000     0.1780600000
| 27> *
| 28>
| 29>                          ****END OF INPUT****
 Total Charge           Charge          ....    0
 Multiplicity           Mult            ....    1
 Number of Electrons    NEL             ....   52
 Basis Dimension        Dim             ....  138

MULLIKEN ATOMIC CHARGES
-----------------------
   0 C :    0.040239
   1 C :   -0.156693
   2 C :    0.093695
   3 C :   -0.061202
   4 N :   -0.069510
   5 N :   -0.069735
   6 C :   -0.008565
   7 H :    0.025608
   8 H :    0.028127
   9 H :    0.040940
  10 H :    0.025786
  11 H :    0.046114
  12 H :    0.017444
  13 H :    0.024607
  14 H :    0.023145
Sum of atomic charges:    0.0000000

LOEWDIN ATOMIC CHARGES
----------------------
   0 C :   -0.049643
   1 C :   -0.068412
   2 C :   -0.055234
   3 C :   -0.000847
   4 N :   -0.049355
   5 N :   -0.046981
   6 C :    0.005331
   7 H :    0.028746
   8 H :    0.032530
   9 H :    0.032712
  10 H :    0.039222
  11 H :    0.047953
  12 H :    0.037829
  13 H :    0.023141
  14 H :    0.023007

  Mayer bond orders larger than 0.1
B(  0-C ,  1-C ) :   1.0580 B(  0-C ,  7-H ) :   0.9560 B(  0-C ,  8-H ) :   0.9593
B(  0-C ,  9-H ) :   0.9632 B(  1-C ,  2-C ) :   1.0699 B(  1-C ,  6-C ) :   0.9651
B(  1-C , 10-H ) :   0.8986 B(  2-C ,  3-C ) :   0.9971 B(  2-C , 11-H ) :   0.9001
B(  2-C , 12-H ) :   0.9173 B(  3-C ,  4-N ) :   1.9151 B(  3-C , 13-H ) :   0.9641
B(  4-N ,  5-N ) :   1.0244 B(  5-N ,  6-C ) :   1.9297 B(  6-C , 14-H ) :   0.9630

FINAL SINGLE POINT ENERGY      -304.177880946994

DIPOLE MOMENT
-------------
                                X             Y             Z
Electronic contribution:      4.68282      -2.26684      -3.74654
Nuclear contribution   :     -5.32579       3.05881       4.92851
                        -----------------------------------------
Total Dipole Moment    :     -0.64297       0.79197       1.18197
                        -----------------------------------------
Magnitude (a.u.)       :      1.56131
Magnitude (Debye)      :      3.96852

                             ****ORCA TERMINATED NORMALLY****
TOTAL RUN TIME: 0 days 0 hours 0 minutes 7 seconds 211 msec
