                         Program Version 3.0.3 - RELEASE   -
|  1> ! RI PBE def2-SVP def2-SVP/J NBO PAL2
|  2> % maxcore 2000
|  3> % output
|  4>     # printlevel mini
|  5>     print[ P_Basis ] 0
|  6>     print[ P_SCFInfo ] 1
|  7>     print[ P_SCFIterInfo ] 1
|  8>     print[ P_OrbEn ] 0
|  9>     print[ P_Cartesian ] 0
| 10> end
| 11> *xyz 0 1
| 12>  C        0.8362430000    -0.0354730000    -0.0794660000
| 13>  C        2.3471830000    -0.0486050000     0.1385600000
| 14>  C        3.0203390000     1.2505930000    -0.3071910000
| 15>  C        3.4000260000     1.1451940000    -1.7725030000
| 16>  N        4.2890590000     0.0166900000    -1.9287280000
| 17>  N        3.8610050000    -1.1900170000    -1.4760280000
| 18>  C        2.9859180000    -1.2232000000    -0.5492160000
| 19>  H        0.3642030000     0.7324160000     0.5394270000
| 20>  H        0.3889120000    -0.9989670000     0.1775140000
| 21>  H        0.5933060000     0.1711830000    -1.1249400000
| 22>  H        2.5199400000    -0.1814500000     1.2143320000
| 23>  H        3.9306790000     1.4210420000     0.2733650000
| 24>  H        2.3575420000     2.1041040000    -0.1415610000
| 25>  H        3.9168860000     2.0433830000    -2.1174980000
| 26>  H        2.4898000000     1.0226110000    -2.3827410000
| 27>  H        4.6889230000    -0.0910740000    -2.8468200000
| 28>  H        2.7081440000    -2.2202400000    -0.2133260000
| 29> *
| 30>
| 31>                          ****END OF INPUT****
 Total Charge           Charge          ....    0
 Multiplicity           Mult            ....    1
 Number of Electrons    NEL             ....   54
 Basis Dimension        Dim             ....  148

MULLIKEN ATOMIC CHARGES
-----------------------
   0 C :    0.041234
   1 C :   -0.118465
   2 C :    0.035778
   3 C :    0.090132
   4 N :   -0.119958
   5 N :   -0.085601
   6 C :   -0.072196
   7 H :    0.016401
   8 H :    0.019130
   9 H :    0.011668
  10 H :    0.022680
  11 H :    0.018473
  12 H :    0.004100
  13 H :    0.009421
  14 H :    0.010441
  15 H :    0.115774
  16 H :    0.000987
Sum of atomic charges:   -0.0000000

LOEWDIN ATOMIC CHARGES
----------------------
   0 C :   -0.052688
   1 C :   -0.067311
   2 C :   -0.038923
   3 C :    0.004862
   4 N :   -0.007082
   5 N :   -0.050815
   6 C :   -0.067182
   7 H :    0.023699
   8 H :    0.027721
   9 H :    0.021125
  10 H :    0.037911
  11 H :    0.030228
  12 H :    0.026157
  13 H :    0.024913
  14 H :    0.010114
  15 H :    0.061976
  16 H :    0.015295

  Mayer bond orders larger than 0.1
B(  0-C ,  1-C ) :   1.0773 B(  0-C ,  7-H ) :   0.9543 B(  0-C ,  8-H ) :   0.9588
B(  0-C ,  9-H ) :   0.9587 B(  1-C ,  2-C ) :   1.0652 B(  1-C ,  6-C ) :   0.9788
B(  1-C , 10-H ) :   0.8964 B(  2-C ,  3-C ) :   1.0837 B(  2-C , 11-H ) :   0.9230
B(  2-C , 12-H ) :   0.9295 B(  3-C ,  4-N ) :   1.0349 B(  3-C , 13-H ) :   0.9293
B(  3-C , 14-H ) :   0.9240 B(  4-N ,  5-N ) :   1.1002 B(  4-N ,  6-C ) :   0.1246
B(  4-N , 15-H ) :   0.9411 B(  5-N ,  6-C ) :   1.9147 B(  6-C , 16-H ) :   0.9628

FINAL SINGLE POINT ENERGY      -305.400514822374

DIPOLE MOMENT
-------------
                                X             Y             Z
Electronic contribution:      4.84359      -2.97049      -2.00125
Nuclear contribution   :     -5.18508       3.68453       1.92502
                        -----------------------------------------
Total Dipole Moment    :     -0.34149       0.71404      -0.07623
                        -----------------------------------------
Magnitude (a.u.)       :      0.79516
Magnitude (Debye)      :      2.02114

                             ****ORCA TERMINATED NORMALLY****
TOTAL RUN TIME: 0 days 0 hours 0 minutes 8 seconds 41 msec
