                         Program Version 3.0.3 - RELEASE   -
|  1> ! RI PBE def2-SVP def2-SVP/J NBO PAL2
|  2> % maxcore 2000
|  3> % output
|  4>     # printlevel mini
|  5>     print[ P_Basis ] 0
|  6>     print[ P_SCFInfo ] 1
|  7>     print[ P_SCFIterInfo ] 1
|  8>     print[ P_OrbEn ] 0
|  9>     print[ P_Cartesian ] 0
| 10> end
| 11> *xyz 0 1
| 12>  C        0.9178390000    -0.1252870000     0.1763560000
| 13>  C        2.3865180000    -0.2287930000    -0.1023060000
| 14>  C        2.9274190000    -0.3987610000    -1.4710740000
| 15>  N        3.0220780000     0.8789770000    -0.7886490000
| 16>  C        4.3223150000     1.2576900000    -0.3335930000
| 17>  C        4.9878720000     2.4016510000    -1.0257380000
| 18>  C        4.4499800000     2.5710870000     0.3662540000
| 19>  H        0.4795020000    -1.1148190000     0.3318870000
| 20>  H        0.4063130000     0.3518210000    -0.6615570000
| 21>  H        0.7305860000     0.4727080000     1.0720870000
| 22>  H        2.9788060000    -0.6926480000     0.6865190000
| 23>  H        2.2525300000    -0.4309760000    -2.3208370000
| 24>  H        3.8400810000    -0.9784070000    -1.5866240000
| 25>  H        4.9671600000     0.4466600000     0.0134770000
| 26>  H        4.4323920000     2.8650940000    -1.8309800000
| 27>  H        6.0609320000     2.3650220000    -1.1660430000
| 28>  H        3.5400710000     3.1466120000     0.4786630000
| 29>  H        5.1514990000     2.6511700000     1.1871580000
| 30> *
| 31>
| 32>                          ****END OF INPUT****
 Total Charge           Charge          ....    0
 Multiplicity           Mult            ....    1
 Number of Electrons    NEL             ....   54
 Basis Dimension        Dim             ....  153

MULLIKEN ATOMIC CHARGES
-----------------------
   0 C :    0.095605
   1 C :   -0.100640
   2 C :    0.085410
   3 N :   -0.231429
   4 C :   -0.046934
   5 C :   -0.023751
   6 C :   -0.023967
   7 H :    0.018788
   8 H :    0.012717
   9 H :    0.023280
  10 H :    0.012728
  11 H :    0.022472
  12 H :    0.019196
  13 H :   -0.001288
  14 H :    0.032826
  15 H :    0.035795
  16 H :    0.034502
  17 H :    0.034691
Sum of atomic charges:   -0.0000000

LOEWDIN ATOMIC CHARGES
----------------------
   0 C :   -0.062176
   1 C :   -0.001797
   2 C :    0.006256
   3 N :   -0.095780
   4 C :   -0.004042
   5 C :   -0.049591
   6 C :   -0.050379
   7 H :    0.029946
   8 H :    0.032080
   9 H :    0.031097
  10 H :    0.013121
  11 H :    0.018235
  12 H :    0.013935
  13 H :    0.004496
  14 H :    0.030724
  15 H :    0.026778
  16 H :    0.030566
  17 H :    0.026533

  Mayer bond orders larger than 0.1
B(  0-C ,  1-C ) :   1.0971 B(  0-C ,  7-H ) :   0.9531 B(  0-C ,  8-H ) :   0.9446
B(  0-C ,  9-H ) :   0.9557 B(  1-C ,  2-C ) :   1.0706 B(  1-C ,  3-N ) :   0.9064
B(  1-C , 10-H ) :   0.9184 B(  2-C ,  3-N ) :   0.9570 B(  2-C , 11-H ) :   0.9381
B(  2-C , 12-H ) :   0.9267 B(  3-N ,  4-C ) :   1.0918 B(  4-C ,  5-C ) :   0.9924
B(  4-C ,  6-C ) :   0.9921 B(  4-C , 13-H ) :   0.9166 B(  5-C ,  6-C ) :   1.0701
B(  5-C , 14-H ) :   0.9363 B(  5-C , 15-H ) :   0.9446 B(  6-C , 16-H ) :   0.9362
B(  6-C , 17-H ) :   0.9447

FINAL SINGLE POINT ENERGY      -289.338521692279

DIPOLE MOMENT
-------------
                                X             Y             Z
Electronic contribution:      1.17551       0.39275      -0.90912
Nuclear contribution   :     -1.04628      -0.74746       1.06550
                        -----------------------------------------
Total Dipole Moment    :      0.12923      -0.35471       0.15637
                        -----------------------------------------
Magnitude (a.u.)       :      0.40863
Magnitude (Debye)      :      1.03865

                             ****ORCA TERMINATED NORMALLY****
TOTAL RUN TIME: 0 days 0 hours 0 minutes 7 seconds 701 msec
