                         Program Version 3.0.3 - RELEASE   -
|  1> ! RI PBE def2-SVP def2-SVP/J NBO PAL2
|  2> % maxcore 2000
|  3> % output
|  4>     # printlevel mini
|  5>     print[ P_Basis ] 0
|  6>     print[ P_SCFInfo ] 1
|  7>     print[ P_SCFIterInfo ] 1
|  8>     print[ P_OrbEn ] 0
|  9>     print[ P_Cartesian ] 0
| 10> end
| 11> *xyz 0 1
| 12>  C        0.8613020000     0.2713670000    -0.2145870000
| 13>  C        2.3104900000    -0.0268010000     0.0617540000
| 14>  C        3.0727710000    -0.8191550000    -0.9252500000
| 15>  N        3.3189910000     0.6161900000    -0.7763190000
| 16>  C        2.6585450000    -0.1125000000     1.5157150000
| 17>  C        4.0613260000     0.0942210000     1.9846470000
| 18>  C        3.0191140000     1.1325250000     2.2692360000
| 19>  H        0.6565150000     0.2848950000    -1.2883610000
| 20>  H        0.5823740000     1.2429020000     0.2035540000
| 21>  H        0.2138310000    -0.4831110000     0.2405750000
| 22>  H        2.5540130000    -1.1674180000    -1.8134780000
| 23>  H        3.8852170000    -1.4549870000    -0.5889750000
| 24>  H        2.8708470000     1.1286810000    -1.5282170000
| 25>  H        2.0711860000    -0.8471280000     2.0592140000
| 26>  H        4.7949450000     0.3403460000     1.2270530000
| 27>  H        4.4193170000    -0.5158960000     2.8045510000
| 28>  H        3.0809230000     2.0511090000     1.6976610000
| 29>  H        2.6593030000     1.2473800000     3.2841370000
| 30> *
| 31>
| 32>                          ****END OF INPUT****
 Total Charge           Charge          ....    0
 Multiplicity           Mult            ....    1
 Number of Electrons    NEL             ....   54
 Basis Dimension        Dim             ....  153

MULLIKEN ATOMIC CHARGES
-----------------------
   0 C :    0.134224
   1 C :   -0.239947
   2 C :    0.068638
   3 N :   -0.179156
   4 C :   -0.050056
   5 C :   -0.025236
   6 C :   -0.030001
   7 H :   -0.003037
   8 H :    0.017033
   9 H :    0.022167
  10 H :    0.020087
  11 H :    0.030654
  12 H :    0.100268
  13 H :    0.010807
  14 H :    0.045032
  15 H :    0.023334
  16 H :    0.029359
  17 H :    0.025830
Sum of atomic charges:   -0.0000000

LOEWDIN ATOMIC CHARGES
----------------------
   0 C :   -0.054030
   1 C :   -0.029169
   2 C :    0.006378
   3 N :   -0.096444
   4 C :   -0.042384
   5 C :   -0.044410
   6 C :   -0.041272
   7 H :    0.023014
   8 H :    0.030299
   9 H :    0.033441
  10 H :    0.012810
  11 H :    0.019991
  12 H :    0.051929
  13 H :    0.026824
  14 H :    0.029793
  15 H :    0.023962
  16 H :    0.025855
  17 H :    0.023412

  Mayer bond orders larger than 0.1
B(  0-C ,  1-C ) :   1.0828 B(  0-C ,  7-H ) :   0.9342 B(  0-C ,  8-H ) :   0.9497
B(  0-C ,  9-H ) :   0.9463 B(  1-C ,  2-C ) :   1.0323 B(  1-C ,  3-N ) :   0.9861
B(  1-C ,  4-C ) :   1.0255 B(  2-C ,  3-N ) :   1.0016 B(  2-C , 10-H ) :   0.9423
B(  2-C , 11-H ) :   0.9332 B(  3-N , 12-H ) :   0.9406 B(  4-C ,  5-C ) :   1.0013
B(  4-C ,  6-C ) :   0.9947 B(  4-C , 13-H ) :   0.9466 B(  5-C ,  6-C ) :   1.0586
B(  5-C , 14-H ) :   0.9256 B(  5-C , 15-H ) :   0.9388 B(  6-C , 16-H ) :   0.9416
B(  6-C , 17-H ) :   0.9472

FINAL SINGLE POINT ENERGY      -289.346075111778

DIPOLE MOMENT
-------------
                                X             Y             Z
Electronic contribution:      1.66148      -0.08532      -0.64546
Nuclear contribution   :     -2.23029      -0.08452       0.39668
                        -----------------------------------------
Total Dipole Moment    :     -0.56881      -0.16984      -0.24878
                        -----------------------------------------
Magnitude (a.u.)       :      0.64365
Magnitude (Debye)      :      1.63602

                             ****ORCA TERMINATED NORMALLY****
TOTAL RUN TIME: 0 days 0 hours 0 minutes 8 seconds 117 msec
