                         Program Version 3.0.3 - RELEASE   -
|  1> ! RI PBE def2-SVP def2-SVP/J NBO PAL2
|  2> % maxcore 2000
|  3> % output
|  4>     # printlevel mini
|  5>     print[ P_Basis ] 0
|  6>     print[ P_SCFInfo ] 1
|  7>     print[ P_SCFIterInfo ] 1
|  8>     print[ P_OrbEn ] 0
|  9>     print[ P_Cartesian ] 0
| 10> end
| 11> *xyz 0 1
| 12>  C        0.9218130000     0.1678340000    -0.1449220000
| 13>  C        2.3574440000    -0.1645540000     0.1621260000
| 14>  C        3.1541440000    -0.8974630000    -0.8425200000
| 15>  N        3.4068050000     0.5215500000    -0.5867300000
| 16>  C        2.6553540000    -0.3298220000     1.6212880000
| 17>  C        4.0270690000    -0.2214640000     2.1385480000
| 18>  N        3.0512740000     0.8351030000     2.4092190000
| 19>  H        0.7610480000     0.2666380000    -1.2214590000
| 20>  H        0.6293050000     1.1056660000     0.3359380000
| 21>  H        0.2535640000    -0.6147590000     0.2237880000
| 22>  H        2.6689770000    -1.1764380000    -1.7731970000
| 23>  H        3.9449890000    -1.5651040000    -0.5176630000
| 24>  H        2.9974900000     1.0894810000    -1.3204150000
| 25>  H        1.9620430000    -0.9875550000     2.1404050000
| 26>  H        4.8098490000    -0.0066540000     1.4187380000
| 27>  H        4.3226650000    -0.8073430000     3.0020360000
| 28>  H        3.2394650000     1.5987750000     1.7640410000
| 29> *
| 30>
| 31>                          ****END OF INPUT****
 Total Charge           Charge          ....    0
 Multiplicity           Mult            ....    1
 Number of Electrons    NEL             ....   54
 Basis Dimension        Dim             ....  148

MULLIKEN ATOMIC CHARGES
-----------------------
   0 C :    0.124259
   1 C :   -0.251088
   2 C :    0.081545
   3 N :   -0.188237
   4 C :   -0.010350
   5 C :    0.042641
   6 N :   -0.194668
   7 H :    0.001013
   8 H :    0.026549
   9 H :    0.029876
  10 H :    0.020878
  11 H :    0.032947
  12 H :    0.104846
  13 H :    0.010906
  14 H :    0.039531
  15 H :    0.026728
  16 H :    0.102622
Sum of atomic charges:    0.0000000

LOEWDIN ATOMIC CHARGES
----------------------
   0 C :   -0.054346
   1 C :   -0.041872
   2 C :    0.011791
   3 N :   -0.097770
   4 C :   -0.007627
   5 C :   -0.000252
   6 N :   -0.101448
   7 H :    0.024810
   8 H :    0.033305
   9 H :    0.036359
  10 H :    0.014535
  11 H :    0.020723
  12 H :    0.053982
  13 H :    0.022074
  14 H :    0.018492
  15 H :    0.018396
  16 H :    0.048850

  Mayer bond orders larger than 0.1
B(  0-C ,  1-C ) :   1.0839 B(  0-C ,  7-H ) :   0.9347 B(  0-C ,  8-H ) :   0.9508
B(  0-C ,  9-H ) :   0.9471 B(  1-C ,  2-C ) :   1.0339 B(  1-C ,  3-N ) :   0.9687
B(  1-C ,  4-C ) :   0.9910 B(  2-C ,  3-N ) :   1.0042 B(  2-C , 10-H ) :   0.9401
B(  2-C , 11-H ) :   0.9306 B(  3-N , 12-H ) :   0.9382 B(  4-C ,  5-C ) :   1.0577
B(  4-C ,  6-N ) :   1.0050 B(  4-C , 13-H ) :   0.9441 B(  5-C ,  6-N ) :   1.0114
B(  5-C , 14-H ) :   0.9243 B(  5-C , 15-H ) :   0.9331 B(  6-N , 16-H ) :   0.9422

FINAL SINGLE POINT ENERGY      -305.357028905164

DIPOLE MOMENT
-------------
                                X             Y             Z
Electronic contribution:      1.78114       0.82278       1.44931
Nuclear contribution   :     -2.15822      -1.07319      -2.39520
                        -----------------------------------------
Total Dipole Moment    :     -0.37708      -0.25041      -0.94589
                        -----------------------------------------
Magnitude (a.u.)       :      1.04862
Magnitude (Debye)      :      2.66537

                             ****ORCA TERMINATED NORMALLY****
TOTAL RUN TIME: 0 days 0 hours 0 minutes 7 seconds 198 msec
