                         Program Version 3.0.3 - RELEASE   -
|  1> ! RI PBE def2-SVP def2-SVP/J NBO PAL2
|  2> % maxcore 2000
|  3> % output
|  4>     # printlevel mini
|  5>     print[ P_Basis ] 0
|  6>     print[ P_SCFInfo ] 1
|  7>     print[ P_SCFIterInfo ] 1
|  8>     print[ P_OrbEn ] 0
|  9>     print[ P_Cartesian ] 0
| 10> end
| 11> *xyz 0 1
| 12>  C        0.9211170000     0.5763330000    -0.9981850000
| 13>  C        2.0672530000     0.0085470000    -0.2180280000
| 14>  C        2.7404830000    -1.2562360000    -0.5951770000
| 15>  N        3.3775660000     0.0235500000    -0.8355080000
| 16>  C        4.4957290000     0.3478650000     0.0314270000
| 17>  C        4.7244770000     1.8222050000     0.0756090000
| 18>  C        4.8165680000     2.5359830000     1.1881380000
| 19>  H       -0.0315620000     0.1812000000    -0.6353920000
| 20>  H        1.0202050000     0.3244120000    -2.0555280000
| 21>  H        0.8925430000     1.6654790000    -0.9104250000
| 22>  H        2.0515860000     0.2201340000     0.8513460000
| 23>  H        2.4219010000    -1.7994480000    -1.4795740000
| 24>  H        3.1360220000    -1.8761540000     0.2064190000
| 25>  H        5.3826790000    -0.1475510000    -0.3829140000
| 26>  H        4.3567290000    -0.0383270000     1.0555230000
| 27>  H        4.8155490000     2.3088350000    -0.8926870000
| 28>  H        4.7192020000     2.0749630000     2.1665950000
| 29>  H        4.9994540000     3.6041090000     1.1648610000
| 30> *
| 31>
| 32>                          ****END OF INPUT****
 Total Charge           Charge          ....    0
 Multiplicity           Mult            ....    1
 Number of Electrons    NEL             ....   54
 Basis Dimension        Dim             ....  153

MULLIKEN ATOMIC CHARGES
-----------------------
   0 C :    0.091385
   1 C :   -0.107144
   2 C :    0.078777
   3 N :   -0.299831
   4 C :    0.185941
   5 C :   -0.077831
   6 C :   -0.038624
   7 H :    0.015710
   8 H :    0.014508
   9 H :    0.029739
  10 H :    0.013089
  11 H :    0.024176
  12 H :    0.018212
  13 H :    0.017302
  14 H :   -0.023677
  15 H :    0.010660
  16 H :    0.017687
  17 H :    0.029923
Sum of atomic charges:    0.0000000

LOEWDIN ATOMIC CHARGES
----------------------
   0 C :   -0.063372
   1 C :   -0.002827
   2 C :    0.004279
   3 N :   -0.109190
   4 C :    0.015686
   5 C :   -0.030386
   6 C :   -0.063106
   7 H :    0.029533
   8 H :    0.032246
   9 H :    0.032776
  10 H :    0.012221
  11 H :    0.018466
  12 H :    0.012603
  13 H :    0.031867
  14 H :    0.003943
  15 H :    0.028674
  16 H :    0.020526
  17 H :    0.026059

  Mayer bond orders larger than 0.1
B(  0-C ,  1-C ) :   1.0899 B(  0-C ,  7-H ) :   0.9529 B(  0-C ,  8-H ) :   0.9452
B(  0-C ,  9-H ) :   0.9569 B(  1-C ,  2-C ) :   1.0653 B(  1-C ,  3-N ) :   0.9157
B(  1-C , 10-H ) :   0.9231 B(  2-C ,  3-N ) :   0.9651 B(  2-C , 11-H ) :   0.9392
B(  2-C , 12-H ) :   0.9251 B(  3-N ,  4-C ) :   0.9950 B(  4-C ,  5-C ) :   1.0684
B(  4-C , 13-H ) :   0.9116 B(  4-C , 14-H ) :   0.9024 B(  5-C ,  6-C ) :   2.0005
B(  5-C , 15-H ) :   0.9558 B(  6-C , 16-H ) :   0.9481 B(  6-C , 17-H ) :   0.9451

FINAL SINGLE POINT ENERGY      -289.339209659992

DIPOLE MOMENT
-------------
                                X             Y             Z
Electronic contribution:      2.08048      -0.39565      -0.83725
Nuclear contribution   :     -2.17846       0.23160       1.14027
                        -----------------------------------------
Total Dipole Moment    :     -0.09797      -0.16404       0.30302
                        -----------------------------------------
Magnitude (a.u.)       :      0.35823
Magnitude (Debye)      :      0.91054

                             ****ORCA TERMINATED NORMALLY****
TOTAL RUN TIME: 0 days 0 hours 0 minutes 7 seconds 791 msec
