                         Program Version 3.0.3 - RELEASE   -
|  1> ! RI PBE def2-SVP def2-SVP/J NBO PAL2
|  2> % maxcore 2000
|  3> % output
|  4>     # printlevel mini
|  5>     print[ P_Basis ] 0
|  6>     print[ P_SCFInfo ] 1
|  7>     print[ P_SCFIterInfo ] 1
|  8>     print[ P_OrbEn ] 0
|  9>     print[ P_Cartesian ] 0
| 10> end
| 11> *xyz 0 1
| 12>  C        0.9871200000     0.5465670000    -0.3601220000
| 13>  C        2.4601270000     0.4286840000    -0.1158550000
| 14>  C        3.2837590000    -0.6557740000    -0.6987010000
| 15>  N        3.3476980000     0.6931740000    -1.2312280000
| 16>  C        4.5641450000     1.4212300000    -0.9187800000
| 17>  C        4.3494390000     2.8615440000    -0.9170650000
| 18>  C        4.1793320000     4.0490030000    -0.9000650000
| 19>  H        0.4225770000    -0.0205500000     0.3847090000
| 20>  H        0.7351550000     0.1647640000    -1.3509650000
| 21>  H        0.6683820000     1.5904200000    -0.3080040000
| 22>  H        2.8025270000     0.7952490000     0.8520040000
| 23>  H        2.8294020000    -1.3949700000    -1.3505840000
| 24>  H        4.1314930000    -1.0141940000    -0.1188210000
| 25>  H        5.3172300000     1.1700710000    -1.6734150000
| 26>  H        4.9833560000     1.1275190000     0.0595350000
| 27>  H        4.0263490000     5.1021720000    -0.8935440000
| 28> *
| 29>
| 30>                          ****END OF INPUT****
 Total Charge           Charge          ....    0
 Multiplicity           Mult            ....    1
 Number of Electrons    NEL             ....   52
 Basis Dimension        Dim             ....  143

MULLIKEN ATOMIC CHARGES
-----------------------
   0 C :    0.109784
   1 C :   -0.104262
   2 C :    0.076167
   3 N :   -0.284991
   4 C :    0.185183
   5 C :    0.342758
   6 C :   -0.491249
   7 H :    0.020856
   8 H :    0.009450
   9 H :    0.026841
  10 H :    0.012991
  11 H :    0.028669
  12 H :    0.019731
  13 H :    0.038296
  14 H :    0.009305
  15 H :    0.000471
Sum of atomic charges:    0.0000000

LOEWDIN ATOMIC CHARGES
----------------------
   0 C :   -0.058975
   1 C :    0.000402
   2 C :    0.005218
   3 N :   -0.103178
   4 C :    0.008536
   5 C :   -0.024963
   6 C :   -0.074680
   7 H :    0.030733
   8 H :    0.032187
   9 H :    0.033477
  10 H :    0.013521
  11 H :    0.020655
  12 H :    0.013105
  13 H :    0.046100
  14 H :    0.023032
  15 H :    0.034831

  Mayer bond orders larger than 0.1
B(  0-C ,  1-C ) :   1.0894 B(  0-C ,  7-H ) :   0.9537 B(  0-C ,  8-H ) :   0.9426
B(  0-C ,  9-H ) :   0.9564 B(  1-C ,  2-C ) :   1.0694 B(  1-C ,  3-N ) :   0.9034
B(  1-C , 10-H ) :   0.9218 B(  2-C ,  3-N ) :   0.9615 B(  2-C , 11-H ) :   0.9385
B(  2-C , 12-H ) :   0.9244 B(  3-N ,  4-C ) :   1.0202 B(  4-C ,  5-C ) :   1.0466
B(  4-C , 13-H ) :   0.8935 B(  4-C , 14-H ) :   0.8812 B(  5-C ,  6-C ) :   2.3466
B(  5-C , 15-H ) :  -0.1103 B(  6-C , 15-H ) :   1.1012

FINAL SINGLE POINT ENERGY      -288.092941217732

DIPOLE MOMENT
-------------
                                X             Y             Z
Electronic contribution:      3.36932       3.42953      -1.54850
Nuclear contribution   :     -3.29553      -3.70350       1.96239
                        -----------------------------------------
Total Dipole Moment    :      0.07380      -0.27396       0.41389
                        -----------------------------------------
Magnitude (a.u.)       :      0.50181
Magnitude (Debye)      :      1.27549

                             ****ORCA TERMINATED NORMALLY****
TOTAL RUN TIME: 0 days 0 hours 0 minutes 6 seconds 216 msec
