                         Program Version 3.0.3 - RELEASE   -
|  1> ! RI PBE def2-SVP def2-SVP/J NBO PAL2
|  2> % maxcore 2000
|  3> % output
|  4>     # printlevel mini
|  5>     print[ P_Basis ] 0
|  6>     print[ P_SCFInfo ] 1
|  7>     print[ P_SCFIterInfo ] 1
|  8>     print[ P_OrbEn ] 0
|  9>     print[ P_Cartesian ] 0
| 10> end
| 11> *xyz 0 1
| 12>  C        0.9586960000     1.0639810000    -0.7288400000
| 13>  C        2.0554930000     0.1177960000    -0.3455490000
| 14>  C        2.6018030000    -0.8911300000    -1.2813900000
| 15>  N        3.3562480000     0.3025070000    -0.9575140000
| 16>  C        4.5094630000     0.1147230000    -0.1047910000
| 17>  C        4.9113610000     1.4194120000     0.5546540000
| 18>  N        6.0815650000     1.2155070000     1.3933080000
| 19>  H       -0.0228190000     0.6238080000    -0.5331530000
| 20>  H        1.0229230000     1.3079800000    -1.7906570000
| 21>  H        1.0303750000     1.9969740000    -0.1631820000
| 22>  H        2.0697180000    -0.1775630000     0.7046290000
| 23>  H        2.2234820000    -0.9505470000    -2.2972200000
| 24>  H        2.9446180000    -1.8344520000    -0.8619220000
| 25>  H        5.3430150000    -0.2488060000    -0.7124890000
| 26>  H        4.3209930000    -0.6488970000     0.6733470000
| 27>  H        4.0406550000     1.8311410000     1.0897530000
| 28>  H        5.1657880000     2.1371100000    -0.2296090000
| 29>  H        5.8478040000     0.6497670000     2.2003070000
| 30>  H        6.4287090000     2.0982890000     1.7444070000
| 31> *
| 32>
| 33>                          ****END OF INPUT****
 Total Charge           Charge          ....    0
 Multiplicity           Mult            ....    1
 Number of Electrons    NEL             ....   56
 Basis Dimension        Dim             ....  158

MULLIKEN ATOMIC CHARGES
-----------------------
   0 C :    0.105369
   1 C :   -0.116518
   2 C :    0.094657
   3 N :   -0.286475
   4 C :    0.089108
   5 C :    0.074554
   6 N :   -0.213836
   7 H :    0.017066
   8 H :    0.012763
   9 H :    0.019780
  10 H :    0.006649
  11 H :    0.019665
  12 H :    0.013964
  13 H :    0.012445
  14 H :   -0.028751
  15 H :   -0.011012
  16 H :    0.013705
  17 H :    0.087440
  18 H :    0.089426
Sum of atomic charges:   -0.0000000

LOEWDIN ATOMIC CHARGES
----------------------
   0 C :   -0.062144
   1 C :   -0.007112
   2 C :    0.007428
   3 N :   -0.107349
   4 C :    0.008722
   5 C :   -0.000040
   6 N :   -0.111220
   7 H :    0.029264
   8 H :    0.032510
   9 H :    0.029426
  10 H :    0.008893
  11 H :    0.017686
  12 H :    0.011933
  13 H :    0.023038
  14 H :   -0.005195
  15 H :   -0.002678
  16 H :    0.024335
  17 H :    0.049120
  18 H :    0.053384

  Mayer bond orders larger than 0.1
B(  0-C ,  1-C ) :   1.0906 B(  0-C ,  7-H ) :   0.9551 B(  0-C ,  8-H ) :   0.9437
B(  0-C ,  9-H ) :   0.9539 B(  1-C ,  2-C ) :   1.0665 B(  1-C ,  3-N ) :   0.9134
B(  1-C , 10-H ) :   0.9181 B(  2-C ,  3-N ) :   0.9639 B(  2-C , 11-H ) :   0.9381
B(  2-C , 12-H ) :   0.9267 B(  3-N ,  4-C ) :   1.0167 B(  4-C ,  5-C ) :   1.0888
B(  4-C , 13-H ) :   0.9300 B(  4-C , 14-H ) :   0.9085 B(  5-C ,  6-N ) :   1.0920
B(  5-C , 15-H ) :   0.9305 B(  5-C , 16-H ) :   0.9228 B(  6-N , 17-H ) :   0.9691
B(  6-N , 18-H ) :   0.9648

FINAL SINGLE POINT ENERGY      -306.577029794328

DIPOLE MOMENT
-------------
                                X             Y             Z
Electronic contribution:      1.48117      -0.73539      -1.12625
Nuclear contribution   :     -1.80678       0.74624       1.74614
                        -----------------------------------------
Total Dipole Moment    :     -0.32560       0.01085       0.61988
                        -----------------------------------------
Magnitude (a.u.)       :      0.70028
Magnitude (Debye)      :      1.77997

                             ****ORCA TERMINATED NORMALLY****
TOTAL RUN TIME: 0 days 0 hours 0 minutes 8 seconds 173 msec
