                         Program Version 3.0.3 - RELEASE   -
|  1> ! RI PBE def2-SVP def2-SVP/J NBO PAL2
|  2> % maxcore 2000
|  3> % output
|  4>     # printlevel mini
|  5>     print[ P_Basis ] 0
|  6>     print[ P_SCFInfo ] 1
|  7>     print[ P_SCFIterInfo ] 1
|  8>     print[ P_OrbEn ] 0
|  9>     print[ P_Cartesian ] 0
| 10> end
| 11> *xyz 0 1
| 12>  C        1.5699820000     0.6137750000     0.3681560000
| 13>  C        2.9286620000     0.0281550000     0.1167570000
| 14>  C        3.1193400000    -0.9289450000    -1.0078650000
| 15>  N        3.7025010000     0.3823350000    -1.0575170000
| 16>  C        3.3304590000     1.3452160000    -1.9982710000
| 17>  C        3.4428330000     2.7529520000    -1.5039830000
| 18>  N        3.0231850000     1.1122830000    -3.2083730000
| 19>  H        0.9777610000    -0.0689780000     0.9825940000
| 20>  H        1.0325180000     0.7826050000    -0.5679790000
| 21>  H        1.6353480000     1.5644870000     0.9026080000
| 22>  H        3.5381120000    -0.1172400000     1.0059580000
| 23>  H        2.2489430000    -1.1176560000    -1.6338290000
| 24>  H        3.8117160000    -1.7596850000    -0.9187210000
| 25>  H        2.7680980000     2.9300040000    -0.6630660000
| 26>  H        3.2010810000     3.4405040000    -2.3111780000
| 27>  H        4.4587810000     2.9431470000    -1.1499570000
| 28>  H        3.0089790000     0.1088610000    -3.3916330000
| 29> *
| 30>
| 31>                          ****END OF INPUT****
 Total Charge           Charge          ....    0
 Multiplicity           Mult            ....    1
 Number of Electrons    NEL             ....   54
 Basis Dimension        Dim             ....  148

MULLIKEN ATOMIC CHARGES
-----------------------
   0 C :    0.036626
   1 C :   -0.084771
   2 C :    0.062044
   3 N :   -0.194025
   4 C :   -0.193777
   5 C :    0.078603
   6 N :   -0.078791
   7 H :    0.039911
   8 H :    0.034174
   9 H :    0.043789
  10 H :    0.026809
  11 H :    0.030505
  12 H :    0.040469
  13 H :    0.017277
  14 H :    0.032168
  15 H :    0.037426
  16 H :    0.071562
Sum of atomic charges:   -0.0000000

LOEWDIN ATOMIC CHARGES
----------------------
   0 C :   -0.070267
   1 C :    0.016072
   2 C :    0.011066
   3 N :   -0.070533
   4 C :   -0.003314
   5 C :   -0.065598
   6 N :   -0.143752
   7 H :    0.039868
   8 H :    0.036474
   9 H :    0.033232
  10 H :    0.023040
  11 H :    0.014567
  12 H :    0.024940
  13 H :    0.033210
  14 H :    0.040424
  15 H :    0.042030
  16 H :    0.038541

  Mayer bond orders larger than 0.1
B(  0-C ,  1-C ) :   1.1001 B(  0-C ,  7-H ) :   0.9503 B(  0-C ,  8-H ) :   0.9408
B(  0-C ,  9-H ) :   0.9500 B(  1-C ,  2-C ) :   1.0284 B(  1-C ,  3-N ) :   0.9344
B(  1-C , 10-H ) :   0.9364 B(  2-C ,  3-N ) :   0.9693 B(  2-C , 11-H ) :   0.9298
B(  2-C , 12-H ) :   0.9397 B(  3-N ,  4-C ) :   1.0700 B(  4-C ,  5-C ) :   1.0474
B(  4-C ,  6-N ) :   2.0458 B(  5-C , 13-H ) :   0.9445 B(  5-C , 14-H ) :   0.9475
B(  5-C , 15-H ) :   0.9427 B(  6-N , 16-H ) :   0.9305

FINAL SINGLE POINT ENERGY      -305.389923446537

DIPOLE MOMENT
-------------
                                X             Y             Z
Electronic contribution:      2.76824      -1.45874      -2.78437
Nuclear contribution   :     -3.06242       0.95204       3.80227
                        -----------------------------------------
Total Dipole Moment    :     -0.29418      -0.50670       1.01790
                        -----------------------------------------
Magnitude (a.u.)       :      1.17449
Magnitude (Debye)      :      2.98531

                             ****ORCA TERMINATED NORMALLY****
TOTAL RUN TIME: 0 days 0 hours 0 minutes 7 seconds 638 msec
