                         Program Version 3.0.3 - RELEASE   -
|  1> ! RI PBE def2-SVP def2-SVP/J NBO PAL2
|  2> % maxcore 2000
|  3> % output
|  4>     # printlevel mini
|  5>     print[ P_Basis ] 0
|  6>     print[ P_SCFInfo ] 1
|  7>     print[ P_SCFIterInfo ] 1
|  8>     print[ P_OrbEn ] 0
|  9>     print[ P_Cartesian ] 0
| 10> end
| 11> *xyz 0 1
| 12>  C        0.8968420000     0.6048850000    -0.2264970000
| 13>  C        2.3696850000     0.5019050000     0.0222730000
| 14>  C        3.2110520000    -0.5598860000    -0.5753030000
| 15>  N        3.2576980000     0.7985240000    -1.0886070000
| 16>  C        4.4609950000     1.5325350000    -0.7660570000
| 17>  C        4.2123510000     2.9720060000    -0.7580170000
| 18>  N        4.0235030000     4.1048740000    -0.7315980000
| 19>  H        0.3398350000     0.0155670000     0.5062130000
| 20>  H        0.6531360000     0.2380710000    -1.2248520000
| 21>  H        0.5632900000     1.6426360000    -0.1547080000
| 22>  H        2.7036690000     0.8577660000     0.9969080000
| 23>  H        2.7703870000    -1.2924340000    -1.2432270000
| 24>  H        4.0627120000    -0.9157600000    -0.0001470000
| 25>  H        5.2244480000     1.3203310000    -1.5210010000
| 26>  H        4.8866970000     1.2617810000     0.2148090000
| 27> *
| 28>
| 29>                          ****END OF INPUT****
 Total Charge           Charge          ....    0
 Multiplicity           Mult            ....    1
 Number of Electrons    NEL             ....   52
 Basis Dimension        Dim             ....  138

MULLIKEN ATOMIC CHARGES
-----------------------
   0 C :    0.108752
   1 C :   -0.108238
   2 C :    0.079522
   3 N :   -0.290245
   4 C :    0.172363
   5 C :   -0.263627
   6 N :    0.063820
   7 H :    0.026668
   8 H :    0.013883
   9 H :    0.034830
  10 H :    0.019571
  11 H :    0.036836
  12 H :    0.025842
  13 H :    0.053976
  14 H :    0.026048
Sum of atomic charges:   -0.0000000

LOEWDIN ATOMIC CHARGES
----------------------
   0 C :   -0.057808
   1 C :    0.001758
   2 C :    0.010693
   3 N :   -0.102307
   4 C :   -0.001358
   5 C :   -0.044979
   6 N :   -0.054360
   7 H :    0.033856
   8 H :    0.034224
   9 H :    0.036981
  10 H :    0.016156
  11 H :    0.024540
  12 H :    0.016090
  13 H :    0.055152
  14 H :    0.031362

  Mayer bond orders larger than 0.1
B(  0-C ,  1-C ) :   1.0905 B(  0-C ,  7-H ) :   0.9533 B(  0-C ,  8-H ) :   0.9426
B(  0-C ,  9-H ) :   0.9561 B(  1-C ,  2-C ) :   1.0710 B(  1-C ,  3-N ) :   0.8900
B(  1-C , 10-H ) :   0.9205 B(  2-C ,  3-N ) :   0.9624 B(  2-C , 11-H ) :   0.9392
B(  2-C , 12-H ) :   0.9247 B(  3-N ,  4-C ) :   1.0618 B(  4-C ,  5-C ) :   1.1248
B(  4-C , 13-H ) :   0.8853 B(  4-C , 14-H ) :   0.8817 B(  5-C ,  6-N ) :   3.0692

FINAL SINGLE POINT ENERGY      -304.171365380313

DIPOLE MOMENT
-------------
                                X             Y             Z
Electronic contribution:      4.10880       5.88695      -1.63268
Nuclear contribution   :     -3.94045      -7.39891       2.06194
                        -----------------------------------------
Total Dipole Moment    :      0.16835      -1.51196       0.42927
                        -----------------------------------------
Magnitude (a.u.)       :      1.58071
Magnitude (Debye)      :      4.01784

                             ****ORCA TERMINATED NORMALLY****
TOTAL RUN TIME: 0 days 0 hours 0 minutes 6 seconds 744 msec
