                         Program Version 3.0.3 - RELEASE   -
|  1> ! RI PBE def2-SVP def2-SVP/J NBO PAL2
|  2> % maxcore 2000
|  3> % output
|  4>     # printlevel mini
|  5>     print[ P_Basis ] 0
|  6>     print[ P_SCFInfo ] 1
|  7>     print[ P_SCFIterInfo ] 1
|  8>     print[ P_OrbEn ] 0
|  9>     print[ P_Cartesian ] 0
| 10> end
| 11> *xyz 0 1
| 12>  C        0.9136350000     0.0803560000    -0.0122130000
| 13>  C        2.4271110000     0.1233970000     0.0654670000
| 14>  C        3.0786180000    -0.9606200000     0.9790080000
| 15>  N        3.8793400000    -0.1685410000     1.9400440000
| 16>  C        4.4678690000     0.8481130000     0.9993250000
| 17>  C        3.0251360000     1.3333200000     0.7909060000
| 18>  C        2.8874220000     0.9121000000     2.2638020000
| 19>  H        0.5713430000    -0.8609030000    -0.4511240000
| 20>  H        0.5223700000     0.8926870000    -0.6306720000
| 21>  H        0.4547500000     0.1635670000     0.9768440000
| 22>  H        2.8341430000     0.0654220000    -0.9497580000
| 23>  H        3.7298080000    -1.6479130000     0.4358990000
| 24>  H        2.3337250000    -1.5484960000     1.5208470000
| 25>  H        5.0128370000     0.4303950000     0.1480250000
| 26>  H        5.0992560000     1.5460270000     1.5514410000
| 27>  H        2.7689570000     2.3265270000     0.4176440000
| 28>  H        1.9240830000     0.5600880000     2.6401250000
| 29>  H        3.3272170000     1.6234740000     2.9645170000
| 30> *
| 31>
| 32>                          ****END OF INPUT****
 Total Charge           Charge          ....    0
 Multiplicity           Mult            ....    1
 Number of Electrons    NEL             ....   54
 Basis Dimension        Dim             ....  153

MULLIKEN ATOMIC CHARGES
-----------------------
   0 C :    0.067622
   1 C :   -0.121149
   2 C :    0.161166
   3 N :   -0.323126
   4 C :    0.168025
   5 C :   -0.226501
   6 C :    0.152360
   7 H :    0.021210
   8 H :    0.018857
   9 H :    0.004857
  10 H :    0.008041
  11 H :    0.005536
  12 H :    0.001852
  13 H :    0.010109
  14 H :    0.021624
  15 H :   -0.008522
  16 H :    0.012817
  17 H :    0.025225
Sum of atomic charges:   -0.0000000

LOEWDIN ATOMIC CHARGES
----------------------
   0 C :   -0.061362
   1 C :   -0.055829
   2 C :    0.017431
   3 N :   -0.127638
   4 C :    0.033776
   5 C :   -0.039336
   6 C :    0.031664
   7 H :    0.028708
   8 H :    0.027036
   9 H :    0.021573
  10 H :    0.020839
  11 H :    0.017939
  12 H :    0.017023
  13 H :    0.010457
  14 H :    0.019711
  15 H :    0.009296
  16 H :    0.007898
  17 H :    0.020814

  Mayer bond orders larger than 0.1
B(  0-C ,  1-C ) :   1.0979 B(  0-C ,  7-H ) :   0.9564 B(  0-C ,  8-H ) :   0.9585
B(  0-C ,  9-H ) :   0.9517 B(  1-C ,  2-C ) :   0.9837 B(  1-C ,  5-C ) :   1.0215
B(  1-C , 10-H ) :   0.9128 B(  2-C ,  3-N ) :   1.0327 B(  2-C , 11-H ) :   0.9239
B(  2-C , 12-H ) :   0.9294 B(  3-N ,  4-C ) :   0.9652 B(  3-N ,  6-C ) :   0.9644
B(  4-C ,  5-C ) :   0.9898 B(  4-C , 13-H ) :   0.9343 B(  4-C , 14-H ) :   0.9441
B(  5-C ,  6-C ) :   0.9892 B(  5-C , 15-H ) :   0.9592 B(  6-C , 16-H ) :   0.9353
B(  6-C , 17-H ) :   0.9454

FINAL SINGLE POINT ENERGY      -289.349303756745

DIPOLE MOMENT
-------------
                                X             Y             Z
Electronic contribution:      3.13816       0.10231       1.78761
Nuclear contribution   :     -3.44663       0.21834      -2.20261
                        -----------------------------------------
Total Dipole Moment    :     -0.30847       0.32065      -0.41499
                        -----------------------------------------
Magnitude (a.u.)       :      0.60843
Magnitude (Debye)      :      1.54652

                             ****ORCA TERMINATED NORMALLY****
TOTAL RUN TIME: 0 days 0 hours 0 minutes 8 seconds 68 msec
