                         Program Version 3.0.3 - RELEASE   -
|  1> ! RI PBE def2-SVP def2-SVP/J NBO PAL2
|  2> % maxcore 2000
|  3> % output
|  4>     # printlevel mini
|  5>     print[ P_Basis ] 0
|  6>     print[ P_SCFInfo ] 1
|  7>     print[ P_SCFIterInfo ] 1
|  8>     print[ P_OrbEn ] 0
|  9>     print[ P_Cartesian ] 0
| 10> end
| 11> *xyz 0 1
| 12>  C        1.0031320000    -0.0628490000     0.0861570000
| 13>  C        2.3256500000    -0.0231940000     0.0639320000
| 14>  C        3.3444400000    -1.1561090000     0.0964320000
| 15>  N        4.6270460000    -0.4131560000     0.0456760000
| 16>  C        4.2902300000     0.6048980000    -1.0079110000
| 17>  C        3.2518660000     1.1504490000     0.0001430000
| 18>  C        4.3207570000     0.6907420000     1.0190910000
| 19>  H        0.4666220000    -1.0046640000     0.1344120000
| 20>  H        0.4062800000     0.8420050000     0.0570030000
| 21>  H        3.2661830000    -1.8277820000    -0.7613900000
| 22>  H        3.2928340000    -1.7530640000     1.0097180000
| 23>  H        3.9398010000     0.1953380000    -1.9578520000
| 24>  H        5.1375180000     1.2743490000    -1.1642180000
| 25>  H        2.8234280000     2.1513300000    -0.0358250000
| 26>  H        3.9995020000     0.3633920000     2.0103320000
| 27>  H        5.1715090000     1.3699250000     1.0927200000
| 28> *
| 29>
| 30>                          ****END OF INPUT****
 Total Charge           Charge          ....    0
 Multiplicity           Mult            ....    1
 Number of Electrons    NEL             ....   52
 Basis Dimension        Dim             ....  143

MULLIKEN ATOMIC CHARGES
-----------------------
   0 C :   -0.070371
   1 C :   -0.094729
   2 C :    0.195192
   3 N :   -0.324707
   4 C :    0.167002
   5 C :   -0.184314
   6 C :    0.161923
   7 H :    0.008841
   8 H :    0.009264
   9 H :    0.026680
  10 H :    0.025629
  11 H :    0.023784
  12 H :    0.025269
  13 H :   -0.020918
  14 H :    0.024751
  15 H :    0.026701
Sum of atomic charges:    0.0000000

LOEWDIN ATOMIC CHARGES
----------------------
   0 C :   -0.092020
   1 C :   -0.038920
   2 C :    0.018721
   3 N :   -0.127834
   4 C :    0.041094
   5 C :   -0.032690
   6 C :    0.040224
   7 H :    0.023654
   8 H :    0.023351
   9 H :    0.028414
  10 H :    0.028342
  11 H :    0.014362
  12 H :    0.021620
  13 H :    0.015306
  14 H :    0.014511
  15 H :    0.021865

  Mayer bond orders larger than 0.1
B(  0-C ,  1-C ) :   2.0461 B(  0-C ,  7-H ) :   0.9299 B(  0-C ,  8-H ) :   0.9304
B(  1-C ,  2-C ) :   0.9398 B(  1-C ,  5-C ) :   0.9784 B(  2-C ,  3-N ) :   1.0170
B(  2-C ,  9-H ) :   0.9209 B(  2-C , 10-H ) :   0.9201 B(  3-N ,  4-C ) :   0.9658
B(  3-N ,  6-C ) :   0.9658 B(  4-C ,  5-C ) :   0.9561 B(  4-C , 11-H ) :   0.9406
B(  4-C , 12-H ) :   0.9409 B(  5-C ,  6-C ) :   0.9561 B(  5-C , 13-H ) :   0.9656
B(  6-C , 14-H ) :   0.9411 B(  6-C , 15-H ) :   0.9414

FINAL SINGLE POINT ENERGY      -288.128132777101

DIPOLE MOMENT
-------------
                                X             Y             Z
Electronic contribution:      1.07860      -0.24484      -0.00642
Nuclear contribution   :     -1.31051       0.59456      -0.00493
                        -----------------------------------------
Total Dipole Moment    :     -0.23191       0.34972      -0.01135
                        -----------------------------------------
Magnitude (a.u.)       :      0.41978
Magnitude (Debye)      :      1.06699

                             ****ORCA TERMINATED NORMALLY****
TOTAL RUN TIME: 0 days 0 hours 0 minutes 7 seconds 737 msec
