                         Program Version 3.0.3 - RELEASE   -
|  1> ! RI PBE def2-SVP def2-SVP/J NBO PAL2
|  2> % maxcore 2000
|  3> % output
|  4>     # printlevel mini
|  5>     print[ P_Basis ] 0
|  6>     print[ P_SCFInfo ] 1
|  7>     print[ P_SCFIterInfo ] 1
|  8>     print[ P_OrbEn ] 0
|  9>     print[ P_Cartesian ] 0
| 10> end
| 11> *xyz 0 1
| 12>  C        0.8471390000     0.0762270000    -0.1734030000
| 13>  C        2.3406200000     0.0927420000     0.0359930000
| 14>  C        2.7030970000    -0.0361740000     1.4945000000
| 15>  N        3.1935600000    -0.6720540000    -0.8841580000
| 16>  C        3.2441510000     0.7959850000    -0.9213430000
| 17>  C        2.6922800000     1.5123950000    -2.1283070000
| 18>  C        4.5472750000     1.3990820000    -0.4593480000
| 19>  H        0.4273350000    -0.8456680000     0.2408580000
| 20>  H        0.5594260000     0.1271730000    -1.2229780000
| 21>  H        0.3715320000     0.9130580000     0.3464910000
| 22>  H        2.2180300000    -0.9199230000     1.9195060000
| 23>  H        2.3619610000     0.8357090000     2.0605670000
| 24>  H        3.7748940000    -0.1490760000     1.6415230000
| 25>  H        2.6388860000    -1.0181540000    -1.6618540000
| 26>  H        1.7706440000     1.0711420000    -2.5062690000
| 27>  H        3.4275440000     1.4889660000    -2.9386040000
| 28>  H        2.4926910000     2.5634850000    -1.8999380000
| 29>  H        5.0126840000     0.8125940000     0.3296660000
| 30>  H        4.3982360000     2.4200040000    -0.0953500000
| 31>  H        5.2515960000     1.4429890000    -1.2953720000
| 32> *
| 33>
| 34>                          ****END OF INPUT****
 Total Charge           Charge          ....    0
 Multiplicity           Mult            ....    1
 Number of Electrons    NEL             ....   56
 Basis Dimension        Dim             ....  163

MULLIKEN ATOMIC CHARGES
-----------------------
   0 C :    0.110383
   1 C :   -0.268507
   2 C :    0.123438
   3 N :   -0.132294
   4 C :   -0.272635
   5 C :    0.103910
   6 C :    0.122329
   7 H :    0.017365
   8 H :   -0.007290
   9 H :    0.021010
  10 H :    0.007894
  11 H :    0.015372
  12 H :    0.005725
  13 H :    0.087293
  14 H :   -0.010500
  15 H :    0.023374
  16 H :    0.022862
  17 H :    0.004601
  18 H :    0.013047
  19 H :    0.012622
Sum of atomic charges:   -0.0000000

LOEWDIN ATOMIC CHARGES
----------------------
   0 C :   -0.057488
   1 C :   -0.028749
   2 C :   -0.052927
   3 N :   -0.097752
   4 C :   -0.028188
   5 C :   -0.060029
   6 C :   -0.054220
   7 H :    0.029728
   8 H :    0.020160
   9 H :    0.032358
  10 H :    0.028034
  11 H :    0.027814
  12 H :    0.027691
  13 H :    0.045156
  14 H :    0.020263
  15 H :    0.030763
  16 H :    0.033030
  17 H :    0.027653
  18 H :    0.027962
  19 H :    0.028743

  Mayer bond orders larger than 0.1
B(  0-C ,  1-C ) :   1.0974 B(  0-C ,  7-H ) :   0.9459 B(  0-C ,  8-H ) :   0.9360
B(  0-C ,  9-H ) :   0.9495 B(  1-C ,  2-C ) :   1.0866 B(  1-C ,  3-N ) :   0.9667
B(  1-C ,  4-C ) :   0.9385 B(  2-C , 10-H ) :   0.9425 B(  2-C , 11-H ) :   0.9552
B(  2-C , 12-H ) :   0.9341 B(  3-N ,  4-C ) :   0.9671 B(  3-N , 13-H ) :   0.9410
B(  4-C ,  5-C ) :   1.1049 B(  4-C ,  6-C ) :   1.0942 B(  5-C , 14-H ) :   0.9306
B(  5-C , 15-H ) :   0.9462 B(  5-C , 16-H ) :   0.9475 B(  6-C , 17-H ) :   0.9312
B(  6-C , 18-H ) :   0.9515 B(  6-C , 19-H ) :   0.9432

FINAL SINGLE POINT ENERGY      -290.576479795995

DIPOLE MOMENT
-------------
                                X             Y             Z
Electronic contribution:      0.96549      -2.24476      -0.73251
Nuclear contribution   :     -1.42700       2.59726       0.56134
                        -----------------------------------------
Total Dipole Moment    :     -0.46151       0.35250      -0.17117
                        -----------------------------------------
Magnitude (a.u.)       :      0.60543
Magnitude (Debye)      :      1.53889

                             ****ORCA TERMINATED NORMALLY****
TOTAL RUN TIME: 0 days 0 hours 0 minutes 8 seconds 678 msec
