                         Program Version 3.0.3 - RELEASE   -
|  1> ! RI PBE def2-SVP def2-SVP/J NBO PAL2
|  2> % maxcore 2000
|  3> % output
|  4>     # printlevel mini
|  5>     print[ P_Basis ] 0
|  6>     print[ P_SCFInfo ] 1
|  7>     print[ P_SCFIterInfo ] 1
|  8>     print[ P_OrbEn ] 0
|  9>     print[ P_Cartesian ] 0
| 10> end
| 11> *xyz 0 1
| 12>  C        0.8077950000    -0.1894330000     0.2926630000
| 13>  C        2.3006280000    -0.0223950000     0.0778420000
| 14>  C        3.0072650000     1.0338440000     0.9546010000
| 15>  N        4.0721840000     0.0654090000     1.2445020000
| 16>  C        3.2127670000    -1.0444800000     0.8154600000
| 17>  C        2.6082030000     0.0300730000    -1.3860520000
| 18>  C        3.2926510000     0.9543380000    -2.0429620000
| 19>  H        0.5726800000    -0.2921680000     1.3547740000
| 20>  H        0.4357000000    -1.0796860000    -0.2232040000
| 21>  H        0.2597140000     0.6722990000    -0.0979280000
| 22>  H        2.3850780000     1.2979520000     1.8202180000
| 23>  H        3.3445740000     1.9575700000     0.4775500000
| 24>  H        4.3836390000     0.0303560000     2.2058260000
| 25>  H        2.6713330000    -1.5452390000     1.6296620000
| 26>  H        3.7139280000    -1.7986650000     0.2014820000
| 27>  H        2.2075470000    -0.8141060000    -1.9481930000
| 28>  H        3.7287170000     1.8155380000    -1.5498610000
| 29>  H        3.4514870000     0.8736930000    -3.1119890000
| 30> *
| 31>
| 32>                          ****END OF INPUT****
 Total Charge           Charge          ....    0
 Multiplicity           Mult            ....    1
 Number of Electrons    NEL             ....   54
 Basis Dimension        Dim             ....  153

MULLIKEN ATOMIC CHARGES
-----------------------
   0 C :    0.082198
   1 C :   -0.430298
   2 C :    0.232264
   3 N :   -0.272780
   4 C :    0.238381
   5 C :    0.024960
   6 C :   -0.029620
   7 H :    0.009386
   8 H :    0.017520
   9 H :    0.027452
  10 H :   -0.016599
  11 H :    0.003716
  12 H :    0.092627
  13 H :   -0.017624
  14 H :    0.005643
  15 H :   -0.004518
  16 H :    0.015154
  17 H :    0.022137
Sum of atomic charges:    0.0000000

LOEWDIN ATOMIC CHARGES
----------------------
   0 C :   -0.050661
   1 C :   -0.065291
   2 C :    0.038959
   3 N :   -0.108084
   4 C :    0.043483
   5 C :   -0.015234
   6 C :   -0.063091
   7 H :    0.021380
   8 H :    0.027273
   9 H :    0.030543
  10 H :    0.003832
  11 H :    0.006834
  12 H :    0.046258
  13 H :    0.001914
  14 H :    0.009659
  15 H :    0.024858
  16 H :    0.021692
  17 H :    0.025676

  Mayer bond orders larger than 0.1
B(  0-C ,  1-C ) :   1.0487 B(  0-C ,  7-H ) :   0.9453 B(  0-C ,  8-H ) :   0.9551
B(  0-C ,  9-H ) :   0.9591 B(  1-C ,  2-C ) :   1.0390 B(  1-C ,  4-C ) :   1.0095
B(  1-C ,  5-C ) :   0.9735 B(  2-C ,  3-N ) :   1.0570 B(  2-C , 10-H ) :   0.9161
B(  2-C , 11-H ) :   0.9201 B(  3-N ,  4-C ) :   1.0637 B(  3-N , 12-H ) :   0.9430
B(  4-C , 13-H ) :   0.9161 B(  4-C , 14-H ) :   0.9299 B(  5-C ,  6-C ) :   2.0353
B(  5-C , 15-H ) :   0.9478 B(  6-C , 16-H ) :   0.9316 B(  6-C , 17-H ) :   0.9375

FINAL SINGLE POINT ENERGY      -289.342178360143

DIPOLE MOMENT
-------------
                                X             Y             Z
Electronic contribution:      2.54774       0.03397      -0.03944
Nuclear contribution   :     -2.91152      -0.14083       0.42919
                        -----------------------------------------
Total Dipole Moment    :     -0.36378      -0.10687       0.38974
                        -----------------------------------------
Magnitude (a.u.)       :      0.54374
Magnitude (Debye)      :      1.38208

                             ****ORCA TERMINATED NORMALLY****
TOTAL RUN TIME: 0 days 0 hours 0 minutes 7 seconds 843 msec
