                         Program Version 3.0.3 - RELEASE   -
|  1> ! RI PBE def2-SVP def2-SVP/J NBO PAL2
|  2> % maxcore 2000
|  3> % output
|  4>     # printlevel mini
|  5>     print[ P_Basis ] 0
|  6>     print[ P_SCFInfo ] 1
|  7>     print[ P_SCFIterInfo ] 1
|  8>     print[ P_OrbEn ] 0
|  9>     print[ P_Cartesian ] 0
| 10> end
| 11> *xyz 0 1
| 12>  C        0.8041470000    -0.0200280000     0.2197400000
| 13>  C        2.3158190000    -0.0193940000     0.0693160000
| 14>  C        3.0997170000     1.0304600000     0.9077060000
| 15>  N        4.0353520000    -0.0191180000     1.3266280000
| 16>  C        3.1005740000    -1.0692110000     0.9070810000
| 17>  C        2.7000910000    -0.0188140000    -1.3308650000
| 18>  C        2.9969010000    -0.0192720000    -2.4948530000
| 19>  H        0.5264670000    -0.0204390000     1.2760740000
| 20>  H        0.3687530000    -0.9029740000    -0.2535260000
| 21>  H        0.3680800000     0.8628580000    -0.2530200000
| 22>  H        2.4684760000     1.4325040000     1.7110740000
| 23>  H        3.5551530000     1.8563970000     0.3571560000
| 24>  H        4.2848690000    -0.0193050000     2.3061830000
| 25>  H        2.4697470000    -1.4723650000     1.7102270000
| 26>  H        3.5566970000    -1.8943800000     0.3559390000
| 27>  H        3.2705670000    -0.0195280000    -3.5231680000
| 28> *
| 29>
| 30>                          ****END OF INPUT****
 Total Charge           Charge          ....    0
 Multiplicity           Mult            ....    1
 Number of Electrons    NEL             ....   52
 Basis Dimension        Dim             ....  143

MULLIKEN ATOMIC CHARGES
-----------------------
   0 C :    0.092122
   1 C :   -0.511410
   2 C :    0.254392
   3 N :   -0.272553
   4 C :    0.254394
   5 C :    0.558440
   6 C :   -0.548801
   7 H :    0.011368
   8 H :    0.032314
   9 H :    0.032317
  10 H :   -0.010902
  11 H :    0.015139
  12 H :    0.095431
  13 H :   -0.010886
  14 H :    0.015129
  15 H :   -0.006493
Sum of atomic charges:    0.0000000

LOEWDIN ATOMIC CHARGES
----------------------
   0 C :   -0.041321
   1 C :   -0.073836
   2 C :    0.051062
   3 N :   -0.106718
   4 C :    0.051084
   5 C :   -0.002372
   6 C :   -0.090706
   7 H :    0.022558
   8 H :    0.033845
   9 H :    0.033844
  10 H :    0.004778
  11 H :    0.015778
  12 H :    0.047850
  13 H :    0.004782
  14 H :    0.015782
  15 H :    0.033591

  Mayer bond orders larger than 0.1
B(  0-C ,  1-C ) :   1.0442 B(  0-C ,  7-H ) :   0.9455 B(  0-C ,  8-H ) :   0.9581
B(  0-C ,  9-H ) :   0.9581 B(  1-C ,  2-C ) :   1.0155 B(  1-C ,  4-C ) :   1.0155
B(  1-C ,  5-C ) :   0.9114 B(  2-C ,  3-N ) :   1.0628 B(  2-C , 10-H ) :   0.9184
B(  2-C , 11-H ) :   0.9279 B(  3-N ,  4-C ) :   1.0628 B(  3-N , 12-H ) :   0.9438
B(  4-C , 13-H ) :   0.9185 B(  4-C , 14-H ) :   0.9279 B(  5-C ,  6-C ) :   2.2329
B(  5-C , 15-H ) :  -0.1235 B(  6-C , 15-H ) :   1.1127

FINAL SINGLE POINT ENERGY      -288.099880358646

DIPOLE MOMENT
-------------
                                X             Y             Z
Electronic contribution:      2.90279       0.00222      -2.77774
Nuclear contribution   :     -3.30403      -0.00273       3.32270
                        -----------------------------------------
Total Dipole Moment    :     -0.40124      -0.00052       0.54497
                        -----------------------------------------
Magnitude (a.u.)       :      0.67675
Magnitude (Debye)      :      1.72016

                             ****ORCA TERMINATED NORMALLY****
TOTAL RUN TIME: 0 days 0 hours 0 minutes 7 seconds 515 msec
