                         Program Version 3.0.3 - RELEASE   -
|  1> ! RI PBE def2-SVP def2-SVP/J NBO PAL2
|  2> % maxcore 2000
|  3> % output
|  4>     # printlevel mini
|  5>     print[ P_Basis ] 0
|  6>     print[ P_SCFInfo ] 1
|  7>     print[ P_SCFIterInfo ] 1
|  8>     print[ P_OrbEn ] 0
|  9>     print[ P_Cartesian ] 0
| 10> end
| 11> *xyz 0 1
| 12>  C        0.9833210000     0.1269990000     0.0813900000
| 13>  C        2.4845780000     0.0970290000     0.0638940000
| 14>  C        3.2466270000    -0.6759240000    -0.9993310000
| 15>  N        2.6249720000    -1.3789850000    -2.0797240000
| 16>  C        3.3107400000     0.8250810000    -0.9698660000
| 17>  C        2.6300710000     1.6334410000    -2.0448480000
| 18>  C        4.6071800000     1.4390940000    -0.5056880000
| 19>  H        0.5925550000    -0.6334860000     0.7633590000
| 20>  H        0.5567890000    -0.0768000000    -0.9027350000
| 21>  H        0.5995180000     1.0954750000     0.4142570000
| 22>  H        2.9341330000     0.0691480000     1.0531820000
| 23>  H        4.1476780000    -1.1728200000    -0.6483380000
| 24>  H        2.1212630000    -0.7675390000    -2.7050100000
| 25>  H        1.9870750000    -2.0934490000    -1.7536200000
| 26>  H        1.6501630000     1.2459510000    -2.3271560000
| 27>  H        3.2479120000     1.6793980000    -2.9472150000
| 28>  H        2.4757230000     2.6608560000    -1.7018160000
| 29>  H        5.0842020000     0.8252930000     0.2616570000
| 30>  H        4.4398040000     2.4344370000    -0.0815020000
| 31>  H        5.3125750000     1.5436020000    -1.3362700000
| 32> *
| 33>
| 34>                          ****END OF INPUT****
 Total Charge           Charge          ....    0
 Multiplicity           Mult            ....    1
 Number of Electrons    NEL             ....   56
 Basis Dimension        Dim             ....  163

MULLIKEN ATOMIC CHARGES
-----------------------
   0 C :    0.094396
   1 C :   -0.113972
   2 C :   -0.023434
   3 N :   -0.113518
   4 C :   -0.289910
   5 C :    0.096797
   6 C :    0.085024
   7 H :    0.019646
   8 H :   -0.024313
   9 H :    0.018955
  10 H :    0.001453
  11 H :    0.004188
  12 H :    0.072857
  13 H :    0.096812
  14 H :   -0.004277
  15 H :    0.024148
  16 H :    0.017396
  17 H :    0.009223
  18 H :    0.011051
  19 H :    0.017479
Sum of atomic charges:    0.0000000

LOEWDIN ATOMIC CHARGES
----------------------
   0 C :   -0.060278
   1 C :   -0.063349
   2 C :   -0.002867
   3 N :   -0.078186
   4 C :   -0.066184
   5 C :   -0.050147
   6 C :   -0.046250
   7 H :    0.030048
   8 H :    0.012168
   9 H :    0.028872
  10 H :    0.021052
  11 H :    0.014572
  12 H :    0.046781
  13 H :    0.054794
  14 H :    0.019380
  15 H :    0.030212
  16 H :    0.032044
  17 H :    0.025455
  18 H :    0.024745
  19 H :    0.027139

  Mayer bond orders larger than 0.1
B(  0-C ,  1-C ) :   1.1188 B(  0-C ,  7-H ) :   0.9530 B(  0-C ,  8-H ) :   0.9302
B(  0-C ,  9-H ) :   0.9565 B(  1-C ,  2-C ) :   0.8906 B(  1-C ,  4-C ) :   0.9196
B(  1-C , 10-H ) :   0.9252 B(  2-C ,  3-N ) :   1.1935 B(  2-C ,  4-C ) :   0.9222
B(  2-C , 11-H ) :   0.9363 B(  3-N , 12-H ) :   0.9635 B(  3-N , 13-H ) :   0.9660
B(  4-C ,  5-C ) :   1.1121 B(  4-C ,  6-C ) :   1.0988 B(  5-C , 14-H ) :   0.9305
B(  5-C , 15-H ) :   0.9543 B(  5-C , 16-H ) :   0.9466 B(  6-C , 17-H ) :   0.9421
B(  6-C , 18-H ) :   0.9529 B(  6-C , 19-H ) :   0.9549

FINAL SINGLE POINT ENERGY      -290.573982344754

DIPOLE MOMENT
-------------
                                X             Y             Z
Electronic contribution:      1.01541      -2.63871      -0.23437
Nuclear contribution   :     -1.40101       2.82148       0.33908
                        -----------------------------------------
Total Dipole Moment    :     -0.38560       0.18278       0.10470
                        -----------------------------------------
Magnitude (a.u.)       :      0.43938
Magnitude (Debye)      :      1.11681

                             ****ORCA TERMINATED NORMALLY****
TOTAL RUN TIME: 0 days 0 hours 0 minutes 9 seconds 50 msec
