                         Program Version 3.0.3 - RELEASE   -
|  1> ! RI PBE def2-SVP def2-SVP/J NBO PAL2
|  2> % maxcore 2000
|  3> % output
|  4>     # printlevel mini
|  5>     print[ P_Basis ] 0
|  6>     print[ P_SCFInfo ] 1
|  7>     print[ P_SCFIterInfo ] 1
|  8>     print[ P_OrbEn ] 0
|  9>     print[ P_Cartesian ] 0
| 10> end
| 11> *xyz 0 1
| 12>  C        0.9954850000    -0.1259150000     0.1833160000
| 13>  C        2.4704590000    -0.0318400000    -0.0712140000
| 14>  C        3.1117730000    -0.6405930000    -1.2981540000
| 15>  N        2.3933780000    -1.3211700000    -2.3338980000
| 16>  C        3.0155920000     0.8424150000    -1.1839230000
| 17>  C        4.1809880000     1.7225610000    -0.9662880000
| 18>  C        5.4576010000     1.3869070000    -1.1004030000
| 19>  H        0.7494340000    -1.0307840000     0.7470810000
| 20>  H        0.4284970000    -0.1580650000    -0.7501440000
| 21>  H        0.6339710000     0.7301790000     0.7591170000
| 22>  H        3.0934220000    -0.0591350000     0.8184310000
| 23>  H        4.0975250000    -1.0629390000    -1.1316990000
| 24>  H        1.6634600000    -0.7466210000    -2.7304790000
| 25>  H        1.9698380000    -2.1761790000    -1.9954440000
| 26>  H        2.2315880000     1.2925560000    -1.7917180000
| 27>  H        3.9394600000     2.7369870000    -0.6522690000
| 28>  H        5.7586310000     0.3962440000    -1.4239290000
| 29>  H        6.2485970000     2.0984010000    -0.8950720000
| 30> *
| 31>
| 32>                          ****END OF INPUT****
 Total Charge           Charge          ....    0
 Multiplicity           Mult            ....    1
 Number of Electrons    NEL             ....   54
 Basis Dimension        Dim             ....  153

MULLIKEN ATOMIC CHARGES
-----------------------
   0 C :    0.071544
   1 C :   -0.107498
   2 C :   -0.051494
   3 N :   -0.109718
   4 C :   -0.060514
   5 C :    0.002983
   6 C :   -0.039911
   7 H :    0.024381
   8 H :   -0.015352
   9 H :    0.026474
  10 H :    0.014515
  11 H :    0.017544
  12 H :    0.081063
  13 H :    0.095692
  14 H :    0.016531
  15 H :   -0.004708
  16 H :    0.015936
  17 H :    0.022533
Sum of atomic charges:    0.0000000

LOEWDIN ATOMIC CHARGES
----------------------
   0 C :   -0.062249
   1 C :   -0.050900
   2 C :    0.000756
   3 N :   -0.077363
   4 C :   -0.048650
   5 C :   -0.023725
   6 C :   -0.068570
   7 H :    0.029712
   8 H :    0.016504
   9 H :    0.031580
  10 H :    0.025464
  11 H :    0.020585
  12 H :    0.049266
  13 H :    0.055854
  14 H :    0.030063
  15 H :    0.026876
  16 H :    0.020586
  17 H :    0.024210

  Mayer bond orders larger than 0.1
B(  0-C ,  1-C ) :   1.1006 B(  0-C ,  7-H ) :   0.9562 B(  0-C ,  8-H ) :   0.9387
B(  0-C ,  9-H ) :   0.9588 B(  1-C ,  2-C ) :   0.8988 B(  1-C ,  4-C ) :   0.9138
B(  1-C , 10-H ) :   0.9321 B(  2-C ,  3-N ) :   1.1915 B(  2-C ,  4-C ) :   0.9480
B(  2-C , 11-H ) :   0.9303 B(  3-N , 12-H ) :   0.9617 B(  3-N , 13-H ) :   0.9670
B(  4-C ,  5-C ) :   1.0759 B(  4-C , 14-H ) :   0.9243 B(  5-C ,  6-C ) :   1.9931
B(  5-C , 15-H ) :   0.9536 B(  6-C , 16-H ) :   0.9348 B(  6-C , 17-H ) :   0.9414

FINAL SINGLE POINT ENERGY      -289.350163071036

DIPOLE MOMENT
-------------
                                X             Y             Z
Electronic contribution:      1.93561       0.34154      -1.33852
Nuclear contribution   :     -2.48912      -0.38665       1.60652
                        -----------------------------------------
Total Dipole Moment    :     -0.55351      -0.04511       0.26799
                        -----------------------------------------
Magnitude (a.u.)       :      0.61663
Magnitude (Debye)      :      1.56735

                             ****ORCA TERMINATED NORMALLY****
TOTAL RUN TIME: 0 days 0 hours 0 minutes 7 seconds 953 msec
