                         Program Version 3.0.3 - RELEASE   -
|  1> ! RI PBE def2-SVP def2-SVP/J NBO PAL2
|  2> % maxcore 2000
|  3> % output
|  4>     # printlevel mini
|  5>     print[ P_Basis ] 0
|  6>     print[ P_SCFInfo ] 1
|  7>     print[ P_SCFIterInfo ] 1
|  8>     print[ P_OrbEn ] 0
|  9>     print[ P_Cartesian ] 0
| 10> end
| 11> *xyz 0 1
| 12>  C        1.0535620000     0.0579730000    -0.0541680000
| 13>  C        2.5510550000    -0.0167970000    -0.0631180000
| 14>  C        3.3092340000    -0.8041660000    -1.0969660000
| 15>  N        2.7124490000    -1.5234180000    -2.1794030000
| 16>  C        3.3388700000     0.6995290000    -1.1463140000
| 17>  C        4.5300550000     1.4256700000    -0.8342130000
| 18>  C        5.5302730000     2.0326820000    -0.5581980000
| 19>  H        0.6248380000    -0.7601010000     0.5317360000
| 20>  H        0.6377990000    -0.0085760000    -1.0622980000
| 21>  H        0.7074740000     0.9975930000     0.3831840000
| 22>  H        3.0191040000     0.0146210000     0.9156220000
| 23>  H        4.2290830000    -1.2605500000    -0.7466920000
| 24>  H        2.0358170000    -0.9654820000    -2.6812450000
| 25>  H        2.2446460000    -2.3599690000    -1.8521950000
| 26>  H        2.7316240000     1.1417940000    -1.9327440000
| 27>  H        6.4173060000     2.5689870000    -0.3185870000
| 28> *
| 29>
| 30>                          ****END OF INPUT****
 Total Charge           Charge          ....    0
 Multiplicity           Mult            ....    1
 Number of Electrons    NEL             ....   52
 Basis Dimension        Dim             ....  143

MULLIKEN ATOMIC CHARGES
-----------------------
   0 C :    0.075419
   1 C :   -0.095248
   2 C :   -0.017509
   3 N :   -0.109660
   4 C :   -0.141599
   5 C :    0.458827
   6 C :   -0.481656
   7 H :    0.027906
   8 H :   -0.013641
   9 H :    0.030475
  10 H :    0.022150
  11 H :    0.025684
  12 H :    0.082170
  13 H :    0.098795
  14 H :    0.041858
  15 H :   -0.003970
Sum of atomic charges:   -0.0000000

LOEWDIN ATOMIC CHARGES
----------------------
   0 C :   -0.057499
   1 C :   -0.044900
   2 C :    0.015969
   3 N :   -0.074810
   4 C :   -0.055686
   5 C :   -0.015053
   6 C :   -0.095699
   7 H :    0.031614
   8 H :    0.017355
   9 H :    0.034565
  10 H :    0.031300
  11 H :    0.028378
  12 H :    0.050397
  13 H :    0.059067
  14 H :    0.042381
  15 H :    0.032620

  Mayer bond orders larger than 0.1
B(  0-C ,  1-C ) :   1.1002 B(  0-C ,  7-H ) :   0.9570 B(  0-C ,  8-H ) :   0.9411
B(  0-C ,  9-H ) :   0.9577 B(  1-C ,  2-C ) :   0.8899 B(  1-C ,  4-C ) :   0.9031
B(  1-C , 10-H ) :   0.9309 B(  2-C ,  3-N ) :   1.1823 B(  2-C ,  4-C ) :   0.9250
B(  2-C , 11-H ) :   0.9396 B(  3-N , 12-H ) :   0.9595 B(  3-N , 13-H ) :   0.9655
B(  4-C ,  5-C ) :   1.0478 B(  4-C , 14-H ) :   0.9152 B(  5-C ,  6-C ) :   2.2620
B(  5-C , 15-H ) :  -0.1067 B(  6-C , 15-H ) :   1.0971

FINAL SINGLE POINT ENERGY      -288.108680704073

DIPOLE MOMENT
-------------
                                X             Y             Z
Electronic contribution:      5.06191       2.00745      -0.77290
Nuclear contribution   :     -5.80467      -2.27057       0.96210
                        -----------------------------------------
Total Dipole Moment    :     -0.74275      -0.26312       0.18920
                        -----------------------------------------
Magnitude (a.u.)       :      0.81038
Magnitude (Debye)      :      2.05981

                             ****ORCA TERMINATED NORMALLY****
TOTAL RUN TIME: 0 days 0 hours 0 minutes 7 seconds 119 msec
