                         Program Version 3.0.3 - RELEASE   -
|  1> ! RI PBE def2-SVP def2-SVP/J NBO PAL2
|  2> % maxcore 2000
|  3> % output
|  4>     # printlevel mini
|  5>     print[ P_Basis ] 0
|  6>     print[ P_SCFInfo ] 1
|  7>     print[ P_SCFIterInfo ] 1
|  8>     print[ P_OrbEn ] 0
|  9>     print[ P_Cartesian ] 0
| 10> end
| 11> *xyz 0 1
| 12>  C        0.8420120000    -0.0709970000    -0.0249800000
| 13>  C        2.3484440000    -0.1102690000     0.0398570000
| 14>  C        3.1028720000     0.9085300000     0.9047310000
| 15>  N        4.0581500000    -0.1476130000     1.2699560000
| 16>  C        3.0933860000    -1.2002660000     0.8649680000
| 17>  C        2.2906540000    -1.7464820000     2.0351680000
| 18>  C        3.7249720000    -2.3239980000     0.0712900000
| 19>  H        0.5031300000     0.8285520000    -0.5467090000
| 20>  H        0.3892000000    -0.0640710000     0.9692600000
| 21>  H        0.4430380000    -0.9317230000    -0.5693530000
| 22>  H        2.7637610000    -0.1055780000    -0.9720170000
| 23>  H        2.4837140000     1.2708400000     1.7376270000
| 24>  H        3.5468180000     1.7722490000     0.4018760000
| 25>  H        4.3281740000    -0.1709100000     2.2464070000
| 26>  H        1.8422640000    -0.9451630000     2.6278680000
| 27>  H        2.9440310000    -2.3278820000     2.6930430000
| 28>  H        1.4870580000    -2.4081580000     1.6999780000
| 29>  H        4.3350180000    -1.9188400000    -0.7378360000
| 30>  H        2.9601160000    -2.9790310000    -0.3572570000
| 31>  H        4.3710180000    -2.9357890000     0.7082430000
| 32> *
| 33>
| 34>                          ****END OF INPUT****
 Total Charge           Charge          ....    0
 Multiplicity           Mult            ....    1
 Number of Electrons    NEL             ....   56
 Basis Dimension        Dim             ....  163

MULLIKEN ATOMIC CHARGES
-----------------------
   0 C :    0.074203
   1 C :   -0.143661
   2 C :    0.169249
   3 N :   -0.202357
   4 C :   -0.280523
   5 C :    0.089861
   6 C :    0.112967
   7 H :    0.021261
   8 H :    0.005653
   9 H :    0.020272
  10 H :   -0.002804
  11 H :   -0.009697
  12 H :    0.001388
  13 H :    0.080803
  14 H :    0.004332
  15 H :    0.017175
  16 H :    0.016161
  17 H :    0.008913
  18 H :    0.007577
  19 H :    0.009225
Sum of atomic charges:   -0.0000000

LOEWDIN ATOMIC CHARGES
----------------------
   0 C :   -0.064216
   1 C :   -0.036513
   2 C :    0.028564
   3 N :   -0.098811
   4 C :   -0.011274
   5 C :   -0.064793
   6 C :   -0.061961
   7 H :    0.030777
   8 H :    0.022374
   9 H :    0.028736
  10 H :    0.025842
  11 H :    0.000074
  12 H :    0.009571
  13 H :    0.040440
  14 H :    0.021787
  15 H :    0.026714
  16 H :    0.027838
  17 H :    0.024373
  18 H :    0.025090
  19 H :    0.025389

  Mayer bond orders larger than 0.1
B(  0-C ,  1-C ) :   1.1159 B(  0-C ,  7-H ) :   0.9529 B(  0-C ,  8-H ) :   0.9400
B(  0-C ,  9-H ) :   0.9563 B(  1-C ,  2-C ) :   1.0780 B(  1-C ,  4-C ) :   0.9994
B(  1-C , 10-H ) :   0.8827 B(  2-C ,  3-N ) :   1.0600 B(  2-C , 11-H ) :   0.9230
B(  2-C , 12-H ) :   0.9271 B(  3-N ,  4-C ) :   1.0526 B(  3-N , 13-H ) :   0.9383
B(  4-C ,  5-C ) :   1.0696 B(  4-C ,  6-C ) :   1.0686 B(  5-C , 14-H ) :   0.9414
B(  5-C , 15-H ) :   0.9475 B(  5-C , 16-H ) :   0.9398 B(  6-C , 17-H ) :   0.9389
B(  6-C , 18-H ) :   0.9515 B(  6-C , 19-H ) :   0.9507

FINAL SINGLE POINT ENERGY      -290.576113249467

DIPOLE MOMENT
-------------
                                X             Y             Z
Electronic contribution:      2.96643       1.87029       0.11499
Nuclear contribution   :     -3.35469      -1.91942       0.12975
                        -----------------------------------------
Total Dipole Moment    :     -0.38826      -0.04913       0.24475
                        -----------------------------------------
Magnitude (a.u.)       :      0.46159
Magnitude (Debye)      :      1.17326

                             ****ORCA TERMINATED NORMALLY****
TOTAL RUN TIME: 0 days 0 hours 0 minutes 9 seconds 54 msec
