                         Program Version 3.0.3 - RELEASE   -
|  1> ! RI PBE def2-SVP def2-SVP/J NBO PAL2
|  2> % maxcore 2000
|  3> % output
|  4>     # printlevel mini
|  5>     print[ P_Basis ] 0
|  6>     print[ P_SCFInfo ] 1
|  7>     print[ P_SCFIterInfo ] 1
|  8>     print[ P_OrbEn ] 0
|  9>     print[ P_Cartesian ] 0
| 10> end
| 11> *xyz 0 1
| 12>  C        1.0536730000    -0.1927360000     0.1069260000
| 13>  C        2.5467170000    -0.0009180000     0.0515950000
| 14>  C        3.2070510000     1.1503960000     0.8272770000
| 15>  N        4.3134390000     0.2412140000     1.1591630000
| 16>  C        3.4565210000    -0.9291250000     0.8965460000
| 17>  C        4.1161830000    -2.0860760000     0.2402280000
| 18>  C        3.9353420000    -3.3529460000     0.5893190000
| 19>  H        0.5323210000     0.6015960000    -0.4344270000
| 20>  H        0.6921660000    -0.1866830000     1.1389990000
| 21>  H        0.7632820000    -1.1453830000    -0.3445800000
| 22>  H        2.9006030000     0.0001830000    -0.9831700000
| 23>  H        2.5955720000     1.4497690000     1.6906900000
| 24>  H        3.4974310000     2.0464560000     0.2722200000
| 25>  H        4.6879470000     0.3090340000     2.0969630000
| 26>  H        2.9035610000    -1.2719890000     1.7855050000
| 27>  H        4.7766840000    -1.8339230000    -0.5871530000
| 28>  H        3.2912900000    -3.6218690000     1.4215300000
| 29>  H        4.4191980000    -4.1661000000     0.0606660000
| 30> *
| 31>
| 32>                          ****END OF INPUT****
 Total Charge           Charge          ....    0
 Multiplicity           Mult            ....    1
 Number of Electrons    NEL             ....   54
 Basis Dimension        Dim             ....  153

MULLIKEN ATOMIC CHARGES
-----------------------
   0 C :    0.066491
   1 C :   -0.177922
   2 C :    0.178985
   3 N :   -0.247137
   4 C :    0.029720
   5 C :    0.027629
   6 C :   -0.022219
   7 H :    0.025146
   8 H :    0.007843
   9 H :    0.023022
  10 H :    0.006124
  11 H :   -0.013650
  12 H :    0.006483
  13 H :    0.092438
  14 H :   -0.029670
  15 H :   -0.008799
  16 H :    0.015350
  17 H :    0.020166
Sum of atomic charges:   -0.0000000

LOEWDIN ATOMIC CHARGES
----------------------
   0 C :   -0.062953
   1 C :   -0.033759
   2 C :    0.029461
   3 N :   -0.102109
   4 C :    0.017491
   5 C :   -0.034434
   6 C :   -0.059464
   7 H :    0.030472
   8 H :    0.021752
   9 H :    0.031152
  10 H :    0.027267
  11 H :    0.002146
  12 H :    0.009218
  13 H :    0.046049
  14 H :    0.006460
  15 H :    0.026170
  16 H :    0.020375
  17 H :    0.024706

  Mayer bond orders larger than 0.1
B(  0-C ,  1-C ) :   1.0942 B(  0-C ,  7-H ) :   0.9572 B(  0-C ,  8-H ) :   0.9518
B(  0-C ,  9-H ) :   0.9563 B(  1-C ,  2-C ) :   1.0673 B(  1-C ,  4-C ) :   1.0047
B(  1-C , 10-H ) :   0.8839 B(  2-C ,  3-N ) :   1.0483 B(  2-C , 11-H ) :   0.9205
B(  2-C , 12-H ) :   0.9351 B(  3-N ,  4-C ) :   1.0021 B(  3-N , 13-H ) :   0.9388
B(  4-C ,  5-C ) :   1.0674 B(  4-C , 14-H ) :   0.9069 B(  5-C ,  6-C ) :   1.9724
B(  5-C , 15-H ) :   0.9415 B(  6-C , 16-H ) :   0.9481 B(  6-C , 17-H ) :   0.9325

FINAL SINGLE POINT ENERGY      -289.349993421369

DIPOLE MOMENT
-------------
                                X             Y             Z
Electronic contribution:      3.61884       0.01048       0.34394
Nuclear contribution   :     -3.96278       0.05159      -0.09685
                        -----------------------------------------
Total Dipole Moment    :     -0.34394       0.06208       0.24709
                        -----------------------------------------
Magnitude (a.u.)       :      0.42801
Magnitude (Debye)      :      1.08793

                             ****ORCA TERMINATED NORMALLY****
TOTAL RUN TIME: 0 days 0 hours 0 minutes 7 seconds 663 msec
