                         Program Version 3.0.3 - RELEASE   -
|  1> ! RI PBE def2-SVP def2-SVP/J NBO PAL2
|  2> % maxcore 2000
|  3> % output
|  4>     # printlevel mini
|  5>     print[ P_Basis ] 0
|  6>     print[ P_SCFInfo ] 1
|  7>     print[ P_SCFIterInfo ] 1
|  8>     print[ P_OrbEn ] 0
|  9>     print[ P_Cartesian ] 0
| 10> end
| 11> *xyz 0 1
| 12>  C        0.9043120000     0.0831460000     0.0358010000
| 13>  C        2.4095330000     0.1158470000     0.0575660000
| 14>  C        3.1485810000     1.1424660000     0.9312500000
| 15>  N        4.1371110000     0.1043490000     1.2613610000
| 16>  C        3.1710150000    -0.9461900000     0.8920180000
| 17>  C        3.6998350000    -2.1249780000     0.2332920000
| 18>  C        4.1141770000    -3.1068410000    -0.3206360000
| 19>  H        0.5000270000     0.9597070000    -0.4776350000
| 20>  H        0.4925390000     0.0700110000     1.0488160000
| 21>  H        0.5389380000    -0.8038660000    -0.4883890000
| 22>  H        2.8187570000     0.1257120000    -0.9546980000
| 23>  H        2.5280340000     1.4607340000     1.7811150000
| 24>  H        3.5623060000     2.0274860000     0.4419810000
| 25>  H        4.4577270000     0.0766220000     2.2209210000
| 26>  H        2.5386110000    -1.2655960000     1.7352820000
| 27>  H        4.4914980000    -3.9719190000    -0.8124430000
| 28> *
| 29>
| 30>                          ****END OF INPUT****
 Total Charge           Charge          ....    0
 Multiplicity           Mult            ....    1
 Number of Electrons    NEL             ....   52
 Basis Dimension        Dim             ....  143

MULLIKEN ATOMIC CHARGES
-----------------------
   0 C :    0.063774
   1 C :   -0.189891
   2 C :    0.186302
   3 N :   -0.239197
   4 C :    0.026545
   5 C :    0.486671
   6 C :   -0.527405
   7 H :    0.027798
   8 H :    0.009110
   9 H :    0.030696
  10 H :    0.019399
  11 H :   -0.011725
  12 H :    0.011320
  13 H :    0.097126
  14 H :    0.009729
  15 H :   -0.000251
Sum of atomic charges:   -0.0000000

LOEWDIN ATOMIC CHARGES
----------------------
   0 C :   -0.062529
   1 C :   -0.025671
   2 C :    0.030237
   3 N :   -0.093053
   4 C :    0.008212
   5 C :   -0.023013
   6 C :   -0.078689
   7 H :    0.032185
   8 H :    0.022489
   9 H :    0.033769
  10 H :    0.033398
  11 H :    0.003516
  12 H :    0.012348
  13 H :    0.048658
  14 H :    0.023992
  15 H :    0.034149

  Mayer bond orders larger than 0.1
B(  0-C ,  1-C ) :   1.0898 B(  0-C ,  7-H ) :   0.9573 B(  0-C ,  8-H ) :   0.9506
B(  0-C ,  9-H ) :   0.9578 B(  1-C ,  2-C ) :   1.0686 B(  1-C ,  4-C ) :   1.0138
B(  1-C , 10-H ) :   0.8876 B(  2-C ,  3-N ) :   1.0466 B(  2-C , 11-H ) :   0.9196
B(  2-C , 12-H ) :   0.9361 B(  3-N ,  4-C ) :   1.0543 B(  3-N , 13-H ) :   0.9344
B(  4-C ,  5-C ) :   0.9681 B(  4-C , 14-H ) :   0.8722 B(  5-C ,  6-C ) :   2.2701
B(  5-C , 15-H ) :  -0.1096 B(  6-C , 15-H ) :   1.0986

FINAL SINGLE POINT ENERGY      -288.103517697647

DIPOLE MOMENT
-------------
                                X             Y             Z
Electronic contribution:      4.66489      -3.70535       0.00079
Nuclear contribution   :     -5.12284       3.90829       0.30157
                        -----------------------------------------
Total Dipole Moment    :     -0.45795       0.20294       0.30236
                        -----------------------------------------
Magnitude (a.u.)       :      0.58508
Magnitude (Debye)      :      1.48716

                             ****ORCA TERMINATED NORMALLY****
TOTAL RUN TIME: 0 days 0 hours 0 minutes 7 seconds 167 msec
