                         Program Version 3.0.3 - RELEASE   -
|  1> ! RI PBE def2-SVP def2-SVP/J NBO PAL2
|  2> % maxcore 2000
|  3> % output
|  4>     # printlevel mini
|  5>     print[ P_Basis ] 0
|  6>     print[ P_SCFInfo ] 1
|  7>     print[ P_SCFIterInfo ] 1
|  8>     print[ P_OrbEn ] 0
|  9>     print[ P_Cartesian ] 0
| 10> end
| 11> *xyz 0 1
| 12>  C        0.8680070000    -0.0901190000     0.0343650000
| 13>  C        2.3750760000    -0.1053650000     0.0019450000
| 14>  C        3.1569330000     0.9606030000     0.7900860000
| 15>  N        4.1156260000    -0.0798060000     1.1979800000
| 16>  C        3.1424810000    -1.1307350000     0.8593830000
| 17>  C        3.7301070000    -2.3542990000     0.1973650000
| 18>  N        2.6695480000    -3.2550260000    -0.2304280000
| 19>  H        0.4683570000     0.7736100000    -0.5050780000
| 20>  H        0.4965230000    -0.0398120000     1.0623130000
| 21>  H        0.4642640000    -0.9935760000    -0.4282810000
| 22>  H        2.7355150000    -0.1588220000    -1.0292450000
| 23>  H        2.5551860000     1.3639550000     1.6166010000
| 24>  H        3.5960510000     1.7942680000     0.2349730000
| 25>  H        4.4135340000    -0.0476070000     2.1643260000
| 26>  H        2.5221810000    -1.4389950000     1.7189230000
| 27>  H        4.4627150000    -2.8109870000     0.8834850000
| 28>  H        4.2889260000    -2.0268850000    -0.6839640000
| 29>  H        2.2054890000    -3.6644480000     0.5717040000
| 30>  H        3.0464520000    -4.0211560000    -0.7729620000
| 31> *
| 32>
| 33>                          ****END OF INPUT****
 Total Charge           Charge          ....    0
 Multiplicity           Mult            ....    1
 Number of Electrons    NEL             ....   56
 Basis Dimension        Dim             ....  158

MULLIKEN ATOMIC CHARGES
-----------------------
   0 C :    0.067479
   1 C :   -0.178591
   2 C :    0.179942
   3 N :   -0.253158
   4 C :   -0.013949
   5 C :    0.165707
   6 N :   -0.213317
   7 H :    0.016554
   8 H :   -0.000223
   9 H :    0.024592
  10 H :    0.002367
  11 H :   -0.016205
  12 H :    0.003856
  13 H :    0.090749
  14 H :   -0.028347
  15 H :   -0.012950
  16 H :   -0.011286
  17 H :    0.086011
  18 H :    0.090768
Sum of atomic charges:    0.0000000

LOEWDIN ATOMIC CHARGES
----------------------
   0 C :   -0.063283
   1 C :   -0.035884
   2 C :    0.029722
   3 N :   -0.105086
   4 C :    0.012966
   5 C :   -0.002209
   6 N :   -0.110618
   7 H :    0.026647
   8 H :    0.018200
   9 H :    0.029728
  10 H :    0.027439
  11 H :    0.001418
  12 H :    0.008066
  13 H :    0.044218
  14 H :   -0.001444
  15 H :   -0.001836
  16 H :    0.018813
  17 H :    0.049352
  18 H :    0.053790

  Mayer bond orders larger than 0.1
B(  0-C ,  1-C ) :   1.0918 B(  0-C ,  7-H ) :   0.9562 B(  0-C ,  8-H ) :   0.9506
B(  0-C ,  9-H ) :   0.9549 B(  1-C ,  2-C ) :   1.0785 B(  1-C ,  4-C ) :   1.0276
B(  1-C , 10-H ) :   0.8790 B(  2-C ,  3-N ) :   1.0547 B(  2-C , 11-H ) :   0.9222
B(  2-C , 12-H ) :   0.9340 B(  3-N ,  4-C ) :   1.0492 B(  3-N , 13-H ) :   0.9386
B(  4-C ,  5-C ) :   1.0559 B(  4-C , 14-H ) :   0.9012 B(  5-C ,  6-N ) :   1.0917
B(  5-C , 15-H ) :   0.9205 B(  5-C , 16-H ) :   0.9021 B(  6-N , 17-H ) :   0.9668
B(  6-N , 18-H ) :   0.9637

FINAL SINGLE POINT ENERGY      -306.587166642011

DIPOLE MOMENT
-------------
                                X             Y             Z
Electronic contribution:      2.72905      -0.01986       0.52253
Nuclear contribution   :     -2.81214      -0.38322      -0.07816
                        -----------------------------------------
Total Dipole Moment    :     -0.08310      -0.40308       0.44437
                        -----------------------------------------
Magnitude (a.u.)       :      0.60568
Magnitude (Debye)      :      1.53951

                             ****ORCA TERMINATED NORMALLY****
TOTAL RUN TIME: 0 days 0 hours 0 minutes 8 seconds 378 msec
