                         Program Version 3.0.3 - RELEASE   -
|  1> ! RI PBE def2-SVP def2-SVP/J NBO PAL2
|  2> % maxcore 2000
|  3> % output
|  4>     # printlevel mini
|  5>     print[ P_Basis ] 0
|  6>     print[ P_SCFInfo ] 1
|  7>     print[ P_SCFIterInfo ] 1
|  8>     print[ P_OrbEn ] 0
|  9>     print[ P_Cartesian ] 0
| 10> end
| 11> *xyz 0 1
| 12>  C        1.7851540000     1.1528500000     0.9013890000
| 13>  C        2.7513900000     0.1354340000     0.3599040000
| 14>  C        2.2028430000    -1.2657240000     0.3003120000
| 15>  N        4.1470000000     0.3035650000     0.7797620000
| 16>  C        3.7936940000     0.5018300000    -0.6252440000
| 17>  C        3.9906460000     1.8765090000    -1.1942300000
| 18>  N        3.1294760000     2.0766510000    -2.3526780000
| 19>  H        0.9267680000     1.2634130000     0.2342110000
| 20>  H        2.2567900000     2.1266920000     1.0233310000
| 21>  H        1.4187450000     0.8371920000     1.8827620000
| 22>  H        1.2960840000    -1.3038120000    -0.3094760000
| 23>  H        1.9442380000    -1.6237070000     1.3019320000
| 24>  H        2.9286870000    -1.9589280000    -0.1334280000
| 25>  H        4.5920490000    -0.5981160000     0.9148240000
| 26>  H        4.0681240000    -0.2977760000    -1.3150340000
| 27>  H        5.0640110000     2.0090690000    -1.4065740000
| 28>  H        3.7338640000     2.6180250000    -0.4358270000
| 29>  H        3.3762600000     1.4287440000    -3.0917820000
| 30>  H        3.2572740000     3.0070970000    -2.7302540000
| 31> *
| 32>
| 33>                          ****END OF INPUT****
 Total Charge           Charge          ....    0
 Multiplicity           Mult            ....    1
 Number of Electrons    NEL             ....   56
 Basis Dimension        Dim             ....  158

MULLIKEN ATOMIC CHARGES
-----------------------
   0 C :    0.141261
   1 C :   -0.292216
   2 C :    0.094919
   3 N :   -0.151994
   4 C :   -0.079358
   5 C :    0.203449
   6 N :   -0.219126
   7 H :    0.020854
   8 H :    0.002201
   9 H :    0.003862
  10 H :    0.026376
  11 H :    0.019509
  12 H :   -0.004441
  13 H :    0.093738
  14 H :   -0.003670
  15 H :   -0.010158
  16 H :   -0.014823
  17 H :    0.083008
  18 H :    0.086609
Sum of atomic charges:    0.0000000

LOEWDIN ATOMIC CHARGES
----------------------
   0 C :   -0.049349
   1 C :   -0.028020
   2 C :   -0.057170
   3 N :   -0.099037
   4 C :   -0.007722
   5 C :    0.004523
   6 N :   -0.113623
   7 H :    0.031482
   8 H :    0.028078
   9 H :    0.026538
  10 H :    0.033706
  11 H :    0.027863
  12 H :    0.022142
  13 H :    0.048945
  14 H :    0.007896
  15 H :    0.002450
  16 H :    0.021870
  17 H :    0.047661
  18 H :    0.051769

  Mayer bond orders larger than 0.1
B(  0-C ,  1-C ) :   1.0894 B(  0-C ,  7-H ) :   0.9532 B(  0-C ,  8-H ) :   0.9323
B(  0-C ,  9-H ) :   0.9447 B(  1-C ,  2-C ) :   1.0874 B(  1-C ,  3-N ) :   0.9706
B(  1-C ,  4-C ) :   0.9871 B(  2-C , 10-H ) :   0.9514 B(  2-C , 11-H ) :   0.9506
B(  2-C , 12-H ) :   0.9333 B(  3-N ,  4-C ) :   0.9889 B(  3-N , 13-H ) :   0.9353
B(  4-C ,  5-C ) :   1.0541 B(  4-C , 14-H ) :   0.9240 B(  5-C ,  6-N ) :   1.0701
B(  5-C , 15-H ) :   0.9065 B(  5-C , 16-H ) :   0.9009 B(  6-N , 17-H ) :   0.9676
B(  6-N , 18-H ) :   0.9641

FINAL SINGLE POINT ENERGY      -306.587324515438

DIPOLE MOMENT
-------------
                                X             Y             Z
Electronic contribution:      2.46646       0.45847      -0.00225
Nuclear contribution   :     -2.29879      -0.78985      -0.53445
                        -----------------------------------------
Total Dipole Moment    :      0.16767      -0.33139      -0.53670
                        -----------------------------------------
Magnitude (a.u.)       :      0.65267
Magnitude (Debye)      :      1.65895

                             ****ORCA TERMINATED NORMALLY****
TOTAL RUN TIME: 0 days 0 hours 0 minutes 8 seconds 394 msec
