                         Program Version 3.0.3 - RELEASE   -
|  1> ! RI PBE def2-SVP def2-SVP/J NBO PAL2
|  2> % maxcore 2000
|  3> % output
|  4>     # printlevel mini
|  5>     print[ P_Basis ] 0
|  6>     print[ P_SCFInfo ] 1
|  7>     print[ P_SCFIterInfo ] 1
|  8>     print[ P_OrbEn ] 0
|  9>     print[ P_Cartesian ] 0
| 10> end
| 11> *xyz 0 1
| 12>  C        0.9292490000    -0.0918290000     0.1142870000
| 13>  C        2.4451250000    -0.0913900000     0.0414180000
| 14>  C        3.2130560000     0.9570540000     0.8928450000
| 15>  N        4.1521710000    -0.0917060000     1.3001620000
| 16>  C        3.2133030000    -1.1404870000     0.8924790000
| 17>  C        2.8889390000    -0.0912130000    -1.3444750000
| 18>  N        3.2130250000    -0.0919230000    -2.4482910000
| 19>  H        0.6069110000    -0.0918140000     1.1571410000
| 20>  H        0.5159430000    -0.9751940000    -0.3769020000
| 21>  H        0.5152200000     0.7911620000    -0.3769850000
| 22>  H        2.5648620000     1.3347840000     1.6942800000
| 23>  H        3.6617710000     1.7984330000     0.3610730000
| 24>  H        4.4264690000    -0.0918570000     2.2730120000
| 25>  H        2.5649130000    -1.5184340000     1.6936690000
| 26>  H        3.6620430000    -1.9815780000     0.3602990000
| 27> *
| 28>
| 29>                          ****END OF INPUT****
 Total Charge           Charge          ....    0
 Multiplicity           Mult            ....    1
 Number of Electrons    NEL             ....   52
 Basis Dimension        Dim             ....  138

MULLIKEN ATOMIC CHARGES
-----------------------
   0 C :    0.090251
   1 C :   -0.585481
   2 C :    0.247548
   3 N :   -0.264568
   4 C :    0.247437
   5 C :   -0.081974
   6 N :    0.079871
   7 H :    0.021826
   8 H :    0.044229
   9 H :    0.044224
  10 H :   -0.001207
  11 H :    0.028735
  12 H :    0.101523
  13 H :   -0.001185
  14 H :    0.028772
Sum of atomic charges:    0.0000000

LOEWDIN ATOMIC CHARGES
----------------------
   0 C :   -0.038296
   1 C :   -0.088581
   2 C :    0.055089
   3 N :   -0.101741
   4 C :    0.055143
   5 C :   -0.028441
   6 N :   -0.068765
   7 H :    0.027690
   8 H :    0.038838
   9 H :    0.038828
  10 H :    0.008712
  11 H :    0.020650
  12 H :    0.051519
  13 H :    0.008705
  14 H :    0.020650

  Mayer bond orders larger than 0.1
B(  0-C ,  1-C ) :   1.0540 B(  0-C ,  7-H ) :   0.9456 B(  0-C ,  8-H ) :   0.9573
B(  0-C ,  9-H ) :   0.9573 B(  1-C ,  2-C ) :   1.0299 B(  1-C ,  4-C ) :   1.0300
B(  1-C ,  5-C ) :   1.0258 B(  2-C ,  3-N ) :   1.0566 B(  2-C , 10-H ) :   0.9198
B(  2-C , 11-H ) :   0.9293 B(  3-N ,  4-C ) :   1.0566 B(  3-N , 12-H ) :   0.9427
B(  4-C , 13-H ) :   0.9198 B(  4-C , 14-H ) :   0.9294 B(  5-C ,  6-N ) :   3.0869

FINAL SINGLE POINT ENERGY      -304.179202462888

DIPOLE MOMENT
-------------
                                X             Y             Z
Electronic contribution:      3.28920       0.00120      -4.79331
Nuclear contribution   :     -4.02887      -0.00112       6.52213
                        -----------------------------------------
Total Dipole Moment    :     -0.73967       0.00008       1.72882
                        -----------------------------------------
Magnitude (a.u.)       :      1.88041
Magnitude (Debye)      :      4.77962

                             ****ORCA TERMINATED NORMALLY****
TOTAL RUN TIME: 0 days 0 hours 0 minutes 7 seconds 190 msec
