                         Program Version 3.0.3 - RELEASE   -
|  1> ! RI PBE def2-SVP def2-SVP/J NBO PAL2
|  2> % maxcore 2000
|  3> % output
|  4>     # printlevel mini
|  5>     print[ P_Basis ] 0
|  6>     print[ P_SCFInfo ] 1
|  7>     print[ P_SCFIterInfo ] 1
|  8>     print[ P_OrbEn ] 0
|  9>     print[ P_Cartesian ] 0
| 10> end
| 11> *xyz 0 1
| 12>  C        1.0445440000     0.2559810000    -0.1179030000
| 13>  C        2.5422560000     0.1747940000    -0.0829220000
| 14>  C        3.3085850000    -0.7560510000    -0.9985850000
| 15>  N        2.7060430000    -1.5995910000    -1.9891160000
| 16>  C        3.3738820000     0.7201910000    -1.2084500000
| 17>  C        4.6371480000     1.4849310000    -0.9395400000
| 18>  N        4.3445830000     2.8567310000    -0.5424820000
| 19>  H        0.5886550000    -0.4836870000     0.5472300000
| 20>  H        0.6552750000     0.0747910000    -1.1228520000
| 21>  H        0.6979290000     1.2439890000     0.1958140000
| 22>  H        2.9784740000     0.3102320000     0.9030890000
| 23>  H        4.1990850000    -1.2029540000    -0.5640860000
| 24>  H        2.1077400000    -1.0769500000    -2.6132300000
| 25>  H        2.1453180000    -2.3278720000    -1.5637360000
| 26>  H        2.8037150000     1.0823770000    -2.0642020000
| 27>  H        5.2943390000     1.4102480000    -1.8209390000
| 28>  H        5.1690440000     1.0035530000    -0.1123670000
| 29>  H        3.8623010000     3.3413050000    -1.2904660000
| 30>  H        5.2026850000     3.3669630000    -0.3728370000
| 31> *
| 32>
| 33>                          ****END OF INPUT****
 Total Charge           Charge          ....    0
 Multiplicity           Mult            ....    1
 Number of Electrons    NEL             ....   56
 Basis Dimension        Dim             ....  158

MULLIKEN ATOMIC CHARGES
-----------------------
   0 C :    0.084906
   1 C :   -0.096084
   2 C :   -0.047932
   3 N :   -0.111739
   4 C :   -0.142137
   5 C :    0.159252
   6 N :   -0.210046
   7 H :    0.017330
   8 H :   -0.024539
   9 H :    0.023194
  10 H :    0.008645
  11 H :    0.006987
  12 H :    0.076918
  13 H :    0.093013
  14 H :    0.007351
  15 H :   -0.003603
  16 H :   -0.010180
  17 H :    0.083760
  18 H :    0.084902
Sum of atomic charges:   -0.0000000

LOEWDIN ATOMIC CHARGES
----------------------
   0 C :   -0.058171
   1 C :   -0.059103
   2 C :   -0.003493
   3 N :   -0.080582
   4 C :   -0.052635
   5 C :    0.012519
   6 N :   -0.115550
   7 H :    0.026491
   8 H :    0.013494
   9 H :    0.031285
  10 H :    0.024902
  11 H :    0.017569
  12 H :    0.047228
  13 H :    0.054765
  14 H :    0.019580
  15 H :    0.002500
  16 H :    0.019954
  17 H :    0.048274
  18 H :    0.050972

  Mayer bond orders larger than 0.1
B(  0-C ,  1-C ) :   1.1029 B(  0-C ,  7-H ) :   0.9566 B(  0-C ,  8-H ) :   0.9396
B(  0-C ,  9-H ) :   0.9582 B(  1-C ,  2-C ) :   0.9103 B(  1-C ,  4-C ) :   0.9324
B(  1-C , 10-H ) :   0.9278 B(  2-C ,  3-N ) :   1.1691 B(  2-C ,  4-C ) :   0.9538
B(  2-C , 11-H ) :   0.9341 B(  3-N , 12-H ) :   0.9644 B(  3-N , 13-H ) :   0.9683
B(  4-C ,  5-C ) :   1.0799 B(  4-C , 14-H ) :   0.9347 B(  5-C ,  6-N ) :   1.0837
B(  5-C , 15-H ) :   0.9197 B(  5-C , 16-H ) :   0.9129 B(  6-N , 17-H ) :   0.9682
B(  6-N , 18-H ) :   0.9628

FINAL SINGLE POINT ENERGY      -306.585725395168

DIPOLE MOMENT
-------------
                                X             Y             Z
Electronic contribution:      1.64561      -0.80136      -0.55329
Nuclear contribution   :     -1.76707       1.04619       0.35132
                        -----------------------------------------
Total Dipole Moment    :     -0.12146       0.24483      -0.20197
                        -----------------------------------------
Magnitude (a.u.)       :      0.33983
Magnitude (Debye)      :      0.86379

                             ****ORCA TERMINATED NORMALLY****
TOTAL RUN TIME: 0 days 0 hours 0 minutes 7 seconds 742 msec
