                         Program Version 3.0.3 - RELEASE   -
|  1> ! RI PBE def2-SVP def2-SVP/J NBO PAL2
|  2> % maxcore 2000
|  3> % output
|  4>     # printlevel mini
|  5>     print[ P_Basis ] 0
|  6>     print[ P_SCFInfo ] 1
|  7>     print[ P_SCFIterInfo ] 1
|  8>     print[ P_OrbEn ] 0
|  9>     print[ P_Cartesian ] 0
| 10> end
| 11> *xyz 0 1
| 12>  C        0.5561860000     0.0846640000    -0.8404510000
| 13>  C        1.8683710000     0.5318120000    -0.2616610000
| 14>  C        3.1376110000    -0.2599220000    -0.4653870000
| 15>  N        3.0777600000    -1.4249970000    -1.2962830000
| 16>  C        2.9787780000     1.0984580000    -1.1038610000
| 17>  C        2.8198780000     1.2068910000    -2.5972240000
| 18>  N        3.7302040000     2.1400170000    -0.4496470000
| 19>  H        0.0054470000    -0.5249510000    -0.1183320000
| 20>  H        0.6969130000    -0.5164440000    -1.7385810000
| 21>  H       -0.0761690000     0.9399450000    -1.0951810000
| 22>  H        1.8003900000     0.9985230000     0.7157110000
| 23>  H        3.8159290000    -0.2644920000     0.3868470000
| 24>  H        2.7422740000    -2.2247170000    -0.7741900000
| 25>  H        3.9920740000    -1.6611800000    -1.6601980000
| 26>  H        2.3427360000     0.3242240000    -3.0218460000
| 27>  H        3.7999790000     1.3167080000    -3.0737000000
| 28>  H        2.2252470000     2.0878300000    -2.8598150000
| 29>  H        4.6452690000     2.2386570000    -0.8763710000
| 30>  H        3.2587350000     3.0320720000    -0.5522400000
| 31> *
| 32>
| 33>                          ****END OF INPUT****
 Total Charge           Charge          ....    0
 Multiplicity           Mult            ....    1
 Number of Electrons    NEL             ....   56
 Basis Dimension        Dim             ....  158

MULLIKEN ATOMIC CHARGES
-----------------------
   0 C :    0.083846
   1 C :   -0.107252
   2 C :   -0.023969
   3 N :   -0.130764
   4 C :   -0.231691
   5 C :    0.128457
   6 N :   -0.127197
   7 H :    0.016560
   8 H :    0.015689
   9 H :    0.014742
  10 H :    0.002826
  11 H :   -0.004045
  12 H :    0.094237
  13 H :    0.092037
  14 H :    0.011154
  15 H :   -0.003013
  16 H :    0.003830
  17 H :    0.081389
  18 H :    0.083163
Sum of atomic charges:   -0.0000000

LOEWDIN ATOMIC CHARGES
----------------------
   0 C :   -0.062733
   1 C :   -0.046277
   2 C :   -0.014176
   3 N :   -0.084520
   4 C :   -0.038702
   5 C :   -0.064939
   6 N :   -0.079800
   7 H :    0.027938
   8 H :    0.026610
   9 H :    0.027506
  10 H :    0.025075
  11 H :    0.003362
  12 H :    0.056265
  13 H :    0.055728
  14 H :    0.027469
  15 H :    0.020617
  16 H :    0.022155
  17 H :    0.048453
  18 H :    0.049968

  Mayer bond orders larger than 0.1
B(  0-C ,  1-C ) :   1.1247 B(  0-C ,  7-H ) :   0.9535 B(  0-C ,  8-H ) :   0.9328
B(  0-C ,  9-H ) :   0.9518 B(  1-C ,  2-C ) :   0.9467 B(  1-C ,  4-C ) :   0.9350
B(  1-C , 10-H ) :   0.9205 B(  2-C ,  3-N ) :   1.1764 B(  2-C ,  4-C ) :   0.8880
B(  2-C , 11-H ) :   0.9266 B(  3-N , 12-H ) :   0.9628 B(  3-N , 13-H ) :   0.9658
B(  4-C ,  5-C ) :   1.0956 B(  4-C ,  6-N ) :   1.1460 B(  5-C , 14-H ) :   0.9195
B(  5-C , 15-H ) :   0.9468 B(  5-C , 16-H ) :   0.9492 B(  6-N , 17-H ) :   0.9654
B(  6-N , 18-H ) :   0.9669

FINAL SINGLE POINT ENERGY      -306.596091403897

DIPOLE MOMENT
-------------
                                X             Y             Z
Electronic contribution:      2.22228      -0.12759       2.07126
Nuclear contribution   :     -1.91933       0.01939      -2.23644
                        -----------------------------------------
Total Dipole Moment    :      0.30295      -0.10820      -0.16518
                        -----------------------------------------
Magnitude (a.u.)       :      0.36162
Magnitude (Debye)      :      0.91917

                             ****ORCA TERMINATED NORMALLY****
TOTAL RUN TIME: 0 days 0 hours 0 minutes 7 seconds 923 msec
