                         Program Version 3.0.3 - RELEASE   -
|  1> ! RI PBE def2-SVP def2-SVP/J NBO PAL2
|  2> % maxcore 2000
|  3> % output
|  4>     # printlevel mini
|  5>     print[ P_Basis ] 0
|  6>     print[ P_SCFInfo ] 1
|  7>     print[ P_SCFIterInfo ] 1
|  8>     print[ P_OrbEn ] 0
|  9>     print[ P_Cartesian ] 0
| 10> end
| 11> *xyz 0 1
| 12>  C        1.0095250000    -0.0972970000     0.2358540000
| 13>  C        2.4632240000    -0.0812270000    -0.1673050000
| 14>  C        3.3764520000     0.9823710000     0.4855450000
| 15>  N        4.3023660000    -0.0879750000     0.8401930000
| 16>  C        3.3901350000    -1.1522770000     0.4529360000
| 17>  C        5.2284000000    -0.1135730000     1.8335260000
| 18>  N        5.7310180000    -1.1249150000     2.4193000000
| 19>  H        0.4872080000     0.7885060000    -0.1351020000
| 20>  H        0.9042230000    -0.1178250000     1.3241040000
| 21>  H        0.4984720000    -0.9758940000    -0.1664390000
| 22>  H        2.5592100000    -0.0638660000    -1.2547380000
| 23>  H        2.9171270000     1.4719360000     1.3533820000
| 24>  H        3.7920030000     1.7457620000    -0.1778490000
| 25>  H        2.9468500000    -1.6723600000     1.3134930000
| 26>  H        3.8133670000    -1.8946680000    -0.2296800000
| 27>  H        5.5749180000     0.8843500000     2.1166490000
| 28>  H        5.3279020000    -1.9943380000     2.0676190000
| 29> *
| 30>
| 31>                          ****END OF INPUT****
 Total Charge           Charge          ....    0
 Multiplicity           Mult            ....    1
 Number of Electrons    NEL             ....   54
 Basis Dimension        Dim             ....  148

MULLIKEN ATOMIC CHARGES
-----------------------
   0 C :    0.043119
   1 C :   -0.308301
   2 C :    0.241395
   3 N :   -0.297469
   4 C :    0.214941
   5 C :    0.023042
   6 N :   -0.167335
   7 H :    0.031255
   8 H :    0.024419
   9 H :    0.031357
  10 H :    0.031861
  11 H :    0.002938
  12 H :    0.023410
  13 H :    0.002836
  14 H :    0.027556
  15 H :    0.002662
  16 H :    0.072313
Sum of atomic charges:   -0.0000000

LOEWDIN ATOMIC CHARGES
----------------------
   0 C :   -0.062281
   1 C :   -0.040705
   2 C :    0.052253
   3 N :   -0.059486
   4 C :    0.039914
   5 C :    0.007482
   6 N :   -0.170565
   7 H :    0.032124
   8 H :    0.027115
   9 H :    0.032338
  10 H :    0.031525
  11 H :    0.013380
  12 H :    0.017912
  13 H :    0.011383
  14 H :    0.017871
  15 H :    0.012509
  16 H :    0.037231

  Mayer bond orders larger than 0.1
B(  0-C ,  1-C ) :   1.0834 B(  0-C ,  7-H ) :   0.9593 B(  0-C ,  8-H ) :   0.9556
B(  0-C ,  9-H ) :   0.9590 B(  1-C ,  2-C ) :   1.0702 B(  1-C ,  4-C ) :   1.0616
B(  1-C , 10-H ) :   0.9015 B(  2-C ,  3-N ) :   0.9962 B(  2-C , 11-H ) :   0.9246
B(  2-C , 12-H ) :   0.9345 B(  3-N ,  4-C ) :   1.0074 B(  3-N ,  5-C ) :   1.1432
B(  3-N ,  6-N ) :   0.1007 B(  4-C , 13-H ) :   0.9169 B(  4-C , 14-H ) :   0.9343
B(  5-C ,  6-N ) :   1.9689 B(  5-C , 15-H ) :   0.9408 B(  6-N , 16-H ) :   0.9449

FINAL SINGLE POINT ENERGY      -305.394607219102

DIPOLE MOMENT
-------------
                                X             Y             Z
Electronic contribution:      5.66877      -0.31380       1.48746
Nuclear contribution   :     -6.91415       0.61121      -2.38808
                        -----------------------------------------
Total Dipole Moment    :     -1.24538       0.29742      -0.90062
                        -----------------------------------------
Magnitude (a.u.)       :      1.56542
Magnitude (Debye)      :      3.97899

                             ****ORCA TERMINATED NORMALLY****
TOTAL RUN TIME: 0 days 0 hours 0 minutes 7 seconds 854 msec
