                         Program Version 3.0.3 - RELEASE   -
|  1> ! RI PBE def2-SVP def2-SVP/J NBO PAL2
|  2> % maxcore 2000
|  3> % output
|  4>     # printlevel mini
|  5>     print[ P_Basis ] 0
|  6>     print[ P_SCFInfo ] 1
|  7>     print[ P_SCFIterInfo ] 1
|  8>     print[ P_OrbEn ] 0
|  9>     print[ P_Cartesian ] 0
| 10> end
| 11> *xyz 0 1
| 12>  C        0.9953670000    -0.0065360000     0.0995370000
| 13>  C        2.5005780000     0.0211520000     0.1159750000
| 14>  C        3.2449680000     1.0554430000     0.9789740000
| 15>  N        4.2175930000     0.0114070000     1.3400180000
| 16>  C        3.2566750000    -1.0309970000     0.9673640000
| 17>  C        3.8066100000    -2.2008800000     0.2949670000
| 18>  N        4.2142750000    -3.1294740000    -0.2472210000
| 19>  H        0.5974930000     0.8694180000    -0.4190630000
| 20>  H        0.5859880000    -0.0095820000     1.1133540000
| 21>  H        0.6232660000    -0.8936940000    -0.4190730000
| 22>  H        2.9068110000     0.0182310000    -0.8971540000
| 23>  H        2.6228460000     1.3990520000     1.8164800000
| 24>  H        3.6764630000     1.9223040000     0.4743100000
| 25>  H        4.5322790000    -0.0085760000     2.3012580000
| 26>  H        2.6222980000    -1.3815780000     1.7944750000
| 27> *
| 28>
| 29>                          ****END OF INPUT****
 Total Charge           Charge          ....    0
 Multiplicity           Mult            ....    1
 Number of Electrons    NEL             ....   52
 Basis Dimension        Dim             ....  138

MULLIKEN ATOMIC CHARGES
-----------------------
   0 C :    0.063172
   1 C :   -0.198192
   2 C :    0.197532
   3 N :   -0.236380
   4 C :   -0.031507
   5 C :   -0.136254
   6 N :    0.077591
   7 H :    0.034776
   8 H :    0.013785
   9 H :    0.038028
  10 H :    0.030194
  11 H :   -0.004563
  12 H :    0.019943
  13 H :    0.106002
  14 H :    0.025872
Sum of atomic charges:   -0.0000000

LOEWDIN ATOMIC CHARGES
----------------------
   0 C :   -0.060925
   1 C :   -0.021131
   2 C :    0.035065
   3 N :   -0.084670
   4 C :   -0.005484
   5 C :   -0.047808
   6 N :   -0.058910
   7 H :    0.035848
   8 H :    0.024583
   9 H :    0.036690
  10 H :    0.037716
  11 H :    0.007281
  12 H :    0.016490
  13 H :    0.053763
  14 H :    0.031494

  Mayer bond orders larger than 0.1
B(  0-C ,  1-C ) :   1.0896 B(  0-C ,  7-H ) :   0.9566 B(  0-C ,  8-H ) :   0.9514
B(  0-C ,  9-H ) :   0.9575 B(  1-C ,  2-C ) :   1.0748 B(  1-C ,  4-C ) :   1.0383
B(  1-C , 10-H ) :   0.8840 B(  2-C ,  3-N ) :   1.0480 B(  2-C , 11-H ) :   0.9226
B(  2-C , 12-H ) :   0.9374 B(  3-N ,  4-C ) :   1.1283 B(  3-N , 13-H ) :   0.9335
B(  4-C ,  5-C ) :   1.0897 B(  4-C , 14-H ) :   0.8631 B(  5-C ,  6-N ) :   3.0755

FINAL SINGLE POINT ENERGY      -304.182123056370

DIPOLE MOMENT
-------------
                                X             Y             Z
Electronic contribution:      5.60744      -5.80205      -0.62561
Nuclear contribution   :     -6.53922       7.07403       1.45586
                        -----------------------------------------
Total Dipole Moment    :     -0.93178       1.27198       0.83024
                        -----------------------------------------
Magnitude (a.u.)       :      1.78198
Magnitude (Debye)      :      4.52944

                             ****ORCA TERMINATED NORMALLY****
TOTAL RUN TIME: 0 days 0 hours 0 minutes 7 seconds 90 msec
