                         Program Version 3.0.3 - RELEASE   -
|  1> ! RI PBE def2-SVP def2-SVP/J NBO PAL2
|  2> % maxcore 2000
|  3> % output
|  4>     # printlevel mini
|  5>     print[ P_Basis ] 0
|  6>     print[ P_SCFInfo ] 1
|  7>     print[ P_SCFIterInfo ] 1
|  8>     print[ P_OrbEn ] 0
|  9>     print[ P_Cartesian ] 0
| 10> end
| 11> *xyz 0 1
| 12>  C        1.0332550000    -0.1224700000     0.2555030000
| 13>  C        2.4758020000    -0.0663710000    -0.1828350000
| 14>  C        3.3339680000     1.1285240000     0.2882020000
| 15>  N        4.3898870000     0.1792960000     0.6155550000
| 16>  C        3.4912430000    -0.9738780000     0.5411460000
| 17>  N        5.2666730000     0.4330110000     1.5866040000
| 18>  C        5.7712610000    -0.5382420000     2.2383090000
| 19>  H        0.4462440000     0.6690140000    -0.2180970000
| 20>  H        0.9459810000    -0.0007390000     1.3385650000
| 21>  H        0.5748370000    -1.0782560000    -0.0120770000
| 22>  H        2.5544550000    -0.1929940000    -1.2646820000
| 23>  H        2.9178840000     1.6182170000     1.1776420000
| 24>  H        3.6086670000     1.8863930000    -0.4493010000
| 25>  H        3.1478500000    -1.2916640000     1.5377880000
| 26>  H        3.8811850000    -1.8417980000     0.0030730000
| 27>  H        6.5111620000    -0.3042030000     2.9940730000
| 28>  H        5.5160540000    -1.5845430000     2.0585420000
| 29> *
| 30>
| 31>                          ****END OF INPUT****
 Total Charge           Charge          ....    0
 Multiplicity           Mult            ....    1
 Number of Electrons    NEL             ....   54
 Basis Dimension        Dim             ....  148

MULLIKEN ATOMIC CHARGES
-----------------------
   0 C :    0.046054
   1 C :   -0.282316
   2 C :    0.245079
   3 N :   -0.277319
   4 C :    0.207277
   5 N :   -0.061973
   6 C :   -0.075985
   7 H :    0.030438
   8 H :    0.021443
   9 H :    0.026803
  10 H :    0.029873
  11 H :   -0.004529
  12 H :    0.023454
  13 H :   -0.005260
  14 H :    0.024250
  15 H :    0.038357
  16 H :    0.014353
Sum of atomic charges:    0.0000000

LOEWDIN ATOMIC CHARGES
----------------------
   0 C :   -0.063055
   1 C :   -0.043277
   2 C :    0.044124
   3 N :   -0.028755
   4 C :    0.026652
   5 N :   -0.034487
   6 C :   -0.086911
   7 H :    0.032049
   8 H :    0.026054
   9 H :    0.030671
  10 H :    0.031044
  11 H :    0.011594
  12 H :    0.017513
  13 H :    0.011241
  14 H :    0.016204
  15 H :    0.016730
  16 H :   -0.007392

  Mayer bond orders larger than 0.1
B(  0-C ,  1-C ) :   1.0886 B(  0-C ,  7-H ) :   0.9585 B(  0-C ,  8-H ) :   0.9541
B(  0-C ,  9-H ) :   0.9594 B(  1-C ,  2-C ) :   1.0584 B(  1-C ,  4-C ) :   1.0617
B(  1-C , 10-H ) :   0.9045 B(  2-C ,  3-N ) :   0.9923 B(  2-C , 11-H ) :   0.9223
B(  2-C , 12-H ) :   0.9366 B(  3-N ,  4-C ) :   0.9738 B(  3-N ,  5-N ) :   1.1057
B(  3-N ,  6-C ) :   0.1357 B(  4-C , 13-H ) :   0.9042 B(  4-C , 14-H ) :   0.9362
B(  5-N ,  6-C ) :   1.8655 B(  6-C , 15-H ) :   0.9567 B(  6-C , 16-H ) :   0.9248

FINAL SINGLE POINT ENERGY      -305.361608039227

DIPOLE MOMENT
-------------
                                X             Y             Z
Electronic contribution:      5.31356       1.53329       0.26301
Nuclear contribution   :     -6.06427      -1.94433      -0.51809
                        -----------------------------------------
Total Dipole Moment    :     -0.75071      -0.41104      -0.25508
                        -----------------------------------------
Magnitude (a.u.)       :      0.89308
Magnitude (Debye)      :      2.27002

                             ****ORCA TERMINATED NORMALLY****
TOTAL RUN TIME: 0 days 0 hours 0 minutes 7 seconds 880 msec
