                         Program Version 3.0.3 - RELEASE   -
|  1> ! RI PBE def2-SVP def2-SVP/J NBO PAL2
|  2> % maxcore 2000
|  3> % output
|  4>     # printlevel mini
|  5>     print[ P_Basis ] 0
|  6>     print[ P_SCFInfo ] 1
|  7>     print[ P_SCFIterInfo ] 1
|  8>     print[ P_OrbEn ] 0
|  9>     print[ P_Cartesian ] 0
| 10> end
| 11> *xyz 0 1
| 12>  C        1.0140820000     0.1961310000     0.3328270000
| 13>  C        2.4830530000    -0.0458300000     0.0178980000
| 14>  C        2.8096570000    -1.5189500000    -0.3123360000
| 15>  N        2.9669450000    -1.6284650000    -1.7632370000
| 16>  C        3.3289320000    -0.3269920000    -2.2625990000
| 17>  C        2.2269780000     0.6640660000    -2.4862030000
| 18>  C        3.0141380000     0.6923070000    -1.2074680000
| 19>  H        0.7290640000    -0.3091270000     1.2594380000
| 20>  H        0.3637390000    -0.1832890000    -0.4599530000
| 21>  H        0.8014620000     1.2613510000     0.4524760000
| 22>  H        3.0701340000     0.2716780000     0.8855700000
| 23>  H        2.0428930000    -2.2128080000     0.0431250000
| 24>  H        3.7510680000    -1.8033550000     0.1709160000
| 25>  H        2.1198020000    -1.9648300000    -2.1997270000
| 26>  H        4.2329550000    -0.2590260000    -2.8589440000
| 27>  H        1.2071980000     0.2964140000    -2.4704450000
| 28>  H        2.4004060000     1.4689840000    -3.1915710000
| 29>  H        3.6740820000     1.5368520000    -1.0504560000
| 30> *
| 31>
| 32>                          ****END OF INPUT****
 Total Charge           Charge          ....    0
 Multiplicity           Mult            ....    1
 Number of Electrons    NEL             ....   54
 Basis Dimension        Dim             ....  153

MULLIKEN ATOMIC CHARGES
-----------------------
   0 C :    0.046337
   1 C :   -0.115871
   2 C :    0.171235
   3 N :   -0.188284
   4 C :   -0.051473
   5 C :    0.018018
   6 C :   -0.090202
   7 H :    0.016218
   8 H :    0.006681
   9 H :    0.019388
  10 H :   -0.000435
  11 H :   -0.007187
  12 H :    0.004045
  13 H :    0.096719
  14 H :    0.013539
  15 H :    0.021076
  16 H :    0.025329
  17 H :    0.014867
Sum of atomic charges:    0.0000000

LOEWDIN ATOMIC CHARGES
----------------------
   0 C :   -0.060121
   1 C :   -0.049111
   2 C :    0.026437
   3 N :   -0.088136
   4 C :   -0.002379
   5 C :   -0.050819
   6 C :   -0.039778
   7 H :    0.024745
   8 H :    0.018450
   9 H :    0.027337
  10 H :    0.026481
  11 H :    0.015517
  12 H :    0.015364
  13 H :    0.051296
  14 H :    0.013566
  15 H :    0.019410
  16 H :    0.028184
  17 H :    0.023558

  Mayer bond orders larger than 0.1
B(  0-C ,  1-C ) :   1.0805 B(  0-C ,  7-H ) :   0.9565 B(  0-C ,  8-H ) :   0.9485
B(  0-C ,  9-H ) :   0.9632 B(  1-C ,  2-C ) :   1.0417 B(  1-C ,  6-C ) :   1.0648
B(  1-C , 10-H ) :   0.9103 B(  2-C ,  3-N ) :   1.0765 B(  2-C , 11-H ) :   0.9389
B(  2-C , 12-H ) :   0.9283 B(  3-N ,  4-C ) :   1.1167 B(  3-N , 13-H ) :   0.9481
B(  4-C ,  5-C ) :   0.9882 B(  4-C ,  6-C ) :   0.9279 B(  4-C , 14-H ) :   0.9478
B(  5-C ,  6-C ) :   0.9906 B(  5-C , 15-H ) :   0.9319 B(  5-C , 16-H ) :   0.9292
B(  6-C , 17-H ) :   0.9465

FINAL SINGLE POINT ENERGY      -289.368159158079

DIPOLE MOMENT
-------------
                                X             Y             Z
Electronic contribution:      2.79605      -1.03248      -2.21408
Nuclear contribution   :     -3.11754       1.27149       2.34051
                        -----------------------------------------
Total Dipole Moment    :     -0.32149       0.23901       0.12644
                        -----------------------------------------
Magnitude (a.u.)       :      0.42008
Magnitude (Debye)      :      1.06776

                             ****ORCA TERMINATED NORMALLY****
TOTAL RUN TIME: 0 days 0 hours 0 minutes 7 seconds 967 msec
