                         Program Version 3.0.3 - RELEASE   -
|  1> ! RI PBE def2-SVP def2-SVP/J NBO PAL2
|  2> % maxcore 2000
|  3> % output
|  4>     # printlevel mini
|  5>     print[ P_Basis ] 0
|  6>     print[ P_SCFInfo ] 1
|  7>     print[ P_SCFIterInfo ] 1
|  8>     print[ P_OrbEn ] 0
|  9>     print[ P_Cartesian ] 0
| 10> end
| 11> *xyz 0 1
| 12>  C        1.2247100000     0.1339090000     0.5191120000
| 13>  C        2.3701190000    -0.0371660000    -0.1285950000
| 14>  C        2.9299280000    -1.3502480000    -0.6119100000
| 15>  N        4.3809550000    -1.1534790000    -0.6058090000
| 16>  C        4.6391730000     0.2545890000    -0.7615860000
| 17>  C        3.9379620000     1.0152790000    -1.8433200000
| 18>  C        3.3773470000     0.9971800000    -0.4348330000
| 19>  H        0.5834470000    -0.7047090000     0.7656260000
| 20>  H        0.8918010000     1.1188100000     0.8255620000
| 21>  H        2.5331170000    -1.5646630000    -1.6159180000
| 22>  H        2.6421240000    -2.1832600000     0.0342160000
| 23>  H        4.8356410000    -1.7016790000    -1.3245200000
| 24>  H        5.6014600000     0.6009910000    -0.4029210000
| 25>  H        3.4099640000     0.4682710000    -2.6159680000
| 26>  H        4.3752380000     1.9514090000    -2.1690670000
| 27>  H        3.3828240000     1.9161770000     0.1364210000
| 28> *
| 29>
| 30>                          ****END OF INPUT****
 Total Charge           Charge          ....    0
 Multiplicity           Mult            ....    1
 Number of Electrons    NEL             ....   52
 Basis Dimension        Dim             ....  143

MULLIKEN ATOMIC CHARGES
-----------------------
   0 C :   -0.059622
   1 C :   -0.049272
   2 C :    0.148831
   3 N :   -0.193525
   4 C :    0.003316
   5 C :    0.046424
   6 C :   -0.112075
   7 H :    0.003940
   8 H :    0.005466
   9 H :    0.017699
  10 H :    0.016091
  11 H :    0.100796
  12 H :    0.013275
  13 H :    0.024402
  14 H :    0.024645
  15 H :    0.009608
Sum of atomic charges:    0.0000000

LOEWDIN ATOMIC CHARGES
----------------------
   0 C :   -0.083923
   1 C :   -0.022362
   2 C :    0.023717
   3 N :   -0.087240
   4 C :    0.008050
   5 C :   -0.052293
   6 C :   -0.035032
   7 H :    0.021940
   8 H :    0.022536
   9 H :    0.016592
  10 H :    0.027371
  11 H :    0.056273
  12 H :    0.019188
  13 H :    0.025240
  14 H :    0.029836
  15 H :    0.030106

  Mayer bond orders larger than 0.1
B(  0-C ,  1-C ) :   2.0066 B(  0-C ,  7-H ) :   0.9218 B(  0-C ,  8-H ) :   0.9344
B(  1-C ,  2-C ) :   1.0047 B(  1-C ,  6-C ) :   1.0733 B(  2-C ,  3-N ) :   1.0372
B(  2-C ,  9-H ) :   0.9074 B(  2-C , 10-H ) :   0.9214 B(  3-N ,  4-C ) :   1.1105
B(  3-N , 11-H ) :   0.9408 B(  4-C ,  5-C ) :   0.9750 B(  4-C ,  6-C ) :   0.8940
B(  4-C , 12-H ) :   0.9430 B(  5-C ,  6-C ) :   0.9401 B(  5-C , 13-H ) :   0.9231
B(  5-C , 14-H ) :   0.9329 B(  6-C , 15-H ) :   0.9533

FINAL SINGLE POINT ENERGY      -288.153720703200

DIPOLE MOMENT
-------------
                                X             Y             Z
Electronic contribution:      1.28014      -0.24219       0.73074
Nuclear contribution   :     -1.15566       0.26363      -1.17454
                        -----------------------------------------
Total Dipole Moment    :      0.12448       0.02144      -0.44380
                        -----------------------------------------
Magnitude (a.u.)       :      0.46142
Magnitude (Debye)      :      1.17284

                             ****ORCA TERMINATED NORMALLY****
TOTAL RUN TIME: 0 days 0 hours 0 minutes 7 seconds 380 msec
