                         Program Version 3.0.3 - RELEASE   -
|  1> ! RI PBE def2-SVP def2-SVP/J NBO PAL2
|  2> % maxcore 2000
|  3> % output
|  4>     # printlevel mini
|  5>     print[ P_Basis ] 0
|  6>     print[ P_SCFInfo ] 1
|  7>     print[ P_SCFIterInfo ] 1
|  8>     print[ P_OrbEn ] 0
|  9>     print[ P_Cartesian ] 0
| 10> end
| 11> *xyz 0 1
| 12>  C        1.0725570000     0.1080320000    -0.2360810000
| 13>  C        2.5626060000     0.1422000000     0.0319030000
| 14>  C        2.9947880000     1.2093170000     1.0260540000
| 15>  N        4.3428140000     0.8079860000     1.4074790000
| 16>  C        4.4786380000    -0.6395320000     1.2253540000
| 17>  C        3.1367660000    -1.1253870000     0.6705310000
| 18>  C        3.2468110000    -2.3237710000    -0.2498540000
| 19>  H        0.7188460000     1.0590230000    -0.6430000000
| 20>  H        0.5161770000    -0.0879680000     0.6859050000
| 21>  H        0.8121620000    -0.6718670000    -0.9558040000
| 22>  H        3.0981070000     0.3181160000    -0.9109670000
| 23>  H        2.2874380000     1.2169390000     1.8722110000
| 24>  H        2.9912520000     2.2125510000     0.5874400000
| 25>  H        4.5826370000     1.1036300000     2.3407940000
| 26>  H        4.7399970000    -1.1541650000     2.1563870000
| 27>  H        5.2805400000    -0.8562910000     0.5065870000
| 28>  H        2.4827200000    -1.3841800000     1.5149410000
| 29>  H        3.8773860000    -2.0907460000    -1.1133670000
| 30>  H        2.2683450000    -2.6371480000    -0.6222710000
| 31>  H        3.6909230000    -3.1810480000     0.2632580000
| 32> *
| 33>
| 34>                          ****END OF INPUT****
 Total Charge           Charge          ....    0
 Multiplicity           Mult            ....    1
 Number of Electrons    NEL             ....   56
 Basis Dimension        Dim             ....  163

MULLIKEN ATOMIC CHARGES
-----------------------
   0 C :    0.054509
   1 C :   -0.171644
   2 C :    0.192794
   3 N :   -0.285351
   4 C :    0.212531
   5 C :   -0.215612
   6 C :    0.069887
   7 H :    0.018190
   8 H :    0.009066
   9 H :    0.018565
  10 H :    0.007590
  11 H :   -0.018495
  12 H :   -0.002064
  13 H :    0.090379
  14 H :   -0.008658
  15 H :   -0.009329
  16 H :   -0.000490
  17 H :    0.012216
  18 H :    0.009893
  19 H :    0.016024
Sum of atomic charges:   -0.0000000

LOEWDIN ATOMIC CHARGES
----------------------
   0 C :   -0.058291
   1 C :   -0.046934
   2 C :    0.020400
   3 N :   -0.114679
   4 C :    0.022009
   5 C :   -0.050592
   6 C :   -0.056739
   7 H :    0.028015
   8 H :    0.023762
   9 H :    0.025749
  10 H :    0.025673
  11 H :   -0.000961
  12 H :    0.013698
  13 H :    0.051944
  14 H :    0.011125
  15 H :    0.008270
  16 H :    0.021714
  17 H :    0.024941
  18 H :    0.024032
  19 H :    0.026865

  Mayer bond orders larger than 0.1
B(  0-C ,  1-C ) :   1.0998 B(  0-C ,  7-H ) :   0.9575 B(  0-C ,  8-H ) :   0.9501
B(  0-C ,  9-H ) :   0.9568 B(  1-C ,  2-C ) :   1.0410 B(  1-C ,  5-C ) :   1.0510
B(  1-C , 10-H ) :   0.9012 B(  2-C ,  3-N ) :   1.0580 B(  2-C , 11-H ) :   0.9240
B(  2-C , 12-H ) :   0.9278 B(  3-N ,  4-C ) :   1.0585 B(  3-N , 13-H ) :   0.9427
B(  4-C ,  5-C ) :   1.0515 B(  4-C , 14-H ) :   0.9303 B(  4-C , 15-H ) :   0.9264
B(  5-C ,  6-C ) :   1.0958 B(  5-C , 16-H ) :   0.8986 B(  6-C , 17-H ) :   0.9507
B(  6-C , 18-H ) :   0.9534 B(  6-C , 19-H ) :   0.9581

FINAL SINGLE POINT ENERGY      -290.597023615273

DIPOLE MOMENT
-------------
                                X             Y             Z
Electronic contribution:      2.65182       2.34213       1.71270
Nuclear contribution   :     -2.90242      -2.51247      -1.43846
                        -----------------------------------------
Total Dipole Moment    :     -0.25060      -0.17034       0.27424
                        -----------------------------------------
Magnitude (a.u.)       :      0.40869
Magnitude (Debye)      :      1.03880

                             ****ORCA TERMINATED NORMALLY****
TOTAL RUN TIME: 0 days 0 hours 0 minutes 8 seconds 699 msec
