                         Program Version 3.0.3 - RELEASE   -
|  1> ! RI PBE def2-SVP def2-SVP/J NBO PAL2
|  2> % maxcore 2000
|  3> % output
|  4>     # printlevel mini
|  5>     print[ P_Basis ] 0
|  6>     print[ P_SCFInfo ] 1
|  7>     print[ P_SCFIterInfo ] 1
|  8>     print[ P_OrbEn ] 0
|  9>     print[ P_Cartesian ] 0
| 10> end
| 11> *xyz 0 1
| 12>  C        1.0257670000     0.0659100000     0.3573760000
| 13>  C        2.3301730000     0.0533220000     0.1035150000
| 14>  C        3.2070300000     1.2694590000    -0.0490710000
| 15>  N        4.3351300000     0.7672980000    -0.8210370000
| 16>  C        4.5865900000    -0.5888860000    -0.3538700000
| 17>  C        3.2015380000    -1.1203670000    -0.0886240000
| 18>  C        2.8594570000    -2.4038240000    -0.0462140000
| 19>  H        0.4808560000     0.9969580000     0.4626720000
| 20>  H        0.4573720000    -0.8505300000     0.4662760000
| 21>  H        3.4944740000     1.6313030000     0.9544780000
| 22>  H        2.7034000000     2.0884360000    -0.5676970000
| 23>  H        5.1502560000     1.3591440000    -0.7401580000
| 24>  H        5.1688200000    -0.6238320000     0.5844470000
| 25>  H        5.1250460000    -1.1740060000    -1.1028990000
| 26>  H        3.5875010000    -3.1874370000    -0.2216260000
| 27>  H        1.8427000000    -2.7161590000     0.1622220000
| 28> *
| 29>
| 30>                          ****END OF INPUT****
 Total Charge           Charge          ....    0
 Multiplicity           Mult            ....    1
 Number of Electrons    NEL             ....   52
 Basis Dimension        Dim             ....  143

MULLIKEN ATOMIC CHARGES
-----------------------
   0 C :   -0.063131
   1 C :   -0.098549
   2 C :    0.216198
   3 N :   -0.280450
   4 C :    0.202253
   5 C :   -0.090732
   6 C :   -0.061625
   7 H :    0.012145
   8 H :    0.014538
   9 H :   -0.000546
  10 H :    0.013425
  11 H :    0.095818
  12 H :    0.004423
  13 H :    0.015167
  14 H :    0.011424
  15 H :    0.009642
Sum of atomic charges:   -0.0000000

LOEWDIN ATOMIC CHARGES
----------------------
   0 C :   -0.051009
   1 C :   -0.030022
   2 C :    0.023398
   3 N :   -0.105047
   4 C :    0.021144
   5 C :   -0.028881
   6 C :   -0.051620
   7 H :    0.025150
   8 H :    0.023911
   9 H :    0.010030
  10 H :    0.024510
  11 H :    0.054541
  12 H :    0.010977
  13 H :    0.024693
  14 H :    0.025088
  15 H :    0.023137

  Mayer bond orders larger than 0.1
B(  0-C ,  1-C ) :   1.9777 B(  0-C ,  6-C ) :   0.1153 B(  0-C ,  7-H ) :   0.9278
B(  0-C ,  8-H ) :   0.9236 B(  1-C ,  2-C ) :   1.0157 B(  1-C ,  5-C ) :   1.0791
B(  2-C ,  3-N ) :   1.0282 B(  2-C ,  9-H ) :   0.8887 B(  2-C , 10-H ) :   0.9234
B(  3-N ,  4-C ) :   1.0354 B(  3-N , 11-H ) :   0.9378 B(  4-C ,  5-C ) :   1.0152
B(  4-C , 12-H ) :   0.8882 B(  4-C , 13-H ) :   0.9231 B(  5-C ,  6-C ) :   1.9710
B(  6-C , 14-H ) :   0.9286 B(  6-C , 15-H ) :   0.9247

FINAL SINGLE POINT ENERGY      -288.158420978486

DIPOLE MOMENT
-------------
                                X             Y             Z
Electronic contribution:      0.24520       0.31699      -0.78625
Nuclear contribution   :      0.04618      -0.14573       1.09680
                        -----------------------------------------
Total Dipole Moment    :      0.29138       0.17125       0.31054
                        -----------------------------------------
Magnitude (a.u.)       :      0.45899
Magnitude (Debye)      :      1.16665

                             ****ORCA TERMINATED NORMALLY****
TOTAL RUN TIME: 0 days 0 hours 0 minutes 7 seconds 287 msec
