                         Program Version 3.0.3 - RELEASE   -
|  1> ! RI PBE def2-SVP def2-SVP/J NBO PAL2
|  2> % maxcore 2000
|  3> % output
|  4>     # printlevel mini
|  5>     print[ P_Basis ] 0
|  6>     print[ P_SCFInfo ] 1
|  7>     print[ P_SCFIterInfo ] 1
|  8>     print[ P_OrbEn ] 0
|  9>     print[ P_Cartesian ] 0
| 10> end
| 11> *xyz 0 1
| 12>  C        0.8601170000     0.0696170000     0.5202260000
| 13>  C        2.1460100000    -0.1912620000    -0.2310630000
| 14>  C        3.2440030000     0.8687470000    -0.0200240000
| 15>  N        3.8610740000    -0.0060860000     0.9697410000
| 16>  C        5.2859780000    -0.0225650000     1.1200510000
| 17>  C        3.1195600000    -1.1742080000     0.4611920000
| 18>  C        3.8604480000    -2.0911140000    -0.4933950000
| 19>  H        0.3071270000     0.9044070000     0.0806870000
| 20>  H        1.0697190000     0.3153090000     1.5644970000
| 21>  H        0.2071700000    -0.8076150000     0.5031770000
| 22>  H        1.9420930000    -0.4346490000    -1.2763690000
| 23>  H        2.9289000000     1.8467160000     0.3611470000
| 24>  H        3.8617320000     1.0266730000    -0.9187470000
| 25>  H        5.6208110000     0.9476080000     1.4978410000
| 26>  H        5.8358730000    -0.2247120000     0.1845380000
| 27>  H        5.5775180000    -0.7774690000     1.8554850000
| 28>  H        2.6757930000    -1.7702910000     1.2697040000
| 29>  H        4.2775640000    -1.5434260000    -1.3430290000
| 30>  H        3.1742090000    -2.8457010000    -0.8872990000
| 31>  H        4.6790040000    -2.6168780000     0.0052310000
| 32> *
| 33>
| 34>                          ****END OF INPUT****
 Total Charge           Charge          ....    0
 Multiplicity           Mult            ....    1
 Number of Electrons    NEL             ....   56
 Basis Dimension        Dim             ....  163

MULLIKEN ATOMIC CHARGES
-----------------------
   0 C :    0.057335
   1 C :   -0.207310
   2 C :    0.209550
   3 N :   -0.347546
   4 C :    0.095599
   5 C :    0.014865
   6 C :    0.065025
   7 H :    0.018798
   8 H :    0.020726
   9 H :    0.022870
  10 H :   -0.000021
  11 H :   -0.003788
  12 H :   -0.013943
  13 H :    0.019346
  14 H :   -0.009345
  15 H :    0.019757
  16 H :   -0.006355
  17 H :    0.005724
  18 H :    0.019673
  19 H :    0.019041
Sum of atomic charges:   -0.0000000

LOEWDIN ATOMIC CHARGES
----------------------
   0 C :   -0.059671
   1 C :   -0.037640
   2 C :    0.037070
   3 N :   -0.119360
   4 C :   -0.008646
   5 C :    0.023262
   6 C :   -0.072062
   7 H :    0.026163
   8 H :    0.029699
   9 H :    0.026674
  10 H :    0.016747
  11 H :    0.007677
  12 H :   -0.001733
  13 H :    0.024157
  14 H :   -0.004191
  15 H :    0.022923
  16 H :    0.007231
  17 H :    0.024298
  18 H :    0.030982
  19 H :    0.026423

  Mayer bond orders larger than 0.1
B(  0-C ,  1-C ) :   1.0732 B(  0-C ,  7-H ) :   0.9572 B(  0-C ,  8-H ) :   0.9490
B(  0-C ,  9-H ) :   0.9616 B(  1-C ,  2-C ) :   1.0466 B(  1-C ,  5-C ) :   1.0137
B(  1-C , 10-H ) :   0.9291 B(  2-C ,  3-N ) :   1.0204 B(  2-C , 11-H ) :   0.9292
B(  2-C , 12-H ) :   0.9132 B(  3-N ,  4-C ) :   1.0570 B(  3-N ,  5-C ) :   1.0114
B(  4-C , 13-H ) :   0.9658 B(  4-C , 14-H ) :   0.9356 B(  4-C , 15-H ) :   0.9685
B(  5-C ,  6-C ) :   1.0748 B(  5-C , 16-H ) :   0.9208 B(  6-C , 17-H ) :   0.9429
B(  6-C , 18-H ) :   0.9508 B(  6-C , 19-H ) :   0.9488

FINAL SINGLE POINT ENERGY      -290.567695304174

DIPOLE MOMENT
-------------
                                X             Y             Z
Electronic contribution:     -0.28054       0.97844       1.06009
Nuclear contribution   :      0.32891      -1.10369      -1.31254
                        -----------------------------------------
Total Dipole Moment    :      0.04837      -0.12525      -0.25245
                        -----------------------------------------
Magnitude (a.u.)       :      0.28593
Magnitude (Debye)      :      0.72678

                             ****ORCA TERMINATED NORMALLY****
TOTAL RUN TIME: 0 days 0 hours 0 minutes 8 seconds 954 msec
