                         Program Version 3.0.3 - RELEASE   -
|  1> ! RI PBE def2-SVP def2-SVP/J NBO PAL2
|  2> % maxcore 2000
|  3> % output
|  4>     # printlevel mini
|  5>     print[ P_Basis ] 0
|  6>     print[ P_SCFInfo ] 1
|  7>     print[ P_SCFIterInfo ] 1
|  8>     print[ P_OrbEn ] 0
|  9>     print[ P_Cartesian ] 0
| 10> end
| 11> *xyz 0 1
| 12>  C        0.8815330000     0.0883430000    -0.0013220000
| 13>  C        2.3947200000     0.0607170000     0.0699960000
| 14>  C        3.0217580000     1.1654390000     0.9168690000
| 15>  N        4.3603220000     0.6541290000     1.1553950000
| 16>  C        4.2016840000    -0.7554450000     1.4903650000
| 17>  C        3.0015210000    -1.1831870000     0.6800410000
| 18>  C        2.5517080000    -2.4241860000     0.5650880000
| 19>  H        0.5280360000     1.0360630000    -0.4158640000
| 20>  H        0.4416440000    -0.0364700000     0.9914590000
| 21>  H        0.4982720000    -0.7106710000    -0.6393060000
| 22>  H        2.8063290000     0.1615300000    -0.9428550000
| 23>  H        2.4286000000     1.2933530000     1.8405200000
| 24>  H        3.0555880000     2.1283840000     0.4012040000
| 25>  H        4.8539010000     1.1678570000     1.8718880000
| 26>  H        3.9890940000    -0.9246910000     2.5593840000
| 27>  H        5.1011840000    -1.3249190000     1.2399220000
| 28>  H        3.0589900000    -3.2573320000     1.0398870000
| 29>  H        1.6614170000    -2.6575130000    -0.0076830000
| 30> *
| 31>
| 32>                          ****END OF INPUT****
 Total Charge           Charge          ....    0
 Multiplicity           Mult            ....    1
 Number of Electrons    NEL             ....   54
 Basis Dimension        Dim             ....  153

MULLIKEN ATOMIC CHARGES
-----------------------
   0 C :    0.039239
   1 C :   -0.065045
   2 C :    0.130037
   3 N :   -0.271796
   4 C :    0.228717
   5 C :   -0.215293
   6 C :   -0.042588
   7 H :    0.015319
   8 H :    0.016396
   9 H :    0.026200
  10 H :    0.029867
  11 H :   -0.013265
  12 H :    0.002098
  13 H :    0.095770
  14 H :    0.003396
  15 H :    0.014324
  16 H :    0.001974
  17 H :    0.004650
Sum of atomic charges:    0.0000000

LOEWDIN ATOMIC CHARGES
----------------------
   0 C :   -0.053246
   1 C :   -0.043832
   2 C :    0.019581
   3 N :   -0.107175
   4 C :    0.019987
   5 C :   -0.025908
   6 C :   -0.080810
   7 H :    0.027445
   8 H :    0.025977
   9 H :    0.027464
  10 H :    0.041808
  11 H :   -0.003186
  12 H :    0.017050
  13 H :    0.054021
  14 H :    0.013433
  15 H :    0.025277
  16 H :    0.021828
  17 H :    0.020287

  Mayer bond orders larger than 0.1
B(  0-C ,  1-C ) :   1.1020 B(  0-C ,  7-H ) :   0.9559 B(  0-C ,  8-H ) :   0.9571
B(  0-C ,  9-H ) :   0.9541 B(  1-C ,  2-C ) :   1.0552 B(  1-C ,  5-C ) :   1.0245
B(  1-C , 10-H ) :   0.8707 B(  2-C ,  3-N ) :   1.0535 B(  2-C , 11-H ) :   0.9190
B(  2-C , 12-H ) :   0.9280 B(  3-N ,  4-C ) :   1.0522 B(  3-N , 13-H ) :   0.9393
B(  4-C ,  5-C ) :   1.0205 B(  4-C , 14-H ) :   0.9025 B(  4-C , 15-H ) :   0.9186
B(  5-C ,  6-C ) :   2.0364 B(  6-C , 16-H ) :   0.9286 B(  6-C , 17-H ) :   0.9304

FINAL SINGLE POINT ENERGY      -289.376834093052

DIPOLE MOMENT
-------------
                                X             Y             Z
Electronic contribution:      3.25885      -0.12780       0.17470
Nuclear contribution   :     -3.33580       0.32430       0.13425
                        -----------------------------------------
Total Dipole Moment    :     -0.07695       0.19650       0.30895
                        -----------------------------------------
Magnitude (a.u.)       :      0.37415
Magnitude (Debye)      :      0.95100

                             ****ORCA TERMINATED NORMALLY****
TOTAL RUN TIME: 0 days 0 hours 0 minutes 8 seconds 116 msec
