                         Program Version 3.0.3 - RELEASE   -
|  1> ! RI PBE def2-SVP def2-SVP/J NBO PAL2
|  2> % maxcore 2000
|  3> % output
|  4>     # printlevel mini
|  5>     print[ P_Basis ] 0
|  6>     print[ P_SCFInfo ] 1
|  7>     print[ P_SCFIterInfo ] 1
|  8>     print[ P_OrbEn ] 0
|  9>     print[ P_Cartesian ] 0
| 10> end
| 11> *xyz 0 1
| 12>  C        1.1225370000     0.0159190000    -0.1382050000
| 13>  C        2.6093590000     0.0431800000     0.1399290000
| 14>  C        3.0579420000     1.1042540000     1.1306380000
| 15>  N        4.4035470000     0.6808680000     1.5061610000
| 16>  C        4.5159950000    -0.7673200000     1.3330280000
| 17>  C        3.1651080000    -1.2324310000     0.7886800000
| 18>  N        3.2904290000    -2.4236080000    -0.0222250000
| 19>  H        0.7769520000     0.9513120000    -0.5856370000
| 20>  H        0.5553190000    -0.1420930000     0.7846140000
| 21>  H        0.8643140000    -0.7895970000    -0.8317260000
| 22>  H        3.1564030000     0.1988290000    -0.8003420000
| 23>  H        2.3552710000     1.1229500000     1.9804440000
| 24>  H        3.0679150000     2.1082300000     0.6944210000
| 25>  H        4.6542490000     0.9786540000     2.4357940000
| 26>  H        4.7753030000    -1.2873130000     2.2598790000
| 27>  H        5.3017390000    -1.0095880000     0.6042200000
| 28>  H        2.5080740000    -1.4826620000     1.6324680000
| 29>  H        3.8493630000    -2.2326990000    -0.8465310000
| 30>  H        2.3852920000    -2.7486650000    -0.3381280000
| 31> *
| 32>
| 33>                          ****END OF INPUT****
 Total Charge           Charge          ....    0
 Multiplicity           Mult            ....    1
 Number of Electrons    NEL             ....   56
 Basis Dimension        Dim             ....  158

MULLIKEN ATOMIC CHARGES
-----------------------
   0 C :    0.056232
   1 C :   -0.149513
   2 C :    0.180867
   3 N :   -0.284313
   4 C :    0.224426
   5 C :   -0.143306
   6 N :   -0.140462
   7 H :    0.021664
   8 H :    0.009486
   9 H :    0.003087
  10 H :   -0.004755
  11 H :   -0.015654
  12 H :   -0.001883
  13 H :    0.091055
  14 H :   -0.001966
  15 H :   -0.014954
  16 H :   -0.001068
  17 H :    0.085292
  18 H :    0.085765
Sum of atomic charges:    0.0000000

LOEWDIN ATOMIC CHARGES
----------------------
   0 C :   -0.061039
   1 C :   -0.067358
   2 C :    0.020675
   3 N :   -0.114383
   4 C :    0.017935
   5 C :   -0.010074
   6 N :   -0.086987
   7 H :    0.028727
   8 H :    0.024033
   9 H :    0.019258
  10 H :    0.021523
  11 H :   -0.000319
  12 H :    0.013809
  13 H :    0.052616
  14 H :    0.014800
  15 H :    0.007803
  16 H :    0.019567
  17 H :    0.049239
  18 H :    0.050177

  Mayer bond orders larger than 0.1
B(  0-C ,  1-C ) :   1.0963 B(  0-C ,  7-H ) :   0.9596 B(  0-C ,  8-H ) :   0.9507
B(  0-C ,  9-H ) :   0.9503 B(  1-C ,  2-C ) :   1.0327 B(  1-C ,  5-C ) :   1.0173
B(  1-C , 10-H ) :   0.8907 B(  2-C ,  3-N ) :   1.0562 B(  2-C , 11-H ) :   0.9262
B(  2-C , 12-H ) :   0.9258 B(  3-N ,  4-C ) :   1.0605 B(  3-N , 13-H ) :   0.9414
B(  4-C ,  5-C ) :   1.0473 B(  4-C , 14-H ) :   0.9303 B(  4-C , 15-H ) :   0.9192
B(  5-C ,  6-N ) :   1.1354 B(  5-C , 16-H ) :   0.8977 B(  6-N , 17-H ) :   0.9602
B(  6-N , 18-H ) :   0.9662

FINAL SINGLE POINT ENERGY      -306.612883872749

DIPOLE MOMENT
-------------
                                X             Y             Z
Electronic contribution:      2.94851      -0.20328       0.94096
Nuclear contribution   :     -3.38842       0.29352      -0.96284
                        -----------------------------------------
Total Dipole Moment    :     -0.43991       0.09024      -0.02188
                        -----------------------------------------
Magnitude (a.u.)       :      0.44961
Magnitude (Debye)      :      1.14281

                             ****ORCA TERMINATED NORMALLY****
TOTAL RUN TIME: 0 days 0 hours 0 minutes 7 seconds 967 msec
