                         Program Version 3.0.3 - RELEASE   -
|  1> ! RI PBE def2-SVP def2-SVP/J NBO PAL2
|  2> % maxcore 2000
|  3> % output
|  4>     # printlevel mini
|  5>     print[ P_Basis ] 0
|  6>     print[ P_SCFInfo ] 1
|  7>     print[ P_SCFIterInfo ] 1
|  8>     print[ P_OrbEn ] 0
|  9>     print[ P_Cartesian ] 0
| 10> end
| 11> *xyz 0 1
| 12>  C        0.7794590000    -0.2319350000     0.2329700000
| 13>  C        2.2817320000    -0.1282920000     0.0885880000
| 14>  C        2.6807660000     0.1172100000    -1.3562780000
| 15>  N        2.9091050000     0.8195800000     1.0398390000
| 16>  C        4.0085210000    -0.1192270000     1.3091860000
| 17>  C        3.1307930000    -1.2529700000     0.7747650000
| 18>  N        3.7793490000    -2.3159930000     0.0655700000
| 19>  H        0.2853950000     0.6789520000    -0.1187810000
| 20>  H        0.5094490000    -0.3772330000     1.2805340000
| 21>  H        0.3871450000    -1.0701400000    -0.3517170000
| 22>  H        2.2245730000     1.0427540000    -1.7200570000
| 23>  H        3.7646460000     0.2144020000    -1.4684890000
| 24>  H        2.3446360000    -0.6936010000    -2.0091970000
| 25>  H        3.1845690000     1.7084220000     0.6396720000
| 26>  H        4.3296620000    -0.1713500000     2.3523700000
| 27>  H        4.8966250000     0.0218920000     0.6771770000
| 28>  H        2.5432610000    -1.6894710000     1.5864420000
| 29>  H        4.2592740000    -1.9825810000    -0.7606150000
| 30>  H        3.1275410000    -3.0354380000    -0.2182000000
| 31> *
| 32>
| 33>                          ****END OF INPUT****
 Total Charge           Charge          ....    0
 Multiplicity           Mult            ....    1
 Number of Electrons    NEL             ....   56
 Basis Dimension        Dim             ....  158

MULLIKEN ATOMIC CHARGES
-----------------------
   0 C :    0.116257
   1 C :   -0.262531
   2 C :    0.075216
   3 N :   -0.203032
   4 C :    0.179093
   5 C :   -0.073773
   6 N :   -0.120998
   7 H :    0.008181
   8 H :    0.007165
   9 H :    0.002429
  10 H :    0.015642
  11 H :    0.002067
  12 H :    0.007212
  13 H :    0.082093
  14 H :    0.003944
  15 H :   -0.013577
  16 H :   -0.000118
  17 H :    0.082071
  18 H :    0.092659
Sum of atomic charges:   -0.0000000

LOEWDIN ATOMIC CHARGES
----------------------
   0 C :   -0.061518
   1 C :   -0.035193
   2 C :   -0.069319
   3 N :   -0.099014
   4 C :    0.023976
   5 C :    0.000545
   6 N :   -0.080398
   7 H :    0.024568
   8 H :    0.024230
   9 H :    0.022835
  10 H :    0.027898
  11 H :    0.019092
  12 H :    0.022969
  13 H :    0.041060
  14 H :    0.011536
  15 H :   -0.000446
  16 H :    0.023665
  17 H :    0.047909
  18 H :    0.055605

  Mayer bond orders larger than 0.1
B(  0-C ,  1-C ) :   1.0675 B(  0-C ,  7-H ) :   0.9522 B(  0-C ,  8-H ) :   0.9407
B(  0-C ,  9-H ) :   0.9511 B(  1-C ,  2-C ) :   1.0563 B(  1-C ,  3-N ) :   1.0495
B(  1-C ,  5-C ) :   0.9346 B(  2-C , 10-H ) :   0.9456 B(  2-C , 11-H ) :   0.9428
B(  2-C , 12-H ) :   0.9415 B(  3-N ,  4-C ) :   1.0521 B(  3-N , 13-H ) :   0.9374
B(  4-C ,  5-C ) :   1.0649 B(  4-C , 14-H ) :   0.9244 B(  4-C , 15-H ) :   0.9203
B(  5-C ,  6-N ) :   1.1942 B(  5-C , 16-H ) :   0.8902 B(  6-N , 17-H ) :   0.9556
B(  6-N , 18-H ) :   0.9670

FINAL SINGLE POINT ENERGY      -306.593858593482

DIPOLE MOMENT
-------------
                                X             Y             Z
Electronic contribution:      1.60564      -0.14878       2.51892
Nuclear contribution   :     -1.63528       0.11723      -3.24516
                        -----------------------------------------
Total Dipole Moment    :     -0.02964      -0.03154      -0.72624
                        -----------------------------------------
Magnitude (a.u.)       :      0.72753
Magnitude (Debye)      :      1.84923

                             ****ORCA TERMINATED NORMALLY****
TOTAL RUN TIME: 0 days 0 hours 0 minutes 8 seconds 661 msec
