                         Program Version 3.0.3 - RELEASE   -
|  1> ! RI PBE def2-SVP def2-SVP/J NBO PAL2
|  2> % maxcore 2000
|  3> % output
|  4>     # printlevel mini
|  5>     print[ P_Basis ] 0
|  6>     print[ P_SCFInfo ] 1
|  7>     print[ P_SCFIterInfo ] 1
|  8>     print[ P_OrbEn ] 0
|  9>     print[ P_Cartesian ] 0
| 10> end
| 11> *xyz 0 1
| 12>  C        0.8878690000    -0.0850270000    -0.1154360000
| 13>  C        2.3768520000    -0.0286220000     0.0990380000
| 14>  C        2.7642310000     0.0624330000     1.5628450000
| 15>  N        4.1386850000    -0.3381980000     1.8400890000
| 16>  C        3.2506270000    -0.7866980000    -0.8697710000
| 17>  C        3.2029080000     0.7042210000    -0.9340130000
| 18>  N        4.3807350000     1.4622480000    -0.6301800000
| 19>  H        0.4556560000    -0.9989490000     0.3061400000
| 20>  H        0.6444010000    -0.0635620000    -1.1802180000
| 21>  H        0.3863580000     0.7674630000     0.3552630000
| 22>  H        2.0287970000    -0.5167840000     2.1426190000
| 23>  H        2.6543180000     1.1048700000     1.8872470000
| 24>  H        4.2372370000    -1.3419580000     1.7490280000
| 25>  H        4.3838170000    -0.1049150000     2.7940110000
| 26>  H        2.7679480000    -1.3655140000    -1.6489420000
| 27>  H        4.1760830000    -1.2131250000    -0.5006580000
| 28>  H        2.6392910000     1.1244610000    -1.7628570000
| 29>  H        4.8616630000     1.0267760000     0.1515600000
| 30>  H        4.1267260000     2.3988890000    -0.3378650000
| 31> *
| 32>
| 33>                          ****END OF INPUT****
 Total Charge           Charge          ....    0
 Multiplicity           Mult            ....    1
 Number of Electrons    NEL             ....   56
 Basis Dimension        Dim             ....  158

MULLIKEN ATOMIC CHARGES
-----------------------
   0 C :    0.095134
   1 C :   -0.306219
   2 C :    0.169448
   3 N :   -0.209852
   4 C :    0.021479
   5 C :   -0.057361
   6 N :   -0.114636
   7 H :    0.009918
   8 H :    0.004304
   9 H :    0.013355
  10 H :   -0.008349
  11 H :   -0.009218
  12 H :    0.096951
  13 H :    0.093150
  14 H :    0.020184
  15 H :    0.014379
  16 H :    0.006716
  17 H :    0.074219
  18 H :    0.086401
Sum of atomic charges:   -0.0000000

LOEWDIN ATOMIC CHARGES
----------------------
   0 C :   -0.046611
   1 C :   -0.094917
   2 C :    0.018359
   3 N :   -0.094210
   4 C :   -0.049605
   5 C :   -0.000894
   6 N :   -0.087718
   7 H :    0.022322
   8 H :    0.025940
   9 H :    0.025148
  10 H :    0.004794
  11 H :    0.016501
  12 H :    0.053756
  13 H :    0.056294
  14 H :    0.022780
  15 H :    0.021743
  16 H :    0.016803
  17 H :    0.038043
  18 H :    0.051473

  Mayer bond orders larger than 0.1
B(  0-C ,  1-C ) :   1.0848 B(  0-C ,  7-H ) :   0.9483 B(  0-C ,  8-H ) :   0.9447
B(  0-C ,  9-H ) :   0.9579 B(  1-C ,  2-C ) :   1.0325 B(  1-C ,  4-C ) :   0.9874
B(  1-C ,  5-C ) :   0.8536 B(  2-C ,  3-N ) :   1.0879 B(  2-C , 10-H ) :   0.9325
B(  2-C , 11-H ) :   0.9185 B(  3-N , 12-H ) :   0.9599 B(  3-N , 13-H ) :   0.9606
B(  4-C ,  5-C ) :   0.9902 B(  4-C , 14-H ) :   0.9373 B(  4-C , 15-H ) :   0.9190
B(  5-C ,  6-N ) :   1.2000 B(  5-C , 16-H ) :   0.9443 B(  6-N , 17-H ) :   0.9377
B(  6-N , 18-H ) :   0.9645

FINAL SINGLE POINT ENERGY      -306.589771046864

DIPOLE MOMENT
-------------
                                X             Y             Z
Electronic contribution:      2.37419       0.69515      -0.77314
Nuclear contribution   :     -2.72997      -0.91013       1.70999
                        -----------------------------------------
Total Dipole Moment    :     -0.35578      -0.21497       0.93684
                        -----------------------------------------
Magnitude (a.u.)       :      1.02492
Magnitude (Debye)      :      2.60515

                             ****ORCA TERMINATED NORMALLY****
TOTAL RUN TIME: 0 days 0 hours 0 minutes 8 seconds 530 msec
