                         Program Version 3.0.3 - RELEASE   -
|  1> ! RI PBE def2-SVP def2-SVP/J NBO PAL2
|  2> % maxcore 2000
|  3> % output
|  4>     # printlevel mini
|  5>     print[ P_Basis ] 0
|  6>     print[ P_SCFInfo ] 1
|  7>     print[ P_SCFIterInfo ] 1
|  8>     print[ P_OrbEn ] 0
|  9>     print[ P_Cartesian ] 0
| 10> end
| 11> *xyz 0 1
| 12>  C        0.9192940000     0.1991700000     0.8425790000
| 13>  C        2.3131590000     0.1131420000     0.2608200000
| 14>  C        3.4000370000     0.8346710000     1.0927380000
| 15>  N        4.3555200000     1.5291970000     0.2591060000
| 16>  C        3.8127180000    -0.5495350000     1.6684330000
| 17>  C        3.0367550000    -1.2289030000     0.5251260000
| 18>  N        3.9276090000    -1.5629760000    -0.5746430000
| 19>  H        0.2249990000    -0.4584430000     0.3117000000
| 20>  H        0.5330220000     1.2195690000     0.7770890000
| 21>  H        0.9075060000    -0.0920010000     1.8973680000
| 22>  H        2.3118230000     0.4127370000    -0.7914270000
| 23>  H        3.0086310000     1.5391440000     1.8327010000
| 24>  H        4.7443400000     0.8709810000    -0.4091630000
| 25>  H        5.1253880000     1.8783710000     0.8185390000
| 26>  H        3.3718740000    -0.7505720000     2.6472810000
| 27>  H        4.8845290000    -0.7568230000     1.7100500000
| 28>  H        2.3751900000    -2.0538690000     0.8266530000
| 29>  H        3.3948380000    -1.8434430000    -1.3903270000
| 30>  H        4.5229700000    -2.3442990000    -0.3243820000
| 31> *
| 32>
| 33>                          ****END OF INPUT****
 Total Charge           Charge          ....    0
 Multiplicity           Mult            ....    1
 Number of Electrons    NEL             ....   56
 Basis Dimension        Dim             ....  158

MULLIKEN ATOMIC CHARGES
-----------------------
   0 C :    0.065550
   1 C :   -0.052735
   2 C :   -0.094701
   3 N :   -0.128973
   4 C :    0.170132
   5 C :   -0.103496
   6 N :   -0.157523
   7 H :    0.014084
   8 H :    0.024811
   9 H :    0.004844
  10 H :   -0.014996
  11 H :   -0.008495
  12 H :    0.077412
  13 H :    0.081436
  14 H :   -0.006875
  15 H :   -0.028816
  16 H :   -0.023206
  17 H :    0.090515
  18 H :    0.091033
Sum of atomic charges:   -0.0000000

LOEWDIN ATOMIC CHARGES
----------------------
   0 C :   -0.057846
   1 C :   -0.039579
   2 C :    0.012928
   3 N :   -0.092591
   4 C :   -0.052849
   5 C :    0.007660
   6 N :   -0.094551
   7 H :    0.024993
   8 H :    0.029587
   9 H :    0.022995
  10 H :    0.015686
  11 H :    0.008897
  12 H :    0.040438
  13 H :    0.048375
  14 H :    0.020030
  15 H :    0.011408
  16 H :   -0.009861
  17 H :    0.052463
  18 H :    0.051819

  Mayer bond orders larger than 0.1
B(  0-C ,  1-C ) :   1.0778 B(  0-C ,  7-H ) :   0.9537 B(  0-C ,  8-H ) :   0.9572
B(  0-C ,  9-H ) :   0.9510 B(  1-C ,  2-C ) :   1.0176 B(  1-C ,  5-C ) :   1.0244
B(  1-C , 10-H ) :   0.8931 B(  2-C ,  3-N ) :   1.1259 B(  2-C ,  4-C ) :   1.0262
B(  2-C , 11-H ) :   0.9197 B(  3-N , 12-H ) :   0.9490 B(  3-N , 13-H ) :   0.9636
B(  4-C ,  5-C ) :   1.0788 B(  4-C , 14-H ) :   0.9081 B(  4-C , 15-H ) :   0.8888
B(  5-C ,  6-N ) :   1.0614 B(  5-C , 16-H ) :   0.9138 B(  6-N , 17-H ) :   0.9660
B(  6-N , 18-H ) :   0.9609

FINAL SINGLE POINT ENERGY      -306.595673439248

DIPOLE MOMENT
-------------
                                X             Y             Z
Electronic contribution:      2.10897       0.28530      -0.96908
Nuclear contribution   :     -2.02465      -1.05551       1.08439
                        -----------------------------------------
Total Dipole Moment    :      0.08432      -0.77021       0.11531
                        -----------------------------------------
Magnitude (a.u.)       :      0.78334
Magnitude (Debye)      :      1.99110

                             ****ORCA TERMINATED NORMALLY****
TOTAL RUN TIME: 0 days 0 hours 0 minutes 7 seconds 994 msec
