                         Program Version 3.0.3 - RELEASE   -
|  1> ! RI PBE def2-SVP def2-SVP/J NBO PAL2
|  2> % maxcore 2000
|  3> % output
|  4>     # printlevel mini
|  5>     print[ P_Basis ] 0
|  6>     print[ P_SCFInfo ] 1
|  7>     print[ P_SCFIterInfo ] 1
|  8>     print[ P_OrbEn ] 0
|  9>     print[ P_Cartesian ] 0
| 10> end
| 11> *xyz 0 1
| 12>  C        0.8477340000    -0.0567620000     0.1062270000
| 13>  C        2.1713300000    -0.0354650000    -0.0604930000
| 14>  C        2.9507780000     1.2371720000    -0.2744980000
| 15>  N        4.2598510000     1.2290000000     0.3584450000
| 16>  C        5.0595130000     0.0992930000    -0.0791490000
| 17>  C        4.3120070000    -1.1987660000    -0.1385600000
| 18>  C        2.9783580000    -1.2477540000    -0.0882400000
| 19>  H        0.2636270000     0.8570260000     0.1241940000
| 20>  H        0.3087110000    -0.9911130000     0.2227590000
| 21>  H        2.3835970000     2.1013470000     0.0787170000
| 22>  H        3.1060350000     1.3780250000    -1.3520670000
| 23>  H        4.1342330000     1.1688560000     1.3624580000
| 24>  H        5.9204710000     0.0032930000     0.5897500000
| 25>  H        5.4820410000     0.3241180000    -1.0698670000
| 26>  H        4.8918330000    -2.1142970000    -0.2162290000
| 27>  H        2.4603900000    -2.2025650000    -0.0825470000
| 28> *
| 29>
| 30>                          ****END OF INPUT****
 Total Charge           Charge          ....    0
 Multiplicity           Mult            ....    1
 Number of Electrons    NEL             ....   52
 Basis Dimension        Dim             ....  143

MULLIKEN ATOMIC CHARGES
-----------------------
   0 C :   -0.038556
   1 C :   -0.151547
   2 C :    0.181040
   3 N :   -0.240662
   4 C :    0.148893
   5 C :   -0.121592
   6 C :    0.063386
   7 H :    0.008065
   8 H :    0.006684
   9 H :    0.003778
  10 H :    0.022646
  11 H :    0.101664
  12 H :    0.022535
  13 H :    0.022135
  14 H :   -0.005354
  15 H :   -0.023115
Sum of atomic charges:   -0.0000000

LOEWDIN ATOMIC CHARGES
----------------------
   0 C :   -0.064159
   1 C :   -0.054265
   2 C :    0.016957
   3 N :   -0.089504
   4 C :    0.003641
   5 C :   -0.045852
   6 C :   -0.040646
   7 H :    0.020431
   8 H :    0.020301
   9 H :    0.026451
  10 H :    0.032999
  11 H :    0.056810
  12 H :    0.032318
  13 H :    0.032270
  14 H :    0.024636
  15 H :    0.027611

  Mayer bond orders larger than 0.1
B(  0-C ,  1-C ) :   1.9039 B(  0-C ,  5-C ) :   0.1319 B(  0-C ,  7-H ) :   0.9313
B(  0-C ,  8-H ) :   0.9307 B(  1-C ,  2-C ) :   1.0243 B(  1-C ,  6-C ) :   1.0982
B(  2-C ,  3-N ) :   1.0744 B(  2-C ,  9-H ) :   0.9284 B(  2-C , 10-H ) :   0.9076
B(  3-N ,  4-C ) :   1.0976 B(  3-N , 11-H ) :   0.9523 B(  4-C ,  5-C ) :   1.0130
B(  4-C , 12-H ) :   0.9308 B(  4-C , 13-H ) :   0.9077 B(  5-C ,  6-C ) :   1.7950
B(  5-C , 14-H ) :   0.9513 B(  6-C , 15-H ) :   0.9715

FINAL SINGLE POINT ENERGY      -288.171321347184

DIPOLE MOMENT
-------------
                                X             Y             Z
Electronic contribution:      0.33342      -0.42594       0.30449
Nuclear contribution   :     -0.24546       0.20572      -0.16450
                        -----------------------------------------
Total Dipole Moment    :      0.08796      -0.22023       0.13999
                        -----------------------------------------
Magnitude (a.u.)       :      0.27538
Magnitude (Debye)      :      0.69996

                             ****ORCA TERMINATED NORMALLY****
TOTAL RUN TIME: 0 days 0 hours 0 minutes 7 seconds 289 msec
