                         Program Version 3.0.3 - RELEASE   -
|  1> ! RI PBE def2-SVP def2-SVP/J NBO PAL2
|  2> % maxcore 2000
|  3> % output
|  4>     # printlevel mini
|  5>     print[ P_Basis ] 0
|  6>     print[ P_SCFInfo ] 1
|  7>     print[ P_SCFIterInfo ] 1
|  8>     print[ P_OrbEn ] 0
|  9>     print[ P_Cartesian ] 0
| 10> end
| 11> *xyz 0 1
| 12>  C        0.8826680000     0.0177420000    -0.2456210000
| 13>  C        2.3875880000    -0.0414260000     0.0098920000
| 14>  C        3.1427810000     0.0449550000    -1.3198430000
| 15>  N        2.7287490000    -1.2613840000     0.7636650000
| 16>  C        3.6044220000    -0.9406880000     1.8870520000
| 17>  C        3.5133250000     0.5477680000     1.9800120000
| 18>  C        2.8408830000     1.0412550000     0.9519650000
| 19>  H        0.5724050000    -0.8223090000    -0.8728220000
| 20>  H        0.6013120000     0.9439850000    -0.7553340000
| 21>  H        0.3394560000    -0.0450320000     0.6982180000
| 22>  H        2.8561650000    -0.7837200000    -1.9753460000
| 23>  H        4.2221110000     0.0042080000    -1.1553940000
| 24>  H        2.9138100000     0.9749910000    -1.8468780000
| 25>  H        3.1191670000    -1.9728380000     0.1639440000
| 26>  H        4.6486370000    -1.2578150000     1.7344510000
| 27>  H        3.2647750000    -1.4292920000     2.8101390000
| 28>  H        3.9524730000     1.1176900000     2.7894120000
| 29>  H        2.6325630000     2.0886890000     0.7685790000
| 30> *
| 31>
| 32>                          ****END OF INPUT****
 Total Charge           Charge          ....    0
 Multiplicity           Mult            ....    1
 Number of Electrons    NEL             ....   54
 Basis Dimension        Dim             ....  153

MULLIKEN ATOMIC CHARGES
-----------------------
   0 C :    0.113143
   1 C :   -0.214434
   2 C :    0.069647
   3 N :   -0.225101
   4 C :    0.205865
   5 C :   -0.108197
   6 C :    0.005732
   7 H :    0.006375
   8 H :    0.001116
   9 H :    0.013628
  10 H :    0.017064
  11 H :    0.016692
  12 H :    0.012476
  13 H :    0.084756
  14 H :    0.005932
  15 H :    0.012721
  16 H :   -0.005147
  17 H :   -0.012268
Sum of atomic charges:   -0.0000000

LOEWDIN ATOMIC CHARGES
----------------------
   0 C :   -0.055764
   1 C :   -0.017435
   2 C :   -0.063557
   3 N :   -0.089900
   4 C :    0.020925
   5 C :   -0.039305
   6 C :   -0.027747
   7 H :    0.023425
   8 H :    0.020013
   9 H :    0.025646
  10 H :    0.023919
  11 H :    0.024147
  12 H :    0.027098
  13 H :    0.049053
  14 H :    0.013154
  15 H :    0.018544
  16 H :    0.023784
  17 H :    0.024002

  Mayer bond orders larger than 0.1
B(  0-C ,  1-C ) :   1.0335 B(  0-C ,  7-H ) :   0.9518 B(  0-C ,  8-H ) :   0.9531
B(  0-C ,  9-H ) :   0.9529 B(  1-C ,  2-C ) :   1.0428 B(  1-C ,  3-N ) :   1.0501
B(  1-C ,  6-C ) :   0.9814 B(  2-C , 10-H ) :   0.9485 B(  2-C , 11-H ) :   0.9546
B(  2-C , 12-H ) :   0.9502 B(  3-N ,  4-C ) :   1.0406 B(  3-N , 13-H ) :   0.9464
B(  4-C ,  5-C ) :   1.0158 B(  4-C , 14-H ) :   0.9137 B(  4-C , 15-H ) :   0.9212
B(  5-C ,  6-C ) :   1.8631 B(  5-C , 16-H ) :   0.9840 B(  6-C , 17-H ) :   0.9975

FINAL SINGLE POINT ENERGY      -289.380152504346

DIPOLE MOMENT
-------------
                                X             Y             Z
Electronic contribution:      1.10772       0.02033       3.16098
Nuclear contribution   :     -0.74138       0.03413      -3.33768
                        -----------------------------------------
Total Dipole Moment    :      0.36634       0.05446      -0.17670
                        -----------------------------------------
Magnitude (a.u.)       :      0.41036
Magnitude (Debye)      :      1.04305

                             ****ORCA TERMINATED NORMALLY****
TOTAL RUN TIME: 0 days 0 hours 0 minutes 7 seconds 893 msec
