                         Program Version 3.0.3 - RELEASE   -
|  1> ! RI PBE def2-SVP def2-SVP/J NBO PAL2
|  2> % maxcore 2000
|  3> % output
|  4>     # printlevel mini
|  5>     print[ P_Basis ] 0
|  6>     print[ P_SCFInfo ] 1
|  7>     print[ P_SCFIterInfo ] 1
|  8>     print[ P_OrbEn ] 0
|  9>     print[ P_Cartesian ] 0
| 10> end
| 11> *xyz 0 1
| 12>  C        1.0131670000    -0.0507170000     0.0898650000
| 13>  C        2.5231670000    -0.0467590000    -0.0359830000
| 14>  C        2.9018930000    -0.0459320000    -1.5119740000
| 15>  N        4.3390850000    -0.0634340000    -1.7398010000
| 16>  C        3.2536870000     1.0394880000     0.8004270000
| 17>  C        4.1795590000    -0.0418380000     1.3896370000
| 18>  C        3.2693020000    -1.1287510000     0.7881100000
| 19>  H        0.5721710000     0.8319160000    -0.3847540000
| 20>  H        0.7079360000    -0.0521540000     1.1392340000
| 21>  H        0.5796460000    -0.9371910000    -0.3845090000
| 22>  H        2.3948170000     0.8068980000    -1.9941320000
| 23>  H        2.4859020000    -0.9532780000    -1.9645820000
| 24>  H        4.7465870000     0.8393070000    -1.5300080000
| 25>  H        4.5401000000    -0.2535250000    -2.7125670000
| 26>  H        2.5932580000     1.4858200000     1.5474320000
| 27>  H        3.7279190000     1.8560580000     0.2482690000
| 28>  H        4.2904620000    -0.0415320000     2.4751810000
| 29>  H        5.1708190000    -0.0428230000     0.9364930000
| 30>  H        2.6185000000    -1.6021850000     1.5269970000
| 31>  H        3.7718310000    -1.9016850000     0.2050630000
| 32> *
| 33>
| 34>                          ****END OF INPUT****
 Total Charge           Charge          ....    0
 Multiplicity           Mult            ....    1
 Number of Electrons    NEL             ....   56
 Basis Dimension        Dim             ....  163

MULLIKEN ATOMIC CHARGES
-----------------------
   0 C :    0.089595
   1 C :   -0.465902
   2 C :    0.145387
   3 N :   -0.193800
   4 C :    0.107387
   5 C :   -0.023725
   6 C :    0.166025
   7 H :    0.010907
   8 H :    0.007125
   9 H :    0.012254
  10 H :   -0.013298
  11 H :   -0.002982
  12 H :    0.085896
  13 H :    0.091706
  14 H :   -0.008331
  15 H :   -0.006201
  16 H :    0.004459
  17 H :    0.006648
  18 H :   -0.012680
  19 H :   -0.000471
Sum of atomic charges:   -0.0000000

LOEWDIN ATOMIC CHARGES
----------------------
   0 C :   -0.053481
   1 C :   -0.065893
   2 C :    0.014958
   3 N :   -0.104056
   4 C :   -0.029218
   5 C :   -0.035733
   6 C :   -0.021989
   7 H :    0.023390
   8 H :    0.021543
   9 H :    0.024845
  10 H :   -0.001219
  11 H :    0.019523
  12 H :    0.048953
  13 H :    0.054525
  14 H :    0.021312
  15 H :    0.009456
  16 H :    0.016420
  17 H :    0.020816
  18 H :    0.017378
  19 H :    0.018469

  Mayer bond orders larger than 0.1
B(  0-C ,  1-C ) :   1.0615 B(  0-C ,  7-H ) :   0.9534 B(  0-C ,  8-H ) :   0.9487
B(  0-C ,  9-H ) :   0.9552 B(  1-C ,  2-C ) :   1.0037 B(  1-C ,  4-C ) :   1.0657
B(  1-C ,  6-C ) :   1.0641 B(  2-C ,  3-N ) :   1.1214 B(  2-C , 10-H ) :   0.9275
B(  2-C , 11-H ) :   0.9260 B(  3-N , 12-H ) :   0.9619 B(  3-N , 13-H ) :   0.9653
B(  4-C ,  5-C ) :   1.1737 B(  4-C , 14-H ) :   0.9008 B(  4-C , 15-H ) :   0.9233
B(  5-C ,  6-C ) :   1.1785 B(  5-C , 16-H ) :   0.9166 B(  5-C , 17-H ) :   0.9083
B(  6-C , 18-H ) :   0.9057 B(  6-C , 19-H ) :   0.9072

FINAL SINGLE POINT ENERGY      -290.573467352587

DIPOLE MOMENT
-------------
                                X             Y             Z
Electronic contribution:      1.61272      -0.23660      -0.43641
Nuclear contribution   :     -1.68193       0.54362       0.01621
                        -----------------------------------------
Total Dipole Moment    :     -0.06922       0.30702      -0.42020
                        -----------------------------------------
Magnitude (a.u.)       :      0.52500
Magnitude (Debye)      :      1.33444

                             ****ORCA TERMINATED NORMALLY****
TOTAL RUN TIME: 0 days 0 hours 0 minutes 8 seconds 785 msec
