                         Program Version 3.0.3 - RELEASE   -
|  1> ! RI PBE def2-SVP def2-SVP/J NBO PAL2
|  2> % maxcore 2000
|  3> % output
|  4>     # printlevel mini
|  5>     print[ P_Basis ] 0
|  6>     print[ P_SCFInfo ] 1
|  7>     print[ P_SCFIterInfo ] 1
|  8>     print[ P_OrbEn ] 0
|  9>     print[ P_Cartesian ] 0
| 10> end
| 11> *xyz 0 1
| 12>  C        0.9902930000    -0.1279210000     0.3929350000
| 13>  C        2.4705760000    -0.0618470000     0.0413270000
| 14>  C        2.7950860000     1.1850990000    -0.7814130000
| 15>  N        4.1206880000     1.1802580000    -1.3715120000
| 16>  C        4.3129740000     0.0473330000    -2.2596000000
| 17>  C        3.7217660000    -1.2370530000    -1.7601990000
| 18>  C        2.9131550000    -1.2859900000    -0.7071770000
| 19>  H        0.6762470000     0.7636490000     0.9425830000
| 20>  H        0.7677740000    -0.9993410000     1.0140130000
| 21>  H        0.3805040000    -0.1986890000    -0.5123270000
| 22>  H        3.0351530000    -0.0095700000     0.9849120000
| 23>  H        2.6807410000     2.0852630000    -0.1700090000
| 24>  H        2.0672060000     1.2646620000    -1.5987240000
| 25>  H        4.8135530000     1.1442000000    -0.6333220000
| 26>  H        5.3863790000    -0.0782540000    -2.4350010000
| 27>  H        3.8826540000     0.2866600000    -3.2431120000
| 28>  H        3.9734790000    -2.1471480000    -2.2989230000
| 29>  H        2.5232710000    -2.2434230000    -0.3685730000
| 30> *
| 31>
| 32>                          ****END OF INPUT****
 Total Charge           Charge          ....    0
 Multiplicity           Mult            ....    1
 Number of Electrons    NEL             ....   54
 Basis Dimension        Dim             ....  153

MULLIKEN ATOMIC CHARGES
-----------------------
   0 C :    0.002348
   1 C :   -0.077768
   2 C :    0.099656
   3 N :   -0.224018
   4 C :    0.146856
   5 C :   -0.117165
   6 C :   -0.013119
   7 H :    0.017553
   8 H :    0.021281
   9 H :    0.020860
  10 H :    0.009389
  11 H :    0.004559
  12 H :    0.003479
  13 H :    0.097739
  14 H :    0.015684
  15 H :    0.020060
  16 H :   -0.009732
  17 H :   -0.017661
Sum of atomic charges:    0.0000000

LOEWDIN ATOMIC CHARGES
----------------------
   0 C :   -0.056970
   1 C :   -0.066015
   2 C :    0.012071
   3 N :   -0.092483
   4 C :    0.003660
   5 C :   -0.061931
   6 C :   -0.042607
   7 H :    0.025844
   8 H :    0.025682
   9 H :    0.026334
  10 H :    0.028232
  11 H :    0.020091
  12 H :    0.021391
  13 H :    0.053913
  14 H :    0.030136
  15 H :    0.028541
  16 H :    0.022895
  17 H :    0.021216

  Mayer bond orders larger than 0.1
B(  0-C ,  1-C ) :   1.0711 B(  0-C ,  7-H ) :   0.9603 B(  0-C ,  8-H ) :   0.9586
B(  0-C ,  9-H ) :   0.9601 B(  1-C ,  2-C ) :   1.0484 B(  1-C ,  6-C ) :   1.0030
B(  1-C , 10-H ) :   0.8756 B(  2-C ,  3-N ) :   1.0996 B(  2-C , 11-H ) :   0.9381
B(  2-C , 12-H ) :   0.9273 B(  3-N ,  4-C ) :   1.0984 B(  3-N , 13-H ) :   0.9500
B(  4-C ,  5-C ) :   1.0050 B(  4-C , 14-H ) :   0.9294 B(  4-C , 15-H ) :   0.9143
B(  5-C ,  6-C ) :   1.9240 B(  5-C , 16-H ) :   0.9522 B(  6-C , 17-H ) :   0.9658

FINAL SINGLE POINT ENERGY      -289.383688985628

DIPOLE MOMENT
-------------
                                X             Y             Z
Electronic contribution:      3.03999      -0.24777      -1.33763
Nuclear contribution   :     -2.98359       0.02954       1.59764
                        -----------------------------------------
Total Dipole Moment    :      0.05640      -0.21823       0.26001
                        -----------------------------------------
Magnitude (a.u.)       :      0.34411
Magnitude (Debye)      :      0.87467

                             ****ORCA TERMINATED NORMALLY****
TOTAL RUN TIME: 0 days 0 hours 0 minutes 8 seconds 406 msec
