                         Program Version 3.0.3 - RELEASE   -
|  1> ! RI PBE def2-SVP def2-SVP/J NBO PAL2
|  2> % maxcore 2000
|  3> % output
|  4>     # printlevel mini
|  5>     print[ P_Basis ] 0
|  6>     print[ P_SCFInfo ] 1
|  7>     print[ P_SCFIterInfo ] 1
|  8>     print[ P_OrbEn ] 0
|  9>     print[ P_Cartesian ] 0
| 10> end
| 11> *xyz 0 1
| 12>  C        1.0194970000    -0.0372290000    -0.0337030000
| 13>  C        2.5100310000    -0.0018340000    -0.1144270000
| 14>  C        3.2212270000     1.1980130000    -0.1234870000
| 15>  N        4.5436320000     1.2476690000    -0.1946750000
| 16>  C        5.1734880000     0.0821700000    -0.2581930000
| 17>  C        4.4778870000    -1.1179480000    -0.2499740000
| 18>  N        3.1553880000    -1.1650630000    -0.1787280000
| 19>  H        0.5963170000     0.9666320000     0.0148320000
| 20>  H        0.7025070000    -0.5955530000     0.8500630000
| 21>  H        0.6064250000    -0.5511950000    -0.9046050000
| 22>  H        2.6961180000     2.1482660000    -0.0710630000
| 23>  H        6.2576620000     0.1024100000    -0.3170530000
| 24>  H        5.0038310000    -2.0673180000    -0.3024050000
| 25> *
| 26>
| 27>                          ****END OF INPUT****
 Total Charge           Charge          ....    0
 Multiplicity           Mult            ....    1
 Number of Electrons    NEL             ....   50
 Basis Dimension        Dim             ....  128

MULLIKEN ATOMIC CHARGES
-----------------------
   0 C :    0.098502
   1 C :   -0.161591
   2 C :    0.037241
   3 N :   -0.054943
   4 C :    0.008200
   5 C :    0.029608
   6 N :   -0.071941
   7 H :    0.011697
   8 H :    0.045751
   9 H :    0.046101
  10 H :   -0.005624
  11 H :    0.011538
  12 H :    0.005462
Sum of atomic charges:   -0.0000000

LOEWDIN ATOMIC CHARGES
----------------------
   0 C :   -0.059073
   1 C :   -0.016769
   2 C :   -0.010018
   3 N :   -0.039140
   4 C :   -0.015145
   5 C :   -0.003714
   6 N :   -0.049827
   7 H :    0.031813
   8 H :    0.046698
   9 H :    0.046742
  10 H :    0.021051
  11 H :    0.023946
  12 H :    0.023436

  Mayer bond orders larger than 0.1
B(  0-C ,  1-C ) :   1.0753 B(  0-C ,  7-H ) :   0.9481 B(  0-C ,  8-H ) :   0.9405
B(  0-C ,  9-H ) :   0.9406 B(  1-C ,  2-C ) :   1.3506 B(  1-C ,  4-C ) :   0.1001
B(  1-C ,  6-N ) :   1.5047 B(  2-C ,  3-N ) :   1.5615 B(  2-C , 10-H ) :   0.9613
B(  3-N ,  4-C ) :   1.5398 B(  4-C ,  5-C ) :   1.3640 B(  4-C , 11-H ) :   0.9639
B(  5-C ,  6-N ) :   1.5399 B(  5-C , 12-H ) :   0.9617

FINAL SINGLE POINT ENERGY      -303.039501891862

DIPOLE MOMENT
-------------
                                X             Y             Z
Electronic contribution:      4.04612       0.08562      -0.22062
Nuclear contribution   :     -4.30191      -0.15469       0.23167
                        -----------------------------------------
Total Dipole Moment    :     -0.25579      -0.06907       0.01104
                        -----------------------------------------
Magnitude (a.u.)       :      0.26518
Magnitude (Debye)      :      0.67404

                             ****ORCA TERMINATED NORMALLY****
TOTAL RUN TIME: 0 days 0 hours 0 minutes 6 seconds 331 msec
