                         Program Version 3.0.3 - RELEASE   -
|  1> ! RI PBE def2-SVP def2-SVP/J NBO PAL2
|  2> % maxcore 2000
|  3> % output
|  4>     # printlevel mini
|  5>     print[ P_Basis ] 0
|  6>     print[ P_SCFInfo ] 1
|  7>     print[ P_SCFIterInfo ] 1
|  8>     print[ P_OrbEn ] 0
|  9>     print[ P_Cartesian ] 0
| 10> end
| 11> *xyz 0 1
| 12>  C        0.9715400000    -0.0318530000    -0.0430380000
| 13>  N        2.4081400000    -0.1124260000    -0.0364820000
| 14>  C        3.2777580000     0.9232390000    -0.0334730000
| 15>  N        4.5236700000     0.5224910000    -0.0273920000
| 16>  C        4.4735810000    -0.8450790000    -0.0264180000
| 17>  C        5.7137020000    -1.6692110000    -0.0200130000
| 18>  C        3.1652450000    -1.2550860000    -0.0321030000
| 19>  H        0.6767020000     1.0170890000    -0.0452450000
| 20>  H        0.5501200000    -0.5096610000     0.8441440000
| 21>  H        0.5581560000    -0.5111400000    -0.9331970000
| 22>  H        2.9412560000     1.9503720000    -0.0359010000
| 23>  H        6.5805200000    -1.0084670000    -0.0162990000
| 24>  H        5.7799540000    -2.3127540000    -0.9011710000
| 25>  H        5.7715640000    -2.3116800000     0.8625170000
| 26>  H        2.7132720000    -2.2342130000    -0.0333390000
| 27> *
| 28>
| 29>                          ****END OF INPUT****
 Total Charge           Charge          ....    0
 Multiplicity           Mult            ....    1
 Number of Electrons    NEL             ....   52
 Basis Dimension        Dim             ....  138

MULLIKEN ATOMIC CHARGES
-----------------------
   0 C :    0.098969
   1 N :   -0.180353
   2 C :    0.079162
   3 N :   -0.138431
   4 C :   -0.148856
   5 C :    0.092622
   6 C :    0.019624
   7 H :    0.037906
   8 H :    0.045991
   9 H :    0.045907
  10 H :   -0.000014
  11 H :    0.019589
  12 H :    0.024877
  13 H :    0.024851
  14 H :   -0.021842
Sum of atomic charges:   -0.0000000

LOEWDIN ATOMIC CHARGES
----------------------
   0 C :    0.026122
   1 N :    0.060708
   2 C :   -0.019335
   3 N :   -0.116841
   4 C :   -0.056977
   5 C :   -0.067020
   6 C :   -0.062572
   7 H :    0.036042
   8 H :    0.032701
   9 H :    0.032689
  10 H :    0.011631
  11 H :    0.037953
  12 H :    0.034309
  13 H :    0.034307
  14 H :    0.016283

  Mayer bond orders larger than 0.1
B(  0-C ,  1-N ) :   0.9828 B(  0-C ,  7-H ) :   0.9671 B(  0-C ,  8-H ) :   0.9665
B(  0-C ,  9-H ) :   0.9665 B(  1-N ,  2-C ) :   1.2237 B(  1-N ,  6-C ) :   1.1805
B(  2-C ,  3-N ) :   1.6051 B(  2-C , 10-H ) :   0.9681 B(  3-N ,  4-C ) :   1.4418
B(  4-C ,  5-C ) :   1.0946 B(  4-C ,  6-C ) :   1.4754 B(  5-C , 11-H ) :   0.9403
B(  5-C , 12-H ) :   0.9489 B(  5-C , 13-H ) :   0.9489 B(  6-C , 14-H ) :   0.9869

FINAL SINGLE POINT ENERGY      -304.242717680946

DIPOLE MOMENT
-------------
                                X             Y             Z
Electronic contribution:      0.71872       2.45774       0.00097
Nuclear contribution   :     -2.10825      -2.83190      -0.00693
                        -----------------------------------------
Total Dipole Moment    :     -1.38953      -0.37416      -0.00597
                        -----------------------------------------
Magnitude (a.u.)       :      1.43903
Magnitude (Debye)      :      3.65773

                             ****ORCA TERMINATED NORMALLY****
TOTAL RUN TIME: 0 days 0 hours 0 minutes 7 seconds 17 msec
