                         Program Version 3.0.3 - RELEASE   -
|  1> ! RI PBE def2-SVP def2-SVP/J NBO PAL2
|  2> % maxcore 2000
|  3> % output
|  4>     # printlevel mini
|  5>     print[ P_Basis ] 0
|  6>     print[ P_SCFInfo ] 1
|  7>     print[ P_SCFIterInfo ] 1
|  8>     print[ P_OrbEn ] 0
|  9>     print[ P_Cartesian ] 0
| 10> end
| 11> *xyz 0 1
| 12>  C        0.9317220000    -0.0498260000     0.1497360000
| 13>  C        2.4471700000    -0.0804890000    -0.0399160000
| 14>  C        2.9576770000    -1.4694710000    -0.4290600000
| 15>  N        2.6676340000    -1.8532290000    -1.7991870000
| 16>  C        3.1148910000    -0.8343250000    -2.7344890000
| 17>  C        2.5961200000     0.5530780000    -2.3948240000
| 18>  N        2.9558050000     0.8709230000    -1.0240730000
| 19>  H        0.6276260000    -0.7242070000     0.9551280000
| 20>  H        0.3950240000    -0.3497740000    -0.7539430000
| 21>  H        0.5939730000     0.9560990000     0.4140500000
| 22>  H        2.9107100000     0.1798950000     0.9190950000
| 23>  H        2.5452820000    -2.2246380000     0.2458760000
| 24>  H        4.0460250000    -1.4793450000    -0.3073940000
| 25>  H        1.6742410000    -2.0156630000    -1.9157390000
| 26>  H        2.8119890000    -1.1188440000    -3.7457300000
| 27>  H        4.2104520000    -0.8166650000    -2.7099640000
| 28>  H        1.5079040000     0.5829470000    -2.5831090000
| 29>  H        3.0544830000     1.2968850000    -3.0539250000
| 30>  H        2.6630620000     1.8098700000    -0.7875120000
| 31> *
| 32>
| 33>                          ****END OF INPUT****
 Total Charge           Charge          ....    0
 Multiplicity           Mult            ....    1
 Number of Electrons    NEL             ....   56
 Basis Dimension        Dim             ....  158

MULLIKEN ATOMIC CHARGES
-----------------------
   0 C :    0.023288
   1 C :   -0.061875
   2 C :    0.117268
   3 N :   -0.229030
   4 C :    0.072645
   5 C :    0.090701
   6 N :   -0.227614
   7 H :    0.011908
   8 H :    0.008258
   9 H :    0.010385
  10 H :   -0.007143
  11 H :    0.004605
  12 H :    0.006796
  13 H :    0.089293
  14 H :    0.005420
  15 H :    0.008180
  16 H :   -0.019966
  17 H :    0.003157
  18 H :    0.093727
Sum of atomic charges:   -0.0000000

LOEWDIN ATOMIC CHARGES
----------------------
   0 C :   -0.079783
   1 C :   -0.018218
   2 C :    0.007469
   3 N :   -0.091649
   4 C :    0.001534
   5 C :   -0.007917
   6 N :   -0.096771
   7 H :    0.026434
   8 H :    0.015953
   9 H :    0.022802
  10 H :    0.020631
  11 H :    0.020406
  12 H :    0.023042
  13 H :    0.048428
  14 H :    0.020489
  15 H :    0.022378
  16 H :   -0.007696
  17 H :    0.021493
  18 H :    0.050977

  Mayer bond orders larger than 0.1
B(  0-C ,  1-C ) :   1.0516 B(  0-C ,  7-H ) :   0.9524 B(  0-C ,  8-H ) :   0.9490
B(  0-C ,  9-H ) :   0.9579 B(  1-C ,  2-C ) :   1.0405 B(  1-C ,  6-N ) :   1.0586
B(  1-C , 10-H ) :   0.9042 B(  2-C ,  3-N ) :   1.1046 B(  2-C , 11-H ) :   0.9439
B(  2-C , 12-H ) :   0.9166 B(  3-N ,  4-C ) :   1.0883 B(  3-N , 13-H ) :   0.9498
B(  4-C ,  5-C ) :   1.0866 B(  4-C , 14-H ) :   0.9433 B(  4-C , 15-H ) :   0.9160
B(  5-C ,  6-N ) :   1.0505 B(  5-C , 16-H ) :   0.9033 B(  5-C , 17-H ) :   0.9240
B(  6-N , 18-H ) :   0.9432

FINAL SINGLE POINT ENERGY      -306.612093343276

DIPOLE MOMENT
-------------
                                X             Y             Z
Electronic contribution:      2.25981      -0.47600      -0.71694
Nuclear contribution   :     -2.80835       0.86498       0.80764
                        -----------------------------------------
Total Dipole Moment    :     -0.54854       0.38898       0.09070
                        -----------------------------------------
Magnitude (a.u.)       :      0.67855
Magnitude (Debye)      :      1.72475

                             ****ORCA TERMINATED NORMALLY****
TOTAL RUN TIME: 0 days 0 hours 0 minutes 8 seconds 708 msec
