                         Program Version 3.0.3 - RELEASE   -
|  1> ! RI PBE def2-SVP def2-SVP/J NBO PAL2
|  2> % maxcore 2000
|  3> % output
|  4>     # printlevel mini
|  5>     print[ P_Basis ] 0
|  6>     print[ P_SCFInfo ] 1
|  7>     print[ P_SCFIterInfo ] 1
|  8>     print[ P_OrbEn ] 0
|  9>     print[ P_Cartesian ] 0
| 10> end
| 11> *xyz 0 1
| 12>  C        1.1094400000    -0.1592650000     0.3646520000
| 13>  C        2.5671140000     0.0494590000    -0.0003280000
| 14>  C        2.7238070000     0.2292880000    -1.5022890000
| 15>  N        4.1178380000     0.3931110000    -1.8605140000
| 16>  C        3.2795890000     1.0807310000     0.9040100000
| 17>  C        3.8656890000    -0.1196740000     1.6591490000
| 18>  N        3.4726430000    -0.9958530000     0.5420400000
| 19>  H        0.4996240000     0.6913180000     0.0466540000
| 20>  H        0.9889240000    -0.2723050000     1.4453100000
| 21>  H        0.7107320000    -1.0564320000    -0.1196260000
| 22>  H        2.1667480000     1.1232290000    -1.8065200000
| 23>  H        2.2368910000    -0.6321750000    -1.9921800000
| 24>  H        4.2350590000     0.4113750000    -2.8646060000
| 25>  H        4.6333200000    -0.4009720000    -1.4958100000
| 26>  H        2.6330450000     1.7544360000     1.4664020000
| 27>  H        4.0315300000     1.6472530000     0.3566260000
| 28>  H        3.3414830000    -0.3285370000     2.5991260000
| 29>  H        4.9404910000    -0.1059450000     1.8577600000
| 30>  H        3.0147330000    -1.8601410000     0.8054240000
| 31> *
| 32>
| 33>                          ****END OF INPUT****
 Total Charge           Charge          ....    0
 Multiplicity           Mult            ....    1
 Number of Electrons    NEL             ....   56
 Basis Dimension        Dim             ....  158

MULLIKEN ATOMIC CHARGES
-----------------------
   0 C :    0.097089
   1 C :   -0.342690
   2 C :    0.190910
   3 N :   -0.198335
   4 C :    0.067820
   5 C :    0.117537
   6 N :   -0.220564
   7 H :    0.018643
   8 H :    0.005432
   9 H :    0.013338
  10 H :   -0.003910
  11 H :   -0.023606
  12 H :    0.084026
  13 H :    0.085007
  14 H :    0.006587
  15 H :    0.009420
  16 H :    0.001665
  17 H :    0.007329
  18 H :    0.084302
Sum of atomic charges:   -0.0000000

LOEWDIN ATOMIC CHARGES
----------------------
   0 C :   -0.062624
   1 C :   -0.018397
   2 C :    0.004112
   3 N :   -0.108248
   4 C :   -0.031600
   5 C :    0.028055
   6 N :   -0.098761
   7 H :    0.029761
   8 H :    0.024253
   9 H :    0.023523
  10 H :    0.018865
  11 H :   -0.001959
  12 H :    0.050763
  13 H :    0.042912
  14 H :    0.016843
  15 H :    0.025950
  16 H :    0.003981
  17 H :    0.011126
  18 H :    0.041448

  Mayer bond orders larger than 0.1
B(  0-C ,  1-C ) :   1.0569 B(  0-C ,  7-H ) :   0.9466 B(  0-C ,  8-H ) :   0.9465
B(  0-C ,  9-H ) :   0.9448 B(  1-C ,  2-C ) :   1.0184 B(  1-C ,  4-C ) :   1.0497
B(  1-C ,  6-N ) :   1.0663 B(  2-C ,  3-N ) :   1.0961 B(  2-C , 10-H ) :   0.9219
B(  2-C , 11-H ) :   0.9095 B(  3-N , 12-H ) :   0.9632 B(  3-N , 13-H ) :   0.9476
B(  4-C ,  5-C ) :   1.1243 B(  4-C , 14-H ) :   0.9398 B(  4-C , 15-H ) :   0.8832
B(  5-C ,  6-N ) :   1.0454 B(  5-C , 16-H ) :   0.9316 B(  5-C , 17-H ) :   0.9332
B(  6-N , 18-H ) :   0.9458

FINAL SINGLE POINT ENERGY      -306.591466355095

DIPOLE MOMENT
-------------
                                X             Y             Z
Electronic contribution:      2.22394      -0.62931      -0.36443
Nuclear contribution   :     -2.64987       0.28732       0.39085
                        -----------------------------------------
Total Dipole Moment    :     -0.42594      -0.34199       0.02642
                        -----------------------------------------
Magnitude (a.u.)       :      0.54688
Magnitude (Debye)      :      1.39006

                             ****ORCA TERMINATED NORMALLY****
TOTAL RUN TIME: 0 days 0 hours 0 minutes 8 seconds 627 msec
