                         Program Version 3.0.3 - RELEASE   -
|  1> ! RI PBE def2-SVP def2-SVP/J NBO PAL2
|  2> % maxcore 2000
|  3> % output
|  4>     # printlevel mini
|  5>     print[ P_Basis ] 0
|  6>     print[ P_SCFInfo ] 1
|  7>     print[ P_SCFIterInfo ] 1
|  8>     print[ P_OrbEn ] 0
|  9>     print[ P_Cartesian ] 0
| 10> end
| 11> *xyz 0 1
| 12>  C        0.9722320000     0.0458940000     0.1250440000
| 13>  C        2.4865840000    -0.0033870000     0.0098340000
| 14>  C        2.9925960000    -1.2162600000    -0.8015660000
| 15>  N        3.2579850000    -0.7222210000    -2.1482710000
| 16>  C        3.2493130000     0.5503980000    -2.0718300000
| 17>  C        3.5197890000     1.4588180000    -3.2168070000
| 18>  N        3.0198670000     1.0811750000    -0.8127690000
| 19>  H        0.6073360000    -0.7850500000     0.7342900000
| 20>  H        0.5098730000    -0.0282300000    -0.8631570000
| 21>  H        0.6369020000     0.9746630000     0.5958010000
| 22>  H        2.9338270000     0.0264690000     1.0070910000
| 23>  H        2.2645860000    -2.0322310000    -0.8208770000
| 24>  H        3.9204620000    -1.6181650000    -0.3783400000
| 25>  H        3.7029900000     0.8681790000    -4.1116400000
| 26>  H        4.3928680000     2.0832620000    -3.0105220000
| 27>  H        2.6720040000     2.1266640000    -3.3961410000
| 28>  H        2.5692990000     1.9822110000    -0.7569500000
| 29> *
| 30>
| 31>                          ****END OF INPUT****
 Total Charge           Charge          ....    0
 Multiplicity           Mult            ....    1
 Number of Electrons    NEL             ....   54
 Basis Dimension        Dim             ....  148

MULLIKEN ATOMIC CHARGES
-----------------------
   0 C :    0.033730
   1 C :   -0.082103
   2 C :    0.151567
   3 N :   -0.208098
   4 C :   -0.116708
   5 C :    0.091203
   6 N :   -0.154117
   7 H :    0.025416
   8 H :    0.024808
   9 H :    0.017634
  10 H :    0.004303
  11 H :    0.005579
  12 H :    0.014684
  13 H :    0.033370
  14 H :    0.037596
  15 H :    0.024915
  16 H :    0.096221
Sum of atomic charges:    0.0000000

LOEWDIN ATOMIC CHARGES
----------------------
   0 C :   -0.071519
   1 C :   -0.000440
   2 C :    0.010283
   3 N :   -0.160999
   4 C :   -0.003224
   5 C :   -0.068962
   6 N :   -0.033903
   7 H :    0.031112
   8 H :    0.029017
   9 H :    0.023436
  10 H :    0.018339
  11 H :    0.020492
  12 H :    0.023290
  13 H :    0.044616
  14 H :    0.041851
  15 H :    0.035873
  16 H :    0.060738

  Mayer bond orders larger than 0.1
B(  0-C ,  1-C ) :   1.0764 B(  0-C ,  7-H ) :   0.9536 B(  0-C ,  8-H ) :   0.9544
B(  0-C ,  9-H ) :   0.9573 B(  1-C ,  2-C ) :   1.0367 B(  1-C ,  6-N ) :   1.0305
B(  1-C , 10-H ) :   0.9180 B(  2-C ,  3-N ) :   1.0628 B(  2-C , 11-H ) :   0.9375
B(  2-C , 12-H ) :   0.9206 B(  3-N ,  4-C ) :   1.8701 B(  3-N ,  6-N ) :   0.1053
B(  4-C ,  5-C ) :   1.0888 B(  4-C ,  6-N ) :   1.1280 B(  5-C , 13-H ) :   0.9390
B(  5-C , 14-H ) :   0.9416 B(  5-C , 15-H ) :   0.9392 B(  6-N , 16-H ) :   0.9320

FINAL SINGLE POINT ENERGY      -305.433969519020

DIPOLE MOMENT
-------------
                                X             Y             Z
Electronic contribution:      2.75510      -0.78105      -0.99707
Nuclear contribution   :     -3.19889       1.58878       1.53895
                        -----------------------------------------
Total Dipole Moment    :     -0.44379       0.80773       0.54187
                        -----------------------------------------
Magnitude (a.u.)       :      1.06912
Magnitude (Debye)      :      2.71747

                             ****ORCA TERMINATED NORMALLY****
TOTAL RUN TIME: 0 days 0 hours 0 minutes 7 seconds 357 msec
