                         Program Version 3.0.3 - RELEASE   -
|  1> ! RI PBE def2-SVP def2-SVP/J NBO PAL2
|  2> % maxcore 2000
|  3> % output
|  4>     # printlevel mini
|  5>     print[ P_Basis ] 0
|  6>     print[ P_SCFInfo ] 1
|  7>     print[ P_SCFIterInfo ] 1
|  8>     print[ P_OrbEn ] 0
|  9>     print[ P_Cartesian ] 0
| 10> end
| 11> *xyz 0 1
| 12>  C        0.9176990000     0.0998440000    -0.3215920000
| 13>  C        2.3242470000    -0.0386110000     0.2179200000
| 14>  C        2.5972080000    -1.3638270000     0.9548520000
| 15>  N        3.4758880000    -0.9291160000     2.0288510000
| 16>  C        3.6683950000    -1.7654350000     3.1801610000
| 17>  C        3.2759100000     0.4269260000     2.1351290000
| 18>  N        2.6538770000     1.0103610000     1.1922760000
| 19>  H        0.7020740000    -0.6760400000    -1.0613070000
| 20>  H        0.7889680000     1.0737380000    -0.7965320000
| 21>  H        0.1876630000     0.0182820000     0.4876220000
| 22>  H        3.0331540000     0.0650970000    -0.6152080000
| 23>  H        3.0664430000    -2.1249940000     0.3277340000
| 24>  H        1.6675800000    -1.7859630000     1.3721580000
| 25>  H        4.2062250000    -2.6756520000     2.9049100000
| 26>  H        2.7164610000    -2.0592810000     3.6479050000
| 27>  H        4.2677540000    -1.2347060000     3.9219570000
| 28>  H        3.6844740000     0.9501780000     2.9964660000
| 29> *
| 30>
| 31>                          ****END OF INPUT****
 Total Charge           Charge          ....    0
 Multiplicity           Mult            ....    1
 Number of Electrons    NEL             ....   54
 Basis Dimension        Dim             ....  148

MULLIKEN ATOMIC CHARGES
-----------------------
   0 C :    0.035050
   1 C :   -0.080455
   2 C :    0.183748
   3 N :   -0.307990
   4 C :    0.090406
   5 C :    0.104457
   6 N :   -0.200583
   7 H :    0.017967
   8 H :    0.030367
   9 H :    0.015763
  10 H :    0.018245
  11 H :    0.017451
  12 H :   -0.012215
  13 H :    0.031779
  14 H :    0.015026
  15 H :    0.036443
  16 H :    0.004541
Sum of atomic charges:   -0.0000000

LOEWDIN ATOMIC CHARGES
----------------------
   0 C :   -0.064660
   1 C :   -0.002627
   2 C :    0.025679
   3 N :   -0.059188
   4 C :    0.010489
   5 C :    0.019840
   6 N :   -0.151210
   7 H :    0.025845
   8 H :    0.033474
   9 H :    0.024201
  10 H :    0.025792
  11 H :    0.021245
  12 H :    0.007954
  13 H :    0.025259
  14 H :    0.012243
  15 H :    0.031309
  16 H :    0.014356

  Mayer bond orders larger than 0.1
B(  0-C ,  1-C ) :   1.0942 B(  0-C ,  7-H ) :   0.9593 B(  0-C ,  8-H ) :   0.9551
B(  0-C ,  9-H ) :   0.9510 B(  1-C ,  2-C ) :   1.0423 B(  1-C ,  6-N ) :   1.0511
B(  1-C , 10-H ) :   0.8930 B(  2-C ,  3-N ) :   1.0007 B(  2-C , 11-H ) :   0.9341
B(  2-C , 12-H ) :   0.9145 B(  3-N ,  4-C ) :   1.0175 B(  3-N ,  5-C ) :   1.1322
B(  3-N ,  6-N ) :   0.1223 B(  4-C , 13-H ) :   0.9698 B(  4-C , 14-H ) :   0.9494
B(  4-C , 15-H ) :   0.9664 B(  5-C ,  6-N ) :   1.8489 B(  5-C , 16-H ) :   0.9576

FINAL SINGLE POINT ENERGY      -305.419542471195

DIPOLE MOMENT
-------------
                                X             Y             Z
Electronic contribution:      2.57100       3.18347       0.65191
Nuclear contribution   :     -2.40570      -4.18457      -0.28949
                        -----------------------------------------
Total Dipole Moment    :      0.16531      -1.00110       0.36242
                        -----------------------------------------
Magnitude (a.u.)       :      1.07744
Magnitude (Debye)      :      2.73864

                             ****ORCA TERMINATED NORMALLY****
TOTAL RUN TIME: 0 days 0 hours 0 minutes 8 seconds 143 msec
