                         Program Version 3.0.3 - RELEASE   -
|  1> ! RI PBE def2-SVP def2-SVP/J NBO PAL2
|  2> % maxcore 2000
|  3> % output
|  4>     # printlevel mini
|  5>     print[ P_Basis ] 0
|  6>     print[ P_SCFInfo ] 1
|  7>     print[ P_SCFIterInfo ] 1
|  8>     print[ P_OrbEn ] 0
|  9>     print[ P_Cartesian ] 0
| 10> end
| 11> *xyz 0 1
| 12>  C        1.0218740000    -0.0540630000    -0.0586150000
| 13>  C        2.5030140000     0.0055990000    -0.0524820000
| 14>  C        3.3853970000     1.0469220000    -0.0503140000
| 15>  N        4.6799580000     0.5964430000    -0.0442190000
| 16>  C        4.6032490000    -0.7088640000    -0.0426130000
| 17>  C        5.7493760000    -1.6509550000    -0.0364360000
| 18>  N        3.3024350000    -1.1132180000    -0.0474480000
| 19>  H        0.6150100000     0.9573100000    -0.0617830000
| 20>  H        0.6267410000    -0.5670860000     0.8241570000
| 21>  H        0.6341600000    -0.5696370000    -0.9431890000
| 22>  H        3.1533570000     2.1015710000    -0.0528430000
| 23>  H        6.6709880000    -1.0716970000    -0.0332560000
| 24>  H        5.7507710000    -2.2967360000    -0.9196110000
| 25>  H        5.7431820000    -2.2943810000     0.8484340000
| 26>  H        2.9794080000    -2.0650100000    -0.0473920000
| 27> *
| 28>
| 29>                          ****END OF INPUT****
 Total Charge           Charge          ....    0
 Multiplicity           Mult            ....    1
 Number of Electrons    NEL             ....   52
 Basis Dimension        Dim             ....  138

MULLIKEN ATOMIC CHARGES
-----------------------
   0 C :    0.088110
   1 C :   -0.082852
   2 C :   -0.043765
   3 N :   -0.123034
   4 C :   -0.125492
   5 C :    0.090877
   6 N :   -0.050285
   7 H :    0.024396
   8 H :    0.030089
   9 H :    0.030037
  10 H :   -0.027472
  11 H :    0.033479
  12 H :    0.029094
  13 H :    0.029022
  14 H :    0.097797
Sum of atomic charges:   -0.0000000

LOEWDIN ATOMIC CHARGES
----------------------
   0 C :   -0.065174
   1 C :   -0.056462
   2 C :   -0.066994
   3 N :   -0.119807
   4 C :   -0.027730
   5 C :   -0.071720
   6 N :    0.082658
   7 H :    0.044541
   8 H :    0.034767
   9 H :    0.034761
  10 H :    0.013739
  11 H :    0.048213
  12 H :    0.035504
  13 H :    0.035497
  14 H :    0.078208

  Mayer bond orders larger than 0.1
B(  0-C ,  1-C ) :   1.1082 B(  0-C ,  7-H ) :   0.9408 B(  0-C ,  8-H ) :   0.9404
B(  0-C ,  9-H ) :   0.9403 B(  1-C ,  2-C ) :   1.5101 B(  1-C ,  4-C ) :   0.1009
B(  1-C ,  6-N ) :   1.1892 B(  2-C ,  3-N ) :   1.3772 B(  2-C , 10-H ) :   0.9960
B(  3-N ,  4-C ) :   1.6804 B(  4-C ,  5-C ) :   1.0991 B(  4-C ,  6-N ) :   1.2056
B(  5-C , 11-H ) :   0.9343 B(  5-C , 12-H ) :   0.9427 B(  5-C , 13-H ) :   0.9427
B(  6-N , 14-H ) :   0.9357

FINAL SINGLE POINT ENERGY      -304.256053123166

DIPOLE MOMENT
-------------
                                X             Y             Z
Electronic contribution:      1.57771       1.94132       0.00379
Nuclear contribution   :     -2.41736      -3.14759      -0.00556
                        -----------------------------------------
Total Dipole Moment    :     -0.83965      -1.20627      -0.00177
                        -----------------------------------------
Magnitude (a.u.)       :      1.46973
Magnitude (Debye)      :      3.73575

                             ****ORCA TERMINATED NORMALLY****
TOTAL RUN TIME: 0 days 0 hours 0 minutes 6 seconds 996 msec
