                         Program Version 3.0.3 - RELEASE   -
|  1> ! RI PBE def2-SVP def2-SVP/J NBO PAL2
|  2> % maxcore 2000
|  3> % output
|  4>     # printlevel mini
|  5>     print[ P_Basis ] 0
|  6>     print[ P_SCFInfo ] 1
|  7>     print[ P_SCFIterInfo ] 1
|  8>     print[ P_OrbEn ] 0
|  9>     print[ P_Cartesian ] 0
| 10> end
| 11> *xyz 0 1
| 12>  C        0.9752320000    -0.0734700000     0.0109800000
| 13>  N        2.4130750000    -0.1010570000     0.0158780000
| 14>  C        3.2413360000     0.9760580000     0.0222080000
| 15>  N        4.5002380000     0.6315990000     0.0256020000
| 16>  C        4.4929600000    -0.7344070000     0.0212970000
| 17>  C        3.2126940000    -1.2198610000     0.0151750000
| 18>  C        2.6764000000    -2.6014280000     0.0088440000
| 19>  H        0.6432670000     0.9641150000     0.0126860000
| 20>  H        0.5682350000    -0.5685600000     0.8958420000
| 21>  H        0.5744080000    -0.5636510000    -0.8794100000
| 22>  H        2.8572990000     1.9865310000     0.0240250000
| 23>  H        5.4087140000    -1.3071650000     0.0227620000
| 24>  H        3.5036680000    -3.3112840000     0.0098010000
| 25>  H        2.0657500000    -2.8063140000    -0.8766870000
| 26>  H        2.0590130000    -2.8117850000     0.8883980000
| 27> *
| 28>
| 29>                          ****END OF INPUT****
 Total Charge           Charge          ....    0
 Multiplicity           Mult            ....    1
 Number of Electrons    NEL             ....   52
 Basis Dimension        Dim             ....  138

MULLIKEN ATOMIC CHARGES
-----------------------
   0 C :    0.100368
   1 N :   -0.194167
   2 C :    0.073601
   3 N :   -0.133688
   4 C :   -0.042883
   5 C :   -0.080070
   6 C :    0.092998
   7 H :    0.039680
   8 H :    0.043873
   9 H :    0.043730
  10 H :   -0.000043
  11 H :   -0.026952
  12 H :    0.027290
  13 H :    0.028091
  14 H :    0.028172
Sum of atomic charges:    0.0000000

LOEWDIN ATOMIC CHARGES
----------------------
   0 C :    0.024982
   1 N :    0.053169
   2 C :   -0.020962
   3 N :   -0.110772
   4 C :   -0.064250
   5 C :   -0.058028
   6 C :   -0.064470
   7 H :    0.037224
   8 H :    0.031819
   9 H :    0.031799
  10 H :    0.010631
  11 H :    0.013653
  12 H :    0.045747
  13 H :    0.034725
  14 H :    0.034732

  Mayer bond orders larger than 0.1
B(  0-C ,  1-N ) :   0.9931 B(  0-C ,  7-H ) :   0.9645 B(  0-C ,  8-H ) :   0.9642
B(  0-C ,  9-H ) :   0.9642 B(  1-N ,  2-C ) :   1.1911 B(  1-N ,  5-C ) :   1.1886
B(  2-C ,  3-N ) :   1.6469 B(  2-C , 10-H ) :   0.9677 B(  3-N ,  4-C ) :   1.4080
B(  4-C ,  5-C ) :   1.5062 B(  4-C , 11-H ) :   0.9925 B(  5-C ,  6-C ) :   1.1209
B(  6-C , 12-H ) :   0.9358 B(  6-C , 13-H ) :   0.9348 B(  6-C , 14-H ) :   0.9348

FINAL SINGLE POINT ENERGY      -304.243170629326

DIPOLE MOMENT
-------------
                                X             Y             Z
Electronic contribution:      4.51481       3.80946       0.02810
Nuclear contribution   :     -6.04914      -4.38165      -0.03521
                        -----------------------------------------
Total Dipole Moment    :     -1.53433      -0.57219      -0.00711
                        -----------------------------------------
Magnitude (a.u.)       :      1.63757
Magnitude (Debye)      :      4.16237

                             ****ORCA TERMINATED NORMALLY****
TOTAL RUN TIME: 0 days 0 hours 0 minutes 7 seconds 338 msec
