                         Program Version 3.0.3 - RELEASE   -
|  1> ! RI PBE def2-SVP def2-SVP/J NBO PAL2
|  2> % maxcore 2000
|  3> % output
|  4>     # printlevel mini
|  5>     print[ P_Basis ] 0
|  6>     print[ P_SCFInfo ] 1
|  7>     print[ P_SCFIterInfo ] 1
|  8>     print[ P_OrbEn ] 0
|  9>     print[ P_Cartesian ] 0
| 10> end
| 11> *xyz 0 1
| 12>  C        0.9350980000    -0.1505120000    -0.1189400000
| 13>  C        2.4331270000    -0.0368290000    -0.0161860000
| 14>  C        3.0911190000     1.0459100000     0.8919640000
| 15>  N        2.3659350000     1.5232590000     2.0429060000
| 16>  C        4.0900730000    -0.0634910000     1.2492900000
| 17>  N        3.1170780000    -1.0554640000     0.7890420000
| 18>  C        3.5974860000    -2.2428900000     0.1429010000
| 19>  H        0.5208180000     0.6748920000    -0.7050880000
| 20>  H        0.4733900000    -0.1417030000     0.8707660000
| 21>  H        0.6482240000    -1.0821880000    -0.6137520000
| 22>  H        2.8765570000     0.0303820000    -1.0265010000
| 23>  H        3.5028620000     1.9023640000     0.3567360000
| 24>  H        1.9789450000     0.7447050000     2.5635630000
| 25>  H        1.5950830000     2.1210170000     1.7706140000
| 26>  H        4.3843170000    -0.1434980000     2.2999170000
| 27>  H        4.9944000000    -0.0232570000     0.6211350000
| 28>  H        4.1447280000    -2.8633610000     0.8574550000
| 29>  H        4.2705800000    -2.0232690000    -0.7064280000
| 30>  H        2.7577910000    -2.8336660000    -0.2318140000
| 31> *
| 32>
| 33>                          ****END OF INPUT****
 Total Charge           Charge          ....    0
 Multiplicity           Mult            ....    1
 Number of Electrons    NEL             ....   56
 Basis Dimension        Dim             ....  158

MULLIKEN ATOMIC CHARGES
-----------------------
   0 C :    0.085734
   1 C :    0.033748
   2 C :   -0.140829
   3 N :   -0.129491
   4 C :    0.218308
   5 N :   -0.351834
   6 C :    0.086134
   7 H :    0.015475
   8 H :   -0.013928
   9 H :    0.015579
  10 H :   -0.030452
  11 H :    0.004798
  12 H :    0.090089
  13 H :    0.091521
  14 H :    0.001555
  15 H :   -0.015670
  16 H :    0.025551
  17 H :   -0.007730
  18 H :    0.021441
Sum of atomic charges:   -0.0000000

LOEWDIN ATOMIC CHARGES
----------------------
   0 C :   -0.073743
   1 C :    0.000160
   2 C :    0.001267
   3 N :   -0.081909
   4 C :    0.032694
   5 N :   -0.118830
   6 C :   -0.009208
   7 H :    0.028892
   8 H :    0.015668
   9 H :    0.030230
  10 H :   -0.000730
  11 H :    0.013803
  12 H :    0.051642
  13 H :    0.052668
  14 H :    0.010359
  15 H :    0.002930
  16 H :    0.024277
  17 H :   -0.003005
  18 H :    0.022833

  Mayer bond orders larger than 0.1
B(  0-C ,  1-C ) :   1.1193 B(  0-C ,  7-H ) :   0.9515 B(  0-C ,  8-H ) :   0.9308
B(  0-C ,  9-H ) :   0.9475 B(  1-C ,  2-C ) :   0.9396 B(  1-C ,  5-N ) :   0.9856
B(  1-C , 10-H ) :   0.8880 B(  2-C ,  3-N ) :   1.1588 B(  2-C ,  4-C ) :   1.0601
B(  2-C , 11-H ) :   0.9279 B(  3-N , 12-H ) :   0.9602 B(  3-N , 13-H ) :   0.9653
B(  4-C ,  5-N ) :   1.0100 B(  4-C , 14-H ) :   0.9216 B(  4-C , 15-H ) :   0.9115
B(  5-N ,  6-C ) :   1.0465 B(  6-C , 16-H ) :   0.9677 B(  6-C , 17-H ) :   0.9374
B(  6-C , 18-H ) :   0.9662

FINAL SINGLE POINT ENERGY      -306.588129348265

DIPOLE MOMENT
-------------
                                X             Y             Z
Electronic contribution:      0.95621       1.68580       2.00274
Nuclear contribution   :     -1.21262      -1.77834      -2.35586
                        -----------------------------------------
Total Dipole Moment    :     -0.25641      -0.09254      -0.35312
                        -----------------------------------------
Magnitude (a.u.)       :      0.44610
Magnitude (Debye)      :      1.13389

                             ****ORCA TERMINATED NORMALLY****
TOTAL RUN TIME: 0 days 0 hours 0 minutes 8 seconds 530 msec
