                         Program Version 3.0.3 - RELEASE   -
|  1> ! RI PBE def2-SVP def2-SVP/J NBO PAL2
|  2> % maxcore 2000
|  3> % output
|  4>     # printlevel mini
|  5>     print[ P_Basis ] 0
|  6>     print[ P_SCFInfo ] 1
|  7>     print[ P_SCFIterInfo ] 1
|  8>     print[ P_OrbEn ] 0
|  9>     print[ P_Cartesian ] 0
| 10> end
| 11> *xyz 0 1
| 12>  C        1.0197770000     0.0558690000     0.3742970000
| 13>  C        2.4692690000     0.0512740000    -0.0597270000
| 14>  C        2.8913970000    -1.1642690000    -0.9059420000
| 15>  N        3.8213760000    -0.6585560000    -1.9151280000
| 16>  C        3.7031970000     0.6067720000    -1.8749970000
| 17>  N        2.8163020000     1.1418510000    -0.9700060000
| 18>  C        2.9759540000     2.4735210000    -0.4557050000
| 19>  H        0.8153770000    -0.8029200000     1.0184310000
| 20>  H        0.3612390000    -0.0008680000    -0.4954500000
| 21>  H        0.7672000000     0.9564140000     0.9397020000
| 22>  H        3.1133200000     0.1284320000     0.8336560000
| 23>  H        2.0200180000    -1.5993580000    -1.4133460000
| 24>  H        3.3499610000    -1.9569080000    -0.3117830000
| 25>  H        4.2409820000     1.2775020000    -2.5409040000
| 26>  H        3.3356420000     3.1313930000    -1.2486330000
| 27>  H        3.6899930000     2.5157010000     0.3810720000
| 28>  H        2.0194850000     2.8685600000    -0.1066070000
| 29> *
| 30>
| 31>                          ****END OF INPUT****
 Total Charge           Charge          ....    0
 Multiplicity           Mult            ....    1
 Number of Electrons    NEL             ....   54
 Basis Dimension        Dim             ....  148

MULLIKEN ATOMIC CHARGES
-----------------------
   0 C :    0.030133
   1 C :   -0.055406
   2 C :    0.158220
   3 N :   -0.225772
   4 C :    0.102987
   5 N :   -0.287308
   6 C :    0.096694
   7 H :    0.030560
   8 H :    0.024082
   9 H :    0.019729
  10 H :   -0.002465
  11 H :    0.006129
  12 H :    0.016937
  13 H :    0.005241
  14 H :    0.034087
  15 H :    0.016274
  16 H :    0.029878
Sum of atomic charges:    0.0000000

LOEWDIN ATOMIC CHARGES
----------------------
   0 C :   -0.067048
   1 C :    0.009691
   2 C :    0.010828
   3 N :   -0.150026
   4 C :    0.018231
   5 N :   -0.059405
   6 C :    0.011037
   7 H :    0.033720
   8 H :    0.028218
   9 H :    0.025563
  10 H :    0.010318
  11 H :    0.022966
  12 H :    0.023941
  13 H :    0.014123
  14 H :    0.031621
  15 H :    0.012804
  16 H :    0.023418

  Mayer bond orders larger than 0.1
B(  0-C ,  1-C ) :   1.1033 B(  0-C ,  7-H ) :   0.9589 B(  0-C ,  8-H ) :   0.9467
B(  0-C ,  9-H ) :   0.9525 B(  1-C ,  2-C ) :   1.0470 B(  1-C ,  5-N ) :   0.9844
B(  1-C , 10-H ) :   0.8967 B(  2-C ,  3-N ) :   1.0754 B(  2-C , 11-H ) :   0.9160
B(  2-C , 12-H ) :   0.9356 B(  3-N ,  4-C ) :   1.8695 B(  3-N ,  5-N ) :   0.1220
B(  4-C ,  5-N ) :   1.1239 B(  4-C , 13-H ) :   0.9578 B(  5-N ,  6-C ) :   1.0172
B(  6-C , 14-H ) :   0.9642 B(  6-C , 15-H ) :   0.9488 B(  6-C , 16-H ) :   0.9674

FINAL SINGLE POINT ENERGY      -305.418829000632

DIPOLE MOMENT
-------------
                                X             Y             Z
Electronic contribution:      3.47011      -1.73704      -4.01065
Nuclear contribution   :     -3.91254       2.51554       4.73239
                        -----------------------------------------
Total Dipole Moment    :     -0.44243       0.77850       0.72173
                        -----------------------------------------
Magnitude (a.u.)       :      1.15009
Magnitude (Debye)      :      2.92330

                             ****ORCA TERMINATED NORMALLY****
TOTAL RUN TIME: 0 days 0 hours 0 minutes 7 seconds 441 msec
