                         Program Version 3.0.3 - RELEASE   -
|  1> ! RI PBE def2-SVP def2-SVP/J NBO PAL2
|  2> % maxcore 2000
|  3> % output
|  4>     # printlevel mini
|  5>     print[ P_Basis ] 0
|  6>     print[ P_SCFInfo ] 1
|  7>     print[ P_SCFIterInfo ] 1
|  8>     print[ P_OrbEn ] 0
|  9>     print[ P_Cartesian ] 0
| 10> end
| 11> *xyz 0 1
| 12>  C        0.9117850000     0.0419020000    -0.0491390000
| 13>  C        2.4063950000     0.0638510000    -0.0471560000
| 14>  C        3.1396600000     1.2425990000    -0.0445620000
| 15>  N        4.4673340000     1.2744110000    -0.0427690000
| 16>  C        5.0772280000     0.0979640000    -0.0435970000
| 17>  N        4.4964550000    -1.0958390000    -0.0460210000
| 18>  C        3.1704510000    -1.0983810000    -0.0477700000
| 19>  H        0.5055500000     1.0545140000    -0.0483020000
| 20>  H        0.5224030000    -0.4771730000     0.8302580000
| 21>  H        0.5247020000    -0.4747980000    -0.9309460000
| 22>  H        2.6309360000     2.2050680000    -0.0438920000
| 23>  H        6.1638740000     0.1111120000    -0.0421460000
| 24>  H        2.6881070000    -2.0745410000    -0.0497580000
| 25> *
| 26>
| 27>                          ****END OF INPUT****
 Total Charge           Charge          ....    0
 Multiplicity           Mult            ....    1
 Number of Electrons    NEL             ....   50
 Basis Dimension        Dim             ....  128

MULLIKEN ATOMIC CHARGES
-----------------------
   0 C :    0.065407
   1 C :   -0.141446
   2 C :    0.040982
   3 N :   -0.094017
   4 C :    0.049116
   5 N :   -0.095008
   6 C :    0.042129
   7 H :    0.023484
   8 H :    0.046192
   9 H :    0.046138
  10 H :   -0.001568
  11 H :    0.020468
  12 H :   -0.001877
Sum of atomic charges:   -0.0000000

LOEWDIN ATOMIC CHARGES
----------------------
   0 C :   -0.051935
   1 C :   -0.067620
   2 C :    0.025838
   3 N :   -0.072357
   4 C :    0.023190
   5 N :   -0.072134
   6 C :    0.030249
   7 H :    0.035513
   8 H :    0.044317
   9 H :    0.044308
  10 H :    0.021495
  11 H :    0.017394
  12 H :    0.021741

  Mayer bond orders larger than 0.1
B(  0-C ,  1-C ) :   1.0669 B(  0-C ,  7-H ) :   0.9524 B(  0-C ,  8-H ) :   0.9480
B(  0-C ,  9-H ) :   0.9480 B(  1-C ,  2-C ) :   1.3821 B(  1-C ,  6-C ) :   1.3623
B(  2-C ,  3-N ) :   1.5447 B(  2-C , 10-H ) :   0.9719 B(  3-N ,  4-C ) :   1.5173
B(  4-C ,  5-N ) :   1.5031 B(  4-C , 11-H ) :   0.9632 B(  5-N ,  6-C ) :   1.5562
B(  6-C , 12-H ) :   0.9797

FINAL SINGLE POINT ENERGY      -303.042252067458

DIPOLE MOMENT
-------------
                                X             Y             Z
Electronic contribution:      5.53782       0.05434       0.00735
Nuclear contribution   :     -6.61711      -0.09723      -0.00879
                        -----------------------------------------
Total Dipole Moment    :     -1.07929      -0.04289      -0.00143
                        -----------------------------------------
Magnitude (a.u.)       :      1.08014
Magnitude (Debye)      :      2.74551

                             ****ORCA TERMINATED NORMALLY****
TOTAL RUN TIME: 0 days 0 hours 0 minutes 6 seconds 343 msec
