                         Program Version 3.0.3 - RELEASE   -
|  1> ! RI PBE def2-SVP def2-SVP/J NBO PAL2
|  2> % maxcore 2000
|  3> % output
|  4>     # printlevel mini
|  5>     print[ P_Basis ] 0
|  6>     print[ P_SCFInfo ] 1
|  7>     print[ P_SCFIterInfo ] 1
|  8>     print[ P_OrbEn ] 0
|  9>     print[ P_Cartesian ] 0
| 10> end
| 11> *xyz 0 1
| 12>  C        0.9108260000    -0.0688760000     0.0525380000
| 13>  C        2.2373580000    -0.0613580000     0.0573280000
| 14>  C        2.9783580000     1.2538560000     0.0641810000
| 15>  N        4.4073090000     1.0806170000     0.0694100000
| 16>  C        5.0144970000    -0.1356360000     0.0680620000
| 17>  N        4.4706060000    -1.2808240000     0.0621850000
| 18>  C        3.0308440000    -1.3510680000     0.0559950000
| 19>  H        0.3321340000     0.8494220000     0.0534060000
| 20>  H        0.3539500000    -0.9997610000     0.0475400000
| 21>  H        2.6698970000     1.8296820000     0.9451230000
| 22>  H        2.6769600000     1.8349170000    -0.8157740000
| 23>  H        4.9862700000     1.8993150000     0.0743410000
| 24>  H        6.1037920000    -0.0762340000     0.0727390000
| 25>  H        2.7219070000    -1.9474270000     0.9228200000
| 26>  H        2.7290940000    -1.9412330000    -0.8175840000
| 27> *
| 28>
| 29>                          ****END OF INPUT****
 Total Charge           Charge          ....    0
 Multiplicity           Mult            ....    1
 Number of Electrons    NEL             ....   52
 Basis Dimension        Dim             ....  138

MULLIKEN ATOMIC CHARGES
-----------------------
   0 C :   -0.028618
   1 C :   -0.276359
   2 C :    0.212535
   3 N :   -0.173626
   4 C :    0.033807
   5 N :   -0.213542
   6 C :    0.162572
   7 H :    0.005447
   8 H :    0.014032
   9 H :    0.035570
  10 H :    0.035662
  11 H :    0.111110
  12 H :    0.006120
  13 H :    0.037712
  14 H :    0.037579
Sum of atomic charges:   -0.0000000

LOEWDIN ATOMIC CHARGES
----------------------
   0 C :   -0.072901
   1 C :   -0.047566
   2 C :    0.028377
   3 N :   -0.019589
   4 C :    0.001533
   5 N :   -0.165764
   6 C :   -0.000899
   7 H :    0.019630
   8 H :    0.023986
   9 H :    0.032662
  10 H :    0.032681
  11 H :    0.072680
  12 H :    0.014435
  13 H :    0.040379
  14 H :    0.040357

  Mayer bond orders larger than 0.1
B(  0-C ,  1-C ) :   2.0146 B(  0-C ,  7-H ) :   0.9342 B(  0-C ,  8-H ) :   0.9394
B(  1-C ,  2-C ) :   1.0156 B(  1-C ,  6-C ) :   0.9953 B(  2-C ,  3-N ) :   1.0017
B(  2-C ,  9-H ) :   0.9265 B(  2-C , 10-H ) :   0.9265 B(  3-N ,  4-C ) :   1.1834
B(  3-N ,  5-N ) :   0.1419 B(  3-N , 11-H ) :   0.9299 B(  4-C ,  5-N ) :   1.8815
B(  4-C , 12-H ) :   0.9508 B(  5-N ,  6-C ) :   1.0988 B(  6-C , 13-H ) :   0.9216
B(  6-C , 14-H ) :   0.9215

FINAL SINGLE POINT ENERGY      -304.199644325730

DIPOLE MOMENT
-------------
                                X             Y             Z
Electronic contribution:      3.38839      -0.59314       0.01166
Nuclear contribution   :     -3.58373       1.80408      -0.00861
                        -----------------------------------------
Total Dipole Moment    :     -0.19534       1.21094       0.00305
                        -----------------------------------------
Magnitude (a.u.)       :      1.22660
Magnitude (Debye)      :      3.11776

                             ****ORCA TERMINATED NORMALLY****
TOTAL RUN TIME: 0 days 0 hours 0 minutes 7 seconds 161 msec
