                         Program Version 3.0.3 - RELEASE   -
|  1> ! RI PBE def2-SVP def2-SVP/J NBO PAL2
|  2> % maxcore 2000
|  3> % output
|  4>     # printlevel mini
|  5>     print[ P_Basis ] 0
|  6>     print[ P_SCFInfo ] 1
|  7>     print[ P_SCFIterInfo ] 1
|  8>     print[ P_OrbEn ] 0
|  9>     print[ P_Cartesian ] 0
| 10> end
| 11> *xyz 0 1
| 12>  C        0.9898760000    -0.0542010000     0.3071720000
| 13>  C        2.2701480000    -0.0496570000    -0.0297130000
| 14>  C        3.1148680000     1.1959280000    -0.1840390000
| 15>  N        4.4059370000     0.6723090000    -0.5539760000
| 16>  C        4.4950570000    -0.6881320000    -0.6521480000
| 17>  N        5.4889020000    -1.4206180000    -0.9550620000
| 18>  C        3.1320190000    -1.2458570000    -0.3221940000
| 19>  H        0.4500390000     0.8667570000     0.4997270000
| 20>  H        0.4334450000    -0.9794840000     0.4030720000
| 21>  H        3.1568510000     1.7648850000     0.7528720000
| 22>  H        2.7055110000     1.8592480000    -0.9558450000
| 23>  H        5.1965900000     1.2658780000    -0.7303850000
| 24>  H        6.3230370000    -0.8678090000    -1.1453010000
| 25>  H        3.2102230000    -1.9255740000     0.5295930000
| 26>  H        2.7622860000    -1.8340620000    -1.1653620000
| 27> *
| 28>
| 29>                          ****END OF INPUT****
 Total Charge           Charge          ....    0
 Multiplicity           Mult            ....    1
 Number of Electrons    NEL             ....   52
 Basis Dimension        Dim             ....  138

MULLIKEN ATOMIC CHARGES
-----------------------
   0 C :   -0.039642
   1 C :   -0.259682
   2 C :    0.241524
   3 N :   -0.186878
   4 C :   -0.164755
   5 N :   -0.097125
   6 C :    0.150413
   7 H :    0.008988
   8 H :    0.015306
   9 H :    0.028588
  10 H :    0.031065
  11 H :    0.097285
  12 H :    0.068030
  13 H :    0.054336
  14 H :    0.052550
Sum of atomic charges:    0.0000000

LOEWDIN ATOMIC CHARGES
----------------------
   0 C :   -0.072221
   1 C :   -0.032340
   2 C :    0.034858
   3 N :   -0.019351
   4 C :   -0.000214
   5 N :   -0.190305
   6 C :   -0.036177
   7 H :    0.023464
   8 H :    0.026690
   9 H :    0.026363
  10 H :    0.026584
  11 H :    0.066539
  12 H :    0.037044
  13 H :    0.054753
  14 H :    0.054312

  Mayer bond orders larger than 0.1
B(  0-C ,  1-C ) :   2.0366 B(  0-C ,  7-H ) :   0.9307 B(  0-C ,  8-H ) :   0.9335
B(  1-C ,  2-C ) :   0.9964 B(  1-C ,  6-C ) :   1.0665 B(  2-C ,  3-N ) :   0.9991
B(  2-C ,  9-H ) :   0.9207 B(  2-C , 10-H ) :   0.9216 B(  3-N ,  4-C ) :   1.1834
B(  3-N ,  5-N ) :   0.1066 B(  3-N , 11-H ) :   0.9324 B(  4-C ,  5-N ) :   2.0015
B(  4-C ,  6-C ) :   0.9465 B(  5-N , 12-H ) :   0.9215 B(  6-C , 13-H ) :   0.9013
B(  6-C , 14-H ) :   0.9018

FINAL SINGLE POINT ENERGY      -304.213807964783

DIPOLE MOMENT
-------------
                                X             Y             Z
Electronic contribution:      2.81661      -0.54411      -0.77360
Nuclear contribution   :     -3.10231       1.73483       0.91479
                        -----------------------------------------
Total Dipole Moment    :     -0.28570       1.19072       0.14119
                        -----------------------------------------
Magnitude (a.u.)       :      1.23263
Magnitude (Debye)      :      3.13309

                             ****ORCA TERMINATED NORMALLY****
TOTAL RUN TIME: 0 days 0 hours 0 minutes 7 seconds 100 msec
