                         Program Version 3.0.3 - RELEASE   -
|  1> ! RI PBE def2-SVP def2-SVP/J NBO PAL2
|  2> % maxcore 2000
|  3> % output
|  4>     # printlevel mini
|  5>     print[ P_Basis ] 0
|  6>     print[ P_SCFInfo ] 1
|  7>     print[ P_SCFIterInfo ] 1
|  8>     print[ P_OrbEn ] 0
|  9>     print[ P_Cartesian ] 0
| 10> end
| 11> *xyz 0 1
| 12>  C        1.0356900000    -0.0306360000     0.0305940000
| 13>  C        2.5226280000    -0.0345360000     0.0279890000
| 14>  C        3.2681130000     1.0749050000     0.0376790000
| 15>  N        4.6632860000     1.1188130000     0.0357070000
| 16>  C        5.2348460000    -0.0262120000     0.0234180000
| 17>  N        4.6170460000    -1.2278400000     0.0126130000
| 18>  C        3.1763490000    -1.3857480000     0.0134830000
| 19>  H        0.6411200000     0.9863140000     0.0413200000
| 20>  H        0.6380210000    -0.5609810000     0.9048390000
| 21>  H        0.6349870000    -0.5436210000    -0.8525780000
| 22>  H        2.7837880000     2.0472320000     0.0481360000
| 23>  H        6.3226770000    -0.0783830000     0.0210400000
| 24>  H        5.1903330000    -2.0522450000     0.0034910000
| 25>  H        2.8520440000    -1.9742010000     0.8877350000
| 26>  H        2.8490640000    -1.9567610000    -0.8711640000
| 27> *
| 28>
| 29>                          ****END OF INPUT****
 Total Charge           Charge          ....    0
 Multiplicity           Mult            ....    1
 Number of Electrons    NEL             ....   52
 Basis Dimension        Dim             ....  138

MULLIKEN ATOMIC CHARGES
-----------------------
   0 C :    0.064922
   1 C :   -0.263105
   2 C :    0.028154
   3 N :   -0.159176
   4 C :    0.075133
   5 N :   -0.163989
   6 C :    0.234045
   7 H :    0.018565
   8 H :    0.022273
   9 H :    0.022093
  10 H :   -0.024437
  11 H :    0.009555
  12 H :    0.114465
  13 H :    0.010919
  14 H :    0.010584
Sum of atomic charges:   -0.0000000

LOEWDIN ATOMIC CHARGES
----------------------
   0 C :   -0.052053
   1 C :   -0.084653
   2 C :   -0.022666
   3 N :   -0.152688
   4 C :    0.035550
   5 N :    0.009710
   6 C :    0.034137
   7 H :    0.034010
   8 H :    0.031284
   9 H :    0.031240
  10 H :    0.016350
  11 H :    0.016777
  12 H :    0.074961
  13 H :    0.014066
  14 H :    0.013975

  Mayer bond orders larger than 0.1
B(  0-C ,  1-C ) :   1.1074 B(  0-C ,  7-H ) :   0.9527 B(  0-C ,  8-H ) :   0.9416
B(  0-C ,  9-H ) :   0.9416 B(  1-C ,  2-C ) :   1.7723 B(  1-C ,  6-C ) :   1.0293
B(  2-C ,  3-N ) :   1.2337 B(  2-C , 10-H ) :   0.9666 B(  3-N ,  4-C ) :   1.7755
B(  3-N ,  5-N ) :   0.1189 B(  4-C ,  5-N ) :   1.2385 B(  4-C , 11-H ) :   0.9530
B(  5-N ,  6-C ) :   0.9937 B(  5-N , 12-H ) :   0.9290 B(  6-C , 13-H ) :   0.9201
B(  6-C , 14-H ) :   0.9201

FINAL SINGLE POINT ENERGY      -304.219555321030

DIPOLE MOMENT
-------------
                                X             Y             Z
Electronic contribution:      5.45561       1.71624       0.00789
Nuclear contribution   :     -5.59196      -3.05490      -0.02060
                        -----------------------------------------
Total Dipole Moment    :     -0.13634      -1.33867      -0.01271
                        -----------------------------------------
Magnitude (a.u.)       :      1.34565
Magnitude (Debye)      :      3.42037

                             ****ORCA TERMINATED NORMALLY****
TOTAL RUN TIME: 0 days 0 hours 0 minutes 6 seconds 630 msec
