                         Program Version 3.0.3 - RELEASE   -
|  1> ! RI PBE def2-SVP def2-SVP/J NBO PAL2
|  2> % maxcore 2000
|  3> % output
|  4>     # printlevel mini
|  5>     print[ P_Basis ] 0
|  6>     print[ P_SCFInfo ] 1
|  7>     print[ P_SCFIterInfo ] 1
|  8>     print[ P_OrbEn ] 0
|  9>     print[ P_Cartesian ] 0
| 10> end
| 11> *xyz 0 1
| 12>  C        1.0242160000    -0.0813770000     0.1926420000
| 13>  C        2.4959600000    -0.0789360000     0.0122530000
| 14>  C        3.3120550000    -1.1256970000    -0.1179650000
| 15>  N        4.6418590000    -0.7252030000    -0.2694770000
| 16>  C        4.7552890000     0.6499440000    -0.2437820000
| 17>  N        5.7848860000     1.3855420000    -0.3488460000
| 18>  C        3.3406130000     1.1637940000    -0.0555110000
| 19>  H        0.6294210000    -1.0990640000     0.2117310000
| 20>  H        0.5194200000     0.4596420000    -0.6153710000
| 21>  H        0.7331800000     0.4094170000     1.1279640000
| 22>  H        3.0653850000    -2.1786780000    -0.1180520000
| 23>  H        5.4188520000    -1.3494980000    -0.3827470000
| 24>  H        6.6332490000     0.8349930000    -0.4687280000
| 25>  H        3.0682000000     1.8215470000    -0.8872020000
| 26>  H        3.2816160000     1.7713910000     0.8532820000
| 27> *
| 28>
| 29>                          ****END OF INPUT****
 Total Charge           Charge          ....    0
 Multiplicity           Mult            ....    1
 Number of Electrons    NEL             ....   52
 Basis Dimension        Dim             ....  138

MULLIKEN ATOMIC CHARGES
-----------------------
   0 C :    0.086323
   1 C :   -0.244552
   2 C :    0.061837
   3 N :   -0.102729
   4 C :   -0.168109
   5 N :   -0.086335
   6 C :    0.143280
   7 H :    0.009447
   8 H :    0.027285
   9 H :    0.024137
  10 H :   -0.016448
  11 H :    0.099247
  12 H :    0.071161
  13 H :    0.048346
  14 H :    0.047109
Sum of atomic charges:   -0.0000000

LOEWDIN ATOMIC CHARGES
----------------------
   0 C :   -0.056382
   1 C :   -0.089127
   2 C :   -0.006894
   3 N :    0.013995
   4 C :    0.011465
   5 N :   -0.174568
   6 C :   -0.031227
   7 H :    0.032323
   8 H :    0.033857
   9 H :    0.033324
  10 H :    0.019698
  11 H :    0.071134
  12 H :    0.039258
  13 H :    0.051708
  14 H :    0.051436

  Mayer bond orders larger than 0.1
B(  0-C ,  1-C ) :   1.1311 B(  0-C ,  7-H ) :   0.9486 B(  0-C ,  8-H ) :   0.9418
B(  0-C ,  9-H ) :   0.9409 B(  1-C ,  2-C ) :   1.7405 B(  1-C ,  6-C ) :   1.0712
B(  2-C ,  3-N ) :   1.0547 B(  2-C , 10-H ) :   0.9798 B(  3-N ,  4-C ) :   1.1470
B(  3-N , 11-H ) :   0.9355 B(  4-C ,  5-N ) :   2.0044 B(  4-C ,  6-C ) :   0.9710
B(  5-N , 12-H ) :   0.9214 B(  6-C , 13-H ) :   0.8982 B(  6-C , 14-H ) :   0.8985

FINAL SINGLE POINT ENERGY      -304.225893160705

DIPOLE MOMENT
-------------
                                X             Y             Z
Electronic contribution:      5.03728      -0.46646      -0.63415
Nuclear contribution   :     -5.31537      -0.63959       0.63333
                        -----------------------------------------
Total Dipole Moment    :     -0.27809      -1.10605      -0.00082
                        -----------------------------------------
Magnitude (a.u.)       :      1.14048
Magnitude (Debye)      :      2.89886

                             ****ORCA TERMINATED NORMALLY****
TOTAL RUN TIME: 0 days 0 hours 0 minutes 7 seconds 525 msec
