                         Program Version 3.0.3 - RELEASE   -
|  1> ! RI PBE def2-SVP def2-SVP/J NBO PAL2
|  2> % maxcore 2000
|  3> % output
|  4>     # printlevel mini
|  5>     print[ P_Basis ] 0
|  6>     print[ P_SCFInfo ] 1
|  7>     print[ P_SCFIterInfo ] 1
|  8>     print[ P_OrbEn ] 0
|  9>     print[ P_Cartesian ] 0
| 10> end
| 11> *xyz 0 1
| 12>  C        0.8871130000    -0.1004010000     0.0255940000
| 13>  C        2.3905510000    -0.0029400000    -0.1080720000
| 14>  C        2.7854440000     0.0459480000    -1.5794090000
| 15>  N        4.2073760000    -0.1543310000    -1.7964350000
| 16>  C        3.0803050000     1.0951230000     0.7357030000
| 17>  N        4.0985380000     0.1171560000     1.1444460000
| 18>  C        3.2286470000    -0.9978960000     0.7311260000
| 19>  H        0.3910620000     0.7299950000    -0.4867790000
| 20>  H        0.5804820000    -0.0772370000     1.0739110000
| 21>  H        0.5148810000    -1.0303670000    -0.4138160000
| 22>  H        2.4110160000     1.0048270000    -1.9761480000
| 23>  H        2.2373170000    -0.7435420000    -2.1099410000
| 24>  H        4.7540690000     0.2802740000    -1.0611740000
| 25>  H        4.5007570000     0.2219950000    -2.6866800000
| 26>  H        2.4349010000     1.4497910000     1.5501700000
| 27>  H        3.4733750000     1.9660050000     0.1984320000
| 28>  H        4.3642590000     0.1343370000     2.1198550000
| 29>  H        2.6366440000    -1.4320000000     1.5473370000
| 30>  H        3.7444430000    -1.7930280000     0.1881700000
| 31> *
| 32>
| 33>                          ****END OF INPUT****
 Total Charge           Charge          ....    0
 Multiplicity           Mult            ....    1
 Number of Electrons    NEL             ....   56
 Basis Dimension        Dim             ....  158

MULLIKEN ATOMIC CHARGES
-----------------------
   0 C :    0.094710
   1 C :   -0.541494
   2 C :    0.197166
   3 N :   -0.210594
   4 C :    0.221858
   5 N :   -0.286883
   6 C :    0.251660
   7 H :    0.016629
   8 H :    0.006335
   9 H :    0.018274
  10 H :   -0.019381
  11 H :   -0.002614
  12 H :    0.089622
  13 H :    0.084429
  14 H :   -0.012399
  15 H :    0.001160
  16 H :    0.092524
  17 H :   -0.016103
  18 H :    0.015101
Sum of atomic charges:   -0.0000000

LOEWDIN ATOMIC CHARGES
----------------------
   0 C :   -0.052310
   1 C :   -0.071375
   2 C :    0.020500
   3 N :   -0.112690
   4 C :    0.030559
   5 N :   -0.106466
   6 C :    0.036128
   7 H :    0.026937
   8 H :    0.020899
   9 H :    0.027987
  10 H :   -0.000865
  11 H :    0.014067
  12 H :    0.045710
  13 H :    0.051584
  14 H :    0.003940
  15 H :    0.003773
  16 H :    0.046727
  17 H :    0.002455
  18 H :    0.012440

  Mayer bond orders larger than 0.1
B(  0-C ,  1-C ) :   1.0718 B(  0-C ,  7-H ) :   0.9543 B(  0-C ,  8-H ) :   0.9480
B(  0-C ,  9-H ) :   0.9532 B(  1-C ,  2-C ) :   1.0119 B(  1-C ,  4-C ) :   1.0062
B(  1-C ,  6-C ) :   1.0130 B(  2-C ,  3-N ) :   1.1130 B(  2-C , 10-H ) :   0.9166
B(  2-C , 11-H ) :   0.9254 B(  3-N , 12-H ) :   0.9467 B(  3-N , 13-H ) :   0.9629
B(  4-C ,  5-N ) :   1.0387 B(  4-C , 14-H ) :   0.9187 B(  4-C , 15-H ) :   0.9317
B(  5-N ,  6-C ) :   1.0278 B(  5-N , 16-H ) :   0.9401 B(  6-C , 17-H ) :   0.9209
B(  6-C , 18-H ) :   0.9247

FINAL SINGLE POINT ENERGY      -306.582696452081

DIPOLE MOMENT
-------------
                                X             Y             Z
Electronic contribution:      3.01219      -0.19022       0.70210
Nuclear contribution   :     -3.33341       0.59100      -0.40883
                        -----------------------------------------
Total Dipole Moment    :     -0.32122       0.40078       0.29326
                        -----------------------------------------
Magnitude (a.u.)       :      0.59145
Magnitude (Debye)      :      1.50335

                             ****ORCA TERMINATED NORMALLY****
TOTAL RUN TIME: 0 days 0 hours 0 minutes 8 seconds 18 msec
