                         Program Version 3.0.3 - RELEASE   -
|  1> ! RI PBE def2-SVP def2-SVP/J NBO PAL2
|  2> % maxcore 2000
|  3> % output
|  4>     # printlevel mini
|  5>     print[ P_Basis ] 0
|  6>     print[ P_SCFInfo ] 1
|  7>     print[ P_SCFIterInfo ] 1
|  8>     print[ P_OrbEn ] 0
|  9>     print[ P_Cartesian ] 0
| 10> end
| 11> *xyz 0 1
| 12>  C        0.9965070000     0.0390990000    -0.4844220000
| 13>  C        2.3944680000    -0.1186190000     0.0838060000
| 14>  C        2.6440550000    -1.4063700000     0.8663270000
| 15>  N        3.6315820000    -0.9915020000     1.8581090000
| 16>  C        3.7324580000    -1.7912220000     3.0494530000
| 17>  N        3.4560230000     0.3508730000     2.1046280000
| 18>  C        2.7874230000     0.8676060000     1.1506460000
| 19>  H        0.7828740000    -0.7325280000    -1.2281140000
| 20>  H        0.8782390000     1.0089860000    -0.9733670000
| 21>  H        0.2447910000    -0.0342180000     0.3053840000
| 22>  H        3.1247190000    -0.0391190000    -0.7355560000
| 23>  H        3.0148300000    -2.2339190000     0.2599970000
| 24>  H        1.7127350000    -1.7265770000     1.3679280000
| 25>  H        4.0671780000    -2.7955970000     2.7824710000
| 26>  H        2.7725890000    -1.8727210000     3.5845200000
| 27>  H        4.4675010000    -1.3420500000     3.7163010000
| 28>  H        2.6127280000     1.9365750000     1.1210890000
| 29> *
| 30>
| 31>                          ****END OF INPUT****
 Total Charge           Charge          ....    0
 Multiplicity           Mult            ....    1
 Number of Electrons    NEL             ....   54
 Basis Dimension        Dim             ....  148

MULLIKEN ATOMIC CHARGES
-----------------------
   0 C :    0.021182
   1 C :   -0.161829
   2 C :    0.201921
   3 N :   -0.276439
   4 C :    0.112876
   5 N :   -0.045405
   6 C :   -0.040989
   7 H :    0.027920
   8 H :    0.026513
   9 H :    0.024188
  10 H :    0.033577
  11 H :    0.017246
  12 H :   -0.009628
  13 H :    0.019941
  14 H :    0.004210
  15 H :    0.039419
  16 H :    0.005298
Sum of atomic charges:   -0.0000000

LOEWDIN ATOMIC CHARGES
----------------------
   0 C :   -0.057827
   1 C :   -0.067536
   2 C :    0.024868
   3 N :   -0.041432
   4 C :   -0.001209
   5 N :   -0.031732
   6 C :   -0.057466
   7 H :    0.028839
   8 H :    0.030655
   9 H :    0.026162
  10 H :    0.037843
  11 H :    0.023834
  12 H :    0.007184
  13 H :    0.023195
  14 H :    0.005220
  15 H :    0.031892
  16 H :    0.017511

  Mayer bond orders larger than 0.1
B(  0-C ,  1-C ) :   1.0883 B(  0-C ,  7-H ) :   0.9624 B(  0-C ,  8-H ) :   0.9608
B(  0-C ,  9-H ) :   0.9588 B(  1-C ,  2-C ) :   1.0687 B(  1-C ,  6-C ) :   0.9822
B(  1-C , 10-H ) :   0.8707 B(  2-C ,  3-N ) :   0.9589 B(  2-C , 11-H ) :   0.9315
B(  2-C , 12-H ) :   0.9177 B(  3-N ,  4-C ) :   1.0169 B(  3-N ,  5-N ) :   1.0576
B(  3-N ,  6-C ) :   0.1087 B(  4-C , 13-H ) :   0.9662 B(  4-C , 14-H ) :   0.9476
B(  4-C , 15-H ) :   0.9664 B(  5-N ,  6-C ) :   1.8711 B(  6-C , 16-H ) :   0.9804

FINAL SINGLE POINT ENERGY      -305.393855839359

DIPOLE MOMENT
-------------
                                X             Y             Z
Electronic contribution:      3.53539       2.51321       1.59424
Nuclear contribution   :     -3.96256      -2.96679      -2.06713
                        -----------------------------------------
Total Dipole Moment    :     -0.42716      -0.45358      -0.47290
                        -----------------------------------------
Magnitude (a.u.)       :      0.78220
Magnitude (Debye)      :      1.98820

                             ****ORCA TERMINATED NORMALLY****
TOTAL RUN TIME: 0 days 0 hours 0 minutes 7 seconds 984 msec
