                         Program Version 3.0.3 - RELEASE   -
|  1> ! RI PBE def2-SVP def2-SVP/J NBO PAL2
|  2> % maxcore 2000
|  3> % output
|  4>     # printlevel mini
|  5>     print[ P_Basis ] 0
|  6>     print[ P_SCFInfo ] 1
|  7>     print[ P_SCFIterInfo ] 1
|  8>     print[ P_OrbEn ] 0
|  9>     print[ P_Cartesian ] 0
| 10> end
| 11> *xyz 0 1
| 12>  C        0.9255360000     0.0947270000    -0.3304590000
| 13>  C        2.3435340000     0.0698940000     0.2229850000
| 14>  C        3.1338260000     1.3061070000    -0.1962770000
| 15>  N        3.4700590000     1.1982920000    -1.5974300000
| 16>  C        3.5916400000    -0.0166410000    -2.1989420000
| 17>  N        3.4479410000    -1.1591170000    -1.6600820000
| 18>  C        3.1115860000    -1.1677720000    -0.2479270000
| 19>  H        0.3820870000     0.9801680000     0.0106140000
| 20>  H        0.3685990000    -0.7872540000    -0.0057860000
| 21>  H        0.9280720000     0.0986240000    -1.4225660000
| 22>  H        2.2958810000     0.0571230000     1.3169560000
| 23>  H        4.0409540000     1.3946210000     0.4148730000
| 24>  H        2.5429060000     2.2126810000    -0.0373410000
| 25>  H        3.5747790000     2.0256950000    -2.1537610000
| 26>  H        3.8331480000     0.0366990000    -3.2614240000
| 27>  H        4.0353190000    -1.2743740000     0.3358860000
| 28>  H        2.5206330000    -2.0664030000    -0.0446980000
| 29> *
| 30>
| 31>                          ****END OF INPUT****
 Total Charge           Charge          ....    0
 Multiplicity           Mult            ....    1
 Number of Electrons    NEL             ....   54
 Basis Dimension        Dim             ....  148

MULLIKEN ATOMIC CHARGES
-----------------------
   0 C :    0.036601
   1 C :   -0.235954
   2 C :    0.184598
   3 N :   -0.176814
   4 C :    0.044249
   5 N :   -0.225033
   6 C :    0.158097
   7 H :    0.010065
   8 H :    0.019807
   9 H :    0.030735
  10 H :    0.014564
  11 H :    0.014908
  12 H :    0.003938
  13 H :    0.110186
  14 H :   -0.000484
  15 H :    0.008597
  16 H :    0.001940
Sum of atomic charges:    0.0000000

LOEWDIN ATOMIC CHARGES
----------------------
   0 C :   -0.059564
   1 C :   -0.067388
   2 C :    0.030704
   3 N :   -0.017770
   4 C :    0.004624
   5 N :   -0.169186
   6 C :    0.006151
   7 H :    0.022499
   8 H :    0.028518
   9 H :    0.029083
  10 H :    0.029279
  11 H :    0.016553
  12 H :    0.021792
  13 H :    0.070565
  14 H :    0.012302
  15 H :    0.021190
  16 H :    0.020648

  Mayer bond orders larger than 0.1
B(  0-C ,  1-C ) :   1.0602 B(  0-C ,  7-H ) :   0.9597 B(  0-C ,  8-H ) :   0.9599
B(  0-C ,  9-H ) :   0.9642 B(  1-C ,  2-C ) :   1.0413 B(  1-C ,  6-C ) :   1.0326
B(  1-C , 10-H ) :   0.9059 B(  2-C ,  3-N ) :   1.0060 B(  2-C , 11-H ) :   0.9407
B(  2-C , 12-H ) :   0.9347 B(  3-N ,  4-C ) :   1.1837 B(  3-N ,  5-N ) :   0.1308
B(  3-N , 13-H ) :   0.9369 B(  4-C ,  5-N ) :   1.8764 B(  4-C , 14-H ) :   0.9502
B(  5-N ,  6-C ) :   1.0642 B(  6-C , 15-H ) :   0.9304 B(  6-C , 16-H ) :   0.9328

FINAL SINGLE POINT ENERGY      -305.426199178558

DIPOLE MOMENT
-------------
                                X             Y             Z
Electronic contribution:      3.56428      -0.64438      -3.11685
Nuclear contribution   :     -3.65916       1.87235       3.43032
                        -----------------------------------------
Total Dipole Moment    :     -0.09488       1.22797       0.31346
                        -----------------------------------------
Magnitude (a.u.)       :      1.27090
Magnitude (Debye)      :      3.23037

                             ****ORCA TERMINATED NORMALLY****
TOTAL RUN TIME: 0 days 0 hours 0 minutes 7 seconds 568 msec
