                         Program Version 3.0.3 - RELEASE   -
|  1> ! RI PBE def2-SVP def2-SVP/J NBO PAL2
|  2> % maxcore 2000
|  3> % output
|  4>     # printlevel mini
|  5>     print[ P_Basis ] 0
|  6>     print[ P_SCFInfo ] 1
|  7>     print[ P_SCFIterInfo ] 1
|  8>     print[ P_OrbEn ] 0
|  9>     print[ P_Cartesian ] 0
| 10> end
| 11> *xyz 0 1
| 12>  C        1.0668410000    -0.0227690000    -0.1233450000
| 13>  C        2.5744280000    -0.0750250000     0.0069340000
| 14>  C        3.1715670000     1.0672210000     0.8336670000
| 15>  N        4.4375630000     0.5121260000     1.2563710000
| 16>  C        4.4313960000    -0.8611740000     1.3202010000
| 17>  N        5.3077710000    -1.6568880000     1.7824490000
| 18>  C        3.1246290000    -1.3126990000     0.7152260000
| 19>  H        0.7386330000     0.9040980000    -0.6015350000
| 20>  H        0.5876710000    -0.0821570000     0.8583180000
| 21>  H        0.6947540000    -0.8547430000    -0.7257380000
| 22>  H        3.0251960000    -0.0243820000    -0.9905380000
| 23>  H        2.5168670000     1.3071520000     1.6852370000
| 24>  H        3.3093800000     1.9796970000     0.2475130000
| 25>  H        5.0782370000     1.0411220000     1.8233250000
| 26>  H        6.1047940000    -1.1543390000     2.1707950000
| 27>  H        2.4613010000    -1.6175400000     1.5331770000
| 28>  H        3.2661610000    -2.1782110000     0.0690420000
| 29> *
| 30>
| 31>                          ****END OF INPUT****
 Total Charge           Charge          ....    0
 Multiplicity           Mult            ....    1
 Number of Electrons    NEL             ....   54
 Basis Dimension        Dim             ....  148

MULLIKEN ATOMIC CHARGES
-----------------------
   0 C :    0.042296
   1 C :   -0.219472
   2 C :    0.180625
   3 N :   -0.169084
   4 C :   -0.171608
   5 N :   -0.093521
   6 C :    0.106446
   7 H :    0.018779
   8 H :    0.015274
   9 H :    0.027895
  10 H :    0.022742
  11 H :    0.004538
  12 H :    0.010834
  13 H :    0.098632
  14 H :    0.068215
  15 H :    0.026378
  16 H :    0.031030
Sum of atomic charges:    0.0000000

LOEWDIN ATOMIC CHARGES
----------------------
   0 C :   -0.058761
   1 C :   -0.045573
   2 C :    0.031726
   3 N :   -0.025702
   4 C :   -0.001408
   5 N :   -0.185101
   6 C :   -0.036814
   7 H :    0.027291
   8 H :    0.024311
   9 H :    0.031086
  10 H :    0.030744
  11 H :    0.009175
  12 H :    0.019005
  13 H :    0.064126
  14 H :    0.037097
  15 H :    0.039897
  16 H :    0.038903

  Mayer bond orders larger than 0.1
B(  0-C ,  1-C ) :   1.0944 B(  0-C ,  7-H ) :   0.9581 B(  0-C ,  8-H ) :   0.9542
B(  0-C ,  9-H ) :   0.9606 B(  1-C ,  2-C ) :   1.0413 B(  1-C ,  6-C ) :   1.0650
B(  1-C , 10-H ) :   0.9102 B(  2-C ,  3-N ) :   1.0040 B(  2-C , 11-H ) :   0.9325
B(  2-C , 12-H ) :   0.9343 B(  3-N ,  4-C ) :   1.1689 B(  3-N ,  5-N ) :   0.1007
B(  3-N , 13-H ) :   0.9326 B(  4-C ,  5-N ) :   2.0157 B(  4-C ,  6-C ) :   0.9767
B(  5-N , 14-H ) :   0.9227 B(  6-C , 15-H ) :   0.9087 B(  6-C , 16-H ) :   0.9260

FINAL SINGLE POINT ENERGY      -305.436542390065

DIPOLE MOMENT
-------------
                                X             Y             Z
Electronic contribution:      5.69711      -1.14551       2.02319
Nuclear contribution   :     -6.14046       2.34087      -2.11188
                        -----------------------------------------
Total Dipole Moment    :     -0.44335       1.19535      -0.08869
                        -----------------------------------------
Magnitude (a.u.)       :      1.27800
Magnitude (Debye)      :      3.24842

                             ****ORCA TERMINATED NORMALLY****
TOTAL RUN TIME: 0 days 0 hours 0 minutes 8 seconds 207 msec
