                         Program Version 3.0.3 - RELEASE   -
|  1> ! RI PBE def2-SVP def2-SVP/J NBO PAL2
|  2> % maxcore 2000
|  3> % output
|  4>     # printlevel mini
|  5>     print[ P_Basis ] 0
|  6>     print[ P_SCFInfo ] 1
|  7>     print[ P_SCFIterInfo ] 1
|  8>     print[ P_OrbEn ] 0
|  9>     print[ P_Cartesian ] 0
| 10> end
| 11> *xyz 0 1
| 12>  C        0.8923210000     0.0716990000    -0.0830290000
| 13>  C        2.3819590000     0.0469570000    -0.0777230000
| 14>  C        3.2225160000     1.1319730000    -0.0711190000
| 15>  N        4.5079290000     0.6761110000    -0.0679690000
| 16>  C        4.5085530000    -0.6877390000    -0.0724430000
| 17>  C        3.2051810000    -1.1178830000    -0.0785680000
| 18>  C        2.7312400000    -2.5303280000    -0.0849200000
| 19>  H        0.5149300000     1.0960040000    -0.0810570000
| 20>  H        0.4763260000    -0.4359040000     0.7930680000
| 21>  H        0.4826850000    -0.4301770000    -0.9653990000
| 22>  H        2.9998570000     2.1877190000    -0.0684580000
| 23>  H        5.3265590000     1.2546540000    -0.0631100000
| 24>  H        5.4294160000    -1.2500500000    -0.0709590000
| 25>  H        3.5708140000    -3.2279990000    -0.0841510000
| 26>  H        2.1208470000    -2.7480930000    -0.9671090000
| 27>  H        2.1144480000    -2.7538530000     0.7913580000
| 28> *
| 29>
| 30>                          ****END OF INPUT****
 Total Charge           Charge          ....    0
 Multiplicity           Mult            ....    1
 Number of Electrons    NEL             ....   52
 Basis Dimension        Dim             ....  143

MULLIKEN ATOMIC CHARGES
-----------------------
   0 C :    0.084338
   1 C :   -0.114705
   2 C :   -0.023806
   3 N :   -0.041803
   4 C :   -0.017447
   5 C :   -0.126237
   6 C :    0.090850
   7 H :    0.002971
   8 H :    0.021370
   9 H :    0.021214
  10 H :   -0.022577
  11 H :    0.109027
  12 H :   -0.027434
  13 H :    0.004462
  14 H :    0.019833
  15 H :    0.019943
Sum of atomic charges:   -0.0000000

LOEWDIN ATOMIC CHARGES
----------------------
   0 C :   -0.057592
   1 C :   -0.086459
   2 C :   -0.051802
   3 N :    0.097745
   4 C :   -0.050295
   5 C :   -0.087525
   6 C :   -0.058575
   7 H :    0.030125
   8 H :    0.031757
   9 H :    0.031728
  10 H :    0.013575
  11 H :    0.080314
  12 H :    0.013011
  13 H :    0.030718
  14 H :    0.031632
  15 H :    0.031645

  Mayer bond orders larger than 0.1
B(  0-C ,  1-C ) :   1.1314 B(  0-C ,  7-H ) :   0.9448 B(  0-C ,  8-H ) :   0.9413
B(  0-C ,  9-H ) :   0.9412 B(  1-C ,  2-C ) :   1.4609 B(  1-C ,  5-C ) :   1.3692
B(  2-C ,  3-N ) :   1.2176 B(  2-C , 10-H ) :   0.9855 B(  3-N ,  4-C ) :   1.2192
B(  3-N , 11-H ) :   0.9436 B(  4-C ,  5-C ) :   1.4641 B(  4-C , 12-H ) :   0.9823
B(  5-C ,  6-C ) :   1.1385 B(  6-C , 13-H ) :   0.9419 B(  6-C , 14-H ) :   0.9390
B(  6-C , 15-H ) :   0.9391

FINAL SINGLE POINT ENERGY      -288.219611979887

DIPOLE MOMENT
-------------
                                X             Y             Z
Electronic contribution:      4.61087       3.26301       0.02759
Nuclear contribution   :     -4.10283      -2.89956      -0.02436
                        -----------------------------------------
Total Dipole Moment    :      0.50804       0.36346       0.00324
                        -----------------------------------------
Magnitude (a.u.)       :      0.62468
Magnitude (Debye)      :      1.58780

                             ****ORCA TERMINATED NORMALLY****
TOTAL RUN TIME: 0 days 0 hours 0 minutes 7 seconds 194 msec
