                         Program Version 3.0.3 - RELEASE   -
|  1> ! RI PBE def2-SVP def2-SVP/J NBO PAL2
|  2> % maxcore 2000
|  3> % output
|  4>     # printlevel mini
|  5>     print[ P_Basis ] 0
|  6>     print[ P_SCFInfo ] 1
|  7>     print[ P_SCFIterInfo ] 1
|  8>     print[ P_OrbEn ] 0
|  9>     print[ P_Cartesian ] 0
| 10> end
| 11> *xyz 0 1
| 12>  C        0.8555390000    -0.0084710000     0.0243670000
| 13>  C        2.3439770000    -0.0255910000     0.0091440000
| 14>  C        3.1947030000     1.0529110000    -0.0419000000
| 15>  N        4.4733220000     0.5955340000    -0.0211770000
| 16>  C        4.4750900000    -0.7754000000     0.0332510000
| 17>  C        3.1641950000    -1.1878430000     0.0568150000
| 18>  N        2.6763710000    -2.4938070000     0.1949840000
| 19>  H        0.4750920000     1.0143220000     0.0432930000
| 20>  H        0.4581320000    -0.5288180000     0.9015930000
| 21>  H        0.4279930000    -0.4959920000    -0.8595710000
| 22>  H        2.9727540000     2.1076140000    -0.0887350000
| 23>  H        5.2937210000     1.1697590000    -0.0463920000
| 24>  H        5.3933060000    -1.3395780000     0.0638240000
| 25>  H        3.3656230000    -3.1966450000    -0.0265660000
| 26>  H        1.8455630000    -2.6562940000    -0.3560290000
| 27> *
| 28>
| 29>                          ****END OF INPUT****
 Total Charge           Charge          ....    0
 Multiplicity           Mult            ....    1
 Number of Electrons    NEL             ....   52
 Basis Dimension        Dim             ....  138

MULLIKEN ATOMIC CHARGES
-----------------------
   0 C :    0.062260
   1 C :   -0.099884
   2 C :   -0.032696
   3 N :   -0.042388
   4 C :   -0.056454
   5 C :   -0.036200
   6 N :   -0.073552
   7 H :    0.002505
   8 H :    0.027824
   9 H :    0.017389
  10 H :   -0.024516
  11 H :    0.107423
  12 H :   -0.043926
  13 H :    0.093271
  14 H :    0.098943
Sum of atomic charges:    0.0000000

LOEWDIN ATOMIC CHARGES
----------------------
   0 C :   -0.060361
   1 C :   -0.109346
   2 C :   -0.050442
   3 N :    0.094230
   4 C :   -0.094955
   5 C :   -0.048623
   6 N :   -0.047791
   7 H :    0.032061
   8 H :    0.032142
   9 H :    0.026096
  10 H :    0.013223
  11 H :    0.079034
  12 H :    0.008886
  13 H :    0.063364
  14 H :    0.062483

  Mayer bond orders larger than 0.1
B(  0-C ,  1-C ) :   1.1234 B(  0-C ,  7-H ) :   0.9400 B(  0-C ,  8-H ) :   0.9445
B(  0-C ,  9-H ) :   0.9449 B(  1-C ,  2-C ) :   1.4373 B(  1-C ,  5-C ) :   1.3672
B(  2-C ,  3-N ) :   1.2385 B(  2-C ,  4-C ) :   0.1034 B(  2-C , 10-H ) :   0.9849
B(  3-N ,  4-C ) :   1.1773 B(  3-N , 11-H ) :   0.9437 B(  4-C ,  5-C ) :   1.4108
B(  4-C , 12-H ) :   0.9967 B(  5-C ,  6-N ) :   1.1900 B(  6-N , 13-H ) :   0.9532
B(  6-N , 14-H ) :   0.9480

FINAL SINGLE POINT ENERGY      -304.236555653112

DIPOLE MOMENT
-------------
                                X             Y             Z
Electronic contribution:      4.05340       0.47890       0.16667
Nuclear contribution   :     -3.58306      -0.41816      -0.58284
                        -----------------------------------------
Total Dipole Moment    :      0.47034       0.06074      -0.41617
                        -----------------------------------------
Magnitude (a.u.)       :      0.63096
Magnitude (Debye)      :      1.60377

                             ****ORCA TERMINATED NORMALLY****
TOTAL RUN TIME: 0 days 0 hours 0 minutes 6 seconds 858 msec
