                         Program Version 3.0.3 - RELEASE   -
|  1> ! RI PBE def2-SVP def2-SVP/J NBO PAL2
|  2> % maxcore 2000
|  3> % output
|  4>     # printlevel mini
|  5>     print[ P_Basis ] 0
|  6>     print[ P_SCFInfo ] 1
|  7>     print[ P_SCFIterInfo ] 1
|  8>     print[ P_OrbEn ] 0
|  9>     print[ P_Cartesian ] 0
| 10> end
| 11> *xyz 0 1
| 12>  C        1.0179840000    -0.0714050000     0.0552110000
| 13>  C        2.5011320000     0.0017700000     0.0621290000
| 14>  C        3.3523310000     1.0807040000     0.0669280000
| 15>  C        4.6900370000     0.6019650000     0.0727260000
| 16>  C        5.9317020000     1.4318400000     0.0791360000
| 17>  C        4.6086160000    -0.7680500000     0.0712680000
| 18>  N        3.2846280000    -1.1144880000     0.0648780000
| 19>  H        0.5993850000     0.9349860000     0.0540220000
| 20>  H        0.6269650000    -0.5906870000     0.9364780000
| 21>  H        0.6351410000    -0.5893730000    -0.8304100000
| 22>  H        3.0460080000     2.1168750000     0.0663350000
| 23>  H        5.6829930000     2.4945410000     0.0785910000
| 24>  H        6.5551580000     1.2422900000    -0.7990270000
| 25>  H        6.5467690000     1.2412340000     0.9629700000
| 26>  H        5.3825400000    -1.5196990000     0.0742450000
| 27>  H        2.9383110000    -2.0565030000     0.0625220000
| 28> *
| 29>
| 30>                          ****END OF INPUT****
 Total Charge           Charge          ....    0
 Multiplicity           Mult            ....    1
 Number of Electrons    NEL             ....   52
 Basis Dimension        Dim             ....  143

MULLIKEN ATOMIC CHARGES
-----------------------
   0 C :    0.093237
   1 C :   -0.083848
   2 C :   -0.085005
   3 C :   -0.087168
   4 C :    0.071055
   5 C :   -0.015035
   6 N :   -0.048337
   7 H :    0.017742
   8 H :    0.025723
   9 H :    0.025613
  10 H :   -0.049948
  11 H :    0.009760
  12 H :    0.026189
  13 H :    0.026028
  14 H :   -0.025213
  15 H :    0.099207
Sum of atomic charges:   -0.0000000

LOEWDIN ATOMIC CHARGES
----------------------
   0 C :   -0.066026
   1 C :   -0.045433
   2 C :   -0.098338
   3 C :   -0.084575
   4 C :   -0.061753
   5 C :   -0.052841
   6 N :    0.096992
   7 H :    0.041795
   8 H :    0.032482
   9 H :    0.032465
  10 H :    0.017313
  11 H :    0.031455
  12 H :    0.033064
  13 H :    0.033046
  14 H :    0.012808
  15 H :    0.077547

  Mayer bond orders larger than 0.1
B(  0-C ,  1-C ) :   1.1064 B(  0-C ,  7-H ) :   0.9413 B(  0-C ,  8-H ) :   0.9405
B(  0-C ,  9-H ) :   0.9404 B(  1-C ,  2-C ) :   1.4572 B(  1-C ,  5-C ) :   0.1048
B(  1-C ,  6-N ) :   1.2421 B(  2-C ,  3-C ) :   1.3086 B(  2-C , 10-H ) :   1.0099
B(  3-C ,  4-C ) :   1.1038 B(  3-C ,  5-C ) :   1.4847 B(  4-C , 11-H ) :   0.9508
B(  4-C , 12-H ) :   0.9479 B(  4-C , 13-H ) :   0.9478 B(  5-C ,  6-N ) :   1.1939
B(  5-C , 14-H ) :   0.9913 B(  6-N , 15-H ) :   0.9434

FINAL SINGLE POINT ENERGY      -288.220324980279

DIPOLE MOMENT
-------------
                                X             Y             Z
Electronic contribution:      0.12555      -2.39579      -0.00126
Nuclear contribution   :     -0.47289       1.72989      -0.00082
                        -----------------------------------------
Total Dipole Moment    :     -0.34734      -0.66590      -0.00208
                        -----------------------------------------
Magnitude (a.u.)       :      0.75105
Magnitude (Debye)      :      1.90901

                             ****ORCA TERMINATED NORMALLY****
TOTAL RUN TIME: 0 days 0 hours 0 minutes 7 seconds 142 msec
