                         Program Version 3.0.3 - RELEASE   -
|  1> ! RI PBE def2-SVP def2-SVP/J NBO PAL2
|  2> % maxcore 2000
|  3> % output
|  4>     # printlevel mini
|  5>     print[ P_Basis ] 0
|  6>     print[ P_SCFInfo ] 1
|  7>     print[ P_SCFIterInfo ] 1
|  8>     print[ P_OrbEn ] 0
|  9>     print[ P_Cartesian ] 0
| 10> end
| 11> *xyz 0 1
| 12>  C        1.0318900000    -0.0171100000     0.0325560000
| 13>  C        2.5210850000    -0.0454000000    -0.0144450000
| 14>  C        3.3565560000     1.0400820000    -0.0703390000
| 15>  N        4.6478010000     0.5838860000    -0.0921150000
| 16>  C        4.6593000000    -0.7771480000    -0.0467950000
| 17>  N        5.8893900000    -1.4528550000    -0.1011420000
| 18>  C        3.3533480000    -1.2004400000     0.0059520000
| 19>  H        0.6582610000     1.0083020000     0.0003110000
| 20>  H        0.6471250000    -0.4808340000     0.9458160000
| 21>  H        0.5928310000    -0.5564160000    -0.8120290000
| 22>  H        3.1315830000     2.0947040000    -0.0911590000
| 23>  H        5.4733040000     1.1392500000    -0.2252360000
| 24>  H        6.3058100000    -1.5770350000     0.8137590000
| 25>  H        5.7875760000    -2.3615600000    -0.5291550000
| 26>  H        3.0287400000    -2.2287270000     0.0710100000
| 27> *
| 28>
| 29>                          ****END OF INPUT****
 Total Charge           Charge          ....    0
 Multiplicity           Mult            ....    1
 Number of Electrons    NEL             ....   52
 Basis Dimension        Dim             ....  138

MULLIKEN ATOMIC CHARGES
-----------------------
   0 C :    0.082835
   1 C :   -0.088999
   2 C :   -0.009339
   3 N :   -0.036839
   4 C :   -0.030184
   5 N :   -0.099208
   6 C :   -0.095685
   7 H :    0.002155
   8 H :    0.021028
   9 H :    0.022681
  10 H :   -0.026824
  11 H :    0.101154
  12 H :    0.114267
  13 H :    0.107938
  14 H :   -0.064979
Sum of atomic charges:   -0.0000000

LOEWDIN ATOMIC CHARGES
----------------------
   0 C :   -0.057805
   1 C :   -0.081927
   2 C :   -0.058151
   3 N :    0.089991
   4 C :   -0.027970
   5 N :   -0.072371
   6 C :   -0.122728
   7 H :    0.028802
   8 H :    0.031175
   9 H :    0.032055
  10 H :    0.012671
  11 H :    0.077392
  12 H :    0.065764
  13 H :    0.068460
  14 H :    0.014640

  Mayer bond orders larger than 0.1
B(  0-C ,  1-C ) :   1.1095 B(  0-C ,  7-H ) :   0.9507 B(  0-C ,  8-H ) :   0.9474
B(  0-C ,  9-H ) :   0.9468 B(  1-C ,  2-C ) :   1.4929 B(  1-C ,  6-C ) :   1.2693
B(  2-C ,  3-N ) :   1.1811 B(  2-C ,  4-C ) :   0.1002 B(  2-C , 10-H ) :   0.9894
B(  3-N ,  4-C ) :   1.2359 B(  3-N , 11-H ) :   0.9333 B(  4-C ,  5-N ) :   1.1887
B(  4-C ,  6-C ) :   1.4284 B(  5-N , 12-H ) :   0.9528 B(  5-N , 13-H ) :   0.9589
B(  6-C , 14-H ) :   1.0306

FINAL SINGLE POINT ENERGY      -304.238855232234

DIPOLE MOMENT
-------------
                                X             Y             Z
Electronic contribution:      4.05340       0.59521      -0.23385
Nuclear contribution   :     -3.47429      -0.65969       0.44693
                        -----------------------------------------
Total Dipole Moment    :      0.57911      -0.06447       0.21308
                        -----------------------------------------
Magnitude (a.u.)       :      0.62043
Magnitude (Debye)      :      1.57700

                             ****ORCA TERMINATED NORMALLY****
TOTAL RUN TIME: 0 days 0 hours 0 minutes 6 seconds 644 msec
