                         Program Version 3.0.3 - RELEASE   -
|  1> ! RI PBE def2-SVP def2-SVP/J NBO PAL2
|  2> % maxcore 2000
|  3> % output
|  4>     # printlevel mini
|  5>     print[ P_Basis ] 0
|  6>     print[ P_SCFInfo ] 1
|  7>     print[ P_SCFIterInfo ] 1
|  8>     print[ P_OrbEn ] 0
|  9>     print[ P_Cartesian ] 0
| 10> end
| 11> *xyz 0 1
| 12>  C        0.8909130000    -0.0195790000    -0.0157070000
| 13>  C        2.3793050000    -0.0411030000    -0.0120010000
| 14>  C        3.2459560000     1.0258810000    -0.0060820000
| 15>  N        4.4920560000     0.5115530000    -0.0047050000
| 16>  N        4.5051580000    -0.8209120000    -0.0093120000
| 17>  C        3.2281510000    -1.1748000000    -0.0137900000
| 18>  C        2.8332440000    -2.6080010000    -0.0197870000
| 19>  H        0.5105710000     1.0032960000    -0.0131380000
| 20>  H        0.4784740000    -0.5278530000     0.8610140000
| 21>  H        0.4829420000    -0.5217740000    -0.8980030000
| 22>  H        3.0655160000     2.0900300000    -0.0028350000
| 23>  H        5.3630220000     1.0101260000    -0.0007550000
| 24>  H        3.7228620000    -3.2375610000    -0.0196900000
| 25>  H        2.2358270000    -2.8542920000    -0.9024690000
| 26>  H        2.2313030000    -2.8604110000     0.8580800000
| 27> *
| 28>
| 29>                          ****END OF INPUT****
 Total Charge           Charge          ....    0
 Multiplicity           Mult            ....    1
 Number of Electrons    NEL             ....   52
 Basis Dimension        Dim             ....  138

MULLIKEN ATOMIC CHARGES
-----------------------
   0 C :    0.088697
   1 C :   -0.176933
   2 C :    0.045585
   3 N :   -0.009401
   4 N :   -0.121488
   5 C :   -0.160117
   6 C :    0.098164
   7 H :    0.007674
   8 H :    0.027916
   9 H :    0.027788
  10 H :   -0.013703
  11 H :    0.119892
  12 H :    0.021046
  13 H :    0.022395
  14 H :    0.022486
Sum of atomic charges:    0.0000000

LOEWDIN ATOMIC CHARGES
----------------------
   0 C :   -0.056532
   1 C :   -0.103417
   2 C :   -0.039443
   3 N :    0.129463
   4 N :   -0.107402
   5 C :   -0.066618
   6 C :   -0.064886
   7 H :    0.032384
   8 H :    0.035210
   9 H :    0.035186
  10 H :    0.020081
  11 H :    0.078277
  12 H :    0.038309
  13 H :    0.034689
  14 H :    0.034700

  Mayer bond orders larger than 0.1
B(  0-C ,  1-C ) :   1.1235 B(  0-C ,  7-H ) :   0.9451 B(  0-C ,  8-H ) :   0.9434
B(  0-C ,  9-H ) :   0.9434 B(  1-C ,  2-C ) :   1.4414 B(  1-C ,  5-C ) :   1.3240
B(  2-C ,  3-N ) :   1.2247 B(  2-C ,  4-N ) :   0.1263 B(  2-C , 10-H ) :   0.9782
B(  3-N ,  4-N ) :   1.1715 B(  3-N , 11-H ) :   0.9495 B(  4-N ,  5-C ) :   1.5899
B(  5-C ,  6-C ) :   1.1399 B(  6-C , 12-H ) :   0.9343 B(  6-C , 13-H ) :   0.9394
B(  6-C , 14-H ) :   0.9394

FINAL SINGLE POINT ENERGY      -304.236870540467

DIPOLE MOMENT
-------------
                                X             Y             Z
Electronic contribution:      5.87136       2.80894       0.02487
Nuclear contribution   :     -6.06943      -2.08575      -0.02269
                        -----------------------------------------
Total Dipole Moment    :     -0.19806       0.72319       0.00218
                        -----------------------------------------
Magnitude (a.u.)       :      0.74982
Magnitude (Debye)      :      1.90590

                             ****ORCA TERMINATED NORMALLY****
TOTAL RUN TIME: 0 days 0 hours 0 minutes 7 seconds 300 msec
