                         Program Version 3.0.3 - RELEASE   -
|  1> ! RI PBE def2-SVP def2-SVP/J NBO PAL2
|  2> % maxcore 2000
|  3> % output
|  4>     # printlevel mini
|  5>     print[ P_Basis ] 0
|  6>     print[ P_SCFInfo ] 1
|  7>     print[ P_SCFIterInfo ] 1
|  8>     print[ P_OrbEn ] 0
|  9>     print[ P_Cartesian ] 0
| 10> end
| 11> *xyz 0 1
| 12>  C        0.9701500000     0.0749090000    -0.1050640000
| 13>  C        2.2829140000     0.1056400000     0.1213880000
| 14>  C        3.1727620000     1.2603940000     0.0183360000
| 15>  N        4.3764820000     1.0333810000     0.3784170000
| 16>  N        4.4807550000    -0.2900740000     0.8795890000
| 17>  C        4.4123140000    -1.2438090000    -0.2194810000
| 18>  C        3.1925070000    -0.9581660000     0.5873850000
| 19>  H        0.4363010000     0.9710220000    -0.3980300000
| 20>  H        0.3939580000    -0.8368320000    -0.0055670000
| 21>  H        2.8892450000     2.2364950000    -0.3605760000
| 22>  H        4.9340290000    -2.1798800000    -0.0556700000
| 23>  H        4.4728100000    -0.8324810000    -1.2212020000
| 24>  H        2.8521950000    -1.6944870000     1.3049660000
| 25> *
| 26>
| 27>                          ****END OF INPUT****
 Total Charge           Charge          ....    0
 Multiplicity           Mult            ....    1
 Number of Electrons    NEL             ....   50
 Basis Dimension        Dim             ....  128

MULLIKEN ATOMIC CHARGES
-----------------------
   0 C :   -0.050189
   1 C :    0.018536
   2 C :    0.004985
   3 N :   -0.047832
   4 N :   -0.167900
   5 C :    0.106951
   6 C :   -0.060683
   7 H :    0.022293
   8 H :    0.023858
   9 H :    0.010685
  10 H :    0.051366
  11 H :    0.049161
  12 H :    0.038770
Sum of atomic charges:    0.0000000

LOEWDIN ATOMIC CHARGES
----------------------
   0 C :   -0.053596
   1 C :   -0.060310
   2 C :   -0.008743
   3 N :   -0.030658
   4 N :   -0.051920
   5 C :    0.031028
   6 C :   -0.004296
   7 H :    0.029636
   8 H :    0.028850
   9 H :    0.027688
  10 H :    0.031739
  11 H :    0.026174
  12 H :    0.034409

  Mayer bond orders larger than 0.1
B(  0-C ,  1-C ) :   1.8859 B(  0-C ,  7-H ) :   0.9252 B(  0-C ,  8-H ) :   0.9388
B(  1-C ,  2-C ) :   1.0197 B(  1-C ,  6-C ) :   1.0203 B(  2-C ,  3-N ) :   1.8246
B(  2-C ,  9-H ) :   0.9754 B(  3-N ,  4-N ) :   1.0026 B(  4-N ,  5-C ) :   0.9377
B(  4-N ,  6-C ) :   0.9018 B(  5-C ,  6-C ) :   1.0075 B(  5-C , 10-H ) :   0.9443
B(  5-C , 11-H ) :   0.9240 B(  6-C , 12-H ) :   0.9485

FINAL SINGLE POINT ENERGY      -302.944922046511

DIPOLE MOMENT
-------------
                                X             Y             Z
Electronic contribution:      2.65291       1.59543       1.48801
Nuclear contribution   :     -3.45926      -2.12267      -1.98489
                        -----------------------------------------
Total Dipole Moment    :     -0.80635      -0.52725      -0.49688
                        -----------------------------------------
Magnitude (a.u.)       :      1.08401
Magnitude (Debye)      :      2.75534

                             ****ORCA TERMINATED NORMALLY****
TOTAL RUN TIME: 0 days 0 hours 0 minutes 6 seconds 648 msec
