                         Program Version 3.0.3 - RELEASE   -
|  1> ! RI PBE def2-SVP def2-SVP/J NBO PAL2
|  2> % maxcore 2000
|  3> % output
|  4>     # printlevel mini
|  5>     print[ P_Basis ] 0
|  6>     print[ P_SCFInfo ] 1
|  7>     print[ P_SCFIterInfo ] 1
|  8>     print[ P_OrbEn ] 0
|  9>     print[ P_Cartesian ] 0
| 10> end
| 11> *xyz 0 1
| 12>  C        1.0026580000     0.1435790000    -0.3402880000
| 13>  C        2.4899400000    -0.0425680000    -0.0577270000
| 14>  C        3.1002740000     1.1311860000     0.6609110000
| 15>  N        3.5163980000     0.9100130000     1.8385200000
| 16>  N        3.2596550000    -0.4431000000     2.1980870000
| 17>  C        4.1496750000    -1.3269060000     1.4403910000
| 18>  C        2.7688680000    -1.1144480000     0.9684450000
| 19>  H        0.8315580000     0.9999630000    -0.9963660000
| 20>  H        0.4499840000     0.3107540000     0.5869620000
| 21>  H        0.5898860000    -0.7413480000    -0.8303370000
| 22>  H        3.0146310000    -0.2163960000    -1.0046780000
| 23>  H        3.2008040000     2.1243760000     0.2320290000
| 24>  H        4.4076180000    -2.2544230000     1.9390970000
| 25>  H        4.9604410000    -0.8419150000     0.9061760000
| 26>  H        2.0277090000    -1.8901560000     1.1267690000
| 27> *
| 28>
| 29>                          ****END OF INPUT****
 Total Charge           Charge          ....    0
 Multiplicity           Mult            ....    1
 Number of Electrons    NEL             ....   52
 Basis Dimension        Dim             ....  138

MULLIKEN ATOMIC CHARGES
-----------------------
   0 C :    0.022248
   1 C :   -0.016444
   2 C :   -0.040423
   3 N :   -0.051669
   4 N :   -0.189048
   5 C :    0.119046
   6 C :   -0.093502
   7 H :    0.028516
   8 H :    0.035931
   9 H :    0.032629
  10 H :    0.033940
  11 H :    0.019927
  12 H :    0.038618
  13 H :    0.033425
  14 H :    0.026807
Sum of atomic charges:    0.0000000

LOEWDIN ATOMIC CHARGES
----------------------
   0 C :   -0.052727
   1 C :   -0.065378
   2 C :   -0.009859
   3 N :   -0.035393
   4 N :   -0.071415
   5 C :    0.014891
   6 C :   -0.012013
   7 H :    0.031262
   8 H :    0.033337
   9 H :    0.031030
  10 H :    0.038542
  11 H :    0.022758
  12 H :    0.028095
  13 H :    0.021498
  14 H :    0.025370

  Mayer bond orders larger than 0.1
B(  0-C ,  1-C ) :   1.0755 B(  0-C ,  7-H ) :   0.9603 B(  0-C ,  8-H ) :   0.9614
B(  0-C ,  9-H ) :   0.9608 B(  1-C ,  2-C ) :   0.9471 B(  1-C ,  6-C ) :   1.0117
B(  1-C , 10-H ) :   0.8941 B(  2-C ,  3-N ) :   1.9211 B(  2-C , 11-H ) :   0.9639
B(  3-N ,  4-N ) :   0.9782 B(  4-N ,  5-C ) :   0.9443 B(  4-N ,  6-C ) :   0.9025
B(  5-C ,  6-C ) :   1.0411 B(  5-C , 12-H ) :   0.9411 B(  5-C , 13-H ) :   0.9264
B(  6-C , 14-H ) :   0.9433

FINAL SINGLE POINT ENERGY      -304.157353691824

DIPOLE MOMENT
-------------
                                X             Y             Z
Electronic contribution:      3.09979       1.12765       4.02378
Nuclear contribution   :     -3.32975      -1.52951      -5.22357
                        -----------------------------------------
Total Dipole Moment    :     -0.22997      -0.40186      -1.19979
                        -----------------------------------------
Magnitude (a.u.)       :      1.28603
Magnitude (Debye)      :      3.26884

                             ****ORCA TERMINATED NORMALLY****
TOTAL RUN TIME: 0 days 0 hours 0 minutes 6 seconds 995 msec
