                         Program Version 3.0.3 - RELEASE   -
|  1> ! RI PBE def2-SVP def2-SVP/J NBO PAL2
|  2> % maxcore 2000
|  3> % output
|  4>     # printlevel mini
|  5>     print[ P_Basis ] 0
|  6>     print[ P_SCFInfo ] 1
|  7>     print[ P_SCFIterInfo ] 1
|  8>     print[ P_OrbEn ] 0
|  9>     print[ P_Cartesian ] 0
| 10> end
| 11> *xyz 0 1
| 12>  C        0.9103650000     0.0834330000     0.2025860000
| 13>  C        2.4360170000     0.0523210000     0.1674180000
| 14>  C        3.0803460000     1.1239320000    -0.6405690000
| 15>  N        3.8475210000     0.6655280000    -1.5503530000
| 16>  N        3.8268550000    -0.7562690000    -1.4858930000
| 17>  C        3.0455080000    -1.1208010000    -0.5383910000
| 18>  C        2.8018430000    -2.5450000000    -0.2072930000
| 19>  H        0.5527430000     1.0003370000     0.6741360000
| 20>  H        0.5180630000    -0.7612310000     0.7721030000
| 21>  H        0.5001470000     0.0367220000    -0.8078600000
| 22>  H        2.8213970000     0.0920270000     1.1966060000
| 23>  H        2.9441330000     2.1918570000    -0.5065770000
| 24>  H        3.3701540000    -3.1837200000    -0.8819190000
| 25>  H        1.7393070000    -2.7910910000    -0.2962200000
| 26>  H        3.0959010000    -2.7644350000     0.8233140000
| 27> *
| 28>
| 29>                          ****END OF INPUT****
 Total Charge           Charge          ....    0
 Multiplicity           Mult            ....    1
 Number of Electrons    NEL             ....   52
 Basis Dimension        Dim             ....  138

MULLIKEN ATOMIC CHARGES
-----------------------
   0 C :    0.023984
   1 C :   -0.120061
   2 C :    0.030818
   3 N :   -0.081218
   4 N :   -0.096430
   5 C :   -0.163928
   6 C :    0.111131
   7 H :    0.037349
   8 H :    0.037719
   9 H :    0.042789
  10 H :    0.060820
  11 H :    0.013524
  12 H :    0.039217
  13 H :    0.032082
  14 H :    0.032203
Sum of atomic charges:    0.0000000

LOEWDIN ATOMIC CHARGES
----------------------
   0 C :   -0.037626
   1 C :   -0.077785
   2 C :   -0.008593
   3 N :   -0.047515
   4 N :   -0.070126
   5 C :   -0.017577
   6 C :   -0.061356
   7 H :    0.034902
   8 H :    0.031882
   9 H :    0.036509
  10 H :    0.064368
  11 H :    0.022674
  12 H :    0.045701
  13 H :    0.041316
  14 H :    0.043226

  Mayer bond orders larger than 0.1
B(  0-C ,  1-C ) :   1.0502 B(  0-C ,  7-H ) :   0.9616 B(  0-C ,  8-H ) :   0.9595
B(  0-C ,  9-H ) :   0.9647 B(  1-C ,  2-C ) :   0.9830 B(  1-C ,  5-C ) :   0.9760
B(  1-C , 10-H ) :   0.8625 B(  2-C ,  3-N ) :   1.9042 B(  2-C , 11-H ) :   0.9724
B(  3-N ,  4-N ) :   1.0201 B(  4-N ,  5-C ) :   1.8800 B(  5-C ,  6-C ) :   1.1136
B(  6-C , 12-H ) :   0.9358 B(  6-C , 13-H ) :   0.9345 B(  6-C , 14-H ) :   0.9350

FINAL SINGLE POINT ENERGY      -304.190332712762

DIPOLE MOMENT
-------------
                                X             Y             Z
Electronic contribution:      5.34997       2.78865      -3.74618
Nuclear contribution   :     -6.53319      -2.95197       5.09954
                        -----------------------------------------
Total Dipole Moment    :     -1.18323      -0.16332       1.35336
                        -----------------------------------------
Magnitude (a.u.)       :      1.80507
Magnitude (Debye)      :      4.58813

                             ****ORCA TERMINATED NORMALLY****
TOTAL RUN TIME: 0 days 0 hours 0 minutes 6 seconds 638 msec
