                         Program Version 3.0.3 - RELEASE   -
|  1> ! RI PBE def2-SVP def2-SVP/J NBO PAL2
|  2> % maxcore 2000
|  3> % output
|  4>     # printlevel mini
|  5>     print[ P_Basis ] 0
|  6>     print[ P_SCFInfo ] 1
|  7>     print[ P_SCFIterInfo ] 1
|  8>     print[ P_OrbEn ] 0
|  9>     print[ P_Cartesian ] 0
| 10> end
| 11> *xyz 0 1
| 12>  C        1.0156260000     0.0157690000    -0.3934690000
| 13>  C        2.4680060000    -0.1314310000     0.0187530000
| 14>  C        2.7798090000    -1.3605560000     0.8679400000
| 15>  N        3.9250160000    -0.8982340000     1.6487160000
| 16>  N        3.7992630000     0.4708960000     1.8276360000
| 17>  C        3.0154990000     0.9398540000     0.9370810000
| 18>  C        2.7694180000     2.3940520000     0.7808260000
| 19>  H        0.6960420000    -0.8289950000    -1.0084590000
| 20>  H        0.8575480000     0.9246200000    -0.9784900000
| 21>  H        0.3625790000     0.0594030000     0.4824190000
| 22>  H        3.0959050000    -0.1417510000    -0.8858720000
| 23>  H        3.0297930000    -2.2476400000     0.2841670000
| 24>  H        1.9141270000    -1.5908250000     1.5097230000
| 25>  H        4.0487080000    -1.3473710000     2.5445560000
| 26>  H        3.3038870000     2.9479680000     1.5519050000
| 27>  H        1.7031550000     2.6293390000     0.8506410000
| 28>  H        3.1080190000     2.7448920000    -0.2006720000
| 29> *
| 30>
| 31>                          ****END OF INPUT****
 Total Charge           Charge          ....    0
 Multiplicity           Mult            ....    1
 Number of Electrons    NEL             ....   54
 Basis Dimension        Dim             ....  148

MULLIKEN ATOMIC CHARGES
-----------------------
   0 C :    0.018897
   1 C :   -0.146499
   2 C :    0.182703
   3 N :   -0.145323
   4 N :   -0.091319
   5 C :   -0.207026
   6 C :    0.098164
   7 H :    0.026906
   8 H :    0.027569
   9 H :    0.023157
  10 H :    0.022443
  11 H :    0.008971
  12 H :   -0.003275
  13 H :    0.110125
  14 H :    0.027233
  15 H :    0.023692
  16 H :    0.023581
Sum of atomic charges:   -0.0000000

LOEWDIN ATOMIC CHARGES
----------------------
   0 C :   -0.059314
   1 C :   -0.059357
   2 C :    0.015773
   3 N :   -0.026402
   4 N :   -0.056889
   5 C :   -0.065993
   6 C :   -0.064613
   7 H :    0.029551
   8 H :    0.029347
   9 H :    0.026288
  10 H :    0.035084
  11 H :    0.021833
  12 H :    0.008801
  13 H :    0.055786
  14 H :    0.040393
  15 H :    0.033850
  16 H :    0.035863

  Mayer bond orders larger than 0.1
B(  0-C ,  1-C ) :   1.0966 B(  0-C ,  7-H ) :   0.9603 B(  0-C ,  8-H ) :   0.9551
B(  0-C ,  9-H ) :   0.9566 B(  1-C ,  2-C ) :   1.0712 B(  1-C ,  5-C ) :   0.9829
B(  1-C , 10-H ) :   0.8616 B(  2-C ,  3-N ) :   1.0016 B(  2-C , 11-H ) :   0.9273
B(  2-C , 12-H ) :   0.9275 B(  3-N ,  4-N ) :   1.0719 B(  3-N , 13-H ) :   0.9393
B(  4-N ,  5-C ) :   1.8955 B(  5-C ,  6-C ) :   1.1279 B(  6-C , 14-H ) :   0.9381
B(  6-C , 15-H ) :   0.9374 B(  6-C , 16-H ) :   0.9369

FINAL SINGLE POINT ENERGY      -305.404618866000

DIPOLE MOMENT
-------------
                                X             Y             Z
Electronic contribution:      4.88357      -1.42268       3.37690
Nuclear contribution   :     -5.54197       1.08626      -3.68930
                        -----------------------------------------
Total Dipole Moment    :     -0.65840      -0.33643      -0.31240
                        -----------------------------------------
Magnitude (a.u.)       :      0.80267
Magnitude (Debye)      :      2.04021

                             ****ORCA TERMINATED NORMALLY****
TOTAL RUN TIME: 0 days 0 hours 0 minutes 8 seconds 224 msec
