                         Program Version 3.0.3 - RELEASE   -
|  1> ! RI PBE def2-SVP def2-SVP/J NBO PAL2
|  2> % maxcore 2000
|  3> % output
|  4>     # printlevel mini
|  5>     print[ P_Basis ] 0
|  6>     print[ P_SCFInfo ] 1
|  7>     print[ P_SCFIterInfo ] 1
|  8>     print[ P_OrbEn ] 0
|  9>     print[ P_Cartesian ] 0
| 10> end
| 11> *xyz 0 1
| 12>  C        0.9771410000    -0.0103340000    -0.0999930000
| 13>  N        2.4141620000     0.0269340000    -0.0931000000
| 14>  C        3.2140760000     1.1151080000    -0.0896330000
| 15>  C        4.5171260000     0.6686530000    -0.0832160000
| 16>  C        5.7670340000     1.4792640000    -0.0774960000
| 17>  C        4.3785960000    -0.7317780000    -0.0833820000
| 18>  N        3.1079870000    -1.1075080000    -0.0893530000
| 19>  H        0.5977570000     1.0105120000    -0.1022160000
| 20>  H        0.6082790000    -0.5296970000     0.7860320000
| 21>  H        0.6168140000    -0.5303900000    -0.9891170000
| 22>  H        2.8076210000     2.1150420000    -0.0919450000
| 23>  H        5.5426600000     2.5473580000    -0.0790420000
| 24>  H        6.3855580000     1.2712140000    -0.9547580000
| 25>  H        6.3770110000     1.2719680000     0.8059080000
| 26>  H        5.1565580000    -1.4821550000    -0.0793790000
| 27> *
| 28>
| 29>                          ****END OF INPUT****
 Total Charge           Charge          ....    0
 Multiplicity           Mult            ....    1
 Number of Electrons    NEL             ....   52
 Basis Dimension        Dim             ....  138

MULLIKEN ATOMIC CHARGES
-----------------------
   0 C :    0.120625
   1 N :   -0.148043
   2 C :    0.066021
   3 C :   -0.172390
   4 C :    0.073913
   5 C :    0.001675
   6 N :   -0.117885
   7 H :    0.027820
   8 H :    0.048202
   9 H :    0.048130
  10 H :   -0.013670
  11 H :    0.012760
  12 H :    0.034624
  13 H :    0.034473
  14 H :   -0.016254
Sum of atomic charges:   -0.0000000

LOEWDIN ATOMIC CHARGES
----------------------
   0 C :    0.022875
   1 N :    0.095247
   2 C :   -0.037395
   3 C :   -0.104901
   4 C :   -0.059721
   5 C :   -0.058684
   6 N :   -0.100667
   7 H :    0.031517
   8 H :    0.034731
   9 H :    0.034724
  10 H :    0.018714
  11 H :    0.032789
  12 H :    0.037298
  13 H :    0.037278
  14 H :    0.016196

  Mayer bond orders larger than 0.1
B(  0-C ,  1-N ) :   0.9836 B(  0-C ,  7-H ) :   0.9650 B(  0-C ,  8-H ) :   0.9649
B(  0-C ,  9-H ) :   0.9649 B(  1-N ,  2-C ) :   1.2035 B(  1-N ,  6-N ) :   1.1680
B(  2-C ,  3-C ) :   1.4423 B(  2-C ,  6-N ) :   0.1226 B(  2-C , 10-H ) :   0.9784
B(  3-C ,  4-C ) :   1.1050 B(  3-C ,  5-C ) :   1.3344 B(  4-C , 11-H ) :   0.9493
B(  4-C , 12-H ) :   0.9474 B(  4-C , 13-H ) :   0.9473 B(  5-C ,  6-N ) :   1.5611
B(  5-C , 14-H ) :   0.9957

FINAL SINGLE POINT ENERGY      -304.227464153747

DIPOLE MOMENT
-------------
                                X             Y             Z
Electronic contribution:     -0.83781      -2.90723      -0.00296
Nuclear contribution   :      0.41812       3.68594       0.00069
                        -----------------------------------------
Total Dipole Moment    :     -0.41969       0.77871      -0.00227
                        -----------------------------------------
Magnitude (a.u.)       :      0.88461
Magnitude (Debye)      :      2.24850

                             ****ORCA TERMINATED NORMALLY****
TOTAL RUN TIME: 0 days 0 hours 0 minutes 6 seconds 579 msec
