                         Program Version 3.0.3 - RELEASE   -
|  1> ! RI PBE def2-SVP def2-SVP/J NBO PAL2
|  2> % maxcore 2000
|  3> % output
|  4>     # printlevel mini
|  5>     print[ P_Basis ] 0
|  6>     print[ P_SCFInfo ] 1
|  7>     print[ P_SCFIterInfo ] 1
|  8>     print[ P_OrbEn ] 0
|  9>     print[ P_Cartesian ] 0
| 10> end
| 11> *xyz 0 1
| 12>  C        0.9690640000     0.0305040000    -0.0307780000
| 13>  C        2.2955940000     0.0073380000    -0.0216670000
| 14>  C        3.0705640000     1.3027260000    -0.0128710000
| 15>  N        4.5023700000     1.1309210000    -0.0012970000
| 16>  N        5.1712720000    -0.0194980000     0.0003560000
| 17>  C        4.5432130000    -1.1286050000    -0.0080320000
| 18>  C        3.0596510000    -1.2894190000    -0.0200700000
| 19>  H        0.4150030000     0.9634820000    -0.0319550000
| 20>  H        0.3903290000    -0.8865050000    -0.0373830000
| 21>  H        2.7632730000     1.8843100000     0.8660050000
| 22>  H        2.7777460000     1.8876060000    -0.8945300000
| 23>  H        5.0898610000     1.9415260000     0.0053860000
| 24>  H        5.1631600000    -2.0192880000    -0.0058920000
| 25>  H        2.7550660000    -1.8880170000     0.8471560000
| 26>  H        2.7685430000    -1.8822910000    -0.8958260000
| 27> *
| 28>
| 29>                          ****END OF INPUT****
 Total Charge           Charge          ....    0
 Multiplicity           Mult            ....    1
 Number of Electrons    NEL             ....   52
 Basis Dimension        Dim             ....  138

MULLIKEN ATOMIC CHARGES
-----------------------
   0 C :   -0.028032
   1 C :   -0.257671
   2 C :    0.224468
   3 N :   -0.149469
   4 N :   -0.061616
   5 C :   -0.139582
   6 C :    0.121294
   7 H :    0.008576
   8 H :    0.011783
   9 H :    0.033223
  10 H :    0.033265
  11 H :    0.117646
  12 H :   -0.004181
  13 H :    0.045203
  14 H :    0.045094
Sum of atomic charges:   -0.0000000

LOEWDIN ATOMIC CHARGES
----------------------
   0 C :   -0.069955
   1 C :   -0.031406
   2 C :    0.013248
   3 N :    0.001470
   4 N :   -0.042692
   5 C :   -0.098951
   6 C :   -0.060540
   7 H :    0.021315
   8 H :    0.023662
   9 H :    0.033201
  10 H :    0.033181
  11 H :    0.064330
  12 H :    0.014439
  13 H :    0.049362
  14 H :    0.049336

  Mayer bond orders larger than 0.1
B(  0-C ,  1-C ) :   2.0189 B(  0-C ,  7-H ) :   0.9368 B(  0-C ,  8-H ) :   0.9367
B(  1-C ,  2-C ) :   1.0125 B(  1-C ,  6-C ) :   1.0384 B(  2-C ,  3-N ) :   0.9751
B(  2-C ,  9-H ) :   0.9201 B(  2-C , 10-H ) :   0.9200 B(  3-N ,  4-N ) :   1.1435
B(  3-N ,  5-C ) :   0.1602 B(  3-N , 11-H ) :   0.9475 B(  4-N ,  5-C ) :   1.8850
B(  5-C ,  6-C ) :   0.9928 B(  5-C , 12-H ) :   0.9619 B(  6-C , 13-H ) :   0.9043
B(  6-C , 14-H ) :   0.9043

FINAL SINGLE POINT ENERGY      -304.171491225511

DIPOLE MOMENT
-------------
                                X             Y             Z
Electronic contribution:      4.02082       0.62554       0.03348
Nuclear contribution   :     -4.61884      -0.19852      -0.03760
                        -----------------------------------------
Total Dipole Moment    :     -0.59802       0.42702      -0.00413
                        -----------------------------------------
Magnitude (a.u.)       :      0.73484
Magnitude (Debye)      :      1.86781

                             ****ORCA TERMINATED NORMALLY****
TOTAL RUN TIME: 0 days 0 hours 0 minutes 7 seconds 351 msec
