                         Program Version 3.0.3 - RELEASE   -
|  1> ! RI PBE def2-SVP def2-SVP/J NBO PAL2
|  2> % maxcore 2000
|  3> % output
|  4>     # printlevel mini
|  5>     print[ P_Basis ] 0
|  6>     print[ P_SCFInfo ] 1
|  7>     print[ P_SCFIterInfo ] 1
|  8>     print[ P_OrbEn ] 0
|  9>     print[ P_Cartesian ] 0
| 10> end
| 11> *xyz 0 1
| 12>  C        0.9879510000    -0.0173830000     0.3992860000
| 13>  C        2.4222060000    -0.0384690000    -0.0930650000
| 14>  C        2.7444820000     1.1585740000    -0.9729000000
| 15>  N        4.1322920000     1.0915100000    -1.3736490000
| 16>  N        4.5636900000    -0.0420430000    -1.9884100000
| 17>  C        3.9385070000    -1.1302320000    -1.7694230000
| 18>  C        2.7393850000    -1.3027140000    -0.8863970000
| 19>  H        0.7849450000     0.8691750000     1.0057730000
| 20>  H        0.7696060000    -0.8973480000     1.0096590000
| 21>  H        0.2878880000    -0.0166920000    -0.4422250000
| 22>  H        3.0990440000     0.0077380000     0.7672780000
| 23>  H        2.5867170000     2.0961270000    -0.4332980000
| 24>  H        2.0694190000     1.1519440000    -1.8463130000
| 25>  H        4.4683880000     1.8951850000    -1.8792240000
| 26>  H        4.3500350000    -2.0072780000    -2.2625520000
| 27>  H        2.9078530000    -2.1476660000    -0.2092340000
| 28>  H        1.8769730000    -1.5896180000    -1.5038980000
| 29> *
| 30>
| 31>                          ****END OF INPUT****
 Total Charge           Charge          ....    0
 Multiplicity           Mult            ....    1
 Number of Electrons    NEL             ....   54
 Basis Dimension        Dim             ....  148

MULLIKEN ATOMIC CHARGES
-----------------------
   0 C :    0.033680
   1 C :   -0.176633
   2 C :    0.126777
   3 N :   -0.111327
   4 N :   -0.091620
   5 C :   -0.101647
   6 C :    0.077450
   7 H :    0.019215
   8 H :    0.024700
   9 H :    0.016637
  10 H :    0.020431
  11 H :    0.004141
  12 H :    0.000850
  13 H :    0.113998
  14 H :    0.001337
  15 H :    0.024497
  16 H :    0.017513
Sum of atomic charges:   -0.0000000

LOEWDIN ATOMIC CHARGES
----------------------
   0 C :   -0.059162
   1 C :   -0.050897
   2 C :    0.008387
   3 N :   -0.008853
   4 N :   -0.051905
   5 C :   -0.071037
   6 C :   -0.059007
   7 H :    0.026798
   8 H :    0.029586
   9 H :    0.025558
  10 H :    0.030617
  11 H :    0.023120
  12 H :    0.009369
  13 H :    0.061541
  14 H :    0.015923
  15 H :    0.036916
  16 H :    0.033047

  Mayer bond orders larger than 0.1
B(  0-C ,  1-C ) :   1.0923 B(  0-C ,  7-H ) :   0.9582 B(  0-C ,  8-H ) :   0.9593
B(  0-C ,  9-H ) :   0.9518 B(  1-C ,  2-C ) :   1.0537 B(  1-C ,  6-C ) :   1.0474
B(  1-C , 10-H ) :   0.9096 B(  2-C ,  3-N ) :   1.0374 B(  2-C , 11-H ) :   0.9304
B(  2-C , 12-H ) :   0.9188 B(  3-N ,  4-N ) :   1.1003 B(  3-N ,  5-C ) :   0.1198
B(  3-N , 13-H ) :   0.9411 B(  4-N ,  5-C ) :   1.9134 B(  5-C ,  6-C ) :   1.0064
B(  5-C , 14-H ) :   0.9628 B(  6-C , 15-H ) :   0.9159 B(  6-C , 16-H ) :   0.9129

FINAL SINGLE POINT ENERGY      -305.402023553006

DIPOLE MOMENT
-------------
                                X             Y             Z
Electronic contribution:      6.09873       0.66781      -3.17092
Nuclear contribution   :     -6.83053      -0.40935       3.43030
                        -----------------------------------------
Total Dipole Moment    :     -0.73180       0.25847       0.25938
                        -----------------------------------------
Magnitude (a.u.)       :      0.81830
Magnitude (Debye)      :      2.07995

                             ****ORCA TERMINATED NORMALLY****
TOTAL RUN TIME: 0 days 0 hours 0 minutes 8 seconds 8 msec
