                         Program Version 3.0.3 - RELEASE   -
|  1> ! RI PBE def2-SVP def2-SVP/J NBO PAL2
|  2> % maxcore 2000
|  3> % output
|  4>     # printlevel mini
|  5>     print[ P_Basis ] 0
|  6>     print[ P_SCFInfo ] 1
|  7>     print[ P_SCFIterInfo ] 1
|  8>     print[ P_OrbEn ] 0
|  9>     print[ P_Cartesian ] 0
| 10> end
| 11> *xyz 0 1
| 12>  C        0.9987850000     0.2218580000    -0.2084550000
| 13>  C        2.4682360000     0.3599280000     0.0599400000
| 14>  N        3.3993790000    -0.6735300000    -0.3829600000
| 15>  C        3.4140960000     0.6385140000    -1.0384050000
| 16>  C        4.6417830000     1.4701820000    -0.9160090000
| 17>  C        4.5312490000     2.9342750000    -0.6052040000
| 18>  C        5.1255250000     1.9929240000     0.3971360000
| 19>  H        0.5397350000    -0.4913050000     0.4822140000
| 20>  H        0.8181130000    -0.1304560000    -1.2281820000
| 21>  H        0.4837450000     1.1788620000    -0.0887010000
| 22>  H        2.7109650000     0.7431460000     1.0480020000
| 23>  H        2.9126590000    -1.3499220000    -0.9632980000
| 24>  H        2.9555200000     0.6840660000    -2.0259830000
| 25>  H        5.4206490000     1.1954470000    -1.6216100000
| 26>  H        3.5402820000     3.3219380000    -0.3994080000
| 27>  H        5.1857080000     3.6253160000    -1.1216560000
| 28>  H        4.5513120000     1.7654630000     1.2859610000
| 29>  H        6.1954810000     2.0250940000     0.5594080000
| 30> *
| 31>
| 32>                          ****END OF INPUT****
 Total Charge           Charge          ....    0
 Multiplicity           Mult            ....    1
 Number of Electrons    NEL             ....   54
 Basis Dimension        Dim             ....  153

MULLIKEN ATOMIC CHARGES
-----------------------
   0 C :    0.081289
   1 C :   -0.123479
   2 N :   -0.165555
   3 C :   -0.014020
   4 C :   -0.032471
   5 C :   -0.035687
   6 C :   -0.034215
   7 H :    0.031147
   8 H :   -0.002299
   9 H :    0.027849
  10 H :    0.015981
  11 H :    0.095395
  12 H :    0.008920
  13 H :    0.020977
  14 H :    0.029996
  15 H :    0.033025
  16 H :    0.031997
  17 H :    0.031148
Sum of atomic charges:    0.0000000

LOEWDIN ATOMIC CHARGES
----------------------
   0 C :   -0.066768
   1 C :   -0.010460
   2 N :   -0.100243
   3 C :   -0.001287
   4 C :   -0.044026
   5 C :   -0.044370
   6 C :   -0.038576
   7 H :    0.031561
   8 H :    0.024635
   9 H :    0.034301
  10 H :    0.018122
  11 H :    0.048502
  12 H :    0.014533
  13 H :    0.029740
  14 H :    0.024924
  15 H :    0.025955
  16 H :    0.024802
  17 H :    0.028654

  Mayer bond orders larger than 0.1
B(  0-C ,  1-C ) :   1.0892 B(  0-C ,  7-H ) :   0.9534 B(  0-C ,  8-H ) :   0.9396
B(  0-C ,  9-H ) :   0.9522 B(  1-C ,  2-N ) :   0.9986 B(  1-C ,  3-C ) :   1.0101
B(  1-C , 10-H ) :   0.9177 B(  2-N ,  3-C ) :   0.9744 B(  2-N , 11-H ) :   0.9418
B(  3-C ,  4-C ) :   1.0537 B(  3-C , 12-H ) :   0.9331 B(  4-C ,  5-C ) :   0.9839
B(  4-C ,  6-C ) :   1.0054 B(  4-C , 13-H ) :   0.9316 B(  5-C ,  6-C ) :   1.0505
B(  5-C , 14-H ) :   0.9507 B(  5-C , 15-H ) :   0.9448 B(  6-C , 16-H ) :   0.9433
B(  6-C , 17-H ) :   0.9392

FINAL SINGLE POINT ENERGY      -289.343308400315

DIPOLE MOMENT
-------------
                                X             Y             Z
Electronic contribution:      2.24846      -1.54902      -0.44875
Nuclear contribution   :     -2.72772       1.71986       0.13267
                        -----------------------------------------
Total Dipole Moment    :     -0.47926       0.17084      -0.31608
                        -----------------------------------------
Magnitude (a.u.)       :      0.59898
Magnitude (Debye)      :      1.52250

                             ****ORCA TERMINATED NORMALLY****
TOTAL RUN TIME: 0 days 0 hours 0 minutes 7 seconds 669 msec
