                         Program Version 3.0.3 - RELEASE   -
|  1> ! RI PBE def2-SVP def2-SVP/J NBO PAL2
|  2> % maxcore 2000
|  3> % output
|  4>     # printlevel mini
|  5>     print[ P_Basis ] 0
|  6>     print[ P_SCFInfo ] 1
|  7>     print[ P_SCFIterInfo ] 1
|  8>     print[ P_OrbEn ] 0
|  9>     print[ P_Cartesian ] 0
| 10> end
| 11> *xyz 0 1
| 12>  C        0.9440080000    -0.3242050000     0.0465230000
| 13>  C        2.4389900000    -0.2559650000    -0.0431230000
| 14>  N        3.1161240000    -0.5366830000    -1.3058310000
| 15>  C        3.1091490000     0.8308630000    -0.7866860000
| 16>  C        4.4206500000     1.3894720000    -0.3708870000
| 17>  C        4.9773660000     2.5631940000    -1.0687050000
| 18>  N        4.4734760000     2.6854470000     0.2977030000
| 19>  H        0.6002040000    -1.3616650000     0.0859830000
| 20>  H        0.4776890000     0.1539390000    -0.8199490000
| 21>  H        0.5803600000     0.1807700000     0.9452510000
| 22>  H        2.9699710000    -0.6639500000     0.8143410000
| 23>  H        2.4378630000    -0.6352780000    -2.0543980000
| 24>  H        2.4483110000     1.5482490000    -1.2753450000
| 25>  H        5.1083810000     0.6513540000     0.0322000000
| 26>  H        4.3920720000     2.9869370000    -1.8798810000
| 27>  H        6.0506450000     2.6766750000    -1.1746150000
| 28>  H        3.5534320000     3.1151460000     0.2957980000
| 29> *
| 30>
| 31>                          ****END OF INPUT****
 Total Charge           Charge          ....    0
 Multiplicity           Mult            ....    1
 Number of Electrons    NEL             ....   54
 Basis Dimension        Dim             ....  148

MULLIKEN ATOMIC CHARGES
-----------------------
   0 C :    0.072727
   1 C :   -0.073256
   2 N :   -0.158444
   3 C :   -0.037397
   4 C :    0.002764
   5 C :    0.046274
   6 N :   -0.185833
   7 H :    0.031187
   8 H :    0.001034
   9 H :    0.031920
  10 H :    0.018329
  11 H :    0.099918
  12 H :   -0.017602
  13 H :    0.008569
  14 H :    0.021317
  15 H :    0.036282
  16 H :    0.102211
Sum of atomic charges:   -0.0000000

LOEWDIN ATOMIC CHARGES
----------------------
   0 C :   -0.066271
   1 C :   -0.006151
   2 N :   -0.096335
   3 C :   -0.016868
   4 C :   -0.003757
   5 C :    0.001738
   6 N :   -0.101261
   7 H :    0.032393
   8 H :    0.024915
   9 H :    0.035971
  10 H :    0.022512
  11 H :    0.051841
  12 H :    0.010413
  13 H :    0.026504
  14 H :    0.012499
  15 H :    0.022453
  16 H :    0.049405

  Mayer bond orders larger than 0.1
B(  0-C ,  1-C ) :   1.0945 B(  0-C ,  7-H ) :   0.9544 B(  0-C ,  8-H ) :   0.9412
B(  0-C ,  9-H ) :   0.9534 B(  1-C ,  2-N ) :   1.0026 B(  1-C ,  3-C ) :   0.9845
B(  1-C , 10-H ) :   0.9191 B(  2-N ,  3-C ) :   0.9558 B(  2-N , 11-H ) :   0.9379
B(  3-C ,  4-C ) :   1.0484 B(  3-C , 12-H ) :   0.9149 B(  4-C ,  5-C ) :   1.0297
B(  4-C ,  6-N ) :   0.9933 B(  4-C , 13-H ) :   0.9167 B(  5-C ,  6-N ) :   1.0104
B(  5-C , 14-H ) :   0.9412 B(  5-C , 15-H ) :   0.9368 B(  6-N , 16-H ) :   0.9488

FINAL SINGLE POINT ENERGY      -305.354780352952

DIPOLE MOMENT
-------------
                                X             Y             Z
Electronic contribution:      3.33262       0.52574      -0.06320
Nuclear contribution   :     -4.30769      -0.41738      -0.33345
                        -----------------------------------------
Total Dipole Moment    :     -0.97508       0.10836      -0.39665
                        -----------------------------------------
Magnitude (a.u.)       :      1.05823
Magnitude (Debye)      :      2.68981

                             ****ORCA TERMINATED NORMALLY****
TOTAL RUN TIME: 0 days 0 hours 0 minutes 7 seconds 463 msec
