                         Program Version 3.0.3 - RELEASE   -
|  1> ! RI PBE def2-SVP def2-SVP/J NBO PAL2
|  2> % maxcore 2000
|  3> % output
|  4>     # printlevel mini
|  5>     print[ P_Basis ] 0
|  6>     print[ P_SCFInfo ] 1
|  7>     print[ P_SCFIterInfo ] 1
|  8>     print[ P_OrbEn ] 0
|  9>     print[ P_Cartesian ] 0
| 10> end
| 11> *xyz 0 1
| 12>  C        1.0017010000    -0.1622720000    -0.0380830000
| 13>  C        2.4932820000    -0.0695950000     0.0845110000
| 14>  N        3.3540310000    -0.7432900000    -0.8874540000
| 15>  C        3.2868620000     0.7238500000    -0.8694620000
| 16>  C        4.5418350000     1.4427100000    -0.5170750000
| 17>  C        5.6202070000     1.3761110000    -1.5496060000
| 18>  C        4.6698170000     2.1036140000     0.6279280000
| 19>  H        0.6397040000    -1.1353070000     0.3056720000
| 20>  H        0.6844430000    -0.0298810000    -1.0766440000
| 21>  H        0.5096240000     0.6071620000     0.5626230000
| 22>  H        2.8770760000    -0.1460630000     1.0984020000
| 23>  H        2.7919850000    -1.1097550000    -1.6498230000
| 24>  H        2.7239400000     1.1853640000    -1.6818230000
| 25>  H        5.2790990000     1.8050750000    -2.4983050000
| 26>  H        5.8821370000     0.3329470000    -1.7487860000
| 27>  H        6.5163490000     1.9115800000    -1.2338270000
| 28>  H        3.8679960000     2.1321640000     1.3571290000
| 29>  H        5.5816010000     2.6372560000     0.8736330000
| 30> *
| 31>
| 32>                          ****END OF INPUT****
 Total Charge           Charge          ....    0
 Multiplicity           Mult            ....    1
 Number of Electrons    NEL             ....   54
 Basis Dimension        Dim             ....  153

MULLIKEN ATOMIC CHARGES
-----------------------
   0 C :    0.079638
   1 C :   -0.114166
   2 N :   -0.163681
   3 C :   -0.043954
   4 C :   -0.088870
   5 C :    0.081805
   6 C :   -0.033823
   7 H :    0.028955
   8 H :   -0.002232
   9 H :    0.032113
  10 H :    0.020434
  11 H :    0.096049
  12 H :    0.023954
  13 H :    0.016495
  14 H :    0.036816
  15 H :    0.012415
  16 H :    0.011603
  17 H :    0.006448
Sum of atomic charges:    0.0000000

LOEWDIN ATOMIC CHARGES
----------------------
   0 C :   -0.065555
   1 C :   -0.004368
   2 N :   -0.099414
   3 C :   -0.002302
   4 C :   -0.030110
   5 C :   -0.053207
   6 C :   -0.069518
   7 H :    0.031583
   8 H :    0.024318
   9 H :    0.036081
  10 H :    0.022453
  11 H :    0.049352
  12 H :    0.018542
  13 H :    0.033648
  14 H :    0.039491
  15 H :    0.029236
  16 H :    0.019894
  17 H :    0.019877

  Mayer bond orders larger than 0.1
B(  0-C ,  1-C ) :   1.0863 B(  0-C ,  7-H ) :   0.9547 B(  0-C ,  8-H ) :   0.9406
B(  0-C ,  9-H ) :   0.9528 B(  1-C ,  2-N ) :   0.9860 B(  1-C ,  3-C ) :   1.0116
B(  1-C , 10-H ) :   0.9295 B(  2-N ,  3-C ) :   0.9862 B(  2-N , 11-H ) :   0.9380
B(  3-C ,  4-C ) :   0.9844 B(  3-C , 12-H ) :   0.9183 B(  4-C ,  5-C ) :   1.0817
B(  4-C ,  6-C ) :   1.9969 B(  5-C , 13-H ) :   0.9409 B(  5-C , 14-H ) :   0.9407
B(  5-C , 15-H ) :   0.9503 B(  6-C , 16-H ) :   0.9357 B(  6-C , 17-H ) :   0.9295

FINAL SINGLE POINT ENERGY      -289.351082092530

DIPOLE MOMENT
-------------
                                X             Y             Z
Electronic contribution:      0.95926      -0.83082       0.24965
Nuclear contribution   :     -1.51930       0.99801      -0.52702
                        -----------------------------------------
Total Dipole Moment    :     -0.56004       0.16719      -0.27737
                        -----------------------------------------
Magnitude (a.u.)       :      0.64694
Magnitude (Debye)      :      1.64439

                             ****ORCA TERMINATED NORMALLY****
TOTAL RUN TIME: 0 days 0 hours 0 minutes 7 seconds 889 msec
