                         Program Version 3.0.3 - RELEASE   -
|  1> ! RI PBE def2-SVP def2-SVP/J NBO PAL2
|  2> % maxcore 2000
|  3> % output
|  4>     # printlevel mini
|  5>     print[ P_Basis ] 0
|  6>     print[ P_SCFInfo ] 1
|  7>     print[ P_SCFIterInfo ] 1
|  8>     print[ P_OrbEn ] 0
|  9>     print[ P_Cartesian ] 0
| 10> end
| 11> *xyz 0 1
| 12>  C        0.8353660000     0.0519580000    -0.1766500000
| 13>  C        2.3146300000     0.1857520000     0.0256930000
| 14>  N        3.2352650000    -0.7447460000    -0.6289700000
| 15>  C        3.1966610000     0.6523600000    -1.0584000000
| 16>  C        4.4363440000     1.4686100000    -0.7964620000
| 17>  C        4.1711290000     2.9383910000    -0.8162750000
| 18>  C        4.4022430000     3.7684500000     0.1909840000
| 19>  H        0.4294030000    -0.7734150000     0.4151710000
| 20>  H        0.6007640000    -0.1382150000    -1.2281630000
| 21>  H        0.3145150000     0.9650700000     0.1231900000
| 22>  H        2.6179670000     0.4273700000     1.0423290000
| 23>  H        2.7258360000    -1.3306720000    -1.2830400000
| 24>  H        2.7018300000     0.8626490000    -2.0059840000
| 25>  H        5.1818250000     1.2188560000    -1.5626170000
| 26>  H        4.8604950000     1.1688070000     0.1654390000
| 27>  H        3.7515540000     3.3379780000    -1.7388250000
| 28>  H        4.8206800000     3.4165030000     1.1291430000
| 29>  H        4.1885030000     4.8283740000     0.1146380000
| 30> *
| 31>
| 32>                          ****END OF INPUT****
 Total Charge           Charge          ....    0
 Multiplicity           Mult            ....    1
 Number of Electrons    NEL             ....   54
 Basis Dimension        Dim             ....  153

MULLIKEN ATOMIC CHARGES
-----------------------
   0 C :    0.077368
   1 C :   -0.097032
   2 N :   -0.160993
   3 C :   -0.124856
   4 C :    0.188234
   5 C :   -0.082445
   6 C :   -0.038945
   7 H :    0.029760
   8 H :   -0.001956
   9 H :    0.032595
  10 H :    0.015483
  11 H :    0.098266
  12 H :    0.008268
  13 H :    0.021368
  14 H :   -0.004380
  15 H :   -0.001462
  16 H :    0.015891
  17 H :    0.024837
Sum of atomic charges:   -0.0000000

LOEWDIN ATOMIC CHARGES
----------------------
   0 C :   -0.066615
   1 C :   -0.007530
   2 N :   -0.103103
   3 C :   -0.003946
   4 C :   -0.039144
   5 C :   -0.026557
   6 C :   -0.068208
   7 H :    0.031466
   8 H :    0.024421
   9 H :    0.036091
  10 H :    0.020245
  11 H :    0.050213
  12 H :    0.011244
  13 H :    0.038957
  14 H :    0.033772
  15 H :    0.023070
  16 H :    0.021435
  17 H :    0.024190

  Mayer bond orders larger than 0.1
B(  0-C ,  1-C ) :   1.0923 B(  0-C ,  7-H ) :   0.9538 B(  0-C ,  8-H ) :   0.9411
B(  0-C ,  9-H ) :   0.9535 B(  1-C ,  2-N ) :   1.0019 B(  1-C ,  3-C ) :   1.0097
B(  1-C , 10-H ) :   0.9234 B(  2-N ,  3-C ) :   0.9877 B(  2-N , 11-H ) :   0.9418
B(  3-C ,  4-C ) :   1.0246 B(  3-C , 12-H ) :   0.9356 B(  4-C ,  5-C ) :   1.0513
B(  4-C , 13-H ) :   0.8966 B(  4-C , 14-H ) :   0.9109 B(  5-C ,  6-C ) :   2.0255
B(  5-C , 15-H ) :   0.9493 B(  6-C , 16-H ) :   0.9467 B(  6-C , 17-H ) :   0.9433

FINAL SINGLE POINT ENERGY      -289.347236091012

DIPOLE MOMENT
-------------
                                X             Y             Z
Electronic contribution:      2.20080      -1.05662      -0.59059
Nuclear contribution   :     -2.75057       1.15390       0.27828
                        -----------------------------------------
Total Dipole Moment    :     -0.54977       0.09728      -0.31231
                        -----------------------------------------
Magnitude (a.u.)       :      0.63973
Magnitude (Debye)      :      1.62606

                             ****ORCA TERMINATED NORMALLY****
TOTAL RUN TIME: 0 days 0 hours 0 minutes 7 seconds 820 msec
