                         Program Version 3.0.3 - RELEASE   -
|  1> ! RI PBE def2-SVP def2-SVP/J NBO PAL2
|  2> % maxcore 2000
|  3> % output
|  4>     # printlevel mini
|  5>     print[ P_Basis ] 0
|  6>     print[ P_SCFInfo ] 1
|  7>     print[ P_SCFIterInfo ] 1
|  8>     print[ P_OrbEn ] 0
|  9>     print[ P_Cartesian ] 0
| 10> end
| 11> *xyz 0 1
| 12>  C        0.9719080000     0.0964740000    -0.2494500000
| 13>  C        2.4557660000     0.2187630000    -0.0775310000
| 14>  N        3.3582690000    -0.7085240000    -0.7613470000
| 15>  C        3.3128910000     0.6893180000    -1.1784880000
| 16>  C        4.5731600000     1.4831960000    -0.9321170000
| 17>  C        4.3397000000     2.9183740000    -0.9173950000
| 18>  C        4.1281420000     4.1001290000    -0.9136950000
| 19>  H        0.5735880000    -0.7282230000     0.3481290000
| 20>  H        0.7133400000    -0.0873740000    -1.2962730000
| 21>  H        0.4657310000     1.0126210000     0.0650140000
| 22>  H        2.7830340000     0.4496880000     0.9340640000
| 23>  H        2.8358600000    -1.2890640000    -1.4095640000
| 24>  H        2.8063420000     0.9222460000    -2.1124220000
| 25>  H        5.3122430000     1.2423670000    -1.7044540000
| 26>  H        5.0073860000     1.1638590000     0.0201940000
| 27>  H        3.9473200000     5.1487600000    -0.9071640000
| 28> *
| 29>
| 30>                          ****END OF INPUT****
 Total Charge           Charge          ....    0
 Multiplicity           Mult            ....    1
 Number of Electrons    NEL             ....   52
 Basis Dimension        Dim             ....  143

MULLIKEN ATOMIC CHARGES
-----------------------
   0 C :    0.079166
   1 C :   -0.094876
   2 N :   -0.156659
   3 C :   -0.127037
   4 C :    0.202410
   5 C :    0.323824
   6 C :   -0.494156
   7 H :    0.030963
   8 H :   -0.000072
   9 H :    0.036071
  10 H :    0.019188
  11 H :    0.101301
  12 H :    0.020252
  13 H :    0.038499
  14 H :    0.025307
  15 H :   -0.004183
Sum of atomic charges:   -0.0000000

LOEWDIN ATOMIC CHARGES
----------------------
   0 C :   -0.065186
   1 C :   -0.004972
   2 N :   -0.101691
   3 C :    0.001984
   4 C :   -0.043863
   5 C :   -0.019986
   6 C :   -0.092492
   7 H :    0.032280
   8 H :    0.025515
   9 H :    0.037930
  10 H :    0.021859
  11 H :    0.052365
  12 H :    0.017049
  13 H :    0.052959
  14 H :    0.053250
  15 H :    0.033000

  Mayer bond orders larger than 0.1
B(  0-C ,  1-C ) :   1.0929 B(  0-C ,  7-H ) :   0.9540 B(  0-C ,  8-H ) :   0.9415
B(  0-C ,  9-H ) :   0.9533 B(  1-C ,  2-N ) :   1.0061 B(  1-C ,  3-C ) :   1.0062
B(  1-C , 10-H ) :   0.9223 B(  2-N ,  3-C ) :   0.9886 B(  2-N , 11-H ) :   0.9406
B(  3-C ,  4-C ) :   1.0136 B(  3-C , 12-H ) :   0.9399 B(  4-C ,  5-C ) :   1.0431
B(  4-C , 13-H ) :   0.8841 B(  4-C , 14-H ) :   0.8798 B(  5-C ,  6-C ) :   2.3525
B(  5-C , 15-H ) :  -0.1121 B(  6-C , 15-H ) :   1.1032

FINAL SINGLE POINT ENERGY      -288.104983486790

DIPOLE MOMENT
-------------
                                X             Y             Z
Electronic contribution:      3.94672       2.52010      -0.57707
Nuclear contribution   :     -4.51236      -2.61284       0.35080
                        -----------------------------------------
Total Dipole Moment    :     -0.56563      -0.09274      -0.22627
                        -----------------------------------------
Magnitude (a.u.)       :      0.61623
Magnitude (Debye)      :      1.56633

                             ****ORCA TERMINATED NORMALLY****
TOTAL RUN TIME: 0 days 0 hours 0 minutes 7 seconds 25 msec
