                         Program Version 3.0.3 - RELEASE   -
|  1> ! RI PBE def2-SVP def2-SVP/J NBO PAL2
|  2> % maxcore 2000
|  3> % output
|  4>     # printlevel mini
|  5>     print[ P_Basis ] 0
|  6>     print[ P_SCFInfo ] 1
|  7>     print[ P_SCFIterInfo ] 1
|  8>     print[ P_OrbEn ] 0
|  9>     print[ P_Cartesian ] 0
| 10> end
| 11> *xyz 0 1
| 12>  C        0.7439960000     0.3363430000    -0.8110460000
| 13>  C        2.0728540000     0.0934650000    -0.1609460000
| 14>  N        2.7818390000    -1.1649910000    -0.3829440000
| 15>  C        3.3213710000     0.0724800000    -0.9490460000
| 16>  C        4.6349590000     0.5519270000    -0.4050420000
| 17>  C        4.8461910000     2.0414070000    -0.6087730000
| 18>  N        6.1622350000     2.4395170000    -0.1332060000
| 19>  H       -0.0516070000    -0.2134140000    -0.2998940000
| 20>  H        0.7575580000     0.0167960000    -1.8571550000
| 21>  H        0.4821580000     1.3976910000    -0.7886340000
| 22>  H        2.1475490000     0.4369430000     0.8692300000
| 23>  H        2.3081490000    -1.7035010000    -1.1013510000
| 24>  H        3.1920390000     0.2121620000    -2.0221890000
| 25>  H        5.4584070000     0.0082460000    -0.8795500000
| 26>  H        4.6752910000     0.3090290000     0.6628110000
| 27>  H        4.0162030000     2.5878680000    -0.1320430000
| 28>  H        4.7941830000     2.2703720000    -1.6790070000
| 29>  H        6.2423630000     2.2656220000     0.8617810000
| 30>  H        6.3088540000     3.4315460000    -0.2702770000
| 31> *
| 32>
| 33>                          ****END OF INPUT****
 Total Charge           Charge          ....    0
 Multiplicity           Mult            ....    1
 Number of Electrons    NEL             ....   56
 Basis Dimension        Dim             ....  158

MULLIKEN ATOMIC CHARGES
-----------------------
   0 C :    0.069043
   1 C :   -0.081777
   2 N :   -0.155542
   3 C :   -0.140218
   4 C :    0.118523
   5 C :    0.066548
   6 N :   -0.210846
   7 H :    0.029466
   8 H :    0.001370
   9 H :    0.028643
  10 H :    0.009120
  11 H :    0.097378
  12 H :    0.007562
  13 H :    0.011555
  14 H :   -0.009534
  15 H :   -0.014970
  16 H :    0.000407
  17 H :    0.087317
  18 H :    0.085955
Sum of atomic charges:    0.0000000

LOEWDIN ATOMIC CHARGES
----------------------
   0 C :   -0.068794
   1 C :   -0.009529
   2 N :   -0.101983
   3 C :   -0.006557
   4 C :   -0.046279
   5 C :    0.006539
   6 N :   -0.114030
   7 H :    0.031221
   8 H :    0.025316
   9 H :    0.033853
  10 H :    0.017789
  11 H :    0.049866
  12 H :    0.011670
  13 H :    0.029906
  14 H :    0.025510
  15 H :   -0.003161
  16 H :    0.017487
  17 H :    0.049392
  18 H :    0.051782

  Mayer bond orders larger than 0.1
B(  0-C ,  1-C ) :   1.0945 B(  0-C ,  7-H ) :   0.9525 B(  0-C ,  8-H ) :   0.9399
B(  0-C ,  9-H ) :   0.9539 B(  1-C ,  2-N ) :   0.9991 B(  1-C ,  3-C ) :   1.0012
B(  1-C , 10-H ) :   0.9215 B(  2-N ,  3-C ) :   0.9968 B(  2-N , 11-H ) :   0.9398
B(  3-C ,  4-C ) :   1.0368 B(  3-C , 12-H ) :   0.9364 B(  4-C ,  5-C ) :   1.0896
B(  4-C , 13-H ) :   0.9095 B(  4-C , 14-H ) :   0.9088 B(  5-C ,  6-N ) :   1.0884
B(  5-C , 15-H ) :   0.9277 B(  5-C , 16-H ) :   0.9312 B(  6-N , 17-H ) :   0.9699
B(  6-N , 18-H ) :   0.9644

FINAL SINGLE POINT ENERGY      -306.584387591455

DIPOLE MOMENT
-------------
                                X             Y             Z
Electronic contribution:      1.33126      -2.29611       0.54549
Nuclear contribution   :     -1.88801       2.90385      -0.69698
                        -----------------------------------------
Total Dipole Moment    :     -0.55675       0.60774      -0.15149
                        -----------------------------------------
Magnitude (a.u.)       :      0.83802
Magnitude (Debye)      :      2.13007

                             ****ORCA TERMINATED NORMALLY****
TOTAL RUN TIME: 0 days 0 hours 0 minutes 8 seconds 126 msec
