                         Program Version 3.0.3 - RELEASE   -
|  1> ! RI PBE def2-SVP def2-SVP/J NBO PAL2
|  2> % maxcore 2000
|  3> % output
|  4>     # printlevel mini
|  5>     print[ P_Basis ] 0
|  6>     print[ P_SCFInfo ] 1
|  7>     print[ P_SCFIterInfo ] 1
|  8>     print[ P_OrbEn ] 0
|  9>     print[ P_Cartesian ] 0
| 10> end
| 11> *xyz 0 1
| 12>  C        0.9022500000    -0.4744320000    -0.6741350000
| 13>  C        1.4570260000     0.9037080000    -0.4684840000
| 14>  N        2.7442850000     1.1079520000     0.2042560000
| 15>  C        2.6071060000     1.4534610000    -1.2198900000
| 16>  C        3.3411370000     0.6437340000    -2.2530710000
| 17>  C        2.6584060000     2.9463540000    -1.4454500000
| 18>  N        4.0239740000     3.4199180000    -1.2881840000
| 19>  H        0.4806190000    -0.8581850000     0.2591640000
| 20>  H        1.6623600000    -1.1810750000    -1.0112530000
| 21>  H        0.1011180000    -0.4639060000    -1.4182710000
| 22>  H        0.7087330000     1.6266660000    -0.1477830000
| 23>  H        3.2197590000     0.2140880000     0.2911740000
| 24>  H        3.3949450000    -0.4140890000    -1.9920700000
| 25>  H        4.3585130000     1.0263920000    -2.3575040000
| 26>  H        2.8523240000     0.7253730000    -3.2284440000
| 27>  H        1.9445500000     3.4220460000    -0.7572920000
| 28>  H        2.3265770000     3.1689700000    -2.4656370000
| 29>  H        4.3095670000     3.2677960000    -0.3272660000
| 30>  H        4.0830510000     4.4140400000    -1.4661570000
| 31> *
| 32>
| 33>                          ****END OF INPUT****
 Total Charge           Charge          ....    0
 Multiplicity           Mult            ....    1
 Number of Electrons    NEL             ....   56
 Basis Dimension        Dim             ....  158

MULLIKEN ATOMIC CHARGES
-----------------------
   0 C :    0.074781
   1 C :   -0.070325
   2 N :   -0.161005
   3 C :   -0.326719
   4 C :    0.140894
   5 C :    0.222620
   6 N :   -0.217285
   7 H :    0.027698
   8 H :   -0.000595
   9 H :    0.032161
  10 H :    0.009025
  11 H :    0.093212
  12 H :   -0.007970
  13 H :    0.025891
  14 H :    0.011735
  15 H :   -0.025564
  16 H :   -0.005488
  17 H :    0.090402
  18 H :    0.086532
Sum of atomic charges:    0.0000000

LOEWDIN ATOMIC CHARGES
----------------------
   0 C :   -0.070320
   1 C :   -0.004263
   2 N :   -0.104766
   3 C :   -0.038167
   4 C :   -0.057850
   5 C :    0.017954
   6 N :   -0.106837
   7 H :    0.032769
   8 H :    0.024501
   9 H :    0.035832
  10 H :    0.017199
  11 H :    0.046838
  12 H :    0.018973
  13 H :    0.032617
  14 H :    0.031149
  15 H :    0.002682
  16 H :    0.019097
  17 H :    0.051104
  18 H :    0.051488

  Mayer bond orders larger than 0.1
B(  0-C ,  1-C ) :   1.1177 B(  0-C ,  7-H ) :   0.9481 B(  0-C ,  8-H ) :   0.9352
B(  0-C ,  9-H ) :   0.9498 B(  1-C ,  2-N ) :   0.9943 B(  1-C ,  3-C ) :   0.9830
B(  1-C , 10-H ) :   0.9097 B(  2-N ,  3-C ) :   0.9621 B(  2-N , 11-H ) :   0.9440
B(  3-C ,  4-C ) :   1.0919 B(  3-C ,  5-C ) :   1.0380 B(  4-C , 12-H ) :   0.9318
B(  4-C , 13-H ) :   0.9345 B(  4-C , 14-H ) :   0.9444 B(  5-C ,  6-N ) :   1.0858
B(  5-C , 15-H ) :   0.8988 B(  5-C , 16-H ) :   0.9254 B(  6-N , 17-H ) :   0.9624
B(  6-N , 18-H ) :   0.9649

FINAL SINGLE POINT ENERGY      -306.590199875070

DIPOLE MOMENT
-------------
                                X             Y             Z
Electronic contribution:      0.89213       2.05936       2.02345
Nuclear contribution   :     -1.16393      -2.17708      -2.16679
                        -----------------------------------------
Total Dipole Moment    :     -0.27179      -0.11772      -0.14335
                        -----------------------------------------
Magnitude (a.u.)       :      0.32905
Magnitude (Debye)      :      0.83639

                             ****ORCA TERMINATED NORMALLY****
TOTAL RUN TIME: 0 days 0 hours 0 minutes 8 seconds 460 msec
