                         Program Version 3.0.3 - RELEASE   -
|  1> ! RI PBE def2-SVP def2-SVP/J NBO PAL2
|  2> % maxcore 2000
|  3> % output
|  4>     # printlevel mini
|  5>     print[ P_Basis ] 0
|  6>     print[ P_SCFInfo ] 1
|  7>     print[ P_SCFIterInfo ] 1
|  8>     print[ P_OrbEn ] 0
|  9>     print[ P_Cartesian ] 0
| 10> end
| 11> *xyz 0 1
| 12>  C        0.8787090000     0.1921730000    -0.1810400000
| 13>  C        2.3659320000     0.2936550000    -0.0277190000
| 14>  N        3.2516470000    -0.6053510000    -0.7671070000
| 15>  C        3.2062270000     0.8062810000    -1.1238910000
| 16>  C        4.4826820000     1.5693450000    -0.8614850000
| 17>  C        4.2545780000     3.0011880000    -0.7360790000
| 18>  N        4.0557750000     4.1296330000    -0.6435560000
| 19>  H        0.4842100000    -0.6537560000     0.3880990000
| 20>  H        0.6009550000     0.0553410000    -1.2299540000
| 21>  H        0.3873650000     1.0983790000     0.1811960000
| 22>  H        2.7116690000     0.4782340000     0.9871820000
| 23>  H        2.7196450000    -1.1587090000    -1.4311030000
| 24>  H        2.6891940000     1.0866790000    -2.0382760000
| 25>  H        5.2006050000     1.3994270000    -1.6700280000
| 26>  H        4.9437190000     1.1975610000     0.0572520000
| 27> *
| 28>
| 29>                          ****END OF INPUT****
 Total Charge           Charge          ....    0
 Multiplicity           Mult            ....    1
 Number of Electrons    NEL             ....   52
 Basis Dimension        Dim             ....  138

MULLIKEN ATOMIC CHARGES
-----------------------
   0 C :    0.078584
   1 C :   -0.093580
   2 N :   -0.150261
   3 C :   -0.135310
   4 C :    0.187882
   5 C :   -0.277487
   6 N :    0.045131
   7 H :    0.035416
   8 H :    0.003421
   9 H :    0.042458
  10 H :    0.025071
  11 H :    0.106465
  12 H :    0.031277
  13 H :    0.056804
  14 H :    0.044128
Sum of atomic charges:   -0.0000000

LOEWDIN ATOMIC CHARGES
----------------------
   0 C :   -0.063673
   1 C :   -0.002677
   2 N :   -0.096389
   3 C :    0.000711
   4 C :   -0.054130
   5 C :   -0.044005
   6 N :   -0.068004
   7 H :    0.034763
   8 H :    0.027046
   9 H :    0.040950
  10 H :    0.023976
  11 H :    0.055788
  12 H :    0.020867
  13 H :    0.061989
  14 H :    0.062788

  Mayer bond orders larger than 0.1
B(  0-C ,  1-C ) :   1.0926 B(  0-C ,  7-H ) :   0.9539 B(  0-C ,  8-H ) :   0.9420
B(  0-C ,  9-H ) :   0.9527 B(  1-C ,  2-N ) :   1.0079 B(  1-C ,  3-C ) :   1.0029
B(  1-C , 10-H ) :   0.9232 B(  2-N ,  3-C ) :   1.0000 B(  2-N , 11-H ) :   0.9393
B(  3-C ,  4-C ) :   1.0186 B(  3-C , 12-H ) :   0.9405 B(  4-C ,  5-C ) :   1.0864
B(  4-C , 13-H ) :   0.8820 B(  4-C , 14-H ) :   0.8765 B(  5-C ,  6-N ) :   3.0591

FINAL SINGLE POINT ENERGY      -304.184663299609

DIPOLE MOMENT
-------------
                                X             Y             Z
Electronic contribution:      4.78332       5.05846      -0.50950
Nuclear contribution   :     -5.26449      -6.33550       0.20214
                        -----------------------------------------
Total Dipole Moment    :     -0.48116      -1.27704      -0.30735
                        -----------------------------------------
Magnitude (a.u.)       :      1.39886
Magnitude (Debye)      :      3.55563

                             ****ORCA TERMINATED NORMALLY****
TOTAL RUN TIME: 0 days 0 hours 0 minutes 6 seconds 452 msec
