                         Program Version 3.0.3 - RELEASE   -
|  1> ! RI PBE def2-SVP def2-SVP/J NBO PAL2
|  2> % maxcore 2000
|  3> % output
|  4>     # printlevel mini
|  5>     print[ P_Basis ] 0
|  6>     print[ P_SCFInfo ] 1
|  7>     print[ P_SCFIterInfo ] 1
|  8>     print[ P_OrbEn ] 0
|  9>     print[ P_Cartesian ] 0
| 10> end
| 11> *xyz 0 1
| 12>  C        0.9487240000     0.0787240000     0.0133810000
| 13>  C        2.4582920000     0.1063690000     0.1179460000
| 14>  N        2.9947370000    -0.9670330000     1.0042800000
| 15>  C        3.8363680000    -0.1784290000     1.9157520000
| 16>  C        4.5253980000     0.8668790000     1.0086630000
| 17>  C        3.0603480000     1.3262430000     0.8254010000
| 18>  C        2.8731300000     0.9487270000     2.3153030000
| 19>  H        0.6133920000    -0.8727970000    -0.4053680000
| 20>  H        0.5888620000     0.8820650000    -0.6361970000
| 21>  H        0.4813970000     0.1888060000     0.9937560000
| 22>  H        2.8826260000     0.0247420000    -0.8908360000
| 23>  H        3.5690490000    -1.6077400000     0.4693980000
| 24>  H        4.3716600000    -0.7840530000     2.6462900000
| 25>  H        5.0640310000     0.5017870000     0.1293020000
| 26>  H        5.1286670000     1.5904100000     1.5590410000
| 27>  H        2.7975390000     2.3076050000     0.4313740000
| 28>  H        1.8834690000     0.6602520000     2.6708770000
| 29>  H        3.3318990000     1.6772540000     2.9835270000
| 30> *
| 31>
| 32>                          ****END OF INPUT****
 Total Charge           Charge          ....    0
 Multiplicity           Mult            ....    1
 Number of Electrons    NEL             ....   54
 Basis Dimension        Dim             ....  153

MULLIKEN ATOMIC CHARGES
-----------------------
   0 C :    0.109842
   1 C :   -0.023267
   2 N :   -0.162065
   3 C :   -0.092270
   4 C :    0.099000
   5 C :   -0.173130
   6 C :    0.097998
   7 H :    0.014017
   8 H :    0.005739
   9 H :    0.003900
  10 H :   -0.000415
  11 H :    0.092863
  12 H :   -0.008605
  13 H :   -0.002147
  14 H :    0.014546
  15 H :   -0.012354
  16 H :    0.014177
  17 H :    0.022171
Sum of atomic charges:   -0.0000000

LOEWDIN ATOMIC CHARGES
----------------------
   0 C :   -0.065507
   1 C :    0.012614
   2 N :   -0.098359
   3 C :    0.023624
   4 C :   -0.039729
   5 C :   -0.026218
   6 C :   -0.026302
   7 H :    0.028126
   8 H :    0.023708
   9 H :    0.024008
  10 H :    0.011629
  11 H :    0.047894
  12 H :    0.006433
  13 H :    0.008959
  14 H :    0.021441
  15 H :    0.010178
  16 H :    0.013234
  17 H :    0.024267

  Mayer bond orders larger than 0.1
B(  0-C ,  1-C ) :   1.0879 B(  0-C ,  7-H ) :   0.9504 B(  0-C ,  8-H ) :   0.9499
B(  0-C ,  9-H ) :   0.9467 B(  1-C ,  2-N ) :   0.9842 B(  1-C ,  5-C ) :   0.9957
B(  1-C , 10-H ) :   0.9172 B(  2-N ,  3-C ) :   1.0713 B(  2-N , 11-H ) :   0.9413
B(  3-C ,  4-C ) :   0.9721 B(  3-C ,  6-C ) :   0.9815 B(  3-C , 12-H ) :   0.9579
B(  4-C ,  5-C ) :   0.9723 B(  4-C , 13-H ) :   0.9227 B(  4-C , 14-H ) :   0.9378
B(  5-C ,  6-C ) :   0.9712 B(  5-C , 15-H ) :   0.9564 B(  6-C , 16-H ) :   0.9227
B(  6-C , 17-H ) :   0.9469

FINAL SINGLE POINT ENERGY      -289.363425455671

DIPOLE MOMENT
-------------
                                X             Y             Z
Electronic contribution:      1.85282      -1.04208       0.90839
Nuclear contribution   :     -1.51311       1.21183      -1.12874
                        -----------------------------------------
Total Dipole Moment    :      0.33971       0.16975      -0.22035
                        -----------------------------------------
Magnitude (a.u.)       :      0.43905
Magnitude (Debye)      :      1.11599

                             ****ORCA TERMINATED NORMALLY****
TOTAL RUN TIME: 0 days 0 hours 0 minutes 8 seconds 17 msec
