                         Program Version 3.0.3 - RELEASE   -
|  1> ! RI PBE def2-SVP def2-SVP/J NBO PAL2
|  2> % maxcore 2000
|  3> % output
|  4>     # printlevel mini
|  5>     print[ P_Basis ] 0
|  6>     print[ P_SCFInfo ] 1
|  7>     print[ P_SCFIterInfo ] 1
|  8>     print[ P_OrbEn ] 0
|  9>     print[ P_Cartesian ] 0
| 10> end
| 11> *xyz 0 1
| 12>  C        0.9537000000    -0.0581700000    -0.3292390000
| 13>  C        2.3881520000    -0.0127920000     0.0542980000
| 14>  N        3.0666380000     1.0648680000     0.1944540000
| 15>  C        4.4192190000     0.6680230000     0.4623120000
| 16>  C        5.1260530000    -0.1046030000    -0.6147790000
| 17>  C        4.4502300000    -0.8483710000     0.5006960000
| 18>  N        3.0707460000    -1.1809410000     0.3289760000
| 19>  H        0.5570450000     0.9546640000    -0.3483160000
| 20>  H        0.3806710000    -0.6621820000     0.3786530000
| 21>  H        0.8286970000    -0.4998590000    -1.3222120000
| 22>  H        4.9930910000     1.2960900000     1.1315680000
| 23>  H        6.2084980000    -0.0893740000    -0.5934220000
| 24>  H        4.6776580000    -0.1210890000    -1.6019700000
| 25>  H        5.0182230000    -1.4390820000     1.2084370000
| 26>  H        2.7909700000    -2.0520710000    -0.0904560000
| 27> *
| 28>
| 29>                          ****END OF INPUT****
 Total Charge           Charge          ....    0
 Multiplicity           Mult            ....    1
 Number of Electrons    NEL             ....   52
 Basis Dimension        Dim             ....  138

MULLIKEN ATOMIC CHARGES
-----------------------
   0 C :    0.087598
   1 C :   -0.130534
   2 N :   -0.135147
   3 C :   -0.018527
   4 C :    0.018439
   5 C :   -0.025519
   6 N :   -0.106853
   7 H :    0.036961
   8 H :    0.033515
   9 H :    0.030497
  10 H :    0.019157
  11 H :    0.039004
  12 H :    0.025706
  13 H :    0.016995
  14 H :    0.108709
Sum of atomic charges:   -0.0000000

LOEWDIN ATOMIC CHARGES
----------------------
   0 C :   -0.068954
   1 C :    0.005399
   2 N :   -0.147797
   3 C :    0.000911
   4 C :   -0.065998
   5 C :   -0.007468
   6 N :   -0.008365
   7 H :    0.046956
   8 H :    0.038813
   9 H :    0.039240
  10 H :    0.019607
  11 H :    0.033355
  12 H :    0.026422
  13 H :    0.017449
  14 H :    0.070431

  Mayer bond orders larger than 0.1
B(  0-C ,  1-C ) :   1.0913 B(  0-C ,  7-H ) :   0.9369 B(  0-C ,  8-H ) :   0.9403
B(  0-C ,  9-H ) :   0.9396 B(  1-C ,  2-N ) :   1.8171 B(  1-C ,  6-N ) :   1.1471
B(  2-N ,  3-C ) :   1.1097 B(  3-C ,  4-C ) :   0.9625 B(  3-C ,  5-C ) :   0.9011
B(  3-C , 10-H ) :   0.9534 B(  4-C ,  5-C ) :   0.9849 B(  4-C , 11-H ) :   0.9410
B(  4-C , 12-H ) :   0.9139 B(  5-C ,  6-N ) :   1.0466 B(  5-C , 13-H ) :   0.9499
B(  6-N , 14-H ) :   0.9353

FINAL SINGLE POINT ENERGY      -304.206215774873

DIPOLE MOMENT
-------------
                                X             Y             Z
Electronic contribution:      1.07767       0.70014       1.49547
Nuclear contribution   :     -1.09450      -1.78471      -1.70284
                        -----------------------------------------
Total Dipole Moment    :     -0.01683      -1.08457      -0.20738
                        -----------------------------------------
Magnitude (a.u.)       :      1.10435
Magnitude (Debye)      :      2.80702

                             ****ORCA TERMINATED NORMALLY****
TOTAL RUN TIME: 0 days 0 hours 0 minutes 6 seconds 913 msec
