                         Program Version 3.0.3 - RELEASE   -
|  1> ! RI PBE def2-SVP def2-SVP/J NBO PAL2
|  2> % maxcore 2000
|  3> % output
|  4>     # printlevel mini
|  5>     print[ P_Basis ] 0
|  6>     print[ P_SCFInfo ] 1
|  7>     print[ P_SCFIterInfo ] 1
|  8>     print[ P_OrbEn ] 0
|  9>     print[ P_Cartesian ] 0
| 10> end
| 11> *xyz 0 1
| 12>  C        0.9727840000     0.0240370000     0.0385380000
| 13>  C        2.4751900000     0.0456760000     0.0178860000
| 14>  N        3.2731600000    -0.6655460000    -0.9727710000
| 15>  C        2.6322050000    -1.4132050000    -2.0274200000
| 16>  C        3.2883930000     0.7940650000    -0.9824450000
| 17>  C        2.6298770000     1.5733060000    -2.0917320000
| 18>  C        4.6032060000     1.3853610000    -0.5425470000
| 19>  H        0.6080290000    -0.9268470000     0.4377730000
| 20>  H        0.5179930000     0.1678610000    -0.9406120000
| 21>  H        0.6009970000     0.8166460000     0.6931780000
| 22>  H        2.9047330000    -0.0288700000     1.0171300000
| 23>  H        2.4245470000    -2.4232330000    -1.6649930000
| 24>  H        3.3251720000    -1.5029580000    -2.8675630000
| 25>  H        1.6923780000    -0.9968980000    -2.4113730000
| 26>  H        1.6680840000     1.1698540000    -2.4035320000
| 27>  H        3.2798780000     1.6016570000    -2.9718260000
| 28>  H        2.4668030000     2.6067730000    -1.7743840000
| 29>  H        5.0516540000     0.7740720000     0.2416180000
| 30>  H        4.4702510000     2.4029180000    -0.1628940000
| 31>  H        5.3061670000     1.4282510000    -1.3803100000
| 32> *
| 33>
| 34>                          ****END OF INPUT****
 Total Charge           Charge          ....    0
 Multiplicity           Mult            ....    1
 Number of Electrons    NEL             ....   56
 Basis Dimension        Dim             ....  163

MULLIKEN ATOMIC CHARGES
-----------------------
   0 C :    0.082149
   1 C :   -0.045365
   2 N :   -0.273723
   3 C :    0.104303
   4 C :   -0.243088
   5 C :    0.115090
   6 C :    0.105779
   7 H :    0.024045
   8 H :    0.001744
   9 H :    0.028098
  10 H :    0.003656
  11 H :    0.021410
  12 H :    0.023638
  13 H :   -0.014934
  14 H :   -0.007824
  15 H :    0.019859
  16 H :    0.021273
  17 H :    0.010536
  18 H :    0.010252
  19 H :    0.013101
Sum of atomic charges:   -0.0000000

LOEWDIN ATOMIC CHARGES
----------------------
   0 C :   -0.067536
   1 C :   -0.002448
   2 N :   -0.112010
   3 C :   -0.004356
   4 C :   -0.027230
   5 C :   -0.057428
   6 C :   -0.054491
   7 H :    0.032698
   8 H :    0.023792
   9 H :    0.036342
  10 H :    0.015885
  11 H :    0.025046
  12 H :    0.025635
  13 H :   -0.003142
  14 H :    0.021997
  15 H :    0.031245
  16 H :    0.034148
  17 H :    0.029804
  18 H :    0.025219
  19 H :    0.026829

  Mayer bond orders larger than 0.1
B(  0-C ,  1-C ) :   1.1058 B(  0-C ,  7-H ) :   0.9505 B(  0-C ,  8-H ) :   0.9402
B(  0-C ,  9-H ) :   0.9504 B(  1-C ,  2-N ) :   0.9485 B(  1-C ,  4-C ) :   0.9771
B(  1-C , 10-H ) :   0.9193 B(  2-N ,  3-C ) :   1.0521 B(  2-N ,  4-C ) :   0.9261
B(  3-C , 11-H ) :   0.9677 B(  3-C , 12-H ) :   0.9696 B(  3-C , 13-H ) :   0.9319
B(  4-C ,  5-C ) :   1.0965 B(  4-C ,  6-C ) :   1.0780 B(  5-C , 14-H ) :   0.9316
B(  5-C , 15-H ) :   0.9494 B(  5-C , 16-H ) :   0.9458 B(  6-C , 17-H ) :   0.9376
B(  6-C , 18-H ) :   0.9530 B(  6-C , 19-H ) :   0.9510

FINAL SINGLE POINT ENERGY      -290.563414556068

DIPOLE MOMENT
-------------
                                X             Y             Z
Electronic contribution:      1.78988      -1.48008       1.47752
Nuclear contribution   :     -2.21584       1.72653      -1.62306
                        -----------------------------------------
Total Dipole Moment    :     -0.42596       0.24645      -0.14554
                        -----------------------------------------
Magnitude (a.u.)       :      0.51319
Magnitude (Debye)      :      1.30442

                             ****ORCA TERMINATED NORMALLY****
TOTAL RUN TIME: 0 days 0 hours 0 minutes 8 seconds 701 msec
