                         Program Version 3.0.3 - RELEASE   -
|  1> ! RI PBE def2-SVP def2-SVP/J NBO PAL2
|  2> % maxcore 2000
|  3> % output
|  4>     # printlevel mini
|  5>     print[ P_Basis ] 0
|  6>     print[ P_SCFInfo ] 1
|  7>     print[ P_SCFIterInfo ] 1
|  8>     print[ P_OrbEn ] 0
|  9>     print[ P_Cartesian ] 0
| 10> end
| 11> *xyz 0 1
| 12>  C        0.8694430000     0.0733380000     0.0367140000
| 13>  C        2.3710100000    -0.0475340000     0.0405940000
| 14>  N        3.1201200000     1.0188860000     0.7489580000
| 15>  C        4.0272710000    -0.0055760000     1.3172670000
| 16>  C        3.0952410000    -1.1524750000     0.8658650000
| 17>  C        2.2765410000    -1.6978470000     2.0214350000
| 18>  C        3.7243290000    -2.2740750000     0.0668590000
| 19>  H        0.5704640000     0.9954720000    -0.4694770000
| 20>  H        0.4587160000     0.0956450000     1.0494110000
| 21>  H        0.4083930000    -0.7615340000    -0.4976220000
| 22>  H        2.7234560000    -0.0809240000    -0.9985990000
| 23>  H        2.5415690000     1.4212830000     1.4782930000
| 24>  H        4.2115480000     0.0753680000     2.3924270000
| 25>  H        4.9919230000     0.0000330000     0.7993550000
| 26>  H        1.8464290000    -0.8967970000     2.6289140000
| 27>  H        2.9084650000    -2.3037250000     2.6775950000
| 28>  H        1.4562420000    -2.3310560000     1.6715230000
| 29>  H        4.3260890000    -1.8821070000    -0.7574220000
| 30>  H        2.9599720000    -2.9322070000    -0.3581440000
| 31>  H        4.3751910000    -2.8901790000     0.6948650000
| 32> *
| 33>
| 34>                          ****END OF INPUT****
 Total Charge           Charge          ....    0
 Multiplicity           Mult            ....    1
 Number of Electrons    NEL             ....   56
 Basis Dimension        Dim             ....  163

MULLIKEN ATOMIC CHARGES
-----------------------
   0 C :    0.064785
   1 C :    0.041789
   2 N :   -0.241050
   3 C :    0.234855
   4 C :   -0.454043
   5 C :    0.077627
   6 C :    0.078602
   7 H :    0.029983
   8 H :   -0.001329
   9 H :    0.022515
  10 H :   -0.011809
  11 H :    0.084484
  12 H :   -0.004036
  13 H :   -0.007624
  14 H :    0.003795
  15 H :    0.018837
  16 H :    0.017335
  17 H :    0.012409
  18 H :    0.015344
  19 H :    0.017530
Sum of atomic charges:    0.0000000

LOEWDIN ATOMIC CHARGES
----------------------
   0 C :   -0.071642
   1 C :    0.020357
   2 N :   -0.116164
   3 C :    0.038250
   4 C :   -0.074685
   5 C :   -0.051940
   6 C :   -0.057181
   7 H :    0.033741
   8 H :    0.020360
   9 H :    0.033252
  10 H :    0.015210
  11 H :    0.043431
  12 H :    0.008985
  13 H :    0.011985
  14 H :    0.018001
  15 H :    0.027323
  16 H :    0.025191
  17 H :    0.022640
  18 H :    0.026256
  19 H :    0.026630

  Mayer bond orders larger than 0.1
B(  0-C ,  1-C ) :   1.1324 B(  0-C ,  7-H ) :   0.9500 B(  0-C ,  8-H ) :   0.9303
B(  0-C ,  9-H ) :   0.9503 B(  1-C ,  2-N ) :   1.0742 B(  1-C ,  4-C ) :   0.9782
B(  1-C , 10-H ) :   0.8963 B(  2-N ,  3-C ) :   1.0724 B(  2-N , 11-H ) :   0.9370
B(  3-C ,  4-C ) :   1.0461 B(  3-C , 12-H ) :   0.9269 B(  3-C , 13-H ) :   0.9186
B(  4-C ,  5-C ) :   1.0420 B(  4-C ,  6-C ) :   1.0446 B(  5-C , 14-H ) :   0.9446
B(  5-C , 15-H ) :   0.9517 B(  5-C , 16-H ) :   0.9466 B(  6-C , 17-H ) :   0.9458
B(  6-C , 18-H ) :   0.9577 B(  6-C , 19-H ) :   0.9558

FINAL SINGLE POINT ENERGY      -290.570824812204

DIPOLE MOMENT
-------------
                                X             Y             Z
Electronic contribution:      1.72126       3.17759      -0.39423
Nuclear contribution   :     -2.03973      -3.56300       0.68216
                        -----------------------------------------
Total Dipole Moment    :     -0.31847      -0.38541       0.28793
                        -----------------------------------------
Magnitude (a.u.)       :      0.57695
Magnitude (Debye)      :      1.46648

                             ****ORCA TERMINATED NORMALLY****
TOTAL RUN TIME: 0 days 0 hours 0 minutes 9 seconds 94 msec
