                         Program Version 3.0.3 - RELEASE   -
|  1> ! RI PBE def2-SVP def2-SVP/J NBO PAL2
|  2> % maxcore 2000
|  3> % output
|  4>     # printlevel mini
|  5>     print[ P_Basis ] 0
|  6>     print[ P_SCFInfo ] 1
|  7>     print[ P_SCFIterInfo ] 1
|  8>     print[ P_OrbEn ] 0
|  9>     print[ P_Cartesian ] 0
| 10> end
| 11> *xyz 0 1
| 12>  C        1.0077090000    -0.0427750000     0.1477040000
| 13>  C        2.5040190000     0.0128680000    -0.0124220000
| 14>  N        3.1916320000     1.1892560000     0.5725720000
| 15>  C        4.1628950000     0.2978440000     1.2441510000
| 16>  C        3.3596530000    -0.9590400000     0.8424180000
| 17>  C        4.0663660000    -2.0665940000     0.1574130000
| 18>  C        3.9922700000    -3.3482860000     0.4930420000
| 19>  H        0.5282080000     0.7879100000    -0.3777900000
| 20>  H        0.7242240000     0.0099480000     1.2036790000
| 21>  H        0.6101520000    -0.9741350000    -0.2641090000
| 22>  H        2.7599090000    -0.0661900000    -1.0763950000
| 23>  H        2.5947640000     1.6565640000     1.2447550000
| 24>  H        4.2909190000     0.4593170000     2.3170340000
| 25>  H        5.1480530000     0.3524850000     0.7699540000
| 26>  H        2.7759650000    -1.3455220000     1.6836340000
| 27>  H        4.6878730000    -1.7774220000    -0.6900000000
| 28>  H        3.3869220000    -3.6788480000     1.3317780000
| 29>  H        4.5327650000    -4.1121490000    -0.0540080000
| 30> *
| 31>
| 32>                          ****END OF INPUT****
 Total Charge           Charge          ....    0
 Multiplicity           Mult            ....    1
 Number of Electrons    NEL             ....   54
 Basis Dimension        Dim             ....  153

MULLIKEN ATOMIC CHARGES
-----------------------
   0 C :    0.049566
   1 C :    0.012003
   2 N :   -0.248095
   3 C :    0.202506
   4 C :   -0.168133
   5 C :    0.010990
   6 C :   -0.026455
   7 H :    0.034277
   8 H :    0.000426
   9 H :    0.027397
  10 H :   -0.001394
  11 H :    0.084469
  12 H :    0.012190
  13 H :   -0.002487
  14 H :   -0.020016
  15 H :   -0.004252
  16 H :    0.015449
  17 H :    0.021559
Sum of atomic charges:   -0.0000000

LOEWDIN ATOMIC CHARGES
----------------------
   0 C :   -0.070186
   1 C :    0.022990
   2 N :   -0.118634
   3 C :    0.039266
   4 C :   -0.048647
   5 C :   -0.030191
   6 C :   -0.062202
   7 H :    0.032745
   8 H :    0.018966
   9 H :    0.035270
  10 H :    0.015790
  11 H :    0.044193
  12 H :    0.013196
  13 H :    0.012970
  14 H :    0.024825
  15 H :    0.024446
  16 H :    0.020902
  17 H :    0.024302

  Mayer bond orders larger than 0.1
B(  0-C ,  1-C ) :   1.1062 B(  0-C ,  7-H ) :   0.9560 B(  0-C ,  8-H ) :   0.9413
B(  0-C ,  9-H ) :   0.9516 B(  1-C ,  2-N ) :   1.0742 B(  1-C ,  4-C ) :   1.0005
B(  1-C , 10-H ) :   0.9000 B(  2-N ,  3-C ) :   1.0653 B(  2-N , 11-H ) :   0.9349
B(  3-C ,  4-C ) :   1.0551 B(  3-C , 12-H ) :   0.9326 B(  3-C , 13-H ) :   0.9189
B(  4-C ,  5-C ) :   1.0239 B(  4-C , 14-H ) :   0.8816 B(  5-C ,  6-C ) :   1.9958
B(  5-C , 15-H ) :   0.9477 B(  6-C , 16-H ) :   0.9494 B(  6-C , 17-H ) :   0.9368

FINAL SINGLE POINT ENERGY      -289.346362218748

DIPOLE MOMENT
-------------
                                X             Y             Z
Electronic contribution:      2.14163       0.97995      -0.20632
Nuclear contribution   :     -2.47724      -1.19011       0.54447
                        -----------------------------------------
Total Dipole Moment    :     -0.33561      -0.21015       0.33815
                        -----------------------------------------
Magnitude (a.u.)       :      0.52071
Magnitude (Debye)      :      1.32354

                             ****ORCA TERMINATED NORMALLY****
TOTAL RUN TIME: 0 days 0 hours 0 minutes 8 seconds 1 msec
