                         Program Version 3.0.3 - RELEASE   -
|  1> ! RI PBE def2-SVP def2-SVP/J NBO PAL2
|  2> % maxcore 2000
|  3> % output
|  4>     # printlevel mini
|  5>     print[ P_Basis ] 0
|  6>     print[ P_SCFInfo ] 1
|  7>     print[ P_SCFIterInfo ] 1
|  8>     print[ P_OrbEn ] 0
|  9>     print[ P_Cartesian ] 0
| 10> end
| 11> *xyz 0 1
| 12>  C        1.0116450000     0.0715130000    -0.0099290000
| 13>  C        2.5126370000    -0.0065430000    -0.0635250000
| 14>  N        3.2633810000     1.0549480000     0.6512550000
| 15>  C        4.1695170000     0.0338790000     1.2232130000
| 16>  C        3.2254290000    -1.1042230000     0.7722490000
| 17>  C        3.7693630000    -2.2623360000     0.1043970000
| 18>  C        4.2319790000    -3.2096290000    -0.4724850000
| 19>  H        0.6557560000     0.9818690000    -0.4995520000
| 20>  H        0.6542460000     0.0762430000     1.0246950000
| 21>  H        0.5621010000    -0.7833790000    -0.5211040000
| 22>  H        2.8503790000    -0.0442640000    -1.1046480000
| 23>  H        2.6808460000     1.4546770000     1.3789800000
| 24>  H        4.3577160000     0.1120880000     2.2954030000
| 25>  H        5.1261640000     0.0173260000     0.6957800000
| 26>  H        2.5801570000    -1.4186410000     1.5993120000
| 27>  H        4.6410860000    -4.0510290000    -0.9796320000
| 28> *
| 29>
| 30>                          ****END OF INPUT****
 Total Charge           Charge          ....    0
 Multiplicity           Mult            ....    1
 Number of Electrons    NEL             ....   52
 Basis Dimension        Dim             ....  143

MULLIKEN ATOMIC CHARGES
-----------------------
   0 C :    0.052994
   1 C :    0.014848
   2 N :   -0.248638
   3 C :    0.204367
   4 C :   -0.204714
   5 C :    0.470457
   6 C :   -0.505157
   7 H :    0.037217
   8 H :    0.000960
   9 H :    0.034923
  10 H :    0.009563
  11 H :    0.088230
  12 H :    0.018302
  13 H :    0.011329
  14 H :    0.017629
  15 H :   -0.002311
Sum of atomic charges:   -0.0000000

LOEWDIN ATOMIC CHARGES
----------------------
   0 C :   -0.069300
   1 C :    0.031730
   2 N :   -0.116005
   3 C :    0.048073
   4 C :   -0.059887
   5 C :   -0.022925
   6 C :   -0.087142
   7 H :    0.035239
   8 H :    0.019981
   9 H :    0.038322
  10 H :    0.022912
  11 H :    0.046252
  12 H :    0.015644
  13 H :    0.020587
  14 H :    0.042516
  15 H :    0.034003

  Mayer bond orders larger than 0.1
B(  0-C ,  1-C ) :   1.1101 B(  0-C ,  7-H ) :   0.9550 B(  0-C ,  8-H ) :   0.9393
B(  0-C ,  9-H ) :   0.9527 B(  1-C ,  2-N ) :   1.0601 B(  1-C ,  4-C ) :   1.0121
B(  1-C , 10-H ) :   0.9044 B(  2-N ,  3-C ) :   1.0593 B(  2-N , 11-H ) :   0.9356
B(  3-C ,  4-C ) :   1.0677 B(  3-C , 12-H ) :   0.9347 B(  3-C , 13-H ) :   0.9234
B(  4-C ,  5-C ) :   0.9459 B(  4-C , 14-H ) :   0.8414 B(  5-C ,  6-C ) :   2.2752
B(  5-C , 15-H ) :  -0.1124 B(  6-C , 15-H ) :   1.1024

FINAL SINGLE POINT ENERGY      -288.103220689950

DIPOLE MOMENT
-------------
                                X             Y             Z
Electronic contribution:      3.32775      -2.58401      -0.46266
Nuclear contribution   :     -3.76199       2.50041       0.83675
                        -----------------------------------------
Total Dipole Moment    :     -0.43424      -0.08360       0.37410
                        -----------------------------------------
Magnitude (a.u.)       :      0.57923
Magnitude (Debye)      :      1.47228

                             ****ORCA TERMINATED NORMALLY****
TOTAL RUN TIME: 0 days 0 hours 0 minutes 7 seconds 180 msec
