                         Program Version 3.0.3 - RELEASE   -
|  1> ! RI PBE def2-SVP def2-SVP/J NBO PAL2
|  2> % maxcore 2000
|  3> % output
|  4>     # printlevel mini
|  5>     print[ P_Basis ] 0
|  6>     print[ P_SCFInfo ] 1
|  7>     print[ P_SCFIterInfo ] 1
|  8>     print[ P_OrbEn ] 0
|  9>     print[ P_Cartesian ] 0
| 10> end
| 11> *xyz 0 1
| 12>  C        1.0467800000     0.1602330000     0.3937890000
| 13>  C        2.4213850000    -0.2745670000    -0.0642230000
| 14>  N        3.5091180000     0.6984820000     0.1783560000
| 15>  C        3.9825840000    -0.0682380000     1.3408350000
| 16>  C        3.1407620000    -1.2678900000     0.8724190000
| 17>  C        3.9297470000    -2.3448200000     0.1618230000
| 18>  N        3.0345820000    -3.3041040000    -0.4668390000
| 19>  H        0.6936730000     1.0162670000    -0.1891720000
| 20>  H        1.0505210000     0.4470920000     1.4502390000
| 21>  H        0.3243490000    -0.6504430000     0.2641080000
| 22>  H        2.3749880000    -0.6063000000    -1.1069280000
| 23>  H        3.2017630000     1.6425210000     0.3757680000
| 24>  H        3.6671260000     0.3249050000     2.3145620000
| 25>  H        5.0673550000    -0.2193100000     1.3659900000
| 26>  H        2.4986910000    -1.7147600000     1.6378040000
| 27>  H        4.6383510000    -2.7972640000     0.8750670000
| 28>  H        4.5307130000    -1.8742150000    -0.6232080000
| 29>  H        2.5555340000    -3.8553960000     0.2352450000
| 30>  H        3.5500690000    -3.9511930000    -1.0492470000
| 31> *
| 32>
| 33>                          ****END OF INPUT****
 Total Charge           Charge          ....    0
 Multiplicity           Mult            ....    1
 Number of Electrons    NEL             ....   56
 Basis Dimension        Dim             ....  158

MULLIKEN ATOMIC CHARGES
-----------------------
   0 C :    0.053435
   1 C :   -0.002833
   2 N :   -0.243381
   3 C :    0.196112
   4 C :   -0.223181
   5 C :    0.150634
   6 N :   -0.211622
   7 H :    0.021526
   8 H :   -0.002454
   9 H :    0.025238
  10 H :   -0.000434
  11 H :    0.083744
  12 H :   -0.008095
  13 H :   -0.003752
  14 H :   -0.006668
  15 H :   -0.007490
  16 H :    0.004845
  17 H :    0.084979
  18 H :    0.089397
Sum of atomic charges:   -0.0000000

LOEWDIN ATOMIC CHARGES
----------------------
   0 C :   -0.075547
   1 C :    0.020357
   2 N :   -0.110861
   3 C :    0.031404
   4 C :   -0.046329
   5 C :    0.010449
   6 N :   -0.109511
   7 H :    0.026439
   8 H :    0.020381
   9 H :    0.031600
  10 H :    0.010586
  11 H :    0.041205
  12 H :    0.002885
  13 H :    0.007444
  14 H :    0.013583
  15 H :   -0.001091
  16 H :    0.024973
  17 H :    0.049067
  18 H :    0.052968

  Mayer bond orders larger than 0.1
B(  0-C ,  1-C ) :   1.0814 B(  0-C ,  7-H ) :   0.9511 B(  0-C ,  8-H ) :   0.9430
B(  0-C ,  9-H ) :   0.9503 B(  1-C ,  2-N ) :   1.0644 B(  1-C ,  4-C ) :   1.0232
B(  1-C , 10-H ) :   0.9104 B(  2-N ,  3-C ) :   1.0605 B(  2-N , 11-H ) :   0.9441
B(  3-C ,  4-C ) :   1.0495 B(  3-C , 12-H ) :   0.9231 B(  3-C , 13-H ) :   0.9237
B(  4-C ,  5-C ) :   1.0266 B(  4-C , 14-H ) :   0.9231 B(  5-C ,  6-N ) :   1.0908
B(  5-C , 15-H ) :   0.9232 B(  5-C , 16-H ) :   0.9185 B(  6-N , 17-H ) :   0.9693
B(  6-N , 18-H ) :   0.9668

FINAL SINGLE POINT ENERGY      -306.584818608041

DIPOLE MOMENT
-------------
                                X             Y             Z
Electronic contribution:      1.64607       0.48340      -0.89320
Nuclear contribution   :     -1.73012      -0.87327       1.37589
                        -----------------------------------------
Total Dipole Moment    :     -0.08405      -0.38987       0.48269
                        -----------------------------------------
Magnitude (a.u.)       :      0.62615
Magnitude (Debye)      :      1.59154

                             ****ORCA TERMINATED NORMALLY****
TOTAL RUN TIME: 0 days 0 hours 0 minutes 8 seconds 454 msec
