                         Program Version 3.0.3 - RELEASE   -
|  1> ! RI PBE def2-SVP def2-SVP/J NBO PAL2
|  2> % maxcore 2000
|  3> % output
|  4>     # printlevel mini
|  5>     print[ P_Basis ] 0
|  6>     print[ P_SCFInfo ] 1
|  7>     print[ P_SCFIterInfo ] 1
|  8>     print[ P_OrbEn ] 0
|  9>     print[ P_Cartesian ] 0
| 10> end
| 11> *xyz 0 1
| 12>  C        0.9809180000     0.0712680000    -0.2222440000
| 13>  C        2.4722610000     0.0069110000    -0.0110830000
| 14>  N        2.9560390000     0.2103740000     1.3261200000
| 15>  C        3.2746540000    -0.9441550000    -0.8555990000
| 16>  C        3.3620340000     0.5369130000    -1.0957780000
| 17>  C        4.6047320000     1.3042280000    -0.7538890000
| 18>  N        4.2622940000     2.6674770000    -0.3520930000
| 19>  H        0.4700390000    -0.6967350000     0.3682590000
| 20>  H        0.7142060000    -0.0850450000    -1.2708420000
| 21>  H        0.5904080000     1.0463820000     0.0850030000
| 22>  H        2.4517330000    -0.3689420000     1.9857160000
| 23>  H        2.8414090000     1.1814380000     1.5941750000
| 24>  H        2.7581890000    -1.5573180000    -1.5845120000
| 25>  H        4.1232560000    -1.4139560000    -0.3732250000
| 26>  H        2.8381960000     0.9004760000    -1.9773750000
| 27>  H        5.3017670000     1.2589610000    -1.6057560000
| 28>  H        5.0927700000     0.8200470000     0.0939130000
| 29>  H        3.8411920000     3.1654250000    -1.1281450000
| 30>  H        5.0982030000     3.1805700000    -0.0993460000
| 31> *
| 32>
| 33>                          ****END OF INPUT****
 Total Charge           Charge          ....    0
 Multiplicity           Mult            ....    1
 Number of Electrons    NEL             ....   56
 Basis Dimension        Dim             ....  158

MULLIKEN ATOMIC CHARGES
-----------------------
   0 C :    0.118942
   1 C :   -0.225720
   2 N :   -0.134431
   3 C :    0.065161
   4 C :   -0.156839
   5 C :    0.178841
   6 N :   -0.222362
   7 H :    0.007453
   8 H :   -0.008075
   9 H :    0.008320
  10 H :    0.083938
  11 H :    0.094406
  12 H :    0.013366
  13 H :    0.015982
  14 H :    0.003126
  15 H :   -0.006975
  16 H :   -0.005330
  17 H :    0.083609
  18 H :    0.086589
Sum of atomic charges:   -0.0000000

LOEWDIN ATOMIC CHARGES
----------------------
   0 C :   -0.061114
   1 C :   -0.029945
   2 N :   -0.074130
   3 C :   -0.040764
   4 C :   -0.048264
   5 C :    0.009835
   6 N :   -0.114464
   7 H :    0.022025
   8 H :    0.023566
   9 H :    0.022934
  10 H :    0.050458
  11 H :    0.051485
  12 H :    0.021031
  13 H :    0.026876
  14 H :    0.019206
  15 H :    0.001094
  16 H :    0.021172
  17 H :    0.047670
  18 H :    0.051329

  Mayer bond orders larger than 0.1
B(  0-C ,  1-C ) :   1.0752 B(  0-C ,  7-H ) :   0.9508 B(  0-C ,  8-H ) :   0.9292
B(  0-C ,  9-H ) :   0.9560 B(  1-C ,  2-N ) :   1.1597 B(  1-C ,  3-C ) :   0.9715
B(  1-C ,  4-C ) :   0.9153 B(  2-N , 10-H ) :   0.9668 B(  2-N , 11-H ) :   0.9542
B(  3-C ,  4-C ) :   1.0001 B(  3-C , 12-H ) :   0.9344 B(  3-C , 13-H ) :   0.9223
B(  4-C ,  5-C ) :   1.0883 B(  4-C , 14-H ) :   0.9338 B(  5-C ,  6-N ) :   1.0639
B(  5-C , 15-H ) :   0.9185 B(  5-C , 16-H ) :   0.8989 B(  6-N , 17-H ) :   0.9676
B(  6-N , 18-H ) :   0.9640

FINAL SINGLE POINT ENERGY      -306.592295547481

DIPOLE MOMENT
-------------
                                X             Y             Z
Electronic contribution:      1.29494       0.01076       0.60768
Nuclear contribution   :     -1.40043       0.29211      -0.78525
                        -----------------------------------------
Total Dipole Moment    :     -0.10549       0.30287      -0.17757
                        -----------------------------------------
Magnitude (a.u.)       :      0.36659
Magnitude (Debye)      :      0.93180

                             ****ORCA TERMINATED NORMALLY****
TOTAL RUN TIME: 0 days 0 hours 0 minutes 7 seconds 737 msec
