                         Program Version 3.0.3 - RELEASE   -
|  1> ! RI PBE def2-SVP def2-SVP/J NBO PAL2
|  2> % maxcore 2000
|  3> % output
|  4>     # printlevel mini
|  5>     print[ P_Basis ] 0
|  6>     print[ P_SCFInfo ] 1
|  7>     print[ P_SCFIterInfo ] 1
|  8>     print[ P_OrbEn ] 0
|  9>     print[ P_Cartesian ] 0
| 10> end
| 11> *xyz 0 1
| 12>  C        0.8889140000    -0.2222020000    -0.7319530000
| 13>  C        2.1075900000     0.4742920000    -0.1717270000
| 14>  N        1.9401740000     1.0472210000     1.1348110000
| 15>  C        3.4654520000    -0.1092450000    -0.4478420000
| 16>  C        3.0699620000     1.1809260000    -1.1119760000
| 17>  C        2.8000720000     1.1825710000    -2.5989210000
| 18>  N        3.7238320000     2.3551110000    -0.6051950000
| 19>  H        0.5470080000    -0.9837880000    -0.0239890000
| 20>  H        1.0735590000    -0.7220260000    -1.6833520000
| 21>  H        0.0652930000     0.4849230000    -0.8774800000
| 22>  H        1.6823000000     0.3249300000     1.7973520000
| 23>  H        1.1936330000     1.7327070000     1.1353540000
| 24>  H        3.5264470000    -1.0048040000    -1.0558480000
| 25>  H        4.1885080000    -0.0248430000     0.3530320000
| 26>  H        2.3861320000     0.2428910000    -2.9660390000
| 27>  H        3.7355060000     1.3598570000    -3.1390970000
| 28>  H        2.1063940000     1.9853700000    -2.8705930000
| 29>  H        4.6012740000     2.4979580000    -1.0918390000
| 30>  H        3.1573400000     3.1807520000    -0.7614870000
| 31> *
| 32>
| 33>                          ****END OF INPUT****
 Total Charge           Charge          ....    0
 Multiplicity           Mult            ....    1
 Number of Electrons    NEL             ....   56
 Basis Dimension        Dim             ....  158

MULLIKEN ATOMIC CHARGES
-----------------------
   0 C :    0.118525
   1 C :   -0.240944
   2 N :   -0.108120
   3 C :    0.094853
   4 C :   -0.242184
   5 C :    0.131570
   6 N :   -0.105682
   7 H :    0.006661
   8 H :   -0.009968
   9 H :    0.008207
  10 H :    0.084677
  11 H :    0.079206
  12 H :    0.005377
  13 H :    0.016768
  14 H :   -0.011467
  15 H :    0.004810
  16 H :    0.006238
  17 H :    0.083552
  18 H :    0.077922
Sum of atomic charges:    0.0000000

LOEWDIN ATOMIC CHARGES
----------------------
   0 C :   -0.065681
   1 C :   -0.034106
   2 N :   -0.070735
   3 C :   -0.041862
   4 C :   -0.034807
   5 C :   -0.063364
   6 N :   -0.070018
   7 H :    0.023690
   8 H :    0.021649
   9 H :    0.022817
  10 H :    0.050225
  11 H :    0.048403
  12 H :    0.018367
  13 H :    0.030733
  14 H :    0.021226
  15 H :    0.023502
  16 H :    0.021965
  17 H :    0.049820
  18 H :    0.048177

  Mayer bond orders larger than 0.1
B(  0-C ,  1-C ) :   1.0993 B(  0-C ,  7-H ) :   0.9471 B(  0-C ,  8-H ) :   0.9214
B(  0-C ,  9-H ) :   0.9504 B(  1-C ,  2-N ) :   1.1957 B(  1-C ,  3-C ) :   0.9740
B(  1-C ,  4-C ) :   0.8405 B(  2-N , 10-H ) :   0.9642 B(  2-N , 11-H ) :   0.9707
B(  3-C ,  4-C ) :   0.9710 B(  3-C , 12-H ) :   0.9368 B(  3-C , 13-H ) :   0.9097
B(  4-C ,  5-C ) :   1.0935 B(  4-C ,  6-N ) :   1.1912 B(  5-C , 14-H ) :   0.9230
B(  5-C , 15-H ) :   0.9465 B(  5-C , 16-H ) :   0.9525 B(  6-N , 17-H ) :   0.9647
B(  6-N , 18-H ) :   0.9696

FINAL SINGLE POINT ENERGY      -306.590850312090

DIPOLE MOMENT
-------------
                                X             Y             Z
Electronic contribution:      1.80677       1.29014       2.81000
Nuclear contribution   :     -2.24800      -1.24581      -3.21504
                        -----------------------------------------
Total Dipole Moment    :     -0.44123       0.04433      -0.40503
                        -----------------------------------------
Magnitude (a.u.)       :      0.60058
Magnitude (Debye)      :      1.52656

                             ****ORCA TERMINATED NORMALLY****
TOTAL RUN TIME: 0 days 0 hours 0 minutes 8 seconds 271 msec
