                         Program Version 3.0.3 - RELEASE   -
|  1> ! RI PBE def2-SVP def2-SVP/J NBO PAL2
|  2> % maxcore 2000
|  3> % output
|  4>     # printlevel mini
|  5>     print[ P_Basis ] 0
|  6>     print[ P_SCFInfo ] 1
|  7>     print[ P_SCFIterInfo ] 1
|  8>     print[ P_OrbEn ] 0
|  9>     print[ P_Cartesian ] 0
| 10> end
| 11> *xyz 0 1
| 12>  C        1.0007670000    -0.0132200000    -0.0240000000
| 13>  C        2.5028390000    -0.1178850000    -0.0003540000
| 14>  N        3.2375380000     0.9257610000     0.7542500000
| 15>  C        4.1808070000    -0.1063580000     1.2467510000
| 16>  C        3.2449590000    -1.2431870000     0.7919190000
| 17>  C        2.4415320000    -1.8184010000     1.9390120000
| 18>  N        3.8863380000    -2.3225310000     0.0811670000
| 19>  H        0.6928660000     0.9152770000    -0.5126460000
| 20>  H        0.5764430000    -0.0209840000     0.9833950000
| 21>  H        0.5588670000    -0.8425220000    -0.5830440000
| 22>  H        2.8767970000    -0.1165170000    -1.0340150000
| 23>  H        2.6609460000     1.2618530000     1.5182850000
| 24>  H        4.4245330000    -0.0617150000     2.3114320000
| 25>  H        5.1143610000    -0.0807370000     0.6753840000
| 26>  H        2.0013140000    -1.0301260000     2.5535080000
| 27>  H        3.0919470000    -2.4253010000     2.5724880000
| 28>  H        1.6265980000    -2.4532700000     1.5774340000
| 29>  H        4.3467060000    -1.9845630000    -0.7557200000
| 30>  H        3.2166240000    -3.0285860000    -0.2002450000
| 31> *
| 32>
| 33>                          ****END OF INPUT****
 Total Charge           Charge          ....    0
 Multiplicity           Mult            ....    1
 Number of Electrons    NEL             ....   56
 Basis Dimension        Dim             ....  158

MULLIKEN ATOMIC CHARGES
-----------------------
   0 C :    0.066406
   1 C :    0.057064
   2 N :   -0.241995
   3 C :    0.249045
   4 C :   -0.392462
   5 C :    0.072351
   6 N :   -0.111823
   7 H :    0.029977
   8 H :   -0.000587
   9 H :    0.019387
  10 H :   -0.029643
  11 H :    0.085193
  12 H :   -0.002239
  13 H :   -0.011632
  14 H :    0.002864
  15 H :    0.030863
  16 H :    0.013525
  17 H :    0.080623
  18 H :    0.083085
Sum of atomic charges:   -0.0000000

LOEWDIN ATOMIC CHARGES
----------------------
   0 C :   -0.072441
   1 C :   -0.001369
   2 N :   -0.116010
   3 C :    0.033511
   4 C :   -0.039401
   5 C :   -0.055589
   6 N :   -0.084163
   7 H :    0.033381
   8 H :    0.020901
   9 H :    0.031625
  10 H :    0.009399
  11 H :    0.043769
  12 H :    0.010702
  13 H :    0.013106
  14 H :    0.020789
  15 H :    0.031262
  16 H :    0.022952
  17 H :    0.047320
  18 H :    0.050258

  Mayer bond orders larger than 0.1
B(  0-C ,  1-C ) :   1.1268 B(  0-C ,  7-H ) :   0.9491 B(  0-C ,  8-H ) :   0.9324
B(  0-C ,  9-H ) :   0.9498 B(  1-C ,  2-N ) :   1.0698 B(  1-C ,  4-C ) :   0.9438
B(  1-C , 10-H ) :   0.8780 B(  2-N ,  3-C ) :   1.0638 B(  2-N , 11-H ) :   0.9391
B(  3-C ,  4-C ) :   1.0248 B(  3-C , 12-H ) :   0.9257 B(  3-C , 13-H ) :   0.9108
B(  4-C ,  5-C ) :   1.0406 B(  4-C ,  6-N ) :   1.1002 B(  5-C , 14-H ) :   0.9439
B(  5-C , 15-H ) :   0.9501 B(  5-C , 16-H ) :   0.9438 B(  6-N , 17-H ) :   0.9479
B(  6-N , 18-H ) :   0.9645

FINAL SINGLE POINT ENERGY      -306.589734637672

DIPOLE MOMENT
-------------
                                X             Y             Z
Electronic contribution:      2.97314       1.15021      -0.90222
Nuclear contribution   :     -3.53228      -1.48671       0.85651
                        -----------------------------------------
Total Dipole Moment    :     -0.55914      -0.33650      -0.04571
                        -----------------------------------------
Magnitude (a.u.)       :      0.65419
Magnitude (Debye)      :      1.66281

                             ****ORCA TERMINATED NORMALLY****
TOTAL RUN TIME: 0 days 0 hours 0 minutes 8 seconds 612 msec
