                         Program Version 3.0.3 - RELEASE   -
|  1> ! RI PBE def2-SVP def2-SVP/J NBO PAL2
|  2> % maxcore 2000
|  3> % output
|  4>     # printlevel mini
|  5>     print[ P_Basis ] 0
|  6>     print[ P_SCFInfo ] 1
|  7>     print[ P_SCFIterInfo ] 1
|  8>     print[ P_OrbEn ] 0
|  9>     print[ P_Cartesian ] 0
| 10> end
| 11> *xyz 0 1
| 12>  C        1.0428850000    -0.0384810000     0.1473800000
| 13>  C        2.5428070000    -0.1153190000     0.0701180000
| 14>  N        3.3049130000     0.9456430000     0.7693180000
| 15>  C        4.1896630000    -0.0658430000     1.3833070000
| 16>  C        3.2582440000    -1.2066180000     0.9135240000
| 17>  C        3.8362280000    -2.3402480000     0.2274760000
| 18>  N        4.3042540000    -3.2263790000    -0.3380670000
| 19>  H        0.6827080000     0.8693440000    -0.3431690000
| 20>  H        0.7006170000    -0.0262840000     1.1867650000
| 21>  H        0.5849390000    -0.8947000000    -0.3536980000
| 22>  H        2.8631900000    -0.1641790000    -0.9756480000
| 23>  H        2.7259130000     1.3955070000     1.4690360000
| 24>  H        4.3307430000     0.0157440000     2.4619360000
| 25>  H        5.1683410000    -0.0887560000     0.8989900000
| 26>  H        2.6144840000    -1.5652300000     1.7210310000
| 27> *
| 28>
| 29>                          ****END OF INPUT****
 Total Charge           Charge          ....    0
 Multiplicity           Mult            ....    1
 Number of Electrons    NEL             ....   52
 Basis Dimension        Dim             ....  138

MULLIKEN ATOMIC CHARGES
-----------------------
   0 C :    0.051376
   1 C :    0.016701
   2 N :   -0.242372
   3 C :    0.208493
   4 C :   -0.265238
   5 C :   -0.130189
   6 N :    0.068042
   7 H :    0.044161
   8 H :    0.005357
   9 H :    0.041345
  10 H :    0.020672
  11 H :    0.092519
  12 H :    0.029724
  13 H :    0.022862
  14 H :    0.036545
Sum of atomic charges:   -0.0000000

LOEWDIN ATOMIC CHARGES
----------------------
   0 C :   -0.067873
   1 C :    0.036257
   2 N :   -0.110165
   3 C :    0.053886
   4 C :   -0.073807
   5 C :   -0.047340
   6 N :   -0.064974
   7 H :    0.038640
   8 H :    0.021923
   9 H :    0.040929
  10 H :    0.026777
  11 H :    0.049371
  12 H :    0.020506
  13 H :    0.024991
  14 H :    0.050879

  Mayer bond orders larger than 0.1
B(  0-C ,  1-C ) :   1.1095 B(  0-C ,  7-H ) :   0.9546 B(  0-C ,  8-H ) :   0.9402
B(  0-C ,  9-H ) :   0.9518 B(  1-C ,  2-N ) :   1.0660 B(  1-C ,  4-C ) :   1.0253
B(  1-C , 10-H ) :   0.9057 B(  2-N ,  3-C ) :   1.0627 B(  2-N , 11-H ) :   0.9342
B(  3-C ,  4-C ) :   1.0820 B(  3-C , 12-H ) :   0.9362 B(  3-C , 13-H ) :   0.9232
B(  4-C ,  5-C ) :   1.0479 B(  4-C , 14-H ) :   0.8393 B(  5-C ,  6-N ) :   3.0622

FINAL SINGLE POINT ENERGY      -304.182084721993

DIPOLE MOMENT
-------------
                                X             Y             Z
Electronic contribution:      4.40131      -4.68153      -1.23370
Nuclear contribution   :     -5.35145       5.62836       2.16746
                        -----------------------------------------
Total Dipole Moment    :     -0.95014       0.94683       0.93376
                        -----------------------------------------
Magnitude (a.u.)       :      1.63437
Magnitude (Debye)      :      4.15424

                             ****ORCA TERMINATED NORMALLY****
TOTAL RUN TIME: 0 days 0 hours 0 minutes 7 seconds 83 msec
