                         Program Version 3.0.3 - RELEASE   -
|  1> ! RI PBE def2-SVP def2-SVP/J NBO PAL2
|  2> % maxcore 2000
|  3> % output
|  4>     # printlevel mini
|  5>     print[ P_Basis ] 0
|  6>     print[ P_SCFInfo ] 1
|  7>     print[ P_SCFIterInfo ] 1
|  8>     print[ P_OrbEn ] 0
|  9>     print[ P_Cartesian ] 0
| 10> end
| 11> *xyz 0 1
| 12>  C        1.0221140000     0.3583700000     0.5017430000
| 13>  C        2.2485880000    -0.2240340000    -0.1668540000
| 14>  N        1.9989970000    -1.5811410000    -0.6569220000
| 15>  C        2.9209090000    -1.8155150000    -1.7650010000
| 16>  C        3.2105510000    -0.4581300000    -2.3788370000
| 17>  C        2.0223470000     0.4117140000    -2.6474920000
| 18>  C        2.7778500000     0.5550460000    -1.3621110000
| 19>  H        0.6840770000    -0.2846010000     1.3175470000
| 20>  H        0.2028520000     0.4675510000    -0.2157490000
| 21>  H        1.2366240000     1.3465190000     0.9136780000
| 22>  H        3.0595580000    -0.2746040000     0.5731160000
| 23>  H        1.0445480000    -1.6404190000    -0.9887850000
| 24>  H        2.4912100000    -2.5367710000    -2.4657340000
| 25>  H        3.8553200000    -2.2459220000    -1.3857170000
| 26>  H        4.1099200000    -0.3224180000    -2.9675340000
| 27>  H        1.0345390000    -0.0387590000    -2.6289590000
| 28>  H        2.1350270000     1.1997670000    -3.3813370000
| 29>  H        3.3495690000     1.4589470000    -1.1867320000
| 30> *
| 31>
| 32>                          ****END OF INPUT****
 Total Charge           Charge          ....    0
 Multiplicity           Mult            ....    1
 Number of Electrons    NEL             ....   54
 Basis Dimension        Dim             ....  153

MULLIKEN ATOMIC CHARGES
-----------------------
   0 C :    0.051365
   1 C :    0.022359
   2 N :   -0.245734
   3 C :    0.200417
   4 C :   -0.167395
   5 C :    0.009614
   6 C :   -0.100332
   7 H :    0.028182
   8 H :    0.006293
   9 H :    0.016604
  10 H :    0.007780
  11 H :    0.092725
  12 H :    0.011746
  13 H :    0.006370
  14 H :    0.012537
  15 H :    0.011050
  16 H :    0.029381
  17 H :    0.007038
Sum of atomic charges:    0.0000000

LOEWDIN ATOMIC CHARGES
----------------------
   0 C :   -0.063043
   1 C :    0.008712
   2 N :   -0.091884
   3 C :    0.023140
   4 C :   -0.057323
   5 C :   -0.047776
   6 C :   -0.049489
   7 H :    0.029365
   8 H :    0.022663
   9 H :    0.031158
  10 H :    0.021653
  11 H :    0.046960
  12 H :    0.019968
  13 H :    0.018551
  14 H :    0.021694
  15 H :    0.013378
  16 H :    0.030494
  17 H :    0.021780

  Mayer bond orders larger than 0.1
B(  0-C ,  1-C ) :   1.1072 B(  0-C ,  7-H ) :   0.9545 B(  0-C ,  8-H ) :   0.9482
B(  0-C ,  9-H ) :   0.9548 B(  1-C ,  2-N ) :   1.0476 B(  1-C ,  6-C ) :   1.0070
B(  1-C , 10-H ) :   0.9012 B(  2-N ,  3-C ) :   1.0692 B(  2-N , 11-H ) :   0.9481
B(  3-C ,  4-C ) :   1.0257 B(  3-C , 12-H ) :   0.9432 B(  3-C , 13-H ) :   0.9257
B(  4-C ,  5-C ) :   0.9807 B(  4-C ,  6-C ) :   0.9683 B(  4-C , 14-H ) :   0.9440
B(  5-C ,  6-C ) :   0.9760 B(  5-C , 15-H ) :   0.9348 B(  5-C , 16-H ) :   0.9378
B(  6-C , 17-H ) :   0.9473

FINAL SINGLE POINT ENERGY      -289.377664346428

DIPOLE MOMENT
-------------
                                X             Y             Z
Electronic contribution:      1.73606      -1.17554      -0.87597
Nuclear contribution   :     -1.80970       1.45585       0.63551
                        -----------------------------------------
Total Dipole Moment    :     -0.07364       0.28031      -0.24046
                        -----------------------------------------
Magnitude (a.u.)       :      0.37659
Magnitude (Debye)      :      0.95722

                             ****ORCA TERMINATED NORMALLY****
TOTAL RUN TIME: 0 days 0 hours 0 minutes 7 seconds 978 msec
