                         Program Version 3.0.3 - RELEASE   -
|  1> ! RI PBE def2-SVP def2-SVP/J NBO PAL2
|  2> % maxcore 2000
|  3> % output
|  4>     # printlevel mini
|  5>     print[ P_Basis ] 0
|  6>     print[ P_SCFInfo ] 1
|  7>     print[ P_SCFIterInfo ] 1
|  8>     print[ P_OrbEn ] 0
|  9>     print[ P_Cartesian ] 0
| 10> end
| 11> *xyz 0 1
| 12>  C        1.1680170000    -0.0667890000     0.0390950000
| 13>  C        2.6040420000     0.3001740000     0.0531210000
| 14>  N        3.0833850000     1.3763640000    -0.4185440000
| 15>  C        4.5244040000     1.3625140000    -0.1939350000
| 16>  C        4.8171240000    -0.0004640000     0.4034040000
| 17>  C        4.4079750000    -1.1888630000    -0.3624190000
| 18>  N        3.5117720000    -0.6239380000     0.6633120000
| 19>  H        0.5858260000     0.7041330000    -0.4612540000
| 20>  H        0.8092150000    -0.1961840000     1.0631220000
| 21>  H        1.0271430000    -1.0245930000    -0.4694920000
| 22>  H        4.7930230000     2.1643800000     0.5014500000
| 23>  H        5.0541800000     1.5600740000    -1.1307670000
| 24>  H        5.5582980000    -0.1015250000     1.1875380000
| 25>  H        4.8212130000    -2.1605720000    -0.1173430000
| 26>  H        4.1167720000    -1.0510020000    -1.3999890000
| 27> *
| 28>
| 29>                          ****END OF INPUT****
 Total Charge           Charge          ....    0
 Multiplicity           Mult            ....    1
 Number of Electrons    NEL             ....   52
 Basis Dimension        Dim             ....  138

MULLIKEN ATOMIC CHARGES
-----------------------
   0 C :    0.124767
   1 C :   -0.160767
   2 N :   -0.157750
   3 C :    0.203731
   4 C :   -0.133588
   5 C :    0.095465
   6 N :   -0.233230
   7 H :    0.033108
   8 H :    0.041279
   9 H :    0.026016
  10 H :    0.028498
  11 H :    0.025858
  12 H :    0.029705
  13 H :    0.036810
  14 H :    0.040098
Sum of atomic charges:   -0.0000000

LOEWDIN ATOMIC CHARGES
----------------------
   0 C :   -0.062434
   1 C :    0.006410
   2 N :   -0.118253
   3 C :    0.006709
   4 C :   -0.010876
   5 C :    0.023986
   6 N :   -0.108671
   7 H :    0.041541
   8 H :    0.047513
   9 H :    0.042911
  10 H :    0.030928
  11 H :    0.029552
  12 H :    0.024304
  13 H :    0.024975
  14 H :    0.021404

  Mayer bond orders larger than 0.1
B(  0-C ,  1-C ) :   1.1077 B(  0-C ,  7-H ) :   0.9423 B(  0-C ,  8-H ) :   0.9359
B(  0-C ,  9-H ) :   0.9296 B(  1-C ,  2-N ) :   1.9361 B(  1-C ,  6-N ) :   1.0329
B(  2-N ,  3-C ) :   1.0619 B(  3-C ,  4-C ) :   1.0327 B(  3-C , 10-H ) :   0.9257
B(  3-C , 11-H ) :   0.9219 B(  4-C ,  5-C ) :   1.0461 B(  4-C ,  6-N ) :   0.9225
B(  4-C , 12-H ) :   0.9459 B(  5-C ,  6-N ) :   0.9488 B(  5-C , 13-H ) :   0.9465
B(  5-C , 14-H ) :   0.9207

FINAL SINGLE POINT ENERGY      -304.190793736834

DIPOLE MOMENT
-------------
                                X             Y             Z
Electronic contribution:      1.02482       0.88897       0.82712
Nuclear contribution   :     -0.63984      -1.29219      -0.92015
                        -----------------------------------------
Total Dipole Moment    :      0.38498      -0.40323      -0.09302
                        -----------------------------------------
Magnitude (a.u.)       :      0.56520
Magnitude (Debye)      :      1.43663

                             ****ORCA TERMINATED NORMALLY****
TOTAL RUN TIME: 0 days 0 hours 0 minutes 6 seconds 703 msec
