                         Program Version 3.0.3 - RELEASE   -
|  1> ! RI PBE def2-SVP def2-SVP/J NBO PAL2
|  2> % maxcore 2000
|  3> % output
|  4>     # printlevel mini
|  5>     print[ P_Basis ] 0
|  6>     print[ P_SCFInfo ] 1
|  7>     print[ P_SCFIterInfo ] 1
|  8>     print[ P_OrbEn ] 0
|  9>     print[ P_Cartesian ] 0
| 10> end
| 11> *xyz 0 1
| 12>  C        1.1429260000     0.2857070000     0.4447120000
| 13>  C        2.3846030000    -0.2638060000    -0.2248400000
| 14>  N        2.1923750000    -1.6422770000    -0.6743540000
| 15>  C        3.0537460000    -1.8581440000    -1.8314060000
| 16>  C        3.2694550000    -0.4949360000    -2.4570850000
| 17>  N        2.0873050000     0.3251280000    -2.6807640000
| 18>  C        2.8513780000     0.5012970000    -1.4537110000
| 19>  H        0.8417130000    -0.3487120000     1.2812300000
| 20>  H        0.3084300000     0.3419240000    -0.2617890000
| 21>  H        1.3213610000     1.2920560000     0.8280900000
| 22>  H        3.2118000000    -0.2440650000     0.4991960000
| 23>  H        1.2220590000    -1.8040960000    -0.9064710000
| 24>  H        2.6064610000    -2.5881190000    -2.5123690000
| 25>  H        4.0239490000    -2.2611230000    -1.5152280000
| 26>  H        4.0938150000    -0.3400060000    -3.1447000000
| 27>  H        1.2417410000    -0.2117450000    -2.5021280000
| 28>  H        3.3381750000     1.4633260000    -1.3314720000
| 29> *
| 30>
| 31>                          ****END OF INPUT****
 Total Charge           Charge          ....    0
 Multiplicity           Mult            ....    1
 Number of Electrons    NEL             ....   54
 Basis Dimension        Dim             ....  148

MULLIKEN ATOMIC CHARGES
-----------------------
   0 C :    0.048958
   1 C :    0.011643
   2 N :   -0.240493
   3 C :    0.190908
   4 C :   -0.124998
   5 N :   -0.129936
   6 C :   -0.061852
   7 H :    0.032371
   8 H :    0.005556
   9 H :    0.022508
  10 H :    0.011679
  11 H :    0.092436
  12 H :    0.019043
  13 H :    0.010798
  14 H :    0.020736
  15 H :    0.079045
  16 H :    0.011597
Sum of atomic charges:   -0.0000000

LOEWDIN ATOMIC CHARGES
----------------------
   0 C :   -0.063401
   1 C :   -0.003729
   2 N :   -0.089497
   3 C :    0.010046
   4 C :   -0.021860
   5 N :   -0.087316
   6 C :   -0.013484
   7 H :    0.030986
   8 H :    0.021775
   9 H :    0.034111
  10 H :    0.023246
  11 H :    0.046171
  12 H :    0.022155
  13 H :    0.020941
  14 H :    0.018575
  15 H :    0.033398
  16 H :    0.017884

  Mayer bond orders larger than 0.1
B(  0-C ,  1-C ) :   1.1023 B(  0-C ,  7-H ) :   0.9561 B(  0-C ,  8-H ) :   0.9456
B(  0-C ,  9-H ) :   0.9547 B(  1-C ,  2-N ) :   1.0502 B(  1-C ,  6-C ) :   0.9685
B(  1-C , 10-H ) :   0.8957 B(  2-N ,  3-C ) :   1.0680 B(  2-N , 11-H ) :   0.9423
B(  3-C ,  4-C ) :   0.9924 B(  3-C , 12-H ) :   0.9389 B(  3-C , 13-H ) :   0.9164
B(  4-C ,  5-N ) :   1.0036 B(  4-C ,  6-C ) :   0.9994 B(  4-C , 14-H ) :   0.9440
B(  5-N ,  6-C ) :   1.0130 B(  5-N , 15-H ) :   0.9369 B(  6-C , 16-H ) :   0.9463

FINAL SINGLE POINT ENERGY      -305.390302476465

DIPOLE MOMENT
-------------
                                X             Y             Z
Electronic contribution:      1.47188      -0.11434      -2.52862
Nuclear contribution   :     -1.61951      -0.09484       2.77501
                        -----------------------------------------
Total Dipole Moment    :     -0.14763      -0.20918       0.24639
                        -----------------------------------------
Magnitude (a.u.)       :      0.35533
Magnitude (Debye)      :      0.90317

                             ****ORCA TERMINATED NORMALLY****
TOTAL RUN TIME: 0 days 0 hours 0 minutes 7 seconds 876 msec
