                         Program Version 3.0.3 - RELEASE   -
|  1> ! RI PBE def2-SVP def2-SVP/J NBO PAL2
|  2> % maxcore 2000
|  3> % output
|  4>     # printlevel mini
|  5>     print[ P_Basis ] 0
|  6>     print[ P_SCFInfo ] 1
|  7>     print[ P_SCFIterInfo ] 1
|  8>     print[ P_OrbEn ] 0
|  9>     print[ P_Cartesian ] 0
| 10> end
| 11> *xyz 0 1
| 12>  C        1.0611690000     0.1782100000     0.5896390000
| 13>  C        2.3468170000    -0.1929210000    -0.1191640000
| 14>  N        3.4259670000     0.8094380000    -0.0458740000
| 15>  C        4.0975520000     0.0615360000     1.0309010000
| 16>  C        5.6040030000     0.0256440000     0.9567770000
| 17>  C        3.2568330000    -1.1831250000     0.6419990000
| 18>  C        3.9355300000    -2.2111610000    -0.2354770000
| 19>  H        0.5786450000     1.0299250000     0.1008180000
| 20>  H        1.2456970000     0.4459600000     1.6343900000
| 21>  H        0.3531790000    -0.6556220000     0.5752500000
| 22>  H        2.1226340000    -0.4893980000    -1.1517440000
| 23>  H        3.1304080000     1.7505300000     0.1853590000
| 24>  H        3.8003660000     0.4046620000     2.0327070000
| 25>  H        5.9441370000    -0.3192020000    -0.0210390000
| 26>  H        6.0189960000    -0.6320470000     1.7261600000
| 27>  H        6.0147930000     1.0262440000     1.1177650000
| 28>  H        2.7714960000    -1.6723100000     1.4903900000
| 29>  H        4.3832540000    -1.7457520000    -1.1166400000
| 30>  H        3.2108510000    -2.9525740000    -0.5836660000
| 31>  H        4.7232620000    -2.7465370000     0.3015690000
| 32> *
| 33>
| 34>                          ****END OF INPUT****
 Total Charge           Charge          ....    0
 Multiplicity           Mult            ....    1
 Number of Electrons    NEL             ....   56
 Basis Dimension        Dim             ....  163

MULLIKEN ATOMIC CHARGES
-----------------------
   0 C :    0.052843
   1 C :   -0.008308
   2 N :   -0.216751
   3 C :   -0.000029
   4 C :    0.093290
   5 C :   -0.169858
   6 C :    0.064020
   7 H :    0.021971
   8 H :    0.004304
   9 H :    0.023121
  10 H :   -0.012408
  11 H :    0.081667
  12 H :   -0.015625
  13 H :    0.004954
  14 H :    0.011036
  15 H :    0.010961
  16 H :   -0.002836
  17 H :    0.023517
  18 H :    0.018179
  19 H :    0.015950
Sum of atomic charges:   -0.0000000

LOEWDIN ATOMIC CHARGES
----------------------
   0 C :   -0.076662
   1 C :    0.018120
   2 N :   -0.100979
   3 C :    0.018848
   4 C :   -0.070506
   5 C :   -0.037986
   6 C :   -0.058532
   7 H :    0.026371
   8 H :    0.023169
   9 H :    0.030362
  10 H :    0.007249
  11 H :    0.040805
  12 H :    0.001995
  13 H :    0.024617
  14 H :    0.026652
  15 H :    0.027928
  16 H :    0.016415
  17 H :    0.028549
  18 H :    0.027691
  19 H :    0.025894

  Mayer bond orders larger than 0.1
B(  0-C ,  1-C ) :   1.0804 B(  0-C ,  7-H ) :   0.9515 B(  0-C ,  8-H ) :   0.9433
B(  0-C ,  9-H ) :   0.9500 B(  1-C ,  2-N ) :   1.0683 B(  1-C ,  5-C ) :   1.0265
B(  1-C , 10-H ) :   0.9105 B(  2-N ,  3-C ) :   1.0320 B(  2-N , 11-H ) :   0.9423
B(  3-C ,  4-C ) :   1.1239 B(  3-C ,  5-C ) :   1.0023 B(  3-C , 12-H ) :   0.9103
B(  4-C , 13-H ) :   0.9341 B(  4-C , 14-H ) :   0.9498 B(  4-C , 15-H ) :   0.9492
B(  5-C ,  6-C ) :   1.0860 B(  5-C , 16-H ) :   0.9225 B(  6-C , 17-H ) :   0.9496
B(  6-C , 18-H ) :   0.9557 B(  6-C , 19-H ) :   0.9498

FINAL SINGLE POINT ENERGY      -290.576665708463

DIPOLE MOMENT
-------------
                                X             Y             Z
Electronic contribution:     -0.42928       1.82535      -0.61972
Nuclear contribution   :      0.17991      -1.81947       0.96776
                        -----------------------------------------
Total Dipole Moment    :     -0.24937       0.00588       0.34805
                        -----------------------------------------
Magnitude (a.u.)       :      0.42820
Magnitude (Debye)      :      1.08841

                             ****ORCA TERMINATED NORMALLY****
TOTAL RUN TIME: 0 days 0 hours 0 minutes 8 seconds 947 msec
