                         Program Version 3.0.3 - RELEASE   -
|  1> ! RI PBE def2-SVP def2-SVP/J NBO PAL2
|  2> % maxcore 2000
|  3> % output
|  4>     # printlevel mini
|  5>     print[ P_Basis ] 0
|  6>     print[ P_SCFInfo ] 1
|  7>     print[ P_SCFIterInfo ] 1
|  8>     print[ P_OrbEn ] 0
|  9>     print[ P_Cartesian ] 0
| 10> end
| 11> *xyz 0 1
| 12>  C        1.0505960000     0.2256330000    -0.3023360000
| 13>  C        2.4799470000     0.0584890000     0.1894590000
| 14>  N        2.6173820000    -1.1154800000     1.0499030000
| 15>  C        3.5412820000    -0.8203640000     2.1393590000
| 16>  C        3.5682240000     0.6722640000     2.1500610000
| 17>  C        2.9809470000     1.1753730000     1.0701500000
| 18>  C        2.8375120000     2.6046960000     0.6905220000
| 19>  H        0.7382550000    -0.6565850000    -0.8660740000
| 20>  H        0.9530370000     1.0936950000    -0.9601670000
| 21>  H        0.3720690000     0.3414410000     0.5457880000
| 22>  H        3.1377830000     0.0056190000    -0.7001570000
| 23>  H        2.8697990000    -1.9456780000     0.5354360000
| 24>  H        4.5564660000    -1.2231970000     1.9783000000
| 25>  H        3.1841460000    -1.2432390000     3.0871500000
| 26>  H        4.0353050000     1.2500570000     2.9388860000
| 27>  H        3.3109530000     3.2596650000     1.4232450000
| 28>  H        1.7846990000     2.8916210000     0.6071820000
| 29>  H        3.2935880000     2.7990800000    -0.2865170000
| 30> *
| 31>
| 32>                          ****END OF INPUT****
 Total Charge           Charge          ....    0
 Multiplicity           Mult            ....    1
 Number of Electrons    NEL             ....   54
 Basis Dimension        Dim             ....  153

MULLIKEN ATOMIC CHARGES
-----------------------
   0 C :    0.039112
   1 C :    0.056750
   2 N :   -0.271589
   3 C :    0.210491
   4 C :   -0.151770
   5 C :   -0.143478
   6 C :    0.090070
   7 H :    0.011778
   8 H :    0.010950
   9 H :    0.016276
  10 H :   -0.007819
  11 H :    0.090624
  12 H :    0.000303
  13 H :    0.007795
  14 H :   -0.026150
  15 H :    0.013429
  16 H :    0.029458
  17 H :    0.023772
Sum of atomic charges:   -0.0000000

LOEWDIN ATOMIC CHARGES
----------------------
   0 C :   -0.069627
   1 C :    0.015250
   2 N :   -0.098842
   3 C :    0.021303
   4 C :   -0.054657
   5 C :   -0.040626
   6 C :   -0.057134
   7 H :    0.025565
   8 H :    0.021323
   9 H :    0.026495
  10 H :    0.007708
  11 H :    0.051313
  12 H :    0.009152
  13 H :    0.016638
  14 H :    0.019642
  15 H :    0.033912
  16 H :    0.036445
  17 H :    0.036140

  Mayer bond orders larger than 0.1
B(  0-C ,  1-C ) :   1.0864 B(  0-C ,  7-H ) :   0.9563 B(  0-C ,  8-H ) :   0.9469
B(  0-C ,  9-H ) :   0.9510 B(  1-C ,  2-N ) :   1.0193 B(  1-C ,  5-C ) :   0.9922
B(  1-C , 10-H ) :   0.8813 B(  2-N ,  3-C ) :   1.0469 B(  2-N , 11-H ) :   0.9407
B(  3-C ,  4-C ) :   1.0072 B(  3-C , 12-H ) :   0.9075 B(  3-C , 13-H ) :   0.9223
B(  4-C ,  5-C ) :   1.8716 B(  4-C , 14-H ) :   0.9810 B(  5-C ,  6-C ) :   1.1240
B(  6-C , 15-H ) :   0.9439 B(  6-C , 16-H ) :   0.9370 B(  6-C , 17-H ) :   0.9367

FINAL SINGLE POINT ENERGY      -289.385110928353

DIPOLE MOMENT
-------------
                                X             Y             Z
Electronic contribution:      1.74773      -2.04344       2.00326
Nuclear contribution   :     -1.42402       2.11778      -2.23516
                        -----------------------------------------
Total Dipole Moment    :      0.32371       0.07434      -0.23190
                        -----------------------------------------
Magnitude (a.u.)       :      0.40508
Magnitude (Debye)      :      1.02964

                             ****ORCA TERMINATED NORMALLY****
TOTAL RUN TIME: 0 days 0 hours 0 minutes 8 seconds 54 msec
