                         Program Version 3.0.3 - RELEASE   -
|  1> ! RI PBE def2-SVP def2-SVP/J NBO PAL2
|  2> % maxcore 2000
|  3> % output
|  4>     # printlevel mini
|  5>     print[ P_Basis ] 0
|  6>     print[ P_SCFInfo ] 1
|  7>     print[ P_SCFIterInfo ] 1
|  8>     print[ P_OrbEn ] 0
|  9>     print[ P_Cartesian ] 0
| 10> end
| 11> *xyz 0 1
| 12>  C        0.9531210000     0.1386340000     0.0998050000
| 13>  C        2.4639000000     0.0703060000     0.1154210000
| 14>  N        3.0612510000     1.1850250000     0.8534710000
| 15>  C        4.3892730000     0.7158390000     1.2305770000
| 16>  C        4.2363210000    -0.7737360000     1.5647710000
| 17>  C        3.0597450000    -1.1935250000     0.7191280000
| 18>  C        2.6194050000    -2.4309200000     0.5384980000
| 19>  H        0.6191110000     1.0885490000    -0.3224790000
| 20>  H        0.5509330000     0.0436710000     1.1127400000
| 21>  H        0.5311930000    -0.6676390000    -0.5020710000
| 22>  H        2.8270110000     0.1448350000    -0.9204460000
| 23>  H        2.5147970000     1.3365970000     1.6960700000
| 24>  H        4.7917860000     1.3103280000     2.0518880000
| 25>  H        5.0594980000     0.8433140000     0.3735000000
| 26>  H        3.9947410000    -0.8987290000     2.6261430000
| 27>  H        5.1325530000    -1.3654640000     1.3646980000
| 28>  H        3.1082100000    -3.2827900000     0.9990300000
| 29>  H        1.7536690000    -2.6435040000    -0.0795560000
| 30> *
| 31>
| 32>                          ****END OF INPUT****
 Total Charge           Charge          ....    0
 Multiplicity           Mult            ....    1
 Number of Electrons    NEL             ....   54
 Basis Dimension        Dim             ....  153

MULLIKEN ATOMIC CHARGES
-----------------------
   0 C :    0.031841
   1 C :    0.053135
   2 N :   -0.240093
   3 C :    0.078581
   4 C :    0.070135
   5 C :   -0.201720
   6 C :   -0.044735
   7 H :    0.026986
   8 H :    0.011489
   9 H :    0.027311
  10 H :    0.020046
  11 H :    0.091547
  12 H :    0.012401
  13 H :    0.013223
  14 H :    0.025633
  15 H :    0.017543
  16 H :    0.002927
  17 H :    0.003751
Sum of atomic charges:    0.0000000

LOEWDIN ATOMIC CHARGES
----------------------
   0 C :   -0.057452
   1 C :    0.002085
   2 N :   -0.096308
   3 C :    0.009525
   4 C :   -0.053338
   5 C :   -0.037852
   6 C :   -0.082515
   7 H :    0.031283
   8 H :    0.023950
   9 H :    0.031228
  10 H :    0.031315
  11 H :    0.049004
  12 H :    0.021019
  13 H :    0.019672
  14 H :    0.035505
  15 H :    0.032575
  16 H :    0.021161
  17 H :    0.019145

  Mayer bond orders larger than 0.1
B(  0-C ,  1-C ) :   1.1093 B(  0-C ,  7-H ) :   0.9531 B(  0-C ,  8-H ) :   0.9526
B(  0-C ,  9-H ) :   0.9538 B(  1-C ,  2-N ) :   1.0429 B(  1-C ,  5-C ) :   0.9606
B(  1-C , 10-H ) :   0.8790 B(  2-N ,  3-C ) :   1.0792 B(  2-N , 11-H ) :   0.9462
B(  3-C ,  4-C ) :   1.0774 B(  3-C , 12-H ) :   0.9448 B(  3-C , 13-H ) :   0.9277
B(  4-C ,  5-C ) :   1.0678 B(  4-C , 14-H ) :   0.9027 B(  4-C , 15-H ) :   0.9115
B(  5-C ,  6-C ) :   2.0322 B(  6-C , 16-H ) :   0.9304 B(  6-C , 17-H ) :   0.9310

FINAL SINGLE POINT ENERGY      -289.378963642809

DIPOLE MOMENT
-------------
                                X             Y             Z
Electronic contribution:      1.48153       0.57311       0.03990
Nuclear contribution   :     -1.49462      -0.72360       0.26668
                        -----------------------------------------
Total Dipole Moment    :     -0.01308      -0.15049       0.30659
                        -----------------------------------------
Magnitude (a.u.)       :      0.34178
Magnitude (Debye)      :      0.86873

                             ****ORCA TERMINATED NORMALLY****
TOTAL RUN TIME: 0 days 0 hours 0 minutes 8 seconds 92 msec
