                         Program Version 3.0.3 - RELEASE   -
|  1> ! RI PBE def2-SVP def2-SVP/J NBO PAL2
|  2> % maxcore 2000
|  3> % output
|  4>     # printlevel mini
|  5>     print[ P_Basis ] 0
|  6>     print[ P_SCFInfo ] 1
|  7>     print[ P_SCFIterInfo ] 1
|  8>     print[ P_OrbEn ] 0
|  9>     print[ P_Cartesian ] 0
| 10> end
| 11> *xyz 0 1
| 12>  C        1.1558950000     0.1109110000    -0.1217280000
| 13>  C        2.6464030000     0.0729450000     0.1143100000
| 14>  N        3.0958460000     1.1536130000     0.9797240000
| 15>  C        4.4111770000     0.7480010000     1.4938980000
| 16>  C        4.5381350000    -0.7755680000     1.2936190000
| 17>  C        3.1681430000    -1.2134740000     0.7783000000
| 18>  N        3.2372930000    -2.4208320000    -0.0172120000
| 19>  H        0.8538090000     1.0505780000    -0.5881730000
| 20>  H        0.6118830000     0.0085730000     0.8238280000
| 21>  H        0.8423720000    -0.7056310000    -0.7772140000
| 22>  H        3.1645140000     0.1747260000    -0.8532150000
| 23>  H        2.4425540000     1.2412140000     1.7496690000
| 24>  H        4.5080590000     1.0418360000     2.5408820000
| 25>  H        5.1967910000     1.2750690000     0.9439770000
| 26>  H        4.8254500000    -1.3086790000     2.2008080000
| 27>  H        5.2940950000    -1.0074910000     0.5364540000
| 28>  H        2.5108830000    -1.4230870000     1.6337430000
| 29>  H        3.8185210000    -2.2733530000    -0.8350220000
| 30>  H        2.3191950000    -2.6957610000    -0.3440470000
| 31> *
| 32>
| 33>                          ****END OF INPUT****
 Total Charge           Charge          ....    0
 Multiplicity           Mult            ....    1
 Number of Electrons    NEL             ....   56
 Basis Dimension        Dim             ....  158

MULLIKEN ATOMIC CHARGES
-----------------------
   0 C :    0.051735
   1 C :   -0.017604
   2 N :   -0.232768
   3 C :    0.126810
   4 C :    0.032452
   5 C :   -0.092849
   6 N :   -0.142813
   7 H :    0.031851
   8 H :    0.003495
   9 H :    0.005548
  10 H :   -0.020094
  11 H :    0.090438
  12 H :    0.000834
  13 H :   -0.000053
  14 H :    0.013292
  15 H :   -0.007548
  16 H :   -0.010361
  17 H :    0.084054
  18 H :    0.083581
Sum of atomic charges:    0.0000000

LOEWDIN ATOMIC CHARGES
----------------------
   0 C :   -0.065445
   1 C :   -0.021259
   2 N :   -0.099438
   3 C :    0.014495
   4 C :   -0.054512
   5 C :   -0.016856
   6 N :   -0.088864
   7 H :    0.032125
   8 H :    0.021885
   9 H :    0.023499
  10 H :    0.010051
  11 H :    0.048238
  12 H :    0.018039
  13 H :    0.016348
  14 H :    0.027446
  15 H :    0.021330
  16 H :    0.015367
  17 H :    0.048241
  18 H :    0.049310

  Mayer bond orders larger than 0.1
B(  0-C ,  1-C ) :   1.1030 B(  0-C ,  7-H ) :   0.9566 B(  0-C ,  8-H ) :   0.9436
B(  0-C ,  9-H ) :   0.9499 B(  1-C ,  2-N ) :   1.0585 B(  1-C ,  5-C ) :   0.9627
B(  1-C , 10-H ) :   0.8915 B(  2-N ,  3-C ) :   1.0818 B(  2-N , 11-H ) :   0.9447
B(  3-C ,  4-C ) :   1.0689 B(  3-C , 12-H ) :   0.9461 B(  3-C , 13-H ) :   0.9303
B(  4-C ,  5-C ) :   1.0938 B(  4-C , 14-H ) :   0.9255 B(  4-C , 15-H ) :   0.9154
B(  5-C ,  6-N ) :   1.1334 B(  5-C , 16-H ) :   0.8947 B(  6-N , 17-H ) :   0.9598
B(  6-N , 18-H ) :   0.9686

FINAL SINGLE POINT ENERGY      -306.615103487912

DIPOLE MOMENT
-------------
                                X             Y             Z
Electronic contribution:      1.16608       0.29960       0.47252
Nuclear contribution   :     -1.44590      -0.39352      -0.52044
                        -----------------------------------------
Total Dipole Moment    :     -0.27982      -0.09392      -0.04792
                        -----------------------------------------
Magnitude (a.u.)       :      0.29903
Magnitude (Debye)      :      0.76007

                             ****ORCA TERMINATED NORMALLY****
TOTAL RUN TIME: 0 days 0 hours 0 minutes 8 seconds 5 msec
