                         Program Version 3.0.3 - RELEASE   -
|  1> ! RI PBE def2-SVP def2-SVP/J NBO PAL2
|  2> % maxcore 2000
|  3> % output
|  4>     # printlevel mini
|  5>     print[ P_Basis ] 0
|  6>     print[ P_SCFInfo ] 1
|  7>     print[ P_SCFIterInfo ] 1
|  8>     print[ P_OrbEn ] 0
|  9>     print[ P_Cartesian ] 0
| 10> end
| 11> *xyz 0 1
| 12>  C        0.8633930000     0.0214160000    -0.0021330000
| 13>  C        2.3761410000     0.0617290000    -0.0626420000
| 14>  N        2.9120860000     0.0883570000    -1.4159480000
| 15>  C        3.1042670000     1.1246150000     0.7867320000
| 16>  C        4.1577200000     0.0697140000     1.1686450000
| 17>  C        3.1573260000    -1.0195730000     0.7631970000
| 18>  N        3.6915750000    -2.2058070000     0.1587150000
| 19>  H        0.4249360000     0.8973150000    -0.4914520000
| 20>  H        0.5029040000    -0.0027440000     1.0301150000
| 21>  H        0.4786060000    -0.8689840000    -0.5119590000
| 22>  H        2.6797680000     0.9664830000    -1.8660260000
| 23>  H        2.4896160000    -0.6459910000    -1.9737760000
| 24>  H        2.4984810000     1.4327940000     1.6415480000
| 25>  H        3.4497290000     2.0154950000     0.2585380000
| 26>  H        4.5332470000     0.0560940000     2.1923930000
| 27>  H        5.0011140000     0.0868990000     0.4769240000
| 28>  H        2.5473920000    -1.3089810000     1.6249750000
| 29>  H        4.1608180000    -1.9682400000    -0.7076470000
| 30>  H        2.9738900000    -2.8907710000    -0.0416080000
| 31> *
| 32>
| 33>                          ****END OF INPUT****
 Total Charge           Charge          ....    0
 Multiplicity           Mult            ....    1
 Number of Electrons    NEL             ....   56
 Basis Dimension        Dim             ....  158

MULLIKEN ATOMIC CHARGES
-----------------------
   0 C :    0.110530
   1 C :   -0.334965
   2 N :   -0.139308
   3 C :    0.111433
   4 C :    0.091435
   5 C :   -0.029525
   6 N :   -0.127640
   7 H :    0.006768
   8 H :   -0.000663
   9 H :   -0.000079
  10 H :    0.088392
  11 H :    0.074505
  12 H :   -0.002168
  13 H :   -0.007161
  14 H :    0.002637
  15 H :    0.002070
  16 H :   -0.013868
  17 H :    0.083953
  18 H :    0.083653
Sum of atomic charges:   -0.0000000

LOEWDIN ATOMIC CHARGES
----------------------
   0 C :   -0.074342
   1 C :   -0.046451
   2 N :   -0.083899
   3 C :   -0.028009
   4 C :   -0.030699
   5 C :    0.001994
   6 N :   -0.086012
   7 H :    0.021300
   8 H :    0.022079
   9 H :    0.019107
  10 H :    0.050826
  11 H :    0.041910
  12 H :    0.021615
  13 H :    0.015466
  14 H :    0.015361
  15 H :    0.025743
  16 H :    0.017430
  17 H :    0.046015
  18 H :    0.050565

  Mayer bond orders larger than 0.1
B(  0-C ,  1-C ) :   1.0646 B(  0-C ,  7-H ) :   0.9548 B(  0-C ,  8-H ) :   0.9350
B(  0-C ,  9-H ) :   0.9492 B(  1-C ,  2-N ) :   1.0476 B(  1-C ,  3-C ) :   1.0687
B(  1-C ,  5-C ) :   0.9346 B(  2-N , 10-H ) :   0.9620 B(  2-N , 11-H ) :   0.9568
B(  3-C ,  4-C ) :   1.1354 B(  3-C , 12-H ) :   0.9172 B(  3-C , 13-H ) :   0.9069
B(  4-C ,  5-C ) :   1.0973 B(  4-C , 14-H ) :   0.9258 B(  4-C , 15-H ) :   0.8978
B(  5-C ,  6-N ) :   1.1947 B(  5-C , 16-H ) :   0.9042 B(  6-N , 17-H ) :   0.9460
B(  6-N , 18-H ) :   0.9673

FINAL SINGLE POINT ENERGY      -306.600994616930

DIPOLE MOMENT
-------------
                                X             Y             Z
Electronic contribution:      1.95997      -1.03023      -0.23369
Nuclear contribution   :     -2.64877       1.13690      -0.26574
                        -----------------------------------------
Total Dipole Moment    :     -0.68880       0.10667      -0.49943
                        -----------------------------------------
Magnitude (a.u.)       :      0.85747
Magnitude (Debye)      :      2.17951

                             ****ORCA TERMINATED NORMALLY****
TOTAL RUN TIME: 0 days 0 hours 0 minutes 8 seconds 31 msec
