                         Program Version 3.0.3 - RELEASE   -
|  1> ! RI PBE def2-SVP def2-SVP/J NBO PAL2
|  2> % maxcore 2000
|  3> % output
|  4>     # printlevel mini
|  5>     print[ P_Basis ] 0
|  6>     print[ P_SCFInfo ] 1
|  7>     print[ P_SCFIterInfo ] 1
|  8>     print[ P_OrbEn ] 0
|  9>     print[ P_Cartesian ] 0
| 10> end
| 11> *xyz 0 1
| 12>  C        0.9638460000     0.0330060000     0.2245550000
| 13>  C        2.4605530000    -0.0486850000     0.0742980000
| 14>  N        3.2558700000     1.0077690000     0.7490100000
| 15>  C        4.2081370000    -0.0137090000     1.2671300000
| 16>  C        5.5347350000     0.0273300000     0.5434880000
| 17>  C        3.2371070000    -1.1408580000     0.8470000000
| 18>  N        3.7810800000    -2.3173090000     0.2257410000
| 19>  H        0.5710250000     0.9501770000    -0.2230190000
| 20>  H        0.6760240000     0.0189520000     1.2809340000
| 21>  H        0.4759880000    -0.8120390000    -0.2694120000
| 22>  H        2.7206670000    -0.0683240000    -0.9930060000
| 23>  H        2.7201310000     1.4157510000     1.5068640000
| 24>  H        4.3811440000     0.0518540000     2.3458800000
| 25>  H        5.3959460000     0.0280100000    -0.5411430000
| 26>  H        6.1542340000    -0.8308910000     0.8145680000
| 27>  H        6.0716640000     0.9426970000     0.8009790000
| 28>  H        2.6474040000    -1.4590280000     1.7132000000
| 29>  H        4.2272140000    -2.0986590000    -0.6562460000
| 30>  H        3.0655330000    -3.0091360000     0.0460790000
| 31> *
| 32>
| 33>                          ****END OF INPUT****
 Total Charge           Charge          ....    0
 Multiplicity           Mult            ....    1
 Number of Electrons    NEL             ....   56
 Basis Dimension        Dim             ....  158

MULLIKEN ATOMIC CHARGES
-----------------------
   0 C :    0.053200
   1 C :   -0.004319
   2 N :   -0.201223
   3 C :   -0.052243
   4 C :    0.074980
   5 C :   -0.064652
   6 N :   -0.119200
   7 H :    0.030231
   8 H :   -0.000133
   9 H :    0.018469
  10 H :   -0.018711
  11 H :    0.082197
  12 H :    0.001138
  13 H :    0.002948
  14 H :    0.022968
  15 H :    0.018495
  16 H :   -0.019211
  17 H :    0.083285
  18 H :    0.091782
Sum of atomic charges:   -0.0000000

LOEWDIN ATOMIC CHARGES
----------------------
   0 C :   -0.071926
   1 C :   -0.006223
   2 N :   -0.111814
   3 C :    0.012775
   4 C :   -0.070667
   5 C :   -0.012449
   6 N :   -0.087100
   7 H :    0.031071
   8 H :    0.018586
   9 H :    0.030714
  10 H :    0.008514
  11 H :    0.044401
  12 H :    0.010460
  13 H :    0.022474
  14 H :    0.028085
  15 H :    0.029740
  16 H :    0.018928
  17 H :    0.049277
  18 H :    0.055154

  Mayer bond orders larger than 0.1
B(  0-C ,  1-C ) :   1.1034 B(  0-C ,  7-H ) :   0.9549 B(  0-C ,  8-H ) :   0.9417
B(  0-C ,  9-H ) :   0.9509 B(  1-C ,  2-N ) :   1.0718 B(  1-C ,  5-C ) :   0.9988
B(  1-C , 10-H ) :   0.8855 B(  2-N ,  3-C ) :   1.0704 B(  2-N , 11-H ) :   0.9315
B(  3-C ,  4-C ) :   1.0873 B(  3-C ,  5-C ) :   1.0243 B(  3-C , 12-H ) :   0.9117
B(  4-C , 13-H ) :   0.9447 B(  4-C , 14-H ) :   0.9457 B(  4-C , 15-H ) :   0.9487
B(  5-C ,  6-N ) :   1.1752 B(  5-C , 16-H ) :   0.8670 B(  6-N , 17-H ) :   0.9499
B(  6-N , 18-H ) :   0.9637

FINAL SINGLE POINT ENERGY      -306.591443619329

DIPOLE MOMENT
-------------
                                X             Y             Z
Electronic contribution:      0.41662       0.09207       0.68563
Nuclear contribution   :     -0.96359      -0.41628      -0.72096
                        -----------------------------------------
Total Dipole Moment    :     -0.54696      -0.32421      -0.03533
                        -----------------------------------------
Magnitude (a.u.)       :      0.63681
Magnitude (Debye)      :      1.61865

                             ****ORCA TERMINATED NORMALLY****
TOTAL RUN TIME: 0 days 0 hours 0 minutes 8 seconds 520 msec
