                         Program Version 3.0.3 - RELEASE   -
|  1> ! RI PBE def2-SVP def2-SVP/J NBO PAL2
|  2> % maxcore 2000
|  3> % output
|  4>     # printlevel mini
|  5>     print[ P_Basis ] 0
|  6>     print[ P_SCFInfo ] 1
|  7>     print[ P_SCFIterInfo ] 1
|  8>     print[ P_OrbEn ] 0
|  9>     print[ P_Cartesian ] 0
| 10> end
| 11> *xyz 0 1
| 12>  C        0.9524020000     0.0278340000     0.0366890000
| 13>  C        2.4707580000     0.0015280000     0.1487760000
| 14>  N        3.1399020000     0.0411940000    -1.1532870000
| 15>  C        3.0305630000     1.1462830000     0.9968310000
| 16>  C        4.4407300000     0.6987540000     1.3948580000
| 17>  C        4.4184610000    -0.8449600000     1.3357840000
| 18>  C        2.9962170000    -1.2199320000     0.9070230000
| 19>  H        0.6164930000     0.9363560000    -0.4725200000
| 20>  H        0.4739650000    -0.0025970000     1.0197910000
| 21>  H        0.5908940000    -0.8293130000    -0.5396340000
| 22>  H        2.8719200000     0.8788250000    -1.6580570000
| 23>  H        2.8485280000    -0.7478530000    -1.7196280000
| 24>  H        2.3984340000     1.2677140000     1.8821550000
| 25>  H        3.0180460000     2.0994120000     0.4598680000
| 26>  H        4.7144040000     1.0716000000     2.3842470000
| 27>  H        5.1757130000     1.0901790000     0.6906750000
| 28>  H        4.6807810000    -1.3000990000     2.2933020000
| 29>  H        5.1421620000    -1.2023940000     0.6024470000
| 30>  H        2.3600790000    -1.3895760000     1.7814850000
| 31>  H        2.9564380000    -2.1289450000     0.2995130000
| 32> *
| 33>
| 34>                          ****END OF INPUT****
 Total Charge           Charge          ....    0
 Multiplicity           Mult            ....    1
 Number of Electrons    NEL             ....   56
 Basis Dimension        Dim             ....  163

MULLIKEN ATOMIC CHARGES
-----------------------
   0 C :    0.101604
   1 C :   -0.345811
   2 N :   -0.141960
   3 C :    0.076750
   4 C :    0.037510
   5 C :    0.037683
   6 C :    0.073196
   7 H :    0.003178
   8 H :    0.002116
   9 H :    0.004124
  10 H :    0.080854
  11 H :    0.081428
  12 H :   -0.001370
  13 H :   -0.005225
  14 H :   -0.005528
  15 H :    0.005543
  16 H :   -0.003687
  17 H :    0.005250
  18 H :   -0.000757
  19 H :   -0.004897
Sum of atomic charges:   -0.0000000

LOEWDIN ATOMIC CHARGES
----------------------
   0 C :   -0.067551
   1 C :   -0.032069
   2 N :   -0.087549
   3 C :   -0.033000
   4 C :   -0.038646
   5 C :   -0.038772
   6 C :   -0.033517
   7 H :    0.020598
   8 H :    0.022477
   9 H :    0.020698
  10 H :    0.047016
  11 H :    0.047171
  12 H :    0.021383
  13 H :    0.019180
  14 H :    0.019822
  15 H :    0.025973
  16 H :    0.020199
  17 H :    0.025865
  18 H :    0.021425
  19 H :    0.019296

  Mayer bond orders larger than 0.1
B(  0-C ,  1-C ) :   1.0693 B(  0-C ,  7-H ) :   0.9537 B(  0-C ,  8-H ) :   0.9386
B(  0-C ,  9-H ) :   0.9542 B(  1-C ,  2-N ) :   1.0251 B(  1-C ,  3-C ) :   1.0361
B(  1-C ,  6-C ) :   1.0351 B(  2-N , 10-H ) :   0.9653 B(  2-N , 11-H ) :   0.9652
B(  3-C ,  4-C ) :   1.1225 B(  3-C , 12-H ) :   0.9245 B(  3-C , 13-H ) :   0.9225
B(  4-C ,  5-C ) :   1.1233 B(  4-C , 14-H ) :   0.9332 B(  4-C , 15-H ) :   0.9191
B(  5-C ,  6-C ) :   1.1220 B(  5-C , 16-H ) :   0.9332 B(  5-C , 17-H ) :   0.9193
B(  6-C , 18-H ) :   0.9251 B(  6-C , 19-H ) :   0.9219

FINAL SINGLE POINT ENERGY      -290.605536772891

DIPOLE MOMENT
-------------
                                X             Y             Z
Electronic contribution:      1.22760       0.01167      -0.77158
Nuclear contribution   :     -1.63516       0.00175       0.57693
                        -----------------------------------------
Total Dipole Moment    :     -0.40756       0.01342      -0.19466
                        -----------------------------------------
Magnitude (a.u.)       :      0.45186
Magnitude (Debye)      :      1.14853

                             ****ORCA TERMINATED NORMALLY****
TOTAL RUN TIME: 0 days 0 hours 0 minutes 8 seconds 494 msec
