                         Program Version 3.0.3 - RELEASE   -
|  1> ! RI PBE def2-SVP def2-SVP/J NBO PAL2
|  2> % maxcore 2000
|  3> % output
|  4>     # printlevel mini
|  5>     print[ P_Basis ] 0
|  6>     print[ P_SCFInfo ] 1
|  7>     print[ P_SCFIterInfo ] 1
|  8>     print[ P_OrbEn ] 0
|  9>     print[ P_Cartesian ] 0
| 10> end
| 11> *xyz 0 1
| 12>  C        1.0447090000    -0.0069090000     0.0116860000
| 13>  C        2.5745310000    -0.0025460000     0.0355480000
| 14>  N        3.0109670000    -0.0537890000     1.4324030000
| 15>  C        3.1102570000     1.1627550000    -0.7713740000
| 16>  C        3.8063810000     0.7149030000    -1.8204700000
| 17>  C        3.8084350000    -0.7548130000    -1.7988920000
| 18>  C        3.1221480000    -1.1801030000    -0.7343740000
| 19>  H        0.6554990000     0.8805040000     0.5195610000
| 20>  H        0.6695610000    -0.8898100000     0.5320160000
| 21>  H        0.6719130000    -0.0058140000    -1.0137660000
| 22>  H        2.6863460000     0.7735250000     1.9212760000
| 23>  H        4.0242290000    -0.0401000000     1.4716810000
| 24>  H        2.9219710000     2.1960780000    -0.5063160000
| 25>  H        4.2977730000     1.3182030000    -2.5735050000
| 26>  H        4.2923600000    -1.3787100000    -2.5396720000
| 27>  H        2.9461110000    -2.2029840000    -0.4289910000
| 28> *
| 29>
| 30>                          ****END OF INPUT****
 Total Charge           Charge          ....    0
 Multiplicity           Mult            ....    1
 Number of Electrons    NEL             ....   52
 Basis Dimension        Dim             ....  143

MULLIKEN ATOMIC CHARGES
-----------------------
   0 C :    0.081531
   1 C :   -0.182943
   2 N :   -0.143822
   3 C :    0.017148
   4 C :    0.005509
   5 C :    0.014181
   6 C :    0.023317
   7 H :    0.010718
   8 H :    0.026381
   9 H :    0.025808
  10 H :    0.084659
  11 H :    0.092334
  12 H :   -0.016346
  13 H :   -0.015786
  14 H :   -0.014139
  15 H :   -0.008550
Sum of atomic charges:   -0.0000000

LOEWDIN ATOMIC CHARGES
----------------------
   0 C :   -0.037472
   1 C :   -0.020239
   2 N :   -0.075932
   3 C :   -0.042903
   4 C :   -0.040612
   5 C :   -0.035748
   6 C :   -0.023574
   7 H :    0.023092
   8 H :    0.029018
   9 H :    0.033367
  10 H :    0.050140
  11 H :    0.056352
  12 H :    0.017646
  13 H :    0.021123
  14 H :    0.022567
  15 H :    0.023176

  Mayer bond orders larger than 0.1
B(  0-C ,  1-C ) :   1.0107 B(  0-C ,  7-H ) :   0.9536 B(  0-C ,  8-H ) :   0.9552
B(  0-C ,  9-H ) :   0.9596 B(  1-C ,  2-N ) :   1.0330 B(  1-C ,  3-C ) :   0.9852
B(  1-C ,  6-C ) :   0.9959 B(  2-N , 10-H ) :   0.9604 B(  2-N , 11-H ) :   0.9647
B(  3-C ,  4-C ) :   1.7358 B(  3-C , 12-H ) :   0.9893 B(  4-C ,  5-C ) :   1.0593
B(  4-C , 13-H ) :   0.9929 B(  5-C ,  6-C ) :   1.7370 B(  5-C , 14-H ) :   0.9940
B(  6-C , 15-H ) :   0.9964

FINAL SINGLE POINT ENERGY      -288.168406956552

DIPOLE MOMENT
-------------
                                X             Y             Z
Electronic contribution:      2.77728      -0.31178      -1.40319
Nuclear contribution   :     -2.69848       0.69015       1.42071
                        -----------------------------------------
Total Dipole Moment    :      0.07880       0.37837       0.01752
                        -----------------------------------------
Magnitude (a.u.)       :      0.38689
Magnitude (Debye)      :      0.98339

                             ****ORCA TERMINATED NORMALLY****
TOTAL RUN TIME: 0 days 0 hours 0 minutes 7 seconds 335 msec
