                         Program Version 3.0.3 - RELEASE   -
|  1> ! RI PBE def2-SVP def2-SVP/J NBO PAL2
|  2> % maxcore 2000
|  3> % output
|  4>     # printlevel mini
|  5>     print[ P_Basis ] 0
|  6>     print[ P_SCFInfo ] 1
|  7>     print[ P_SCFIterInfo ] 1
|  8>     print[ P_OrbEn ] 0
|  9>     print[ P_Cartesian ] 0
| 10> end
| 11> *xyz 0 1
| 12>  C        0.8949150000     0.0114190000    -0.1126120000
| 13>  C        2.4228160000     0.0121420000    -0.0761850000
| 14>  N        2.9573590000     0.0195290000     1.2828370000
| 15>  C        2.9565330000    -1.2104890000    -0.8583920000
| 16>  C        3.2626990000    -0.6629270000    -2.2180010000
| 17>  C        3.2622430000     0.6650500000    -2.2250390000
| 18>  C        2.9556900000     1.2267820000    -0.8713100000
| 19>  H        0.4971180000    -0.8720300000     0.3958870000
| 20>  H        0.5242300000     0.0058810000    -1.1418930000
| 21>  H        0.4965010000     0.8998870000     0.3865750000
| 22>  H        2.6154040000    -0.7886960000     1.7923060000
| 23>  H        2.6148400000     0.8328690000     1.7837150000
| 24>  H        2.2324420000    -2.0324550000    -0.8798000000
| 25>  H        3.8656280000    -1.5939580000    -0.3800470000
| 26>  H        3.4897630000    -1.2902480000    -3.0724620000
| 27>  H        3.4888790000     1.2834350000    -3.0861020000
| 28>  H        2.2310320000     2.0479740000    -0.9014290000
| 29>  H        3.8645190000     1.6159270000    -0.3970590000
| 30> *
| 31>
| 32>                          ****END OF INPUT****
 Total Charge           Charge          ....    0
 Multiplicity           Mult            ....    1
 Number of Electrons    NEL             ....   54
 Basis Dimension        Dim             ....  153

MULLIKEN ATOMIC CHARGES
-----------------------
   0 C :    0.093411
   1 C :   -0.362367
   2 N :   -0.132404
   3 C :    0.170809
   4 C :   -0.069590
   5 C :   -0.069748
   6 C :    0.171221
   7 H :    0.004903
   8 H :    0.008217
   9 H :    0.004831
  10 H :    0.083314
  11 H :    0.083260
  12 H :    0.006856
  13 H :    0.014684
  14 H :   -0.014390
  15 H :   -0.014531
  16 H :    0.006874
  17 H :    0.014650
Sum of atomic charges:   -0.0000000

LOEWDIN ATOMIC CHARGES
----------------------
   0 C :   -0.064425
   1 C :   -0.013701
   2 N :   -0.089165
   3 C :   -0.035286
   4 C :   -0.036808
   5 C :   -0.036777
   6 C :   -0.035245
   7 H :    0.018563
   8 H :    0.026462
   9 H :    0.018550
  10 H :    0.048434
  11 H :    0.048422
  12 H :    0.023357
  13 H :    0.032377
  14 H :    0.019773
  15 H :    0.019739
  16 H :    0.023369
  17 H :    0.032361

  Mayer bond orders larger than 0.1
B(  0-C ,  1-C ) :   1.0316 B(  0-C ,  7-H ) :   0.9505 B(  0-C ,  8-H ) :   0.9451
B(  0-C ,  9-H ) :   0.9505 B(  1-C ,  2-N ) :   1.0898 B(  1-C ,  3-C ) :   1.0366
B(  1-C ,  6-C ) :   1.0366 B(  2-N , 10-H ) :   0.9640 B(  2-N , 11-H ) :   0.9640
B(  3-C ,  4-C ) :   1.0374 B(  3-C , 12-H ) :   0.9213 B(  3-C , 13-H ) :   0.8900
B(  4-C ,  5-C ) :   1.8605 B(  4-C , 14-H ) :   0.9819 B(  5-C ,  6-C ) :   1.0374
B(  5-C , 15-H ) :   0.9819 B(  6-C , 16-H ) :   0.9212 B(  6-C , 17-H ) :   0.8900

FINAL SINGLE POINT ENERGY      -289.386408793996

DIPOLE MOMENT
-------------
                                X             Y             Z
Electronic contribution:      2.53713      -0.00687      -1.45543
Nuclear contribution   :     -2.95462       0.00770       1.64649
                        -----------------------------------------
Total Dipole Moment    :     -0.41749       0.00083       0.19106
                        -----------------------------------------
Magnitude (a.u.)       :      0.45913
Magnitude (Debye)      :      1.16702

                             ****ORCA TERMINATED NORMALLY****
TOTAL RUN TIME: 0 days 0 hours 0 minutes 7 seconds 923 msec
