                         Program Version 3.0.3 - RELEASE   -
|  1> ! RI PBE def2-SVP def2-SVP/J NBO PAL2
|  2> % maxcore 2000
|  3> % output
|  4>     # printlevel mini
|  5>     print[ P_Basis ] 0
|  6>     print[ P_SCFInfo ] 1
|  7>     print[ P_SCFIterInfo ] 1
|  8>     print[ P_OrbEn ] 0
|  9>     print[ P_Cartesian ] 0
| 10> end
| 11> *xyz 0 1
| 12>  C        1.0249950000    -0.0770950000    -0.0671440000
| 13>  C        2.5519050000    -0.1068680000    -0.0648960000
| 14>  N        2.9960410000     0.1074100000    -1.4363330000
| 15>  C        3.0936110000    -1.3866610000     0.6258320000
| 16>  C        3.3915400000    -0.9962260000     2.0794370000
| 17>  C        3.5337780000     0.4961050000     1.9976070000
| 18>  C        3.0895530000     0.9735200000     0.8421840000
| 19>  H        0.6280830000    -0.8535920000    -0.7294340000
| 20>  H        0.6616090000     0.8894830000    -0.4211930000
| 21>  H        0.6316450000    -0.2532840000     0.9361660000
| 22>  H        2.6227530000    -0.6114840000    -2.0457580000
| 23>  H        4.0066180000     0.0543520000    -1.4912630000
| 24>  H        4.0269390000    -1.6703510000     0.1306850000
| 25>  H        2.4057780000    -2.2312040000     0.5362730000
| 26>  H        4.2826420000    -1.4895850000     2.4785950000
| 27>  H        2.5667910000    -1.2636900000     2.7522020000
| 28>  H        3.9133520000     1.0981150000     2.8156310000
| 29>  H        3.0475680000     2.0180360000     0.5546980000
| 30> *
| 31>
| 32>                          ****END OF INPUT****
 Total Charge           Charge          ....    0
 Multiplicity           Mult            ....    1
 Number of Electrons    NEL             ....   54
 Basis Dimension        Dim             ....  153

MULLIKEN ATOMIC CHARGES
-----------------------
   0 C :    0.095570
   1 C :   -0.247487
   2 N :   -0.143914
   3 C :    0.093378
   4 C :    0.048446
   5 C :   -0.062135
   6 C :    0.020255
   7 H :    0.008484
   8 H :    0.018151
   9 H :    0.008575
  10 H :    0.081312
  11 H :    0.078458
  12 H :   -0.014979
  13 H :   -0.004529
  14 H :    0.014836
  15 H :    0.027399
  16 H :   -0.011187
  17 H :   -0.010633
Sum of atomic charges:   -0.0000000

LOEWDIN ATOMIC CHARGES
----------------------
   0 C :   -0.048338
   1 C :   -0.025536
   2 N :   -0.087979
   3 C :   -0.039039
   4 C :   -0.042596
   5 C :   -0.034154
   6 C :   -0.031787
   7 H :    0.021354
   8 H :    0.027711
   9 H :    0.025887
  10 H :    0.048166
  11 H :    0.045960
  12 H :    0.019458
  13 H :    0.019186
  14 H :    0.026795
  15 H :    0.031530
  16 H :    0.020507
  17 H :    0.022876

  Mayer bond orders larger than 0.1
B(  0-C ,  1-C ) :   1.0303 B(  0-C ,  7-H ) :   0.9493 B(  0-C ,  8-H ) :   0.9550
B(  0-C ,  9-H ) :   0.9573 B(  1-C ,  2-N ) :   1.0512 B(  1-C ,  3-C ) :   1.0237
B(  1-C ,  6-C ) :   0.9895 B(  2-N , 10-H ) :   0.9620 B(  2-N , 11-H ) :   0.9615
B(  3-C ,  4-C ) :   1.0869 B(  3-C , 12-H ) :   0.9151 B(  3-C , 13-H ) :   0.9262
B(  4-C ,  5-C ) :   1.0337 B(  4-C , 14-H ) :   0.9286 B(  4-C , 15-H ) :   0.9106
B(  5-C ,  6-C ) :   1.8406 B(  5-C , 16-H ) :   0.9790 B(  6-C , 17-H ) :   0.9920

FINAL SINGLE POINT ENERGY      -289.386867979052

DIPOLE MOMENT
-------------
                                X             Y             Z
Electronic contribution:      1.92971       1.89183       0.26733
Nuclear contribution   :     -1.81172      -2.34327      -0.19459
                        -----------------------------------------
Total Dipole Moment    :      0.11800      -0.45144       0.07274
                        -----------------------------------------
Magnitude (a.u.)       :      0.47224
Magnitude (Debye)      :      1.20035

                             ****ORCA TERMINATED NORMALLY****
TOTAL RUN TIME: 0 days 0 hours 0 minutes 8 seconds 216 msec
