                         Program Version 3.0.3 - RELEASE   -
|  1> ! RI PBE def2-SVP def2-SVP/J NBO PAL2
|  2> % maxcore 2000
|  3> % output
|  4>     # printlevel mini
|  5>     print[ P_Basis ] 0
|  6>     print[ P_SCFInfo ] 1
|  7>     print[ P_SCFIterInfo ] 1
|  8>     print[ P_OrbEn ] 0
|  9>     print[ P_Cartesian ] 0
| 10> end
| 11> *xyz 0 1
| 12>  C        0.9812210000     0.1072340000    -0.3427970000
| 13>  C        2.3927800000    -0.0394130000     0.2089350000
| 14>  N        2.5225720000    -1.2120000000     1.0788440000
| 15>  C        3.2421500000    -0.8707380000     2.3079830000
| 16>  C        4.6428970000    -1.4703200000     2.3893120000
| 17>  C        3.2539660000     0.6276630000     2.2721500000
| 18>  C        2.8062020000     1.0830510000     1.1120990000
| 19>  H        0.7152940000    -0.7618250000    -0.9490390000
| 20>  H        0.8953460000     0.9984300000    -0.9714910000
| 21>  H        0.2642750000     0.1820750000     0.4773830000
| 22>  H        3.0851560000    -0.0861070000    -0.6495260000
| 23>  H        2.9368100000    -2.0000650000     0.6037590000
| 24>  H        2.6759710000    -1.2255410000     3.1824210000
| 25>  H        5.2626420000    -1.1188720000     1.5599780000
| 26>  H        4.5970390000    -2.5627230000     2.3533560000
| 27>  H        5.1345790000    -1.1927090000     3.3255830000
| 28>  H        3.6082730000     1.2283860000     3.1012260000
| 29>  H        2.7289360000     2.1238960000     0.8219020000
| 30> *
| 31>
| 32>                          ****END OF INPUT****
 Total Charge           Charge          ....    0
 Multiplicity           Mult            ....    1
 Number of Electrons    NEL             ....   54
 Basis Dimension        Dim             ....  153

MULLIKEN ATOMIC CHARGES
-----------------------
   0 C :    0.044305
   1 C :    0.050390
   2 N :   -0.232423
   3 C :    0.049108
   4 C :    0.007777
   5 C :   -0.039978
   6 C :   -0.057470
   7 H :    0.013600
   8 H :    0.008514
   9 H :    0.016874
  10 H :    0.005731
  11 H :    0.086297
  12 H :    0.005410
  13 H :    0.017130
  14 H :    0.028843
  15 H :    0.014342
  16 H :   -0.010311
  17 H :   -0.008140
Sum of atomic charges:   -0.0000000

LOEWDIN ATOMIC CHARGES
----------------------
   0 C :   -0.069352
   1 C :    0.010419
   2 N :   -0.090028
   3 C :    0.008864
   4 C :   -0.074100
   5 C :   -0.032147
   6 C :   -0.033255
   7 H :    0.024589
   8 H :    0.021798
   9 H :    0.026172
  10 H :    0.014090
  11 H :    0.049689
  12 H :    0.018051
  13 H :    0.024180
  14 H :    0.026045
  15 H :    0.027935
  16 H :    0.023242
  17 H :    0.023808

  Mayer bond orders larger than 0.1
B(  0-C ,  1-C ) :   1.0687 B(  0-C ,  7-H ) :   0.9576 B(  0-C ,  8-H ) :   0.9535
B(  0-C ,  9-H ) :   0.9544 B(  1-C ,  2-N ) :   1.0274 B(  1-C ,  6-C ) :   0.9920
B(  1-C , 10-H ) :   0.8937 B(  2-N ,  3-C ) :   1.0656 B(  2-N , 11-H ) :   0.9472
B(  3-C ,  4-C ) :   1.0711 B(  3-C ,  5-C ) :   0.9973 B(  3-C , 12-H ) :   0.8966
B(  4-C , 13-H ) :   0.9549 B(  4-C , 14-H ) :   0.9568 B(  4-C , 15-H ) :   0.9499
B(  5-C ,  6-C ) :   1.8618 B(  5-C , 16-H ) :   0.9877 B(  6-C , 17-H ) :   0.9941

FINAL SINGLE POINT ENERGY      -289.381721167306

DIPOLE MOMENT
-------------
                                X             Y             Z
Electronic contribution:     -0.26434       1.14111       0.95790
Nuclear contribution   :      0.66645      -1.15369      -1.06094
                        -----------------------------------------
Total Dipole Moment    :      0.40211      -0.01258      -0.10304
                        -----------------------------------------
Magnitude (a.u.)       :      0.41529
Magnitude (Debye)      :      1.05558

                             ****ORCA TERMINATED NORMALLY****
TOTAL RUN TIME: 0 days 0 hours 0 minutes 7 seconds 445 msec
