                         Program Version 3.0.3 - RELEASE   -
|  1> ! RI PBE def2-SVP def2-SVP/J NBO PAL2
|  2> % maxcore 2000
|  3> % output
|  4>     # printlevel mini
|  5>     print[ P_Basis ] 0
|  6>     print[ P_SCFInfo ] 1
|  7>     print[ P_SCFIterInfo ] 1
|  8>     print[ P_OrbEn ] 0
|  9>     print[ P_Cartesian ] 0
| 10> end
| 11> *xyz 0 1
| 12>  C        0.8598140000    -0.0559460000    -0.2380350000
| 13>  C        2.3288110000    -0.0522240000     0.1552700000
| 14>  N        2.6923190000    -1.2532580000     0.9124820000
| 15>  C        3.6143290000    -0.8951060000     1.9813080000
| 16>  C        3.4255310000     0.5866930000     2.1242650000
| 17>  C        4.0051850000     1.3463490000     3.2613570000
| 18>  C        2.7143480000     1.0441780000     1.1002390000
| 19>  H        0.6343590000    -0.9129000000    -0.8777170000
| 20>  H        0.5986700000     0.8527300000    -0.7880900000
| 21>  H        0.2340900000    -0.1229700000     0.6542810000
| 22>  H        2.9258860000     0.0464210000    -0.7707830000
| 23>  H        3.0460800000    -1.9898050000     0.3208990000
| 24>  H        4.6716490000    -1.1178540000     1.7520190000
| 25>  H        3.3785690000    -1.4300480000     2.9113480000
| 26>  H        3.6148070000     0.9808660000     4.2168780000
| 27>  H        3.7827470000     2.4115510000     3.1859720000
| 28>  H        5.0931660000     1.2263640000     3.3010740000
| 29>  H        2.4417500000     2.0802470000     0.9354340000
| 30> *
| 31>
| 32>                          ****END OF INPUT****
 Total Charge           Charge          ....    0
 Multiplicity           Mult            ....    1
 Number of Electrons    NEL             ....   54
 Basis Dimension        Dim             ....  153

MULLIKEN ATOMIC CHARGES
-----------------------
   0 C :    0.042065
   1 C :    0.065831
   2 N :   -0.270748
   3 C :    0.214983
   4 C :   -0.212583
   5 C :    0.074163
   6 C :   -0.082416
   7 H :    0.011392
   8 H :    0.007632
   9 H :    0.016027
  10 H :   -0.005119
  11 H :    0.090358
  12 H :   -0.002895
  13 H :    0.003732
  14 H :    0.026564
  15 H :    0.019698
  16 H :    0.031039
  17 H :   -0.029721
Sum of atomic charges:   -0.0000000

LOEWDIN ATOMIC CHARGES
----------------------
   0 C :   -0.069171
   1 C :    0.011860
   2 N :   -0.099445
   3 C :    0.024700
   4 C :   -0.044139
   5 C :   -0.059435
   6 C :   -0.049540
   7 H :    0.023907
   8 H :    0.021991
   9 H :    0.025612
  10 H :    0.009054
  11 H :    0.051193
  12 H :    0.009028
  13 H :    0.015475
  14 H :    0.037311
  15 H :    0.034356
  16 H :    0.037109
  17 H :    0.020133

  Mayer bond orders larger than 0.1
B(  0-C ,  1-C ) :   1.0732 B(  0-C ,  7-H ) :   0.9580 B(  0-C ,  8-H ) :   0.9534
B(  0-C ,  9-H ) :   0.9546 B(  1-C ,  2-N ) :   1.0268 B(  1-C ,  6-C ) :   0.9794
B(  1-C , 10-H ) :   0.8852 B(  2-N ,  3-C ) :   1.0415 B(  2-N , 11-H ) :   0.9420
B(  3-C ,  4-C ) :   1.0235 B(  3-C , 12-H ) :   0.9030 B(  3-C , 13-H ) :   0.9211
B(  4-C ,  5-C ) :   1.1143 B(  4-C ,  6-C ) :   1.8699 B(  5-C , 14-H ) :   0.9383
B(  5-C , 15-H ) :   0.9506 B(  5-C , 16-H ) :   0.9416 B(  6-C , 17-H ) :   0.9897

FINAL SINGLE POINT ENERGY      -289.385462313681

DIPOLE MOMENT
-------------
                                X             Y             Z
Electronic contribution:      0.77035      -0.95276      -0.33444
Nuclear contribution   :     -0.34357       1.02159       0.27862
                        -----------------------------------------
Total Dipole Moment    :      0.42679       0.06883      -0.05583
                        -----------------------------------------
Magnitude (a.u.)       :      0.43589
Magnitude (Debye)      :      1.10794

                             ****ORCA TERMINATED NORMALLY****
TOTAL RUN TIME: 0 days 0 hours 0 minutes 7 seconds 706 msec
