                         Program Version 3.0.3 - RELEASE   -
|  1> ! RI PBE def2-SVP def2-SVP/J NBO PAL2
|  2> % maxcore 2000
|  3> % output
|  4>     # printlevel mini
|  5>     print[ P_Basis ] 0
|  6>     print[ P_SCFInfo ] 1
|  7>     print[ P_SCFIterInfo ] 1
|  8>     print[ P_OrbEn ] 0
|  9>     print[ P_Cartesian ] 0
| 10> end
| 11> *xyz 0 1
| 12>  C        1.0511590000     0.1435870000    -0.0277720000
| 13>  C        2.5638630000    -0.0327700000     0.0729710000
| 14>  N        3.2581120000     1.1822410000    -0.3510890000
| 15>  C        3.5071380000     1.2245760000    -1.7826410000
| 16>  C        4.3368430000     0.0511700000    -2.2889040000
| 17>  C        3.8378020000    -1.2323270000    -1.7034310000
| 18>  C        3.0220700000    -1.2664030000    -0.6551010000
| 19>  H        0.7300140000     0.9832280000     0.5906340000
| 20>  H        0.5299890000    -0.7584200000     0.3028670000
| 21>  H        0.7502730000     0.3394450000    -1.0594950000
| 22>  H        2.8007530000    -0.1686310000     1.1357620000
| 23>  H        4.1439290000     1.2397400000     0.1364600000
| 24>  H        3.9870980000     2.1765420000    -2.0243290000
| 25>  H        2.5392400000     1.2256430000    -2.2942800000
| 26>  H        5.3965270000     0.1922490000    -2.0348310000
| 27>  H        4.2986160000     0.0038150000    -3.3832520000
| 28>  H        4.1553900000    -2.1611090000    -2.1693520000
| 29>  H        2.6534940000    -2.2204650000    -0.2861380000
| 30> *
| 31>
| 32>                          ****END OF INPUT****
 Total Charge           Charge          ....    0
 Multiplicity           Mult            ....    1
 Number of Electrons    NEL             ....   54
 Basis Dimension        Dim             ....  153

MULLIKEN ATOMIC CHARGES
-----------------------
   0 C :    0.057183
   1 C :   -0.003176
   2 N :   -0.214798
   3 C :    0.091655
   4 C :    0.017798
   5 C :   -0.073165
   6 C :   -0.046753
   7 H :    0.020500
   8 H :    0.008811
   9 H :    0.010248
  10 H :    0.007444
  11 H :    0.093656
  12 H :    0.003569
  13 H :    0.011151
  14 H :    0.021410
  15 H :    0.020234
  16 H :   -0.010018
  17 H :   -0.015748
Sum of atomic charges:   -0.0000000

LOEWDIN ATOMIC CHARGES
----------------------
   0 C :   -0.058397
   1 C :   -0.002456
   2 N :   -0.089524
   3 C :    0.010268
   4 C :   -0.066527
   5 C :   -0.048563
   6 C :   -0.053359
   7 H :    0.026781
   8 H :    0.024728
   9 H :    0.022952
  10 H :    0.030052
  11 H :    0.053015
  12 H :    0.020722
  13 H :    0.021547
  14 H :    0.030575
  15 H :    0.033658
  16 H :    0.022394
  17 H :    0.022135

  Mayer bond orders larger than 0.1
B(  0-C ,  1-C ) :   1.0712 B(  0-C ,  7-H ) :   0.9545 B(  0-C ,  8-H ) :   0.9558
B(  0-C ,  9-H ) :   0.9546 B(  1-C ,  2-N ) :   1.0698 B(  1-C ,  6-C ) :   0.9825
B(  1-C , 10-H ) :   0.9035 B(  2-N ,  3-C ) :   1.0815 B(  2-N , 11-H ) :   0.9451
B(  3-C ,  4-C ) :   1.0870 B(  3-C , 12-H ) :   0.9382 B(  3-C , 13-H ) :   0.9318
B(  4-C ,  5-C ) :   1.0435 B(  4-C , 14-H ) :   0.9031 B(  4-C , 15-H ) :   0.9116
B(  5-C ,  6-C ) :   1.9229 B(  5-C , 16-H ) :   0.9602 B(  6-C , 17-H ) :   0.9559

FINAL SINGLE POINT ENERGY      -289.384478368421

DIPOLE MOMENT
-------------
                                X             Y             Z
Electronic contribution:      1.92874      -0.54627       0.51001
Nuclear contribution   :     -1.63306       0.37438      -0.54252
                        -----------------------------------------
Total Dipole Moment    :      0.29568      -0.17189      -0.03251
                        -----------------------------------------
Magnitude (a.u.)       :      0.34355
Magnitude (Debye)      :      0.87324

                             ****ORCA TERMINATED NORMALLY****
TOTAL RUN TIME: 0 days 0 hours 0 minutes 7 seconds 970 msec
