                         Program Version 3.0.3 - RELEASE   -
|  1> ! RI PBE def2-SVP def2-SVP/J NBO PAL2
|  2> % maxcore 2000
|  3> % output
|  4>     # printlevel mini
|  5>     print[ P_Basis ] 0
|  6>     print[ P_SCFInfo ] 1
|  7>     print[ P_SCFIterInfo ] 1
|  8>     print[ P_OrbEn ] 0
|  9>     print[ P_Cartesian ] 0
| 10> end
| 11> *xyz 0 1
| 12>  C        0.9558930000     0.0286820000    -0.0028970000
| 13>  C        2.4424270000     0.0044740000     0.1330340000
| 14>  N        3.0822110000     1.1737060000     0.1499150000
| 15>  C        4.4036260000     1.1304050000     0.2714910000
| 16>  C        5.1023780000    -0.0581770000     0.3769030000
| 17>  C        4.3403680000    -1.2142840000     0.3484630000
| 18>  N        3.0211270000    -1.1945430000     0.2279140000
| 19>  H        0.5965000000     1.0533950000    -0.0711670000
| 20>  H        0.4937530000    -0.4664690000     0.8541170000
| 21>  H        0.6525530000    -0.5271050000    -0.8930200000
| 22>  H        4.9187900000     2.0878660000     0.2845210000
| 23>  H        6.1797810000    -0.0835730000     0.4756850000
| 24>  H        4.8047950000    -2.1945780000     0.4252400000
| 25> *
| 26>
| 27>                          ****END OF INPUT****
 Total Charge           Charge          ....    0
 Multiplicity           Mult            ....    1
 Number of Electrons    NEL             ....   50
 Basis Dimension        Dim             ....  128

MULLIKEN ATOMIC CHARGES
-----------------------
   0 C :    0.105264
   1 C :   -0.157112
   2 N :   -0.076651
   3 C :    0.067566
   4 C :   -0.038213
   5 C :    0.065597
   6 N :   -0.092778
   7 H :    0.021886
   8 H :    0.041490
   9 H :    0.040810
  10 H :    0.008115
  11 H :    0.006968
  12 H :    0.007058
Sum of atomic charges:    0.0000000

LOEWDIN ATOMIC CHARGES
----------------------
   0 C :   -0.064862
   1 C :    0.018072
   2 N :   -0.081008
   3 C :    0.035689
   4 C :   -0.072017
   5 C :    0.035816
   6 N :   -0.081263
   7 H :    0.034449
   8 H :    0.046100
   9 H :    0.046033
  10 H :    0.023987
  11 H :    0.035397
  12 H :    0.023607

  Mayer bond orders larger than 0.1
B(  0-C ,  1-C ) :   1.0631 B(  0-C ,  7-H ) :   0.9458 B(  0-C ,  8-H ) :   0.9415
B(  0-C ,  9-H ) :   0.9417 B(  1-C ,  2-N ) :   1.5429 B(  1-C ,  6-N ) :   1.4711
B(  2-N ,  3-C ) :   1.5265 B(  3-C ,  4-C ) :   1.3900 B(  3-C , 10-H ) :   0.9718
B(  4-C ,  5-C ) :   1.3749 B(  4-C , 11-H ) :   0.9641 B(  5-C ,  6-N ) :   1.5466
B(  5-C , 12-H ) :   0.9714

FINAL SINGLE POINT ENERGY      -303.046196323421

DIPOLE MOMENT
-------------
                                X             Y             Z
Electronic contribution:      2.58698      -0.02697       0.23857
Nuclear contribution   :     -2.01242      -0.01876      -0.18231
                        -----------------------------------------
Total Dipole Moment    :      0.57455      -0.04573       0.05626
                        -----------------------------------------
Magnitude (a.u.)       :      0.57911
Magnitude (Debye)      :      1.47198

                             ****ORCA TERMINATED NORMALLY****
TOTAL RUN TIME: 0 days 0 hours 0 minutes 6 seconds 359 msec
