                         Program Version 3.0.3 - RELEASE   -
|  1> ! RI PBE def2-SVP def2-SVP/J NBO PAL2
|  2> % maxcore 2000
|  3> % output
|  4>     # printlevel mini
|  5>     print[ P_Basis ] 0
|  6>     print[ P_SCFInfo ] 1
|  7>     print[ P_SCFIterInfo ] 1
|  8>     print[ P_OrbEn ] 0
|  9>     print[ P_Cartesian ] 0
| 10> end
| 11> *xyz 0 1
| 12>  C        1.1304390000    -0.0686930000     0.1237410000
| 13>  C        2.6118630000     0.0114680000    -0.0844720000
| 14>  N        3.1792610000     1.1528550000    -0.1491340000
| 15>  C        4.6154320000     1.1659180000    -0.3379910000
| 16>  C        5.3144910000    -0.0557620000     0.2408900000
| 17>  C        4.6752910000    -1.3130370000    -0.3187680000
| 18>  N        3.2386150000    -1.1989370000    -0.2068520000
| 19>  H        0.7297320000     0.9391340000     0.1992440000
| 20>  H        0.8928430000    -0.6182780000     1.0396540000
| 21>  H        0.6472120000    -0.5858240000    -0.7103600000
| 22>  H        5.0109150000     2.0774710000     0.1194180000
| 23>  H        4.8379850000     1.2455390000    -1.4114730000
| 24>  H        5.2064090000    -0.0480650000     1.3301170000
| 25>  H        6.3833140000    -0.0433450000     0.0139300000
| 26>  H        5.0097980000    -2.1984050000     0.2292070000
| 27>  H        4.9723730000    -1.4492690000    -1.3668300000
| 28>  H        2.6962480000    -2.0284900000    -0.0519210000
| 29> *
| 30>
| 31>                          ****END OF INPUT****
 Total Charge           Charge          ....    0
 Multiplicity           Mult            ....    1
 Number of Electrons    NEL             ....   54
 Basis Dimension        Dim             ....  148

MULLIKEN ATOMIC CHARGES
-----------------------
   0 C :    0.062415
   1 C :   -0.139929
   2 N :   -0.194974
   3 C :    0.124491
   4 C :   -0.101968
   5 C :    0.147995
   6 N :   -0.161470
   7 H :    0.030387
   8 H :    0.024285
   9 H :    0.027498
  10 H :    0.003380
  11 H :    0.005847
  12 H :    0.033835
  13 H :    0.019156
  14 H :    0.009523
  15 H :    0.011478
  16 H :    0.098050
Sum of atomic charges:    0.0000000

LOEWDIN ATOMIC CHARGES
----------------------
   0 C :   -0.070073
   1 C :   -0.004091
   2 N :   -0.175403
   3 C :   -0.000030
   4 C :   -0.064455
   5 C :    0.025776
   6 N :   -0.023692
   7 H :    0.041334
   8 H :    0.031950
   9 H :    0.033234
  10 H :    0.021017
  11 H :    0.019532
  12 H :    0.029404
  13 H :    0.029573
  14 H :    0.022614
  15 H :    0.015353
  16 H :    0.067956

  Mayer bond orders larger than 0.1
B(  0-C ,  1-C ) :   1.0519 B(  0-C ,  7-H ) :   0.9441 B(  0-C ,  8-H ) :   0.9491
B(  0-C ,  9-H ) :   0.9473 B(  1-C ,  2-N ) :   1.9072 B(  1-C ,  6-N ) :   1.1878
B(  2-N ,  3-C ) :   1.0624 B(  2-N ,  6-N ) :   0.1203 B(  3-C ,  4-C ) :   1.0734
B(  3-C , 10-H ) :   0.9340 B(  3-C , 11-H ) :   0.9308 B(  4-C ,  5-C ) :   1.0890
B(  4-C , 12-H ) :   0.9286 B(  4-C , 13-H ) :   0.9295 B(  5-C ,  6-N ) :   1.0049
B(  5-C , 14-H ) :   0.9372 B(  5-C , 15-H ) :   0.9394 B(  6-N , 16-H ) :   0.9300

FINAL SINGLE POINT ENERGY      -305.434076256273

DIPOLE MOMENT
-------------
                                X             Y             Z
Electronic contribution:     -0.74633       0.73168      -0.33606
Nuclear contribution   :      0.97025      -1.92015       0.39549
                        -----------------------------------------
Total Dipole Moment    :      0.22391      -1.18848       0.05943
                        -----------------------------------------
Magnitude (a.u.)       :      1.21084
Magnitude (Debye)      :      3.07772

                             ****ORCA TERMINATED NORMALLY****
TOTAL RUN TIME: 0 days 0 hours 0 minutes 7 seconds 371 msec
