                         Program Version 3.0.3 - RELEASE   -
|  1> ! RI PBE def2-SVP def2-SVP/J NBO PAL2
|  2> % maxcore 2000
|  3> % output
|  4>     # printlevel mini
|  5>     print[ P_Basis ] 0
|  6>     print[ P_SCFInfo ] 1
|  7>     print[ P_SCFIterInfo ] 1
|  8>     print[ P_OrbEn ] 0
|  9>     print[ P_Cartesian ] 0
| 10> end
| 11> *xyz 0 1
| 12>  C        1.1006350000     0.0664010000     0.0488870000
| 13>  C        2.5943870000     0.1149730000     0.0374220000
| 14>  N        3.1952240000     1.2537650000     0.0429570000
| 15>  C        4.5877230000     1.1918840000     0.0314300000
| 16>  C        5.3099640000     0.0714180000     0.0154970000
| 17>  C        4.6579780000    -1.2737330000     0.0082990000
| 18>  N        3.2166210000    -1.0892860000     0.0216440000
| 19>  H        0.7154450000     1.0828010000     0.0610230000
| 20>  H        0.7344550000    -0.4671690000     0.9310010000
| 21>  H        0.7203560000    -0.4514210000    -0.8366370000
| 22>  H        5.0814980000     2.1584620000     0.0363910000
| 23>  H        6.3925170000     0.1089070000     0.0073150000
| 24>  H        4.9725510000    -1.8683830000     0.8797180000
| 25>  H        4.9583840000    -1.8521160000    -0.8789330000
| 26>  H        2.6375520000    -1.9102020000     0.0187980000
| 27> *
| 28>
| 29>                          ****END OF INPUT****
 Total Charge           Charge          ....    0
 Multiplicity           Mult            ....    1
 Number of Electrons    NEL             ....   52
 Basis Dimension        Dim             ....  138

MULLIKEN ATOMIC CHARGES
-----------------------
   0 C :    0.057268
   1 C :   -0.104977
   2 N :   -0.139858
   3 C :    0.054504
   4 C :   -0.164837
   5 C :    0.220414
   6 N :   -0.151540
   7 H :    0.037360
   8 H :    0.034197
   9 H :    0.034043
  10 H :   -0.014615
  11 H :   -0.000469
  12 H :    0.017483
  13 H :    0.017122
  14 H :    0.103905
Sum of atomic charges:   -0.0000000

LOEWDIN ATOMIC CHARGES
----------------------
   0 C :   -0.068554
   1 C :    0.030147
   2 N :   -0.164815
   3 C :   -0.008121
   4 C :   -0.094465
   5 C :    0.030165
   6 N :    0.008226
   7 H :    0.044780
   8 H :    0.037172
   9 H :    0.037134
  10 H :    0.018739
  11 H :    0.026782
  12 H :    0.015359
  13 H :    0.015249
  14 H :    0.072202

  Mayer bond orders larger than 0.1
B(  0-C ,  1-C ) :   1.0556 B(  0-C ,  7-H ) :   0.9433 B(  0-C ,  8-H ) :   0.9459
B(  0-C ,  9-H ) :   0.9458 B(  1-C ,  2-N ) :   1.7842 B(  1-C ,  6-N ) :   1.2521
B(  2-N ,  3-C ) :   1.2189 B(  2-N ,  6-N ) :   0.1084 B(  3-C ,  4-C ) :   1.8072
B(  3-C , 10-H ) :   0.9691 B(  4-C ,  5-C ) :   1.0368 B(  4-C , 11-H ) :   0.9552
B(  5-C ,  6-N ) :   0.9870 B(  5-C , 12-H ) :   0.9277 B(  5-C , 13-H ) :   0.9277
B(  6-N , 14-H ) :   0.9243

FINAL SINGLE POINT ENERGY      -304.221476402143

DIPOLE MOMENT
-------------
                                X             Y             Z
Electronic contribution:      1.41949       1.79986       0.00509
Nuclear contribution   :     -1.59998      -3.08897      -0.01539
                        -----------------------------------------
Total Dipole Moment    :     -0.18048      -1.28911      -0.01030
                        -----------------------------------------
Magnitude (a.u.)       :      1.30173
Magnitude (Debye)      :      3.30873

                             ****ORCA TERMINATED NORMALLY****
TOTAL RUN TIME: 0 days 0 hours 0 minutes 6 seconds 876 msec
