                         Program Version 3.0.3 - RELEASE   -
|  1> ! RI PBE def2-SVP def2-SVP/J NBO PAL2
|  2> % maxcore 2000
|  3> % output
|  4>     # printlevel mini
|  5>     print[ P_Basis ] 0
|  6>     print[ P_SCFInfo ] 1
|  7>     print[ P_SCFIterInfo ] 1
|  8>     print[ P_OrbEn ] 0
|  9>     print[ P_Cartesian ] 0
| 10> end
| 11> *xyz 0 1
| 12>  C        1.1727500000     0.0966940000     0.0510430000
| 13>  C        2.6544670000     0.0537380000    -0.0164520000
| 14>  N        3.3527650000    -1.0292990000     0.0644300000
| 15>  C        4.6985090000    -0.6548480000    -0.0406780000
| 16>  C        5.7259440000    -1.5017300000    -0.0007900000
| 17>  C        4.7819510000     0.8581330000    -0.2051900000
| 18>  N        3.3766230000     1.1941480000    -0.1724560000
| 19>  H        0.7892730000    -0.9130660000     0.1765050000
| 20>  H        0.7561610000     0.5284710000    -0.8631790000
| 21>  H        0.8414520000     0.7139780000     0.8906750000
| 22>  H        5.5496830000    -2.5622570000     0.1202440000
| 23>  H        6.7475340000    -1.1541960000    -0.0872870000
| 24>  H        5.2508960000     1.1464680000    -1.1516910000
| 25>  H        5.3366360000     1.3333640000     0.6105210000
| 26>  H        2.9956660000     2.1171940000    -0.2518840000
| 27> *
| 28>
| 29>                          ****END OF INPUT****
 Total Charge           Charge          ....    0
 Multiplicity           Mult            ....    1
 Number of Electrons    NEL             ....   52
 Basis Dimension        Dim             ....  138

MULLIKEN ATOMIC CHARGES
-----------------------
   0 C :    0.089092
   1 C :   -0.085291
   2 N :   -0.133311
   3 C :   -0.120505
   4 C :   -0.067797
   5 C :    0.213764
   6 N :   -0.187838
   7 H :    0.040298
   8 H :    0.034451
   9 H :    0.035576
  10 H :    0.016856
  11 H :   -0.006353
  12 H :    0.033781
  13 H :    0.036513
  14 H :    0.100765
Sum of atomic charges:   -0.0000000

LOEWDIN ATOMIC CHARGES
----------------------
   0 C :   -0.067080
   1 C :    0.020693
   2 N :   -0.145962
   3 C :   -0.020472
   4 C :   -0.113979
   5 C :    0.027618
   6 N :   -0.008583
   7 H :    0.048320
   8 H :    0.041120
   9 H :    0.041329
  10 H :    0.027778
  11 H :    0.018718
  12 H :    0.030276
  13 H :    0.031073
  14 H :    0.069151

  Mayer bond orders larger than 0.1
B(  0-C ,  1-C ) :   1.0946 B(  0-C ,  7-H ) :   0.9365 B(  0-C ,  8-H ) :   0.9386
B(  0-C ,  9-H ) :   0.9388 B(  1-C ,  2-N ) :   1.7132 B(  1-C ,  6-N ) :   1.2087
B(  2-N ,  3-C ) :   1.2372 B(  2-N ,  6-N ) :   0.1148 B(  3-C ,  4-C ) :   1.8982
B(  3-C ,  5-C ) :   0.9659 B(  4-C , 10-H ) :   0.9243 B(  4-C , 11-H ) :   0.9284
B(  5-C ,  6-N ) :   0.9986 B(  5-C , 12-H ) :   0.9236 B(  5-C , 13-H ) :   0.9230
B(  6-N , 14-H ) :   0.9342

FINAL SINGLE POINT ENERGY      -304.222692016936

DIPOLE MOMENT
-------------
                                X             Y             Z
Electronic contribution:      0.53302      -0.41873       0.02092
Nuclear contribution   :     -0.91566       1.93827      -0.16102
                        -----------------------------------------
Total Dipole Moment    :     -0.38264       1.51955      -0.14010
                        -----------------------------------------
Magnitude (a.u.)       :      1.57323
Magnitude (Debye)      :      3.99884

                             ****ORCA TERMINATED NORMALLY****
TOTAL RUN TIME: 0 days 0 hours 0 minutes 7 seconds 701 msec
