                         Program Version 3.0.3 - RELEASE   -
|  1> ! RI PBE def2-SVP def2-SVP/J NBO PAL2
|  2> % maxcore 2000
|  3> % output
|  4>     # printlevel mini
|  5>     print[ P_Basis ] 0
|  6>     print[ P_SCFInfo ] 1
|  7>     print[ P_SCFIterInfo ] 1
|  8>     print[ P_OrbEn ] 0
|  9>     print[ P_Cartesian ] 0
| 10> end
| 11> *xyz 0 1
| 12>  C        1.0787130000    -0.0391910000    -0.0168530000
| 13>  N        2.5184580000    -0.0356740000    -0.0127060000
| 14>  C        3.3307560000     1.0701100000    -0.0065280000
| 15>  C        4.6060970000     0.5879460000    -0.0044980000
| 16>  N        4.5978110000    -0.7777030000    -0.0092620000
| 17>  C        3.3328880000    -1.1270670000    -0.0141390000
| 18>  C        2.8234340000    -2.5196090000    -0.0204540000
| 19>  H        0.7206460000     0.9889430000    -0.0144880000
| 20>  H        0.6840300000    -0.5442720000     0.8678590000
| 21>  H        0.6891420000    -0.5384040000    -0.9071420000
| 22>  H        2.9287690000     2.0702290000    -0.0042250000
| 23>  H        5.5277110000     1.1494020000     0.0001190000
| 24>  H        3.6767520000    -3.1952380000    -0.0202380000
| 25>  H        2.2154270000    -2.7310450000    -0.9057110000
| 26>  H        2.2101570000    -2.7371270000     0.8596780000
| 27> *
| 28>
| 29>                          ****END OF INPUT****
 Total Charge           Charge          ....    0
 Multiplicity           Mult            ....    1
 Number of Electrons    NEL             ....   52
 Basis Dimension        Dim             ....  138

MULLIKEN ATOMIC CHARGES
-----------------------
   0 C :    0.102264
   1 N :   -0.186570
   2 C :    0.035679
   3 C :    0.004210
   4 N :   -0.134513
   5 C :   -0.107058
   6 C :    0.089699
   7 H :    0.039254
   8 H :    0.044360
   9 H :    0.044230
  10 H :   -0.008401
  11 H :   -0.014709
  12 H :    0.038746
  13 H :    0.026365
  14 H :    0.026443
Sum of atomic charges:   -0.0000000

LOEWDIN ATOMIC CHARGES
----------------------
   0 C :    0.025494
   1 N :    0.053582
   2 C :   -0.056388
   3 C :   -0.056728
   4 N :   -0.120329
   5 C :   -0.029544
   6 C :   -0.070344
   7 H :    0.036590
   8 H :    0.032361
   9 H :    0.032342
  10 H :    0.017426
  11 H :    0.015525
  12 H :    0.049585
  13 H :    0.035211
  14 H :    0.035217

  Mayer bond orders larger than 0.1
B(  0-C ,  1-N ) :   0.9884 B(  0-C ,  7-H ) :   0.9669 B(  0-C ,  8-H ) :   0.9651
B(  0-C ,  9-H ) :   0.9651 B(  1-N ,  2-C ) :   1.1703 B(  1-N ,  5-C ) :   1.2061
B(  2-C ,  3-C ) :   1.4983 B(  2-C , 10-H ) :   0.9766 B(  3-C ,  4-N ) :   1.3878
B(  3-C , 11-H ) :   0.9903 B(  4-N ,  5-C ) :   1.6609 B(  5-C ,  6-C ) :   1.1179
B(  6-C , 12-H ) :   0.9313 B(  6-C , 13-H ) :   0.9363 B(  6-C , 14-H ) :   0.9363

FINAL SINGLE POINT ENERGY      -304.244303918705

DIPOLE MOMENT
-------------
                                X             Y             Z
Electronic contribution:      4.46024       2.21325       0.02071
Nuclear contribution   :     -5.97312      -1.96808      -0.02408
                        -----------------------------------------
Total Dipole Moment    :     -1.51288       0.24517      -0.00337
                        -----------------------------------------
Magnitude (a.u.)       :      1.53262
Magnitude (Debye)      :      3.89561

                             ****ORCA TERMINATED NORMALLY****
TOTAL RUN TIME: 0 days 0 hours 0 minutes 6 seconds 925 msec
