                         Program Version 3.0.3 - RELEASE   -
|  1> ! RI PBE def2-SVP def2-SVP/J NBO PAL2
|  2> % maxcore 2000
|  3> % output
|  4>     # printlevel mini
|  5>     print[ P_Basis ] 0
|  6>     print[ P_SCFInfo ] 1
|  7>     print[ P_SCFIterInfo ] 1
|  8>     print[ P_OrbEn ] 0
|  9>     print[ P_Cartesian ] 0
| 10> end
| 11> *xyz 0 1
| 12>  C        1.0370730000    -0.0849100000     0.0791490000
| 13>  C        2.5557830000    -0.0371250000    -0.0507850000
| 14>  N        3.0013730000     0.0993890000    -1.4394200000
| 15>  C        3.1837120000     1.1053340000     0.7623660000
| 16>  C        4.5102230000     0.5130770000     1.2234030000
| 17>  N        4.2074430000    -0.8743000000     1.5585070000
| 18>  C        3.2374180000    -1.3014830000     0.5533140000
| 19>  H        0.5828110000     0.8364700000    -0.2986190000
| 20>  H        0.7264760000    -0.2070010000     1.1211060000
| 21>  H        0.6243910000    -0.9199720000    -0.4953930000
| 22>  H        2.5326160000     0.8837300000    -1.8797820000
| 23>  H        2.7472730000    -0.7257220000    -1.9717380000
| 24>  H        2.5597120000     1.3376870000     1.6319310000
| 25>  H        3.2858380000     2.0154630000     0.1658250000
| 26>  H        4.9588040000     1.0296360000     2.0740450000
| 27>  H        5.2292590000     0.5289280000     0.3986290000
| 28>  H        3.7709100000    -0.8986880000     2.4721380000
| 29>  H        2.5126590000    -1.9901190000     0.9933040000
| 30>  H        3.7563170000    -1.8349930000    -0.2501600000
| 31> *
| 32>
| 33>                          ****END OF INPUT****
 Total Charge           Charge          ....    0
 Multiplicity           Mult            ....    1
 Number of Electrons    NEL             ....   56
 Basis Dimension        Dim             ....  158

MULLIKEN ATOMIC CHARGES
-----------------------
   0 C :    0.085059
   1 C :   -0.414466
   2 N :   -0.137560
   3 C :    0.099690
   4 C :    0.103351
   5 N :   -0.259125
   6 C :    0.255914
   7 H :    0.009161
   8 H :    0.001903
   9 H :    0.007285
  10 H :    0.081445
  11 H :    0.084397
  12 H :   -0.006522
  13 H :   -0.004818
  14 H :    0.008874
  15 H :    0.014629
  16 H :    0.090565
  17 H :   -0.007620
  18 H :   -0.012162
Sum of atomic charges:    0.0000000

LOEWDIN ATOMIC CHARGES
----------------------
   0 C :   -0.069791
   1 C :   -0.040393
   2 N :   -0.087515
   3 C :   -0.049174
   4 C :    0.011105
   5 N :   -0.096645
   6 C :    0.018050
   7 H :    0.020771
   8 H :    0.020631
   9 H :    0.020047
  10 H :    0.046572
  11 H :    0.046360
  12 H :    0.017116
  13 H :    0.022129
  14 H :    0.017666
  15 H :    0.020821
  16 H :    0.048867
  17 H :    0.016154
  18 H :    0.017228

  Mayer bond orders larger than 0.1
B(  0-C ,  1-C ) :   1.0522 B(  0-C ,  7-H ) :   0.9541 B(  0-C ,  8-H ) :   0.9391
B(  0-C ,  9-H ) :   0.9537 B(  1-C ,  2-N ) :   1.0321 B(  1-C ,  3-C ) :   1.0687
B(  1-C ,  6-C ) :   0.9642 B(  2-N , 10-H ) :   0.9656 B(  2-N , 11-H ) :   0.9594
B(  3-C ,  4-C ) :   1.0641 B(  3-C , 12-H ) :   0.9224 B(  3-C , 13-H ) :   0.9127
B(  4-C ,  5-N ) :   1.0708 B(  4-C , 14-H ) :   0.9477 B(  4-C , 15-H ) :   0.9275
B(  5-N ,  6-C ) :   1.1059 B(  5-N , 16-H ) :   0.9489 B(  6-C , 17-H ) :   0.9378
B(  6-C , 18-H ) :   0.9086

FINAL SINGLE POINT ENERGY      -306.612639822942

DIPOLE MOMENT
-------------
                                X             Y             Z
Electronic contribution:      2.68951      -0.79657       0.37209
Nuclear contribution   :     -3.49289       0.99924      -0.38926
                        -----------------------------------------
Total Dipole Moment    :     -0.80338       0.20267      -0.01717
                        -----------------------------------------
Magnitude (a.u.)       :      0.82872
Magnitude (Debye)      :      2.10645

                             ****ORCA TERMINATED NORMALLY****
TOTAL RUN TIME: 0 days 0 hours 0 minutes 8 seconds 64 msec
