                         Program Version 3.0.3 - RELEASE   -
|  1> ! RI PBE def2-SVP def2-SVP/J NBO PAL2
|  2> % maxcore 2000
|  3> % output
|  4>     # printlevel mini
|  5>     print[ P_Basis ] 0
|  6>     print[ P_SCFInfo ] 1
|  7>     print[ P_SCFIterInfo ] 1
|  8>     print[ P_OrbEn ] 0
|  9>     print[ P_Cartesian ] 0
| 10> end
| 11> *xyz 0 1
| 12>  C        0.9526560000    -0.0149710000     0.0739040000
| 13>  C        2.4631210000    -0.0370840000    -0.0495880000
| 14>  N        2.9397180000    -0.0694730000    -1.4301330000
| 15>  C        3.2524220000     1.0438140000     0.7249910000
| 16>  C        4.2759510000    -0.0245890000     1.1574790000
| 17>  N        5.4957230000     0.0398490000     0.3838250000
| 18>  C        3.2262610000    -1.1037970000     0.7690450000
| 19>  H        0.5354780000     0.8664220000    -0.4242810000
| 20>  H        0.6355000000     0.0089050000     1.1199380000
| 21>  H        0.5113090000    -0.9024080000    -0.3913770000
| 22>  H        2.5950160000     0.7409410000    -1.9345900000
| 23>  H        2.5722130000    -0.8881210000    -1.9042330000
| 24>  H        2.6822890000     1.4353890000     1.5697730000
| 25>  H        3.6487870000     1.8755910000     0.1388950000
| 26>  H        4.5395110000    -0.0086800000     2.2176250000
| 27>  H        5.2567730000    -0.0130110000    -0.6018350000
| 28>  H        6.0882950000    -0.7550240000     0.5943880000
| 29>  H        2.6445700000    -1.4427700000     1.6301690000
| 30>  H        3.5922880000    -1.9724750000     0.2161260000
| 31> *
| 32>
| 33>                          ****END OF INPUT****
 Total Charge           Charge          ....    0
 Multiplicity           Mult            ....    1
 Number of Electrons    NEL             ....   56
 Basis Dimension        Dim             ....  158

MULLIKEN ATOMIC CHARGES
-----------------------
   0 C :    0.113811
   1 C :   -0.417130
   2 N :   -0.133294
   3 C :    0.213429
   4 C :   -0.142464
   5 N :   -0.132101
   6 C :    0.213606
   7 H :    0.007009
   8 H :    0.001809
   9 H :    0.006330
  10 H :    0.087706
  11 H :    0.085858
  12 H :   -0.009467
  13 H :   -0.007795
  14 H :   -0.005233
  15 H :    0.075561
  16 H :    0.081207
  17 H :   -0.017132
  18 H :   -0.021710
Sum of atomic charges:    0.0000000

LOEWDIN ATOMIC CHARGES
----------------------
   0 C :   -0.072507
   1 C :   -0.024739
   2 N :   -0.077928
   3 C :   -0.027004
   4 C :    0.009571
   5 N :   -0.095098
   6 C :   -0.046301
   7 H :    0.021903
   8 H :    0.023531
   9 H :    0.021648
  10 H :    0.049699
  11 H :    0.048572
  12 H :    0.023539
  13 H :    0.017660
  14 H :    0.010879
  15 H :    0.038175
  16 H :    0.047949
  17 H :    0.019993
  18 H :    0.010460

  Mayer bond orders larger than 0.1
B(  0-C ,  1-C ) :   1.0591 B(  0-C ,  7-H ) :   0.9515 B(  0-C ,  8-H ) :   0.9350
B(  0-C ,  9-H ) :   0.9513 B(  1-C ,  2-N ) :   1.0338 B(  1-C ,  3-C ) :   1.0532
B(  1-C ,  6-C ) :   1.0490 B(  2-N , 10-H ) :   0.9628 B(  2-N , 11-H ) :   0.9628
B(  3-C ,  4-C ) :   1.0799 B(  3-C , 12-H ) :   0.9063 B(  3-C , 13-H ) :   0.9016
B(  4-C ,  5-N ) :   1.1341 B(  4-C ,  6-C ) :   1.0399 B(  4-C , 14-H ) :   0.9128
B(  5-N , 15-H ) :   0.9481 B(  5-N , 16-H ) :   0.9648 B(  6-C , 17-H ) :   0.8952
B(  6-C , 18-H ) :   0.9022

FINAL SINGLE POINT ENERGY      -306.599191514235

DIPOLE MOMENT
-------------
                                X             Y             Z
Electronic contribution:      2.61691       0.24348      -0.16199
Nuclear contribution   :     -3.27916      -0.63919      -0.13305
                        -----------------------------------------
Total Dipole Moment    :     -0.66225      -0.39570      -0.29505
                        -----------------------------------------
Magnitude (a.u.)       :      0.82596
Magnitude (Debye)      :      2.09942

                             ****ORCA TERMINATED NORMALLY****
TOTAL RUN TIME: 0 days 0 hours 0 minutes 8 seconds 303 msec
