                         Program Version 3.0.3 - RELEASE   -
|  1> ! RI PBE def2-SVP def2-SVP/J NBO PAL2
|  2> % maxcore 2000
|  3> % output
|  4>     # printlevel mini
|  5>     print[ P_Basis ] 0
|  6>     print[ P_SCFInfo ] 1
|  7>     print[ P_SCFIterInfo ] 1
|  8>     print[ P_OrbEn ] 0
|  9>     print[ P_Cartesian ] 0
| 10> end
| 11> *xyz 0 1
| 12>  C        1.0669020000     0.1517270000    -0.2286810000
| 13>  C        2.5430570000    -0.0679080000     0.0496690000
| 14>  N        3.1514660000     1.1540170000     0.5920600000
| 15>  C        3.5390830000     0.8959630000     1.7677680000
| 16>  N        3.3366590000    -0.4076370000     2.2946050000
| 17>  C        4.1689470000    -1.3764300000     1.5552990000
| 18>  C        2.7867880000    -1.1168570000     1.1248280000
| 19>  H        0.9328780000     0.9813740000    -0.9241440000
| 20>  H        0.5331410000     0.3906910000     0.6944290000
| 21>  H        0.6195460000    -0.7446990000    -0.6656510000
| 22>  H        3.0506110000    -0.3127560000    -0.8898620000
| 23>  H        4.0111350000     1.6336220000     2.4103990000
| 24>  H        4.4041260000    -2.2805250000     2.1051700000
| 25>  H        4.9765900000    -0.9704120000     0.9532150000
| 26>  H        2.0150720000    -1.8491890000     1.3363960000
| 27> *
| 28>
| 29>                          ****END OF INPUT****
 Total Charge           Charge          ....    0
 Multiplicity           Mult            ....    1
 Number of Electrons    NEL             ....   52
 Basis Dimension        Dim             ....  138

MULLIKEN ATOMIC CHARGES
-----------------------
   0 C :    0.046794
   1 C :    0.038594
   2 N :   -0.159565
   3 C :    0.061963
   4 N :   -0.237475
   5 C :    0.117545
   6 C :   -0.098152
   7 H :    0.035774
   8 H :    0.020667
   9 H :    0.023521
  10 H :    0.021324
  11 H :    0.025452
  12 H :    0.039284
  13 H :    0.036051
  14 H :    0.028224
Sum of atomic charges:   -0.0000000

LOEWDIN ATOMIC CHARGES
----------------------
   0 C :   -0.059446
   1 C :   -0.004060
   2 N :   -0.100669
   3 C :    0.029071
   4 N :   -0.108439
   5 C :    0.029078
   6 C :   -0.004413
   7 H :    0.035350
   8 H :    0.029873
   9 H :    0.029389
  10 H :    0.029837
  11 H :    0.020106
  12 H :    0.026733
  13 H :    0.022194
  14 H :    0.025397

  Mayer bond orders larger than 0.1
B(  0-C ,  1-C ) :   1.0837 B(  0-C ,  7-H ) :   0.9544 B(  0-C ,  8-H ) :   0.9542
B(  0-C ,  9-H ) :   0.9572 B(  1-C ,  2-N ) :   1.0348 B(  1-C ,  6-C ) :   0.9955
B(  1-C , 10-H ) :   0.8964 B(  2-N ,  3-C ) :   1.9115 B(  3-C ,  4-N ) :   1.0672
B(  3-C , 11-H ) :   0.9651 B(  4-N ,  5-C ) :   0.9514 B(  4-N ,  6-C ) :   0.9118
B(  5-C ,  6-C ) :   1.0429 B(  5-C , 12-H ) :   0.9451 B(  5-C , 13-H ) :   0.9180
B(  6-C , 14-H ) :   0.9444

FINAL SINGLE POINT ENERGY      -304.182941235076

DIPOLE MOMENT
-------------
                                X             Y             Z
Electronic contribution:      2.72921       1.43903       2.64617
Nuclear contribution   :     -2.66191      -2.10058      -2.84051
                        -----------------------------------------
Total Dipole Moment    :      0.06729      -0.66155      -0.19434
                        -----------------------------------------
Magnitude (a.u.)       :      0.69278
Magnitude (Debye)      :      1.76090

                             ****ORCA TERMINATED NORMALLY****
TOTAL RUN TIME: 0 days 0 hours 0 minutes 7 seconds 25 msec
