                         Program Version 3.0.3 - RELEASE   -
|  1> ! RI PBE def2-SVP def2-SVP/J NBO PAL2
|  2> % maxcore 2000
|  3> % output
|  4>     # printlevel mini
|  5>     print[ P_Basis ] 0
|  6>     print[ P_SCFInfo ] 1
|  7>     print[ P_SCFIterInfo ] 1
|  8>     print[ P_OrbEn ] 0
|  9>     print[ P_Cartesian ] 0
| 10> end
| 11> *xyz 0 1
| 12>  C        0.9280200000    -0.0368600000    -0.0837890000
| 13>  C        2.4356380000     0.0931110000     0.0504740000
| 14>  N        3.1139100000    -1.1335090000    -0.3870850000
| 15>  C        3.9289250000    -0.7804750000    -1.2948150000
| 16>  N        3.9640890000     0.5630190000    -1.5836510000
| 17>  C        3.0290960000     1.2147870000    -0.7922780000
| 18>  C        2.7397660000     2.5146060000    -0.7965430000
| 19>  H        0.5720920000    -0.8767370000     0.5149010000
| 20>  H        0.6530450000    -0.2126100000    -1.1255730000
| 21>  H        0.4317810000     0.8751380000     0.2544440000
| 22>  H        2.6839040000     0.2561740000     1.1059330000
| 23>  H        4.5820760000    -1.4631420000    -1.8290100000
| 24>  H        4.5018800000     0.9903530000    -2.3151640000
| 25>  H        3.2391120000     3.2136920000    -1.4560280000
| 26>  H        1.9890460000     2.9080640000    -0.1254260000
| 27> *
| 28>
| 29>                          ****END OF INPUT****
 Total Charge           Charge          ....    0
 Multiplicity           Mult            ....    1
 Number of Electrons    NEL             ....   52
 Basis Dimension        Dim             ....  138

MULLIKEN ATOMIC CHARGES
-----------------------
   0 C :    0.061758
   1 C :   -0.009358
   2 N :   -0.199157
   3 C :    0.112780
   4 N :   -0.106312
   5 C :   -0.002175
   6 C :   -0.088374
   7 H :    0.031431
   8 H :    0.015095
   9 H :    0.020150
  10 H :    0.039392
  11 H :    0.012554
  12 H :    0.107538
  13 H :   -0.002605
  14 H :    0.007282
Sum of atomic charges:   -0.0000000

LOEWDIN ATOMIC CHARGES
----------------------
   0 C :   -0.048469
   1 C :    0.003174
   2 N :   -0.140696
   3 C :    0.028582
   4 N :    0.030089
   5 C :    0.004439
   6 C :   -0.148477
   7 H :    0.032826
   8 H :    0.027688
   9 H :    0.027537
  10 H :    0.040825
  11 H :    0.017792
  12 H :    0.079087
  13 H :    0.019670
  14 H :    0.025934

  Mayer bond orders larger than 0.1
B(  0-C ,  1-C ) :   1.0786 B(  0-C ,  7-H ) :   0.9563 B(  0-C ,  8-H ) :   0.9560
B(  0-C ,  9-H ) :   0.9564 B(  1-C ,  2-N ) :   1.0676 B(  1-C ,  5-C ) :   0.9407
B(  1-C , 10-H ) :   0.8845 B(  2-N ,  3-C ) :   1.8472 B(  2-N ,  4-N ) :   0.1067
B(  3-C ,  4-N ) :   1.1124 B(  3-C , 11-H ) :   0.9609 B(  4-N ,  5-C ) :   1.1280
B(  4-N , 12-H ) :   0.9355 B(  5-C ,  6-C ) :   1.9091 B(  6-C , 13-H ) :   0.9243
B(  6-C , 14-H ) :   0.9250

FINAL SINGLE POINT ENERGY      -304.217626951159

DIPOLE MOMENT
-------------
                                X             Y             Z
Electronic contribution:      4.38887      -2.20600      -1.22937
Nuclear contribution   :     -3.94921       2.69003       0.61067
                        -----------------------------------------
Total Dipole Moment    :      0.43966       0.48403      -0.61869
                        -----------------------------------------
Magnitude (a.u.)       :      0.90021
Magnitude (Debye)      :      2.28814

                             ****ORCA TERMINATED NORMALLY****
TOTAL RUN TIME: 0 days 0 hours 0 minutes 7 seconds 179 msec
