                         Program Version 3.0.3 - RELEASE   -
|  1> ! RI PBE def2-SVP def2-SVP/J NBO PAL2
|  2> % maxcore 2000
|  3> % output
|  4>     # printlevel mini
|  5>     print[ P_Basis ] 0
|  6>     print[ P_SCFInfo ] 1
|  7>     print[ P_SCFIterInfo ] 1
|  8>     print[ P_OrbEn ] 0
|  9>     print[ P_Cartesian ] 0
| 10> end
| 11> *xyz 0 1
| 12>  C        1.1760190000     0.2113860000     0.3550850000
| 13>  C        2.5685430000    -0.0826630000    -0.1571570000
| 14>  N        2.5979730000    -1.1102220000    -1.1986090000
| 15>  C        3.5623640000    -0.7143990000    -2.0983570000
| 16>  N        3.9770450000     0.4837820000    -2.0216840000
| 17>  C        3.2502210000     1.0907860000    -0.9008350000
| 18>  C        4.1506350000     1.9386270000    -0.0296750000
| 19>  H        0.7340630000    -0.6605430000     0.8440290000
| 20>  H        0.5225900000     0.5084430000    -0.4681340000
| 21>  H        1.2025840000     1.0223210000     1.0878290000
| 22>  H        3.2087670000    -0.3903850000     0.6845440000
| 23>  H        2.5672100000    -2.0802540000    -0.9267470000
| 24>  H        3.8991210000    -1.4138010000    -2.8592240000
| 25>  H        2.4686810000     1.7343670000    -1.3319120000
| 26>  H        4.9569630000     1.3328090000     0.3913210000
| 27>  H        3.5898950000     2.3892530000     0.7942130000
| 28>  H        4.6014260000     2.7405940000    -0.6163860000
| 29> *
| 30>
| 31>                          ****END OF INPUT****
 Total Charge           Charge          ....    0
 Multiplicity           Mult            ....    1
 Number of Electrons    NEL             ....   54
 Basis Dimension        Dim             ....  148

MULLIKEN ATOMIC CHARGES
-----------------------
   0 C :    0.054345
   1 C :   -0.019287
   2 N :   -0.179573
   3 C :    0.091046
   4 N :   -0.205561
   5 C :   -0.029233
   6 C :    0.065022
   7 H :    0.015204
   8 H :    0.020167
   9 H :    0.024915
  10 H :   -0.004743
  11 H :    0.110032
  12 H :    0.005808
  13 H :    0.005674
  14 H :    0.009925
  15 H :    0.008830
  16 H :    0.027429
Sum of atomic charges:   -0.0000000

LOEWDIN ATOMIC CHARGES
----------------------
   0 C :   -0.066799
   1 C :    0.008963
   2 N :   -0.032583
   3 C :    0.019237
   4 N :   -0.148412
   5 C :   -0.000652
   6 C :   -0.060748
   7 H :    0.025692
   8 H :    0.027768
   9 H :    0.030907
  10 H :    0.012354
  11 H :    0.066135
  12 H :    0.014248
  13 H :    0.023494
  14 H :    0.023433
  15 H :    0.023907
  16 H :    0.033059

  Mayer bond orders larger than 0.1
B(  0-C ,  1-C ) :   1.1048 B(  0-C ,  7-H ) :   0.9532 B(  0-C ,  8-H ) :   0.9435
B(  0-C ,  9-H ) :   0.9542 B(  1-C ,  2-N ) :   0.9951 B(  1-C ,  5-C ) :   1.0034
B(  1-C , 10-H ) :   0.9060 B(  2-N ,  3-C ) :   1.1490 B(  2-N ,  4-N ) :   0.1319
B(  2-N , 11-H ) :   0.9340 B(  3-C ,  4-N ) :   1.8433 B(  3-C , 12-H ) :   0.9598
B(  4-N ,  5-C ) :   1.0531 B(  5-C ,  6-C ) :   1.0967 B(  5-C , 13-H ) :   0.8875
B(  6-C , 14-H ) :   0.9505 B(  6-C , 15-H ) :   0.9544 B(  6-C , 16-H ) :   0.9525

FINAL SINGLE POINT ENERGY      -305.427906022915

DIPOLE MOMENT
-------------
                                X             Y             Z
Electronic contribution:      1.85721      -3.10211      -4.83888
Nuclear contribution   :     -2.32449       2.38976       5.53244
                        -----------------------------------------
Total Dipole Moment    :     -0.46729      -0.71235       0.69356
                        -----------------------------------------
Magnitude (a.u.)       :      1.09856
Magnitude (Debye)      :      2.79231

                             ****ORCA TERMINATED NORMALLY****
TOTAL RUN TIME: 0 days 0 hours 0 minutes 8 seconds 220 msec
