                         Program Version 3.0.3 - RELEASE   -
|  1> ! RI PBE def2-SVP def2-SVP/J NBO PAL2
|  2> % maxcore 2000
|  3> % output
|  4>     # printlevel mini
|  5>     print[ P_Basis ] 0
|  6>     print[ P_SCFInfo ] 1
|  7>     print[ P_SCFIterInfo ] 1
|  8>     print[ P_OrbEn ] 0
|  9>     print[ P_Cartesian ] 0
| 10> end
| 11> *xyz 0 1
| 12>  C        0.9587910000    -0.0702720000    -0.1621100000
| 13>  C        2.2706950000    -0.0170680000     0.0941120000
| 14>  N        3.1217070000    -1.0803950000     0.3465850000
| 15>  C        4.4233530000    -0.6603510000     0.5719460000
| 16>  N        5.4698470000    -1.3367850000     0.8328170000
| 17>  C        4.3701240000     0.8023730000     0.4464420000
| 18>  C        3.1149680000     1.1718260000     0.1682690000
| 19>  H        0.4142720000    -1.0053850000    -0.1967140000
| 20>  H        0.4097330000     0.8429460000    -0.3428540000
| 21>  H        2.8315680000    -2.0408880000     0.3644590000
| 22>  H        5.2764790000    -2.3359440000     0.8729460000
| 23>  H        5.2447500000     1.4221430000     0.5713480000
| 24>  H        2.7364240000     2.1719020000     0.0145450000
| 25> *
| 26>
| 27>                          ****END OF INPUT****
 Total Charge           Charge          ....    0
 Multiplicity           Mult            ....    1
 Number of Electrons    NEL             ....   50
 Basis Dimension        Dim             ....  128

MULLIKEN ATOMIC CHARGES
-----------------------
   0 C :   -0.067431
   1 C :    0.066885
   2 N :   -0.098984
   3 C :   -0.075490
   4 N :   -0.056086
   5 C :    0.017111
   6 C :    0.029273
   7 H :    0.011219
   8 H :    0.014911
   9 H :    0.100108
  10 H :    0.079484
  11 H :   -0.011085
  12 H :   -0.009915
Sum of atomic charges:   -0.0000000

LOEWDIN ATOMIC CHARGES
----------------------
   0 C :   -0.101819
   1 C :    0.008540
   2 N :    0.021972
   3 C :    0.002821
   4 N :   -0.144885
   5 C :   -0.017494
   6 C :   -0.013344
   7 H :    0.024514
   8 H :    0.031506
   9 H :    0.075359
  10 H :    0.044261
  11 H :    0.036154
  12 H :    0.032416

  Mayer bond orders larger than 0.1
B(  0-C ,  1-C ) :   1.7993 B(  0-C ,  4-N ) :   0.1110 B(  0-C ,  7-H ) :   0.9317
B(  0-C ,  8-H ) :   0.9180 B(  1-C ,  2-N ) :   1.1136 B(  1-C ,  6-C ) :   1.0446
B(  2-N ,  3-C ) :   1.0892 B(  2-N ,  9-H ) :   0.9357 B(  3-C ,  4-N ) :   1.9694
B(  3-C ,  5-C ) :   1.0155 B(  4-N , 10-H ) :   0.9255 B(  5-C ,  6-C ) :   1.6527
B(  5-C , 11-H ) :   1.0124 B(  6-C , 12-H ) :   1.0044

FINAL SINGLE POINT ENERGY      -303.019679675182

DIPOLE MOMENT
-------------
                                X             Y             Z
Electronic contribution:      2.31111      -0.56784       0.50252
Nuclear contribution   :     -3.21426       0.30314      -0.66184
                        -----------------------------------------
Total Dipole Moment    :     -0.90315      -0.26470      -0.15932
                        -----------------------------------------
Magnitude (a.u.)       :      0.95453
Magnitude (Debye)      :      2.42622

                             ****ORCA TERMINATED NORMALLY****
TOTAL RUN TIME: 0 days 0 hours 0 minutes 6 seconds 803 msec
