                         Program Version 3.0.3 - RELEASE   -
|  1> ! RI PBE def2-SVP def2-SVP/J NBO PAL2
|  2> % maxcore 2000
|  3> % output
|  4>     # printlevel mini
|  5>     print[ P_Basis ] 0
|  6>     print[ P_SCFInfo ] 1
|  7>     print[ P_SCFIterInfo ] 1
|  8>     print[ P_OrbEn ] 0
|  9>     print[ P_Cartesian ] 0
| 10> end
| 11> *xyz 0 1
| 12>  C        1.0274650000    -0.0892360000    -0.0707380000
| 13>  C        2.5075870000    -0.0982680000    -0.0701050000
| 14>  N        3.2107920000    -1.1760000000    -0.0709370000
| 15>  C        4.5643140000    -0.7505690000    -0.0699260000
| 16>  N        5.5779870000    -1.5074260000    -0.0702880000
| 17>  C        4.6102760000     0.7275340000    -0.0683350000
| 18>  C        3.3398250000     1.1341090000    -0.0684640000
| 19>  H        0.6377130000    -1.1054190000    -0.0718590000
| 20>  H        0.6519780000     0.4466820000    -0.9481670000
| 21>  H        0.6512040000     0.4450590000     0.8073470000
| 22>  H        5.2631760000    -2.4799800000    -0.0714410000
| 23>  H        5.5210400000     1.3069120000    -0.0673300000
| 24>  H        2.9570540000     2.1457000000    -0.0675680000
| 25> *
| 26>
| 27>                          ****END OF INPUT****
 Total Charge           Charge          ....    0
 Multiplicity           Mult            ....    1
 Number of Electrons    NEL             ....   50
 Basis Dimension        Dim             ....  128

MULLIKEN ATOMIC CHARGES
-----------------------
   0 C :    0.090842
   1 C :   -0.131527
   2 N :   -0.116115
   3 C :   -0.114324
   4 N :    0.004795
   5 C :    0.045944
   6 C :    0.012038
   7 H :    0.037925
   8 H :    0.042151
   9 H :    0.042128
  10 H :    0.107215
  11 H :   -0.008715
  12 H :   -0.012357
Sum of atomic charges:   -0.0000000

LOEWDIN ATOMIC CHARGES
----------------------
   0 C :   -0.064161
   1 C :    0.023053
   2 N :   -0.130244
   3 C :   -0.000521
   4 N :   -0.041749
   5 C :   -0.012526
   6 C :   -0.035915
   7 H :    0.042998
   8 H :    0.048428
   9 H :    0.048419
  10 H :    0.059925
  11 H :    0.035128
  12 H :    0.027165

  Mayer bond orders larger than 0.1
B(  0-C ,  1-C ) :   1.1008 B(  0-C ,  7-H ) :   0.9426 B(  0-C ,  8-H ) :   0.9340
B(  0-C ,  9-H ) :   0.9340 B(  1-C ,  2-N ) :   1.7997 B(  1-C ,  4-N ) :   0.1104
B(  1-C ,  6-C ) :   0.9911 B(  2-N ,  3-C ) :   1.1167 B(  3-C ,  4-N ) :   2.0086
B(  3-C ,  5-C ) :   0.9673 B(  4-N , 10-H ) :   0.9204 B(  5-C ,  6-C ) :   1.6739
B(  5-C , 11-H ) :   1.0077 B(  6-C , 12-H ) :   0.9994

FINAL SINGLE POINT ENERGY      -303.009765172339

DIPOLE MOMENT
-------------
                                X             Y             Z
Electronic contribution:      4.33163      -1.52720       0.00027
Nuclear contribution   :     -5.11541       2.23908       0.00013
                        -----------------------------------------
Total Dipole Moment    :     -0.78378       0.71188       0.00040
                        -----------------------------------------
Magnitude (a.u.)       :      1.05882
Magnitude (Debye)      :      2.69130

                             ****ORCA TERMINATED NORMALLY****
TOTAL RUN TIME: 0 days 0 hours 0 minutes 6 seconds 674 msec
