                         Program Version 3.0.3 - RELEASE   -
|  1> ! RI PBE def2-SVP def2-SVP/J NBO PAL2
|  2> % maxcore 2000
|  3> % output
|  4>     # printlevel mini
|  5>     print[ P_Basis ] 0
|  6>     print[ P_SCFInfo ] 1
|  7>     print[ P_SCFIterInfo ] 1
|  8>     print[ P_OrbEn ] 0
|  9>     print[ P_Cartesian ] 0
| 10> end
| 11> *xyz 0 1
| 12>  C        0.9788650000     0.1441160000    -0.3008630000
| 13>  C        2.4474910000    -0.0114490000     0.0675460000
| 14>  N        2.7075200000    -1.1705370000     0.8963360000
| 15>  C        3.4517420000    -0.8637660000     2.0191940000
| 16>  N        3.9719350000    -1.6247620000     2.8990860000
| 17>  C        3.5383840000     0.6045080000     2.0327440000
| 18>  C        2.9786950000     1.0938900000     0.9304240000
| 19>  H        0.6350010000    -0.7096380000    -0.8892730000
| 20>  H        0.8265060000     1.0462700000    -0.8985070000
| 21>  H        0.3671320000     0.2112700000     0.6006610000
| 22>  H        3.0385460000    -0.0568900000    -0.8615060000
| 23>  H        2.7444130000    -2.0917910000     0.4965070000
| 24>  H        3.7931970000    -2.6072690000     2.6985360000
| 25>  H        4.0068310000     1.1441030000     2.8425450000
| 26>  H        2.8859540000     2.1358660000     0.6533010000
| 27> *
| 28>
| 29>                          ****END OF INPUT****
 Total Charge           Charge          ....    0
 Multiplicity           Mult            ....    1
 Number of Electrons    NEL             ....   52
 Basis Dimension        Dim             ....  138

MULLIKEN ATOMIC CHARGES
-----------------------
   0 C :    0.025838
   1 C :    0.066715
   2 N :   -0.173462
   3 C :   -0.086289
   4 N :   -0.084958
   5 C :    0.031928
   6 C :   -0.044474
   7 H :    0.022358
   8 H :    0.024095
   9 H :    0.031850
  10 H :    0.027474
  11 H :    0.100299
  12 H :    0.071934
  13 H :   -0.014104
  14 H :    0.000796
Sum of atomic charges:   -0.0000000

LOEWDIN ATOMIC CHARGES
----------------------
   0 C :   -0.062839
   1 C :    0.019644
   2 N :   -0.023366
   3 C :   -0.004649
   4 N :   -0.175697
   5 C :   -0.020778
   6 C :   -0.018193
   7 H :    0.027468
   8 H :    0.030126
   9 H :    0.032371
  10 H :    0.029902
  11 H :    0.064554
  12 H :    0.039280
  13 H :    0.034873
  14 H :    0.027304

  Mayer bond orders larger than 0.1
B(  0-C ,  1-C ) :   1.0713 B(  0-C ,  7-H ) :   0.9588 B(  0-C ,  8-H ) :   0.9554
B(  0-C ,  9-H ) :   0.9556 B(  1-C ,  2-N ) :   1.0048 B(  1-C ,  6-C ) :   0.9992
B(  1-C , 10-H ) :   0.8892 B(  2-N ,  3-C ) :   1.1218 B(  2-N , 11-H ) :   0.9352
B(  3-C ,  4-N ) :   1.9756 B(  3-C ,  5-C ) :   0.9978 B(  4-N , 12-H ) :   0.9284
B(  5-C ,  6-C ) :   1.7567 B(  5-C , 13-H ) :   1.0101 B(  6-C , 14-H ) :   0.9915

FINAL SINGLE POINT ENERGY      -304.222485900690

DIPOLE MOMENT
-------------
                                X             Y             Z
Electronic contribution:      3.56049      -1.27785       3.33699
Nuclear contribution   :     -4.13372       1.33999      -4.60626
                        -----------------------------------------
Total Dipole Moment    :     -0.57323       0.06214      -1.26927
                        -----------------------------------------
Magnitude (a.u.)       :      1.39409
Magnitude (Debye)      :      3.54350

                             ****ORCA TERMINATED NORMALLY****
TOTAL RUN TIME: 0 days 0 hours 0 minutes 7 seconds 588 msec
