                         Program Version 3.0.3 - RELEASE   -
|  1> ! RI PBE def2-SVP def2-SVP/J NBO PAL2
|  2> % maxcore 2000
|  3> % output
|  4>     # printlevel mini
|  5>     print[ P_Basis ] 0
|  6>     print[ P_SCFInfo ] 1
|  7>     print[ P_SCFIterInfo ] 1
|  8>     print[ P_OrbEn ] 0
|  9>     print[ P_Cartesian ] 0
| 10> end
| 11> *xyz 0 1
| 12>  C        0.9699070000    -0.1096030000    -0.0703810000
| 13>  C        2.4450000000     0.0449400000    -0.0706540000
| 14>  C        3.2688890000     1.1415960000    -0.0741340000
| 15>  C        2.9037770000     2.5818610000    -0.0788990000
| 16>  N        4.5851050000     0.7471740000    -0.0726330000
| 17>  C        4.5656130000    -0.5562300000    -0.0683610000
| 18>  N        3.2981120000    -1.0340430000    -0.0669850000
| 19>  H        0.4911410000     0.8694490000    -0.0735090000
| 20>  H        0.6132660000    -0.6460050000     0.8149960000
| 21>  H        0.6135090000    -0.6515400000    -0.9524800000
| 22>  H        1.8219040000     2.7231490000    -0.0798840000
| 23>  H        3.3126240000     3.0831780000    -0.9600410000
| 24>  H        3.3117490000     3.0888080000     0.7994280000
| 25>  H        5.4299260000    -1.2042620000    -0.0661090000
| 26>  H        3.0256960000    -2.0011810000    -0.0638660000
| 27> *
| 28>
| 29>                          ****END OF INPUT****
 Total Charge           Charge          ....    0
 Multiplicity           Mult            ....    1
 Number of Electrons    NEL             ....   52
 Basis Dimension        Dim             ....  138

MULLIKEN ATOMIC CHARGES
-----------------------
   0 C :    0.091716
   1 C :   -0.113443
   2 C :   -0.191622
   3 C :    0.110713
   4 N :   -0.144844
   5 C :    0.072556
   6 N :   -0.055697
   7 H :    0.019045
   8 H :    0.028691
   9 H :    0.028773
  10 H :   -0.006808
  11 H :    0.027646
  12 H :    0.027767
  13 H :    0.001167
  14 H :    0.104339
Sum of atomic charges:   -0.0000000

LOEWDIN ATOMIC CHARGES
----------------------
   0 C :   -0.066112
   1 C :   -0.061504
   2 C :   -0.069040
   3 C :   -0.063097
   4 N :   -0.117045
   5 C :   -0.015241
   6 N :    0.085796
   7 H :    0.041532
   8 H :    0.034821
   9 H :    0.034835
  10 H :    0.026457
  11 H :    0.038032
  12 H :    0.038053
  13 H :    0.012157
  14 H :    0.080354

  Mayer bond orders larger than 0.1
B(  0-C ,  1-C ) :   1.1311 B(  0-C ,  7-H ) :   0.9347 B(  0-C ,  8-H ) :   0.9375
B(  0-C ,  9-H ) :   0.9375 B(  1-C ,  2-C ) :   1.4962 B(  1-C ,  6-N ) :   1.1994
B(  2-C ,  3-C ) :   1.1429 B(  2-C ,  4-N ) :   1.3885 B(  3-C , 10-H ) :   0.9375
B(  3-C , 11-H ) :   0.9368 B(  3-C , 12-H ) :   0.9368 B(  4-N ,  5-C ) :   1.6340
B(  5-C ,  6-N ) :   1.2178 B(  5-C , 13-H ) :   0.9692 B(  6-N , 14-H ) :   0.9340

FINAL SINGLE POINT ENERGY      -304.253930649824

DIPOLE MOMENT
-------------
                                X             Y             Z
Electronic contribution:      4.97185      -2.98280       0.01057
Nuclear contribution   :     -5.88036       1.92056      -0.00719
                        -----------------------------------------
Total Dipole Moment    :     -0.90851      -1.06224       0.00338
                        -----------------------------------------
Magnitude (a.u.)       :      1.39777
Magnitude (Debye)      :      3.55285

                             ****ORCA TERMINATED NORMALLY****
TOTAL RUN TIME: 0 days 0 hours 0 minutes 6 seconds 614 msec
