                         Program Version 3.0.3 - RELEASE   -
|  1> ! RI PBE def2-SVP def2-SVP/J NBO PAL2
|  2> % maxcore 2000
|  3> % output
|  4>     # printlevel mini
|  5>     print[ P_Basis ] 0
|  6>     print[ P_SCFInfo ] 1
|  7>     print[ P_SCFIterInfo ] 1
|  8>     print[ P_OrbEn ] 0
|  9>     print[ P_Cartesian ] 0
| 10> end
| 11> *xyz 0 1
| 12>  C        0.8855330000    -0.0596470000    -0.1723940000
| 13>  C        2.3629500000     0.0500960000    -0.1286190000
| 14>  C        3.1659890000     1.1689970000    -0.1159650000
| 15>  N        2.6851530000     2.4958030000    -0.1608590000
| 16>  C        4.5169480000     0.7296220000    -0.0935790000
| 17>  C        4.4993580000    -0.6411350000    -0.0902240000
| 18>  N        3.1964970000    -1.0373570000    -0.0963060000
| 19>  H        0.4697740000     0.8982120000    -0.4901950000
| 20>  H        0.4450440000    -0.3080120000     0.8001200000
| 21>  H        0.5561940000    -0.8203960000    -0.8870370000
| 22>  H        2.2762490000     2.7899010000     0.7160720000
| 23>  H        3.4197800000     3.1459790000    -0.3992220000
| 24>  H        5.3981550000     1.3535020000    -0.0814550000
| 25>  H        5.3055150000    -1.3566300000    -0.0834300000
| 26>  H        2.8853420000    -1.9910560000    -0.1001060000
| 27> *
| 28>
| 29>                          ****END OF INPUT****
 Total Charge           Charge          ....    0
 Multiplicity           Mult            ....    1
 Number of Electrons    NEL             ....   52
 Basis Dimension        Dim             ....  138

MULLIKEN ATOMIC CHARGES
-----------------------
   0 C :    0.096576
   1 C :   -0.140556
   2 C :   -0.062632
   3 N :   -0.101662
   4 C :   -0.056095
   5 C :    0.037044
   6 N :   -0.050810
   7 H :    0.019711
   8 H :    0.022006
   9 H :    0.010815
  10 H :    0.105953
  11 H :    0.091880
  12 H :   -0.056343
  13 H :   -0.016233
  14 H :    0.100346
Sum of atomic charges:   -0.0000000

LOEWDIN ATOMIC CHARGES
----------------------
   0 C :   -0.068349
   1 C :   -0.068698
   2 C :   -0.065367
   3 N :   -0.064396
   4 C :   -0.115048
   5 C :   -0.044825
   6 N :    0.096217
   7 H :    0.040321
   8 H :    0.028781
   9 H :    0.030335
  10 H :    0.061642
  11 H :    0.060801
  12 H :    0.016594
  13 H :    0.014341
  14 H :    0.077650

  Mayer bond orders larger than 0.1
B(  0-C ,  1-C ) :   1.1463 B(  0-C ,  7-H ) :   0.9256 B(  0-C ,  8-H ) :   0.9391
B(  0-C ,  9-H ) :   0.9320 B(  1-C ,  2-C ) :   1.4887 B(  1-C ,  5-C ) :   0.1050
B(  1-C ,  6-N ) :   1.2050 B(  2-C ,  3-N ) :   1.1415 B(  2-C ,  4-C ) :   1.2966
B(  3-N , 10-H ) :   0.9548 B(  3-N , 11-H ) :   0.9597 B(  4-C ,  5-C ) :   1.4259
B(  4-C , 12-H ) :   1.0154 B(  5-C ,  6-N ) :   1.2251 B(  5-C , 13-H ) :   0.9819
B(  6-N , 14-H ) :   0.9420

FINAL SINGLE POINT ENERGY      -304.237297309571

DIPOLE MOMENT
-------------
                                X             Y             Z
Electronic contribution:      2.97088      -0.81327      -0.04882
Nuclear contribution   :     -3.06332       0.42835       0.39304
                        -----------------------------------------
Total Dipole Moment    :     -0.09244      -0.38492       0.34422
                        -----------------------------------------
Magnitude (a.u.)       :      0.52459
Magnitude (Debye)      :      1.33340

                             ****ORCA TERMINATED NORMALLY****
TOTAL RUN TIME: 0 days 0 hours 0 minutes 6 seconds 841 msec
