                         Program Version 3.0.3 - RELEASE   -
|  1> ! RI PBE def2-SVP def2-SVP/J NBO PAL2
|  2> % maxcore 2000
|  3> % output
|  4>     # printlevel mini
|  5>     print[ P_Basis ] 0
|  6>     print[ P_SCFInfo ] 1
|  7>     print[ P_SCFIterInfo ] 1
|  8>     print[ P_OrbEn ] 0
|  9>     print[ P_Cartesian ] 0
| 10> end
| 11> *xyz 0 1
| 12>  C        1.1415070000     0.1963030000    -0.1601630000
| 13>  C        2.5628890000    -0.0370370000     0.1995080000
| 14>  N        3.3204940000     0.9013890000     0.6044290000
| 15>  N        4.6160190000     0.4037810000     0.9154350000
| 16>  C        5.3205760000     0.0447640000    -0.3172860000
| 17>  C        4.6443710000    -1.0088630000     0.4655970000
| 18>  C        3.2344340000    -1.3843210000     0.1054570000
| 19>  H        0.8820500000     1.2435670000    -0.0126490000
| 20>  H        0.4812150000    -0.4260190000     0.4516890000
| 21>  H        0.9579590000    -0.0756550000    -1.2039170000
| 22>  H        6.4000940000     0.1337190000    -0.2712680000
| 23>  H        4.8620800000     0.3750770000    -1.2439320000
| 24>  H        5.2382470000    -1.6805060000     1.0734240000
| 25>  H        2.8053880000    -2.0921760000     0.8233540000
| 26>  H        3.1138650000    -1.8253240000    -0.8891870000
| 27> *
| 28>
| 29>                          ****END OF INPUT****
 Total Charge           Charge          ....    0
 Multiplicity           Mult            ....    1
 Number of Electrons    NEL             ....   52
 Basis Dimension        Dim             ....  138

MULLIKEN ATOMIC CHARGES
-----------------------
   0 C :    0.102440
   1 C :   -0.284965
   2 N :   -0.048241
   3 N :   -0.182006
   4 C :    0.094858
   5 C :   -0.125544
   6 C :    0.176211
   7 H :    0.034422
   8 H :    0.032011
   9 H :    0.029038
  10 H :    0.044329
  11 H :    0.031914
  12 H :    0.027540
  13 H :    0.035850
  14 H :    0.032142
Sum of atomic charges:    0.0000000

LOEWDIN ATOMIC CHARGES
----------------------
   0 C :   -0.061954
   1 C :   -0.030710
   2 N :   -0.053811
   3 N :   -0.071354
   4 C :    0.009994
   5 C :   -0.015333
   6 C :   -0.052877
   7 H :    0.042268
   8 H :    0.041112
   9 H :    0.040447
  10 H :    0.027940
  11 H :    0.019356
  12 H :    0.024477
  13 H :    0.041596
  14 H :    0.038849

  Mayer bond orders larger than 0.1
B(  0-C ,  1-C ) :   1.0992 B(  0-C ,  7-H ) :   0.9422 B(  0-C ,  8-H ) :   0.9366
B(  0-C ,  9-H ) :   0.9394 B(  1-C ,  2-N ) :   1.9151 B(  1-C ,  6-C ) :   0.9750
B(  2-N ,  3-N ) :   0.9733 B(  3-N ,  4-C ) :   0.9449 B(  3-N ,  5-C ) :   0.9120
B(  4-C ,  5-C ) :   1.0477 B(  4-C , 10-H ) :   0.9431 B(  4-C , 11-H ) :   0.9288
B(  5-C ,  6-C ) :   1.0600 B(  5-C , 12-H ) :   0.9418 B(  6-C , 13-H ) :   0.9036
B(  6-C , 14-H ) :   0.9089

FINAL SINGLE POINT ENERGY      -304.166862550278

DIPOLE MOMENT
-------------
                                X             Y             Z
Electronic contribution:      2.92349       2.06648       2.34481
Nuclear contribution   :     -3.26132      -3.10226      -3.02494
                        -----------------------------------------
Total Dipole Moment    :     -0.33783      -1.03579      -0.68013
                        -----------------------------------------
Magnitude (a.u.)       :      1.28435
Magnitude (Debye)      :      3.26457

                             ****ORCA TERMINATED NORMALLY****
TOTAL RUN TIME: 0 days 0 hours 0 minutes 6 seconds 914 msec
