                         Program Version 3.0.3 - RELEASE   -
|  1> ! RI PBE def2-SVP def2-SVP/J NBO PAL2
|  2> % maxcore 2000
|  3> % output
|  4>     # printlevel mini
|  5>     print[ P_Basis ] 0
|  6>     print[ P_SCFInfo ] 1
|  7>     print[ P_SCFIterInfo ] 1
|  8>     print[ P_OrbEn ] 0
|  9>     print[ P_Cartesian ] 0
| 10> end
| 11> *xyz 0 1
| 12>  C        1.1388220000    -0.0923600000    -0.0587510000
| 13>  C        2.5996020000     0.1094460000     0.0960210000
| 14>  N        3.1806470000     1.2078630000    -0.2148290000
| 15>  N        4.4998700000     1.1563310000     0.1899790000
| 16>  C        4.8566150000    -0.1840710000     0.5578230000
| 17>  C        4.5983880000    -1.3031660000    -0.4038810000
| 18>  C        3.5422660000    -0.9188380000     0.6043610000
| 19>  H        0.6776220000     0.8037940000    -0.4724500000
| 20>  H        0.6720450000    -0.3116070000     0.9073660000
| 21>  H        0.9261280000    -0.9421310000    -0.7149750000
| 22>  H        5.1042670000     1.6414540000    -0.4571060000
| 23>  H        5.6235590000    -0.2878830000     1.3153840000
| 24>  H        5.1336700000    -2.2251930000    -0.2171260000
| 25>  H        4.4116030000    -1.0733770000    -1.4464470000
| 26>  H        3.2572160000    -1.6110530000     1.3869200000
| 27> *
| 28>
| 29>                          ****END OF INPUT****
 Total Charge           Charge          ....    0
 Multiplicity           Mult            ....    1
 Number of Electrons    NEL             ....   52
 Basis Dimension        Dim             ....  138

MULLIKEN ATOMIC CHARGES
-----------------------
   0 C :    0.096196
   1 C :   -0.132168
   2 N :   -0.111747
   3 N :   -0.072131
   4 C :    0.009421
   5 C :    0.022757
   6 C :   -0.122077
   7 H :    0.028283
   8 H :    0.026795
   9 H :    0.027273
  10 H :    0.118811
  11 H :    0.020538
  12 H :    0.034082
  13 H :    0.036283
  14 H :    0.017685
Sum of atomic charges:   -0.0000000

LOEWDIN ATOMIC CHARGES
----------------------
   0 C :   -0.062912
   1 C :   -0.056479
   2 N :   -0.063857
   3 N :    0.000784
   4 C :   -0.002800
   5 C :   -0.051684
   6 C :   -0.049073
   7 H :    0.039951
   8 H :    0.037529
   9 H :    0.036032
  10 H :    0.063015
  11 H :    0.022449
  12 H :    0.032016
  13 H :    0.028293
  14 H :    0.026736

  Mayer bond orders larger than 0.1
B(  0-C ,  1-C ) :   1.1298 B(  0-C ,  7-H ) :   0.9399 B(  0-C ,  8-H ) :   0.9375
B(  0-C ,  9-H ) :   0.9393 B(  1-C ,  2-N ) :   1.8297 B(  1-C ,  6-C ) :   1.0093
B(  2-N ,  3-N ) :   1.0797 B(  3-N ,  4-C ) :   1.0449 B(  3-N , 10-H ) :   0.9351
B(  4-C ,  5-C ) :   0.9845 B(  4-C ,  6-C ) :   0.9121 B(  4-C , 11-H ) :   0.9479
B(  5-C ,  6-C ) :   0.9604 B(  5-C , 12-H ) :   0.9401 B(  5-C , 13-H ) :   0.9281
B(  6-C , 14-H ) :   0.9485

FINAL SINGLE POINT ENERGY      -304.179543033488

DIPOLE MOMENT
-------------
                                X             Y             Z
Electronic contribution:      2.25185       3.07303       0.48349
Nuclear contribution   :     -1.90912      -3.77526      -0.46090
                        -----------------------------------------
Total Dipole Moment    :      0.34274      -0.70224       0.02259
                        -----------------------------------------
Magnitude (a.u.)       :      0.78174
Magnitude (Debye)      :      1.98702

                             ****ORCA TERMINATED NORMALLY****
TOTAL RUN TIME: 0 days 0 hours 0 minutes 7 seconds 269 msec
