                         Program Version 3.0.3 - RELEASE   -
|  1> ! RI PBE def2-SVP def2-SVP/J NBO PAL2
|  2> % maxcore 2000
|  3> % output
|  4>     # printlevel mini
|  5>     print[ P_Basis ] 0
|  6>     print[ P_SCFInfo ] 1
|  7>     print[ P_SCFIterInfo ] 1
|  8>     print[ P_OrbEn ] 0
|  9>     print[ P_Cartesian ] 0
| 10> end
| 11> *xyz 0 1
| 12>  C        0.9508320000     0.0970120000     0.0948410000
| 13>  C        2.4295480000    -0.0066530000     0.0972840000
| 14>  N        3.2030140000     1.0197470000     0.1020920000
| 15>  N        4.5633260000     0.5834790000     0.1032310000
| 16>  C        4.5827140000    -0.6962890000     0.0990750000
| 17>  C        3.2292200000    -1.2388230000     0.0948180000
| 18>  C        2.8265120000    -2.5084120000     0.0899630000
| 19>  H        0.6609140000     1.1467740000     0.0976560000
| 20>  H        0.5198760000    -0.3900760000     0.9741680000
| 21>  H        0.5231810000    -0.3844380000    -0.7891920000
| 22>  H        5.5102980000    -1.2557510000     0.0989950000
| 23>  H        3.5374670000    -3.3274170000     0.0886360000
| 24>  H        1.7733990000    -2.7688620000     0.0871430000
| 25> *
| 26>
| 27>                          ****END OF INPUT****
 Total Charge           Charge          ....    0
 Multiplicity           Mult            ....    1
 Number of Electrons    NEL             ....   50
 Basis Dimension        Dim             ....  128

MULLIKEN ATOMIC CHARGES
-----------------------
   0 C :    0.088862
   1 C :   -0.114286
   2 N :   -0.095525
   3 N :   -0.078558
   4 C :    0.066776
   5 C :   -0.078988
   6 C :    0.010940
   7 H :    0.038717
   8 H :    0.038203
   9 H :    0.038083
  10 H :    0.003443
  11 H :    0.043623
  12 H :    0.038710
Sum of atomic charges:   -0.0000000

LOEWDIN ATOMIC CHARGES
----------------------
   0 C :   -0.062064
   1 C :   -0.029186
   2 N :   -0.062214
   3 N :   -0.041048
   4 C :   -0.018794
   5 C :   -0.065994
   6 C :    0.046660
   7 H :    0.047025
   8 H :    0.043162
   9 H :    0.043139
  10 H :    0.024398
  11 H :    0.039086
  12 H :    0.035831

  Mayer bond orders larger than 0.1
B(  0-C ,  1-C ) :   1.1252 B(  0-C ,  7-H ) :   0.9345 B(  0-C ,  8-H ) :   0.9363
B(  0-C ,  9-H ) :   0.9362 B(  1-C ,  2-N ) :   1.8268 B(  1-C ,  5-C ) :   1.0042
B(  2-N ,  3-N ) :   1.0084 B(  3-N ,  4-C ) :   1.8406 B(  4-C ,  5-C ) :   1.0158
B(  4-C , 10-H ) :   0.9776 B(  5-C ,  6-C ) :   1.8581 B(  6-C , 11-H ) :   0.9291
B(  6-C , 12-H ) :   0.9276

FINAL SINGLE POINT ENERGY      -302.973684564212

DIPOLE MOMENT
-------------
                                X             Y             Z
Electronic contribution:      4.75228       2.54527       0.01719
Nuclear contribution   :     -5.57237      -4.33024      -0.02454
                        -----------------------------------------
Total Dipole Moment    :     -0.82009      -1.78498      -0.00735
                        -----------------------------------------
Magnitude (a.u.)       :      1.96437
Magnitude (Debye)      :      4.99303

                             ****ORCA TERMINATED NORMALLY****
TOTAL RUN TIME: 0 days 0 hours 0 minutes 6 seconds 308 msec
