                         Program Version 3.0.3 - RELEASE   -
|  1> ! RI PBE def2-SVP def2-SVP/J NBO PAL2
|  2> % maxcore 2000
|  3> % output
|  4>     # printlevel mini
|  5>     print[ P_Basis ] 0
|  6>     print[ P_SCFInfo ] 1
|  7>     print[ P_SCFIterInfo ] 1
|  8>     print[ P_OrbEn ] 0
|  9>     print[ P_Cartesian ] 0
| 10> end
| 11> *xyz 0 1
| 12>  C        1.0435410000    -0.0724510000     0.0519490000
| 13>  C        2.5169990000    -0.0081590000    -0.0940780000
| 14>  N        3.2429810000    -1.0597460000    -0.2898920000
| 15>  N        4.5282850000    -0.7051270000    -0.3829100000
| 16>  C        4.7441790000     0.7163980000    -0.2432780000
| 17>  C        3.3287240000     1.2035660000    -0.0399680000
| 18>  C        2.9112730000     2.4571840000     0.1470280000
| 19>  H        0.7068580000    -1.1053810000    -0.0309750000
| 20>  H        0.5425880000     0.5221410000    -0.7188640000
| 21>  H        0.7237340000     0.3233920000     1.0213180000
| 22>  H        5.2176300000    -1.4124070000    -0.5363020000
| 23>  H        5.2025300000     1.1515460000    -1.1388530000
| 24>  H        5.3855880000     0.9515740000     0.6138990000
| 25>  H        3.5973170000     3.2954630000     0.1715030000
| 26>  H        1.8589630000     2.6760070000     0.2817230000
| 27> *
| 28>
| 29>                          ****END OF INPUT****
 Total Charge           Charge          ....    0
 Multiplicity           Mult            ....    1
 Number of Electrons    NEL             ....   52
 Basis Dimension        Dim             ....  138

MULLIKEN ATOMIC CHARGES
-----------------------
   0 C :    0.086070
   1 C :   -0.142437
   2 N :   -0.053527
   3 N :   -0.163633
   4 C :    0.261590
   5 C :   -0.189684
   6 C :   -0.075834
   7 H :    0.019969
   8 H :    0.028765
   9 H :    0.024445
  10 H :    0.115875
  11 H :    0.037850
  12 H :    0.040622
  13 H :    0.001515
  14 H :    0.008415
Sum of atomic charges:   -0.0000000

LOEWDIN ATOMIC CHARGES
----------------------
   0 C :   -0.063195
   1 C :   -0.084950
   2 N :   -0.033365
   3 N :    0.013300
   4 C :    0.025501
   5 C :   -0.054113
   6 C :   -0.090803
   7 H :    0.038588
   8 H :    0.035430
   9 H :    0.034617
  10 H :    0.063348
  11 H :    0.035616
  12 H :    0.036267
  13 H :    0.020548
  14 H :    0.023212

  Mayer bond orders larger than 0.1
B(  0-C ,  1-C ) :   1.1427 B(  0-C ,  7-H ) :   0.9372 B(  0-C ,  8-H ) :   0.9366
B(  0-C ,  9-H ) :   0.9351 B(  1-C ,  2-N ) :   1.7374 B(  1-C ,  3-N ) :   0.1153
B(  1-C ,  5-C ) :   1.0880 B(  2-N ,  3-N ) :   1.1497 B(  3-N ,  4-C ) :   0.9527
B(  3-N , 10-H ) :   0.9532 B(  4-C ,  5-C ) :   0.9984 B(  4-C , 11-H ) :   0.9145
B(  4-C , 12-H ) :   0.9145 B(  5-C ,  6-C ) :   1.9019 B(  6-C , 13-H ) :   0.9316
B(  6-C , 14-H ) :   0.9244

FINAL SINGLE POINT ENERGY      -304.190518128407

DIPOLE MOMENT
-------------
                                X             Y             Z
Electronic contribution:      2.84040      -3.16393      -0.65648
Nuclear contribution   :     -2.15977       3.39012       0.61140
                        -----------------------------------------
Total Dipole Moment    :      0.68063       0.22619      -0.04508
                        -----------------------------------------
Magnitude (a.u.)       :      0.71865
Magnitude (Debye)      :      1.82666

                             ****ORCA TERMINATED NORMALLY****
TOTAL RUN TIME: 0 days 0 hours 0 minutes 6 seconds 976 msec
