                         Program Version 3.0.3 - RELEASE   -
|  1> ! RI PBE def2-SVP def2-SVP/J NBO PAL2
|  2> % maxcore 2000
|  3> % output
|  4>     # printlevel mini
|  5>     print[ P_Basis ] 0
|  6>     print[ P_SCFInfo ] 1
|  7>     print[ P_SCFIterInfo ] 1
|  8>     print[ P_OrbEn ] 0
|  9>     print[ P_Cartesian ] 0
| 10> end
| 11> *xyz 0 1
| 12>  C        1.1293530000     0.0455100000     0.4188640000
| 13>  C        2.4599940000    -0.2071590000    -0.2509660000
| 14>  N        2.3681510000    -1.1789690000    -1.3459720000
| 15>  N        3.3742930000    -0.9293700000    -2.2541190000
| 16>  C        3.7813620000     0.2664100000    -2.0902080000
| 17>  C        3.0793720000     0.9941520000    -0.9767780000
| 18>  C        3.9475500000     1.8924880000    -0.1170670000
| 19>  H        0.7370450000    -0.8649190000     0.8788100000
| 20>  H        0.3976120000     0.3994190000    -0.3103990000
| 21>  H        1.2300080000     0.7951830000     1.2079210000
| 22>  H        3.1903610000    -0.5581820000     0.4991350000
| 23>  H        2.3737560000    -2.1520200000    -1.0753090000
| 24>  H        4.5182450000     0.6909360000    -2.7618960000
| 25>  H        2.2699550000     1.5961970000    -1.4204020000
| 26>  H        4.7684110000     1.3282160000     0.3326530000
| 27>  H        3.3672130000     2.3475870000     0.6898030000
| 28>  H        4.3804090000     2.7040110000    -0.7067890000
| 29> *
| 30>
| 31>                          ****END OF INPUT****
 Total Charge           Charge          ....    0
 Multiplicity           Mult            ....    1
 Number of Electrons    NEL             ....   54
 Basis Dimension        Dim             ....  148

MULLIKEN ATOMIC CHARGES
-----------------------
   0 C :    0.064470
   1 C :   -0.012457
   2 N :   -0.131409
   3 N :   -0.084255
   4 C :   -0.023597
   5 C :   -0.110958
   6 C :    0.050394
   7 H :    0.016992
   8 H :    0.019469
   9 H :    0.020685
  10 H :   -0.000971
  11 H :    0.112544
  12 H :   -0.000850
  13 H :    0.019663
  14 H :    0.018356
  15 H :    0.018016
  16 H :    0.023908
Sum of atomic charges:    0.0000000

LOEWDIN ATOMIC CHARGES
----------------------
   0 C :   -0.063944
   1 C :    0.005929
   2 N :   -0.017512
   3 N :   -0.039265
   4 C :   -0.055901
   5 C :   -0.062468
   6 C :   -0.054487
   7 H :    0.028098
   8 H :    0.028326
   9 H :    0.029400
  10 H :    0.011612
  11 H :    0.057757
  12 H :    0.016223
  13 H :    0.034118
  14 H :    0.025215
  15 H :    0.026399
  16 H :    0.030500

  Mayer bond orders larger than 0.1
B(  0-C ,  1-C ) :   1.1034 B(  0-C ,  7-H ) :   0.9537 B(  0-C ,  8-H ) :   0.9448
B(  0-C ,  9-H ) :   0.9501 B(  1-C ,  2-N ) :   0.9499 B(  1-C ,  5-C ) :   1.0274
B(  1-C , 10-H ) :   0.9126 B(  2-N ,  3-N ) :   1.0966 B(  2-N ,  4-C ) :   0.1083
B(  2-N , 11-H ) :   0.9379 B(  3-N ,  4-C ) :   1.8834 B(  4-C ,  5-C ) :   0.9767
B(  4-C , 12-H ) :   0.9830 B(  5-C ,  6-C ) :   1.0954 B(  5-C , 13-H ) :   0.8643
B(  6-C , 14-H ) :   0.9585 B(  6-C , 15-H ) :   0.9568 B(  6-C , 16-H ) :   0.9574

FINAL SINGLE POINT ENERGY      -305.400187059749

DIPOLE MOMENT
-------------
                                X             Y             Z
Electronic contribution:      1.21287      -4.33658      -5.22893
Nuclear contribution   :     -1.29279       4.66745       6.02844
                        -----------------------------------------
Total Dipole Moment    :     -0.07992       0.33087       0.79952
                        -----------------------------------------
Magnitude (a.u.)       :      0.86896
Magnitude (Debye)      :      2.20872

                             ****ORCA TERMINATED NORMALLY****
TOTAL RUN TIME: 0 days 0 hours 0 minutes 8 seconds 1 msec
