                         Program Version 3.0.3 - RELEASE   -
|  1> ! RI PBE def2-SVP def2-SVP/J NBO PAL2
|  2> % maxcore 2000
|  3> % output
|  4>     # printlevel mini
|  5>     print[ P_Basis ] 0
|  6>     print[ P_SCFInfo ] 1
|  7>     print[ P_SCFIterInfo ] 1
|  8>     print[ P_OrbEn ] 0
|  9>     print[ P_Cartesian ] 0
| 10> end
| 11> *xyz 0 1
| 12>  C        1.0490030000    -0.0953440000     0.0443430000
| 13>  C        2.5656360000    -0.0962960000    -0.0927520000
| 14>  N        3.0533970000    -1.2075340000    -0.9188160000
| 15>  N        3.4190570000    -0.7689310000    -2.1529340000
| 16>  C        3.4966620000     0.5144580000    -2.1393060000
| 17>  C        3.0800570000     1.0911590000    -0.8742730000
| 18>  C        3.1255110000     2.3657560000    -0.4872610000
| 19>  H        0.7020010000    -0.9927410000     0.5638830000
| 20>  H        0.5763110000    -0.0523270000    -0.9394740000
| 21>  H        0.7242510000     0.7761100000     0.6176600000
| 22>  H        3.0266440000    -0.1462820000     0.8979750000
| 23>  H        2.4863950000    -2.0411050000    -0.9656650000
| 24>  H        3.8468690000     1.0533480000    -3.0091890000
| 25>  H        3.5110160000     3.1351170000    -1.1456350000
| 26>  H        2.7864910000     2.6787310000     0.4934530000
| 27> *
| 28>
| 29>                          ****END OF INPUT****
 Total Charge           Charge          ....    0
 Multiplicity           Mult            ....    1
 Number of Electrons    NEL             ....   52
 Basis Dimension        Dim             ....  138

MULLIKEN ATOMIC CHARGES
-----------------------
   0 C :    0.048437
   1 C :    0.049022
   2 N :   -0.103305
   3 N :   -0.083610
   4 C :    0.030046
   5 C :   -0.135427
   6 C :   -0.044826
   7 H :    0.028046
   8 H :    0.028065
   9 H :    0.026116
  10 H :    0.025784
  11 H :    0.113679
  12 H :   -0.005556
  13 H :    0.014624
  14 H :    0.008903
Sum of atomic charges:   -0.0000000

LOEWDIN ATOMIC CHARGES
----------------------
   0 C :   -0.056490
   1 C :    0.008266
   2 N :    0.010560
   3 N :   -0.030273
   4 C :   -0.060240
   5 C :   -0.054574
   6 C :   -0.075891
   7 H :    0.027065
   8 H :    0.032526
   9 H :    0.033730
  10 H :    0.034032
  11 H :    0.060777
  12 H :    0.021835
  13 H :    0.026849
  14 H :    0.021827

  Mayer bond orders larger than 0.1
B(  0-C ,  1-C ) :   1.0821 B(  0-C ,  7-H ) :   0.9577 B(  0-C ,  8-H ) :   0.9512
B(  0-C ,  9-H ) :   0.9507 B(  1-C ,  2-N ) :   0.9603 B(  1-C ,  5-C ) :   0.9881
B(  1-C , 10-H ) :   0.8954 B(  2-N ,  3-N ) :   1.1363 B(  2-N , 11-H ) :   0.9368
B(  3-N ,  4-C ) :   1.7523 B(  4-C ,  5-C ) :   1.0685 B(  4-C , 12-H ) :   0.9841
B(  5-C ,  6-C ) :   1.9047 B(  6-C , 13-H ) :   0.9295 B(  6-C , 14-H ) :   0.9312

FINAL SINGLE POINT ENERGY      -304.187673292394

DIPOLE MOMENT
-------------
                                X             Y             Z
Electronic contribution:      3.76232      -2.31605      -3.11097
Nuclear contribution   :     -4.38255       2.39462       3.68375
                        -----------------------------------------
Total Dipole Moment    :     -0.62023       0.07856       0.57278
                        -----------------------------------------
Magnitude (a.u.)       :      0.84790
Magnitude (Debye)      :      2.15520

                             ****ORCA TERMINATED NORMALLY****
TOTAL RUN TIME: 0 days 0 hours 0 minutes 7 seconds 180 msec
