                         Program Version 3.0.3 - RELEASE   -
|  1> ! RI PBE def2-SVP def2-SVP/J NBO PAL2
|  2> % maxcore 2000
|  3> % output
|  4>     # printlevel mini
|  5>     print[ P_Basis ] 0
|  6>     print[ P_SCFInfo ] 1
|  7>     print[ P_SCFIterInfo ] 1
|  8>     print[ P_OrbEn ] 0
|  9>     print[ P_Cartesian ] 0
| 10> end
| 11> *xyz 0 1
| 12>  C        1.1236530000     0.1530480000    -0.0196710000
| 13>  C        2.6124890000     0.0857210000     0.0743750000
| 14>  N        3.2411670000     1.1699510000     0.3151440000
| 15>  N        4.6011040000     1.1413400000     0.4517580000
| 16>  C        5.3204660000     0.0827020000    -0.2215400000
| 17>  C        4.7428320000    -1.2424030000     0.2332390000
| 18>  C        3.2560010000    -1.2648410000    -0.0946600000
| 19>  H        0.7874830000     1.1837210000     0.0865670000
| 20>  H        0.6524370000    -0.4552770000     0.7603690000
| 21>  H        0.7724180000    -0.2387690000    -0.9804930000
| 22>  H        4.9613000000     2.0653210000     0.2732780000
| 23>  H        6.3782660000     0.1690210000     0.0371940000
| 24>  H        5.2295210000     0.1644980000    -1.3178490000
| 25>  H        4.8916640000    -1.3336840000     1.3124490000
| 26>  H        5.2624240000    -2.0771240000    -0.2425540000
| 27>  H        2.7285390000    -1.9882560000     0.5370460000
| 28>  H        3.0879160000    -1.6025710000    -1.1250520000
| 29> *
| 30>
| 31>                          ****END OF INPUT****
 Total Charge           Charge          ....    0
 Multiplicity           Mult            ....    1
 Number of Electrons    NEL             ....   54
 Basis Dimension        Dim             ....  148

MULLIKEN ATOMIC CHARGES
-----------------------
   0 C :    0.082755
   1 C :   -0.273227
   2 N :   -0.077697
   3 N :   -0.114719
   4 C :    0.066614
   5 C :    0.007412
   6 C :    0.052284
   7 H :    0.018419
   8 H :    0.020213
   9 H :    0.014526
  10 H :    0.109257
  11 H :    0.014083
  12 H :    0.012118
  13 H :    0.022372
  14 H :    0.008441
  15 H :    0.018759
  16 H :    0.018389
Sum of atomic charges:    0.0000000

LOEWDIN ATOMIC CHARGES
----------------------
   0 C :   -0.063408
   1 C :   -0.073675
   2 N :   -0.062399
   3 N :   -0.014750
   4 C :    0.000830
   5 C :   -0.045895
   6 C :   -0.055297
   7 H :    0.033046
   8 H :    0.030863
   9 H :    0.029701
  10 H :    0.059337
  11 H :    0.025178
  12 H :    0.009846
  13 H :    0.029765
  14 H :    0.028037
  15 H :    0.035413
  16 H :    0.033408

  Mayer bond orders larger than 0.1
B(  0-C ,  1-C ) :   1.0866 B(  0-C ,  7-H ) :   0.9480 B(  0-C ,  8-H ) :   0.9428
B(  0-C ,  9-H ) :   0.9492 B(  1-C ,  2-N ) :   1.9221 B(  1-C ,  3-N ) :   0.1126
B(  1-C ,  6-C ) :   1.0079 B(  2-N ,  3-N ) :   1.0762 B(  3-N ,  4-C ) :   1.0354
B(  3-N , 10-H ) :   0.9422 B(  4-C ,  5-C ) :   1.0899 B(  4-C , 11-H ) :   0.9308
B(  4-C , 12-H ) :   0.9290 B(  5-C ,  6-C ) :   1.0962 B(  5-C , 13-H ) :   0.9320
B(  5-C , 14-H ) :   0.9264 B(  6-C , 15-H ) :   0.9143 B(  6-C , 16-H ) :   0.9146

FINAL SINGLE POINT ENERGY      -305.407352415585

DIPOLE MOMENT
-------------
                                X             Y             Z
Electronic contribution:      1.28253       3.57837       1.18415
Nuclear contribution   :     -0.82217      -4.03510      -1.54602
                        -----------------------------------------
Total Dipole Moment    :      0.46037      -0.45673      -0.36187
                        -----------------------------------------
Magnitude (a.u.)       :      0.74263
Magnitude (Debye)      :      1.88761

                             ****ORCA TERMINATED NORMALLY****
TOTAL RUN TIME: 0 days 0 hours 0 minutes 8 seconds 198 msec
