                         Program Version 3.0.3 - RELEASE   -
|  1> ! RI PBE def2-SVP def2-SVP/J NBO PAL2
|  2> % maxcore 2000
|  3> % output
|  4>     # printlevel mini
|  5>     print[ P_Basis ] 0
|  6>     print[ P_SCFInfo ] 1
|  7>     print[ P_SCFIterInfo ] 1
|  8>     print[ P_OrbEn ] 0
|  9>     print[ P_Cartesian ] 0
| 10> end
| 11> *xyz 0 1
| 12>  C        0.9815190000     0.1541600000    -0.2451510000
| 13>  C        2.4446660000     0.1090120000     0.0246530000
| 14>  N        3.1057640000     1.2013800000    -0.0070330000
| 15>  N        4.4569360000     1.1772160000     0.3445940000
| 16>  C        5.1195260000     0.1181400000     0.1053130000
| 17>  C        4.4870050000    -1.1526710000    -0.3639520000
| 18>  C        3.1131940000    -1.2116830000     0.2822560000
| 19>  H        0.6622860000     1.1803460000    -0.4204160000
| 20>  H        0.4264480000    -0.2553530000     0.6059460000
| 21>  H        0.7275030000    -0.4618690000    -1.1131750000
| 22>  H        6.1847810000     0.1576030000     0.3242630000
| 23>  H        5.1067870000    -2.0091990000    -0.0945810000
| 24>  H        4.3975980000    -1.1489220000    -1.4584100000
| 25>  H        3.2081690000    -1.3702910000     1.3645050000
| 26>  H        2.5060370000    -2.0291700000    -0.1099030000
| 27> *
| 28>
| 29>                          ****END OF INPUT****
 Total Charge           Charge          ....    0
 Multiplicity           Mult            ....    1
 Number of Electrons    NEL             ....   52
 Basis Dimension        Dim             ....  138

MULLIKEN ATOMIC CHARGES
-----------------------
   0 C :    0.079031
   1 C :   -0.240186
   2 N :   -0.063573
   3 N :   -0.066008
   4 C :   -0.056980
   5 C :    0.015290
   6 C :    0.072403
   7 H :    0.034395
   8 H :    0.036227
   9 H :    0.034017
  10 H :    0.024693
  11 H :    0.023574
  12 H :    0.052631
  13 H :    0.044867
  14 H :    0.009618
Sum of atomic charges:   -0.0000000

LOEWDIN ATOMIC CHARGES
----------------------
   0 C :   -0.062277
   1 C :   -0.014989
   2 N :   -0.064183
   3 N :   -0.046720
   4 C :   -0.009605
   5 C :   -0.062509
   6 C :   -0.050313
   7 H :    0.039605
   8 H :    0.042377
   9 H :    0.039534
  10 H :    0.022420
  11 H :    0.038596
  12 H :    0.046351
  13 H :    0.046273
  14 H :    0.035441

  Mayer bond orders larger than 0.1
B(  0-C ,  1-C ) :   1.0964 B(  0-C ,  7-H ) :   0.9457 B(  0-C ,  8-H ) :   0.9380
B(  0-C ,  9-H ) :   0.9398 B(  1-C ,  2-N ) :   1.9073 B(  1-C ,  6-C ) :   0.9965
B(  2-N ,  3-N ) :   1.0227 B(  3-N ,  4-C ) :   1.9213 B(  4-C ,  5-C ) :   1.0049
B(  4-C , 10-H ) :   0.9645 B(  5-C ,  6-C ) :   1.1036 B(  5-C , 11-H ) :   0.9188
B(  5-C , 12-H ) :   0.9075 B(  6-C , 13-H ) :   0.9006 B(  6-C , 14-H ) :   0.9146

FINAL SINGLE POINT ENERGY      -304.188399630076

DIPOLE MOMENT
-------------
                                X             Y             Z
Electronic contribution:      3.22459       4.32290       0.79811
Nuclear contribution   :     -3.44960      -5.83150      -0.95789
                        -----------------------------------------
Total Dipole Moment    :     -0.22502      -1.50859      -0.15977
                        -----------------------------------------
Magnitude (a.u.)       :      1.53363
Magnitude (Debye)      :      3.89817

                             ****ORCA TERMINATED NORMALLY****
TOTAL RUN TIME: 0 days 0 hours 0 minutes 7 seconds 418 msec
