                         Program Version 3.0.3 - RELEASE   -
|  1> ! RI PBE def2-SVP def2-SVP/J NBO PAL2
|  2> % maxcore 2000
|  3> % output
|  4>     # printlevel mini
|  5>     print[ P_Basis ] 0
|  6>     print[ P_SCFInfo ] 1
|  7>     print[ P_SCFIterInfo ] 1
|  8>     print[ P_OrbEn ] 0
|  9>     print[ P_Cartesian ] 0
| 10> end
| 11> *xyz 0 1
| 12>  C        1.0394760000     0.1364170000     0.0536620000
| 13>  C        2.5142700000    -0.0155370000     0.0611280000
| 14>  N        3.3152360000     0.9840780000     0.0694200000
| 15>  N        4.6521920000     0.5158540000     0.0748950000
| 16>  C        4.6545230000    -0.7650890000     0.0698920000
| 17>  C        5.9018900000    -1.5664800000     0.0735720000
| 18>  C        3.2639270000    -1.3054370000     0.0601270000
| 19>  H        0.7786250000     1.1939650000     0.0563910000
| 20>  H        0.5901950000    -0.3428340000     0.9286390000
| 21>  H        0.5998090000    -0.3359250000    -0.8299140000
| 22>  H        6.7655220000    -0.9027450000     0.0809100000
| 23>  H        5.9572290000    -2.2121780000    -0.8079790000
| 24>  H        5.9476000000    -2.2190890000     0.9505750000
| 25>  H        3.0425860000    -1.9272250000     0.9345900000
| 26>  H        3.0522090000    -1.9202840000    -0.8215980000
| 27> *
| 28>
| 29>                          ****END OF INPUT****
 Total Charge           Charge          ....    0
 Multiplicity           Mult            ....    1
 Number of Electrons    NEL             ....   52
 Basis Dimension        Dim             ....  138

MULLIKEN ATOMIC CHARGES
-----------------------
   0 C :    0.110389
   1 C :   -0.220533
   2 N :   -0.085917
   3 N :   -0.085561
   4 C :   -0.216739
   5 C :    0.104662
   6 C :    0.072734
   7 H :    0.035767
   8 H :    0.031878
   9 H :    0.031670
  10 H :    0.035101
  11 H :    0.033205
  12 H :    0.033289
  13 H :    0.060101
  14 H :    0.059956
Sum of atomic charges:   -0.0000000

LOEWDIN ATOMIC CHARGES
----------------------
   0 C :   -0.062629
   1 C :   -0.025798
   2 N :   -0.068856
   3 N :   -0.068512
   4 C :   -0.025498
   5 C :   -0.063645
   6 C :   -0.065989
   7 H :    0.043819
   8 H :    0.041596
   9 H :    0.041555
  10 H :    0.043942
  11 H :    0.041694
  12 H :    0.041710
  13 H :    0.063315
  14 H :    0.063296

  Mayer bond orders larger than 0.1
B(  0-C ,  1-C ) :   1.1033 B(  0-C ,  7-H ) :   0.9377 B(  0-C ,  8-H ) :   0.9375
B(  0-C ,  9-H ) :   0.9375 B(  1-C ,  2-N ) :   1.8908 B(  1-C ,  6-C ) :   1.0129
B(  2-N ,  3-N ) :   1.0187 B(  3-N ,  4-C ) :   1.8934 B(  4-C ,  5-C ) :   1.1029
B(  4-C ,  6-C ) :   1.0112 B(  5-C , 10-H ) :   0.9365 B(  5-C , 11-H ) :   0.9383
B(  5-C , 12-H ) :   0.9383 B(  6-C , 13-H ) :   0.8854 B(  6-C , 14-H ) :   0.8854

FINAL SINGLE POINT ENERGY      -304.200811840244

DIPOLE MOMENT
-------------
                                X             Y             Z
Electronic contribution:      1.44030       4.12202       0.02413
Nuclear contribution   :     -2.02408      -5.77990      -0.03378
                        -----------------------------------------
Total Dipole Moment    :     -0.58378      -1.65788      -0.00965
                        -----------------------------------------
Magnitude (a.u.)       :      1.75768
Magnitude (Debye)      :      4.46767

                             ****ORCA TERMINATED NORMALLY****
TOTAL RUN TIME: 0 days 0 hours 0 minutes 6 seconds 712 msec
