                         Program Version 3.0.3 - RELEASE   -
|  1> ! RI PBE def2-SVP def2-SVP/J NBO PAL2
|  2> % maxcore 2000
|  3> % output
|  4>     # printlevel mini
|  5>     print[ P_Basis ] 0
|  6>     print[ P_SCFInfo ] 1
|  7>     print[ P_SCFIterInfo ] 1
|  8>     print[ P_OrbEn ] 0
|  9>     print[ P_Cartesian ] 0
| 10> end
| 11> *xyz 0 1
| 12>  C        0.8804030000     0.0111340000    -0.0390150000
| 13>  C        2.3722050000     0.0028810000    -0.0472820000
| 14>  N        2.9933120000     1.1272550000    -0.0506970000
| 15>  N        4.3274460000     1.1417930000    -0.0579870000
| 16>  C        5.2296760000     0.0038510000    -0.0635480000
| 17>  C        4.4381850000    -1.2641710000    -0.0588410000
| 18>  C        3.1077770000    -1.2547360000    -0.0512960000
| 19>  H        0.5166810000     1.0381660000    -0.0370000000
| 20>  H        0.4831830000    -0.5019410000     0.8435430000
| 21>  H        0.4734250000    -0.5019430000    -0.9171140000
| 22>  H        4.7116960000     2.0668690000    -0.0603240000
| 23>  H        5.9004870000     0.0330180000     0.8114710000
| 24>  H        5.8899310000     0.0330900000    -0.9465740000
| 25>  H        4.9952800000    -2.1947640000    -0.0619130000
| 26>  H        2.5504130000    -2.1856110000    -0.0480230000
| 27> *
| 28>
| 29>                          ****END OF INPUT****
 Total Charge           Charge          ....    0
 Multiplicity           Mult            ....    1
 Number of Electrons    NEL             ....   52
 Basis Dimension        Dim             ....  138

MULLIKEN ATOMIC CHARGES
-----------------------
   0 C :    0.072246
   1 C :   -0.219848
   2 N :   -0.038555
   3 N :   -0.147789
   4 C :    0.236131
   5 C :   -0.141901
   6 C :    0.057270
   7 H :    0.018385
   8 H :    0.021277
   9 H :    0.021367
  10 H :    0.116951
  11 H :    0.015299
  12 H :    0.014947
  13 H :    0.001616
  14 H :   -0.027396
Sum of atomic charges:   -0.0000000

LOEWDIN ATOMIC CHARGES
----------------------
   0 C :   -0.064328
   1 C :   -0.096050
   2 N :   -0.033813
   3 N :    0.018559
   4 C :    0.013907
   5 C :   -0.033915
   6 C :   -0.049214
   7 H :    0.033938
   8 H :    0.030459
   9 H :    0.030473
  10 H :    0.063663
  11 H :    0.014860
  12 H :    0.014772
  13 H :    0.027830
  14 H :    0.028858

  Mayer bond orders larger than 0.1
B(  0-C ,  1-C ) :   1.0786 B(  0-C ,  7-H ) :   0.9489 B(  0-C ,  8-H ) :   0.9477
B(  0-C ,  9-H ) :   0.9477 B(  1-C ,  2-N ) :   1.8166 B(  1-C ,  3-N ) :   0.1343
B(  1-C ,  6-C ) :   1.0435 B(  2-N ,  3-N ) :   1.1505 B(  3-N ,  4-C ) :   0.9735
B(  3-N , 10-H ) :   0.9479 B(  4-C ,  5-C ) :   1.0299 B(  4-C , 11-H ) :   0.9207
B(  4-C , 12-H ) :   0.9205 B(  5-C ,  6-C ) :   1.8186 B(  5-C , 13-H ) :   0.9559
B(  6-C , 14-H ) :   0.9701

FINAL SINGLE POINT ENERGY      -304.188074285293

DIPOLE MOMENT
-------------
                                X             Y             Z
Electronic contribution:      1.73291       1.78201      -0.00888
Nuclear contribution   :     -1.09766      -2.02562       0.00514
                        -----------------------------------------
Total Dipole Moment    :      0.63525      -0.24361      -0.00374
                        -----------------------------------------
Magnitude (a.u.)       :      0.68037
Magnitude (Debye)      :      1.72937

                             ****ORCA TERMINATED NORMALLY****
TOTAL RUN TIME: 0 days 0 hours 0 minutes 7 seconds 260 msec
