                         Program Version 3.0.3 - RELEASE   -
|  1> ! RI PBE def2-SVP def2-SVP/J NBO PAL2
|  2> % maxcore 2000
|  3> % output
|  4>     # printlevel mini
|  5>     print[ P_Basis ] 0
|  6>     print[ P_SCFInfo ] 1
|  7>     print[ P_SCFIterInfo ] 1
|  8>     print[ P_OrbEn ] 0
|  9>     print[ P_Cartesian ] 0
| 10> end
| 11> *xyz 0 1
| 12>  C        1.0353550000     0.0027180000    -0.0868830000
| 13>  C        2.5257830000    -0.0756290000     0.2435250000
| 14>  N        3.2997910000     1.0397930000    -0.2852020000
| 15>  N        3.6216900000     1.1125850000    -1.5859650000
| 16>  C        3.7860090000    -0.0031800000    -2.2073390000
| 17>  C        3.6904070000    -1.2779380000    -1.5312260000
| 18>  C        3.1533590000    -1.3243790000    -0.3096520000
| 19>  H        0.5847110000     0.8998160000     0.3476940000
| 20>  H        0.5114520000    -0.8694760000     0.3140110000
| 21>  H        0.8843510000     0.0230910000    -1.1681110000
| 22>  H        2.6463830000    -0.0472960000     1.3315250000
| 23>  H        3.0670630000     1.9476320000     0.0838430000
| 24>  H        4.0998910000     0.0682020000    -3.2421360000
| 25>  H        4.1032900000    -2.1615480000    -2.0049820000
| 26>  H        3.0997550000    -2.2428020000     0.2638880000
| 27> *
| 28>
| 29>                          ****END OF INPUT****
 Total Charge           Charge          ....    0
 Multiplicity           Mult            ....    1
 Number of Electrons    NEL             ....   52
 Basis Dimension        Dim             ....  138

MULLIKEN ATOMIC CHARGES
-----------------------
   0 C :    0.054943
   1 C :   -0.010057
   2 N :   -0.078775
   3 N :   -0.073750
   4 C :   -0.034458
   5 C :    0.006456
   6 C :   -0.044467
   7 H :    0.011764
   8 H :    0.016206
   9 H :    0.031623
  10 H :    0.013298
  11 H :    0.116765
  12 H :   -0.002467
  13 H :   -0.007933
  14 H :    0.000851
Sum of atomic charges:   -0.0000000

LOEWDIN ATOMIC CHARGES
----------------------
   0 C :   -0.074066
   1 C :   -0.008237
   2 N :    0.036187
   3 N :   -0.036459
   4 C :   -0.079259
   5 C :   -0.056238
   6 C :   -0.032570
   7 H :    0.022359
   8 H :    0.030840
   9 H :    0.031796
  10 H :    0.027112
  11 H :    0.063725
  12 H :    0.018687
  13 H :    0.030439
  14 H :    0.025684

  Mayer bond orders larger than 0.1
B(  0-C ,  1-C ) :   1.0612 B(  0-C ,  7-H ) :   0.9508 B(  0-C ,  8-H ) :   0.9500
B(  0-C ,  9-H ) :   0.9562 B(  1-C ,  2-N ) :   1.0038 B(  1-C ,  6-C ) :   1.0093
B(  1-C , 10-H ) :   0.9100 B(  2-N ,  3-N ) :   1.1487 B(  2-N ,  4-C ) :   0.1122
B(  2-N , 11-H ) :   0.9396 B(  3-N ,  4-C ) :   1.7736 B(  4-C ,  5-C ) :   1.0851
B(  4-C , 12-H ) :   0.9687 B(  5-C ,  6-C ) :   1.7818 B(  5-C , 13-H ) :   0.9697
B(  6-C , 14-H ) :   0.9714

FINAL SINGLE POINT ENERGY      -304.188716768179

DIPOLE MOMENT
-------------
                                X             Y             Z
Electronic contribution:      4.09948       1.60348      -1.63637
Nuclear contribution   :     -4.54377      -1.87738       2.19231
                        -----------------------------------------
Total Dipole Moment    :     -0.44429      -0.27390       0.55594
                        -----------------------------------------
Magnitude (a.u.)       :      0.76255
Magnitude (Debye)      :      1.93825

                             ****ORCA TERMINATED NORMALLY****
TOTAL RUN TIME: 0 days 0 hours 0 minutes 7 seconds 102 msec
