                         Program Version 3.0.3 - RELEASE   -
|  1> ! RI PBE def2-SVP def2-SVP/J NBO PAL2
|  2> % maxcore 2000
|  3> % output
|  4>     # printlevel mini
|  5>     print[ P_Basis ] 0
|  6>     print[ P_SCFInfo ] 1
|  7>     print[ P_SCFIterInfo ] 1
|  8>     print[ P_OrbEn ] 0
|  9>     print[ P_Cartesian ] 0
| 10> end
| 11> *xyz 0 1
| 12>  C        2.6301300000     1.2629340000    -0.3624870000
| 13>  C        1.9458970000    -0.0951670000    -0.3569630000
| 14>  C        2.7949430000    -1.1752180000     0.2572720000
| 15>  C        2.5932170000    -2.6131990000    -0.1136960000
| 16>  C        3.8280930000    -1.8819420000    -0.5622210000
| 17>  C        5.1601270000    -2.2455690000     0.0238050000
| 18>  N        5.7537890000    -3.3527610000    -0.7108140000
| 19>  H        1.9946310000     2.0292610000    -0.8125290000
| 20>  H        3.5655200000     1.2275400000    -0.9269990000
| 21>  H        2.8705940000     1.5862220000     0.6541670000
| 22>  H        1.6917080000    -0.3850200000    -1.3827690000
| 23>  H        0.9949460000    -0.0278860000     0.1840410000
| 24>  H        3.0685490000    -0.9965950000     1.2949940000
| 25>  H        1.8352250000    -2.8439870000    -0.8533180000
| 26>  H        2.7022350000    -3.3604670000     0.6650190000
| 27>  H        3.8649090000    -1.6178720000    -1.6156320000
| 28>  H        5.0228630000    -2.4454870000     1.0999480000
| 29>  H        5.8394420000    -1.3892010000    -0.0513070000
| 30>  H        5.1472710000    -4.1629750000    -0.6631630000
| 31>  H        6.6430220000    -3.6192210000    -0.3072470000
| 32> *
| 33>
| 34>                          ****END OF INPUT****
 Total Charge           Charge          ....    0
 Multiplicity           Mult            ....    1
 Number of Electrons    NEL             ....   56
 Basis Dimension        Dim             ....  163

MULLIKEN ATOMIC CHARGES
-----------------------
   0 C :   -0.016084
   1 C :    0.061642
   2 C :   -0.133993
   3 C :    0.013904
   4 C :   -0.154164
   5 C :    0.157409
   6 N :   -0.208253
   7 H :    0.020629
   8 H :    0.019906
   9 H :    0.014563
  10 H :   -0.007923
  11 H :    0.011641
  12 H :    0.006947
  13 H :    0.022440
  14 H :    0.018971
  15 H :    0.016853
  16 H :   -0.024910
  17 H :    0.011547
  18 H :    0.083780
  19 H :    0.085093
Sum of atomic charges:    0.0000000

LOEWDIN ATOMIC CHARGES
----------------------
   0 C :   -0.066959
   1 C :   -0.036697
   2 C :   -0.039688
   3 C :   -0.049353
   4 C :   -0.046946
   5 C :    0.011252
   6 N :   -0.112692
   7 H :    0.026034
   8 H :    0.025550
   9 H :    0.024222
  10 H :    0.023656
  11 H :    0.025931
  12 H :    0.021888
  13 H :    0.025284
  14 H :    0.022387
  15 H :    0.026119
  16 H :   -0.002245
  17 H :    0.022626
  18 H :    0.048898
  19 H :    0.050733

  Mayer bond orders larger than 0.1
B(  0-C ,  1-C ) :   1.1220 B(  0-C ,  7-H ) :   0.9595 B(  0-C ,  8-H ) :   0.9659
B(  0-C ,  9-H ) :   0.9629 B(  1-C ,  2-C ) :   1.0824 B(  1-C , 10-H ) :   0.9178
B(  1-C , 11-H ) :   0.9275 B(  2-C ,  3-C ) :   1.0036 B(  2-C ,  4-C ) :   0.9257
B(  2-C , 12-H ) :   0.9341 B(  3-C ,  4-C ) :   1.0035 B(  3-C , 13-H ) :   0.9335
B(  3-C , 14-H ) :   0.9330 B(  4-C ,  5-C ) :   1.0829 B(  4-C , 15-H ) :   0.9370
B(  5-C ,  6-N ) :   1.0905 B(  5-C , 16-H ) :   0.9074 B(  5-C , 17-H ) :   0.9267
B(  6-N , 18-H ) :   0.9700 B(  6-N , 19-H ) :   0.9613

FINAL SINGLE POINT ENERGY      -290.571921991745

DIPOLE MOMENT
-------------
                                X             Y             Z
Electronic contribution:      1.05124      -2.86509      -0.25572
Nuclear contribution   :     -1.05669       2.69999       0.65735
                        -----------------------------------------
Total Dipole Moment    :     -0.00545      -0.16510       0.40163
                        -----------------------------------------
Magnitude (a.u.)       :      0.43428
Magnitude (Debye)      :      1.10385

                             ****ORCA TERMINATED NORMALLY****
TOTAL RUN TIME: 0 days 0 hours 0 minutes 8 seconds 32 msec
