                         Program Version 3.0.3 - RELEASE   -
|  1> ! RI PBE def2-SVP def2-SVP/J NBO PAL2
|  2> % maxcore 2000
|  3> % output
|  4>     # printlevel mini
|  5>     print[ P_Basis ] 0
|  6>     print[ P_SCFInfo ] 1
|  7>     print[ P_SCFIterInfo ] 1
|  8>     print[ P_OrbEn ] 0
|  9>     print[ P_Cartesian ] 0
| 10> end
| 11> *xyz 0 1
| 12>  C        1.3831720000    -0.6490780000    -0.3570750000
| 13>  C        2.4482320000    -0.0332820000     0.1370440000
| 14>  C        3.2474150000     0.9945940000    -0.5618070000
| 15>  C        2.7248540000     1.7768920000    -1.7115470000
| 16>  C        2.8815330000     2.4598480000    -0.3752270000
| 17>  C        3.9214720000     3.4232460000    -0.1869750000
| 18>  N        4.7661060000     4.1911780000    -0.0364550000
| 19>  H        0.8424360000    -1.3861570000     0.2242240000
| 20>  H        1.0167360000    -0.4489860000    -1.3582740000
| 21>  H        2.7898270000    -0.2827990000     1.1391520000
| 22>  H        4.3185360000     0.8169490000    -0.5612140000
| 23>  H        1.7073640000     1.6065270000    -2.0378730000
| 24>  H        3.4170870000     2.0568960000    -2.4942380000
| 25>  H        1.9729300000     2.6608730000     0.1800660000
| 26> *
| 27>
| 28>                          ****END OF INPUT****
 Total Charge           Charge          ....    0
 Multiplicity           Mult            ....    1
 Number of Electrons    NEL             ....   50
 Basis Dimension        Dim             ....  133

MULLIKEN ATOMIC CHARGES
-----------------------
   0 C :   -0.029308
   1 C :   -0.011878
   2 C :   -0.063953
   3 C :    0.060723
   4 C :   -0.207145
   5 C :   -0.094772
   6 N :    0.056900
   7 H :    0.036355
   8 H :    0.022815
   9 H :    0.014608
  10 H :    0.053284
  11 H :    0.042458
  12 H :    0.049261
  13 H :    0.070652
Sum of atomic charges:   -0.0000000

LOEWDIN ATOMIC CHARGES
----------------------
   0 C :   -0.051095
   1 C :   -0.025581
   2 C :   -0.016193
   3 C :   -0.004380
   4 C :   -0.055752
   5 C :   -0.042100
   6 N :   -0.069121
   7 H :    0.030295
   8 H :    0.023303
   9 H :    0.033981
  10 H :    0.046113
  11 H :    0.035139
  12 H :    0.040985
  13 H :    0.054405

  Mayer bond orders larger than 0.1
B(  0-C ,  1-C ) :   1.9949 B(  0-C ,  7-H ) :   0.9454 B(  0-C ,  8-H ) :   0.9376
B(  1-C ,  2-C ) :   1.0628 B(  1-C ,  9-H ) :   0.9571 B(  2-C ,  3-C ) :   1.0105
B(  2-C ,  4-C ) :   0.9094 B(  2-C , 10-H ) :   0.9232 B(  3-C ,  4-C ) :   0.9878
B(  3-C , 11-H ) :   0.9314 B(  3-C , 12-H ) :   0.9311 B(  4-C ,  5-C ) :   1.1369
B(  4-C , 13-H ) :   0.9152 B(  5-C ,  6-N ) :   3.0200

FINAL SINGLE POINT ENERGY      -286.947582556487

DIPOLE MOMENT
-------------
                                X             Y             Z
Electronic contribution:      3.83931       5.38361       1.34447
Nuclear contribution   :     -4.83397      -6.52284      -1.62949
                        -----------------------------------------
Total Dipole Moment    :     -0.99466      -1.13922      -0.28502
                        -----------------------------------------
Magnitude (a.u.)       :      1.53897
Magnitude (Debye)      :      3.91174

                             ****ORCA TERMINATED NORMALLY****
TOTAL RUN TIME: 0 days 0 hours 0 minutes 5 seconds 723 msec
