                         Program Version 3.0.3 - RELEASE   -
|  1> ! RI PBE def2-SVP def2-SVP/J NBO PAL2
|  2> % maxcore 2000
|  3> % output
|  4>     # printlevel mini
|  5>     print[ P_Basis ] 0
|  6>     print[ P_SCFInfo ] 1
|  7>     print[ P_SCFIterInfo ] 1
|  8>     print[ P_OrbEn ] 0
|  9>     print[ P_Cartesian ] 0
| 10> end
| 11> *xyz 0 1
| 12>  C        0.9516550000    -0.0263690000    -0.0973040000
| 13>  C        2.1514000000    -0.0668550000    -0.0811920000
| 14>  C        3.5807700000    -0.1183730000    -0.0658920000
| 15>  C        4.3269310000    -0.8330690000    -1.1516940000
| 16>  C        4.3491420000     0.6679910000    -1.1197530000
| 17>  C        5.5437570000     1.3490020000    -0.7245190000
| 18>  N        6.5070020000     1.8891070000    -0.4003790000
| 19>  H       -0.1121480000     0.0100090000    -0.1071320000
| 20>  H        4.0365780000    -0.1343790000     0.9177520000
| 21>  H        3.7452050000    -1.2915220000    -1.9396090000
| 22>  H        5.2341850000    -1.3515120000    -0.8724610000
| 23>  H        3.7496140000     1.1905790000    -1.8546160000
| 24> *
| 25>
| 26>                          ****END OF INPUT****
 Total Charge           Charge          ....    0
 Multiplicity           Mult            ....    1
 Number of Electrons    NEL             ....   48
 Basis Dimension        Dim             ....  123

MULLIKEN ATOMIC CHARGES
-----------------------
   0 C :   -0.445213
   1 C :    0.448710
   2 C :   -0.134656
   3 C :    0.075070
   4 C :   -0.185297
   5 C :   -0.102138
   6 N :    0.066305
   7 H :    0.008470
   8 H :    0.074332
   9 H :    0.056374
  10 H :    0.058691
  11 H :    0.079351
Sum of atomic charges:   -0.0000000

LOEWDIN ATOMIC CHARGES
----------------------
   0 C :   -0.062405
   1 C :   -0.020436
   2 C :   -0.022051
   3 C :    0.009258
   4 C :   -0.046342
   5 C :   -0.039628
   6 N :   -0.060686
   7 H :    0.038390
   8 H :    0.056928
   9 H :    0.043169
  10 H :    0.043784
  11 H :    0.060020

  Mayer bond orders larger than 0.1
B(  0-C ,  1-C ) :   2.2852 B(  0-C ,  7-H ) :   1.0979 B(  1-C ,  2-C ) :   1.0310
B(  1-C ,  7-H ) :  -0.1069 B(  2-C ,  3-C ) :   0.9699 B(  2-C ,  4-C ) :   0.9043
B(  2-C ,  8-H ) :   0.9189 B(  3-C ,  4-C ) :   0.9908 B(  3-C ,  9-H ) :   0.9389
B(  3-C , 10-H ) :   0.9356 B(  4-C ,  5-C ) :   1.1399 B(  4-C , 11-H ) :   0.9147
B(  5-C ,  6-N ) :   3.0231

FINAL SINGLE POINT ENERGY      -285.703176337579

DIPOLE MOMENT
-------------
                                X             Y             Z
Electronic contribution:      1.79708       2.51088       0.75513
Nuclear contribution   :     -2.84505      -3.35289      -1.12434
                        -----------------------------------------
Total Dipole Moment    :     -1.04797      -0.84201      -0.36921
                        -----------------------------------------
Magnitude (a.u.)       :      1.39411
Magnitude (Debye)      :      3.54354

                             ****ORCA TERMINATED NORMALLY****
TOTAL RUN TIME: 0 days 0 hours 0 minutes 5 seconds 483 msec
