                         Program Version 3.0.3 - RELEASE   -
|  1> ! RI PBE def2-SVP def2-SVP/J NBO PAL2
|  2> % maxcore 2000
|  3> % output
|  4>     # printlevel mini
|  5>     print[ P_Basis ] 0
|  6>     print[ P_SCFInfo ] 1
|  7>     print[ P_SCFIterInfo ] 1
|  8>     print[ P_OrbEn ] 0
|  9>     print[ P_Cartesian ] 0
| 10> end
| 11> *xyz 0 1
| 12>  C        1.2692790000    -0.2444760000     0.4683280000
| 13>  C        2.5134850000     0.1543240000    -0.3112220000
| 14>  C        3.2220810000     1.3432040000     0.2799830000
| 15>  C        4.1310400000     2.2111200000    -0.5535830000
| 16>  C        2.8665690000     2.7863420000    -0.0050370000
| 17>  C        1.7457180000     3.1335000000    -0.9453510000
| 18>  N        3.0086180000     3.7784260000     1.0326570000
| 19>  H        0.7907730000    -1.1261010000     0.0350750000
| 20>  H        0.5349450000     0.5649350000     0.4784300000
| 21>  H        1.5159850000    -0.4787410000     1.5077470000
| 22>  H        2.2472720000     0.3589070000    -1.3528370000
| 23>  H        3.2105440000    -0.6915710000    -0.3465050000
| 24>  H        3.5631580000     1.1810190000     1.3009390000
| 25>  H        4.1720150000     2.0102850000    -1.6187100000
| 26>  H        5.0728500000     2.5421320000    -0.1296070000
| 27>  H        1.6358940000     2.3969770000    -1.7416340000
| 28>  H        1.9347450000     4.1089050000    -1.3992190000
| 29>  H        0.7920830000     3.1941560000    -0.4109100000
| 30>  H        3.8481030000     3.6152790000     1.5744600000
| 31>  H        2.2255530000     3.7280990000     1.6756880000
| 32> *
| 33>
| 34>                          ****END OF INPUT****
 Total Charge           Charge          ....    0
 Multiplicity           Mult            ....    1
 Number of Electrons    NEL             ....   56
 Basis Dimension        Dim             ....  163

MULLIKEN ATOMIC CHARGES
-----------------------
   0 C :   -0.013300
   1 C :    0.052135
   2 C :   -0.110234
   3 C :    0.038155
   4 C :   -0.243693
   5 C :    0.119741
   6 N :   -0.108335
   7 H :    0.015971
   8 H :    0.021711
   9 H :    0.012540
  10 H :   -0.005927
  11 H :    0.011849
  12 H :   -0.010151
  13 H :    0.021053
  14 H :    0.013679
  15 H :   -0.005129
  16 H :    0.021600
  17 H :    0.011072
  18 H :    0.072199
  19 H :    0.085065
Sum of atomic charges:    0.0000000

LOEWDIN ATOMIC CHARGES
----------------------
   0 C :   -0.066845
   1 C :   -0.042638
   2 C :   -0.059060
   3 C :   -0.044619
   4 C :   -0.025710
   5 C :   -0.051227
   6 N :   -0.078056
   7 H :    0.025358
   8 H :    0.024518
   9 H :    0.023858
  10 H :    0.022435
  11 H :    0.026871
  12 H :    0.017181
  13 H :    0.025516
  14 H :    0.022381
  15 H :    0.024156
  16 H :    0.031804
  17 H :    0.023805
  18 H :    0.048641
  19 H :    0.051630

  Mayer bond orders larger than 0.1
B(  0-C ,  1-C ) :   1.1160 B(  0-C ,  7-H ) :   0.9584 B(  0-C ,  8-H ) :   0.9684
B(  0-C ,  9-H ) :   0.9611 B(  1-C ,  2-C ) :   1.0874 B(  1-C , 10-H ) :   0.9156
B(  1-C , 11-H ) :   0.9197 B(  2-C ,  3-C ) :   0.9632 B(  2-C ,  4-C ) :   0.8975
B(  2-C , 12-H ) :   0.9251 B(  3-C ,  4-C ) :   0.9828 B(  3-C , 13-H ) :   0.9370
B(  3-C , 14-H ) :   0.9282 B(  4-C ,  5-C ) :   1.1008 B(  4-C ,  6-N ) :   1.1085
B(  5-C , 15-H ) :   0.9369 B(  5-C , 16-H ) :   0.9460 B(  5-C , 17-H ) :   0.9515
B(  6-N , 18-H ) :   0.9524 B(  6-N , 19-H ) :   0.9653

FINAL SINGLE POINT ENERGY      -290.574330298008

DIPOLE MOMENT
-------------
                                X             Y             Z
Electronic contribution:      2.71474       2.59816       0.81913
Nuclear contribution   :     -2.75769      -2.93091      -0.54504
                        -----------------------------------------
Total Dipole Moment    :     -0.04295      -0.33275       0.27408
                        -----------------------------------------
Magnitude (a.u.)       :      0.43323
Magnitude (Debye)      :      1.10119

                             ****ORCA TERMINATED NORMALLY****
TOTAL RUN TIME: 0 days 0 hours 0 minutes 8 seconds 766 msec
