                         Program Version 3.0.3 - RELEASE   -
|  1> ! RI PBE def2-SVP def2-SVP/J NBO PAL2
|  2> % maxcore 2000
|  3> % output
|  4>     # printlevel mini
|  5>     print[ P_Basis ] 0
|  6>     print[ P_SCFInfo ] 1
|  7>     print[ P_SCFIterInfo ] 1
|  8>     print[ P_OrbEn ] 0
|  9>     print[ P_Cartesian ] 0
| 10> end
| 11> *xyz 0 1
| 12>  C        2.9214810000     1.2667520000     0.3342040000
| 13>  C        2.4427400000    -0.1413460000     0.0199150000
| 14>  C        2.9799450000    -1.1718580000     0.9740900000
| 15>  C        3.1197610000    -2.5966340000     0.5725190000
| 16>  C        4.3586540000    -1.7452960000     0.7307530000
| 17>  C        5.2342220000    -1.9799740000     1.8369980000
| 18>  N        5.9319670000    -2.1669810000     2.7337780000
| 19>  H        2.5114050000     1.9901840000    -0.3734960000
| 20>  H        4.0114550000     1.3327910000     0.2889620000
| 21>  H        2.6145200000     1.5724630000     1.3377680000
| 22>  H        2.7308070000    -0.4160320000    -1.0013680000
| 23>  H        1.3480830000    -0.1776780000     0.0462470000
| 24>  H        2.7458190000    -0.9995970000     2.0202430000
| 25>  H        2.8564880000    -2.8713160000    -0.4418420000
| 26>  H        2.9523830000    -3.3664480000     1.3142520000
| 27>  H        4.8635610000    -1.4353280000    -0.1775330000
| 28> *
| 29>
| 30>                          ****END OF INPUT****
 Total Charge           Charge          ....    0
 Multiplicity           Mult            ....    1
 Number of Electrons    NEL             ....   52
 Basis Dimension        Dim             ....  143

MULLIKEN ATOMIC CHARGES
-----------------------
   0 C :   -0.017380
   1 C :    0.035569
   2 C :   -0.127476
   3 C :    0.069648
   4 C :   -0.214587
   5 C :   -0.102333
   6 N :    0.056628
   7 H :    0.028482
   8 H :    0.030686
   9 H :    0.023844
  10 H :   -0.000484
  11 H :    0.033985
  12 H :    0.037693
  13 H :    0.036112
  14 H :    0.048161
  15 H :    0.061450
Sum of atomic charges:   -0.0000000

LOEWDIN ATOMIC CHARGES
----------------------
   0 C :   -0.064598
   1 C :   -0.037716
   2 C :   -0.014519
   3 C :   -0.008564
   4 C :   -0.068458
   5 C :   -0.040542
   6 N :   -0.074888
   7 H :    0.030445
   8 H :    0.028869
   9 H :    0.029087
  10 H :    0.025915
  11 H :    0.034582
  12 H :    0.036661
  13 H :    0.033998
  14 H :    0.039011
  15 H :    0.050715

  Mayer bond orders larger than 0.1
B(  0-C ,  1-C ) :   1.1196 B(  0-C ,  7-H ) :   0.9584 B(  0-C ,  8-H ) :   0.9674
B(  0-C ,  9-H ) :   0.9640 B(  1-C ,  2-C ) :   1.0773 B(  1-C , 10-H ) :   0.9169
B(  1-C , 11-H ) :   0.9308 B(  2-C ,  3-C ) :   0.9939 B(  2-C ,  4-C ) :   0.9195
B(  2-C , 12-H ) :   0.9398 B(  3-C ,  4-C ) :   0.9964 B(  3-C , 13-H ) :   0.9333
B(  3-C , 14-H ) :   0.9354 B(  4-C ,  5-C ) :   1.1510 B(  4-C , 15-H ) :   0.9091
B(  5-C ,  6-N ) :   3.0244

FINAL SINGLE POINT ENERGY      -288.172806704254

DIPOLE MOMENT
-------------
                                X             Y             Z
Electronic contribution:      6.02075      -5.41447       4.45190
Nuclear contribution   :     -7.20136       5.76652      -5.59424
                        -----------------------------------------
Total Dipole Moment    :     -1.18061       0.35204      -1.14235
                        -----------------------------------------
Magnitude (a.u.)       :      1.68010
Magnitude (Debye)      :      4.27047

                             ****ORCA TERMINATED NORMALLY****
TOTAL RUN TIME: 0 days 0 hours 0 minutes 7 seconds 322 msec
