                         Program Version 3.0.3 - RELEASE   -
|  1> ! RI PBE def2-SVP def2-SVP/J NBO PAL2
|  2> % maxcore 2000
|  3> % output
|  4>     # printlevel mini
|  5>     print[ P_Basis ] 0
|  6>     print[ P_SCFInfo ] 1
|  7>     print[ P_SCFIterInfo ] 1
|  8>     print[ P_OrbEn ] 0
|  9>     print[ P_Cartesian ] 0
| 10> end
| 11> *xyz 0 1
| 12>  C        1.3438400000     0.4858340000    -0.5522400000
| 13>  C        1.9118870000    -0.6251050000     0.3173780000
| 14>  C        2.8957640000    -1.4960350000    -0.4139950000
| 15>  C        3.1774940000    -2.8944310000     0.0490070000
| 16>  C        2.4251400000    -2.6661820000    -1.2242680000
| 17>  N        3.0916380000    -2.9507810000    -2.4534530000
| 18>  C        2.5132050000    -2.2729000000    -3.5939800000
| 19>  H        0.6347110000     1.1053370000     0.0019570000
| 20>  H        0.8235440000     0.0761410000    -1.4221990000
| 21>  H        2.1386730000     1.1399810000    -0.9210520000
| 22>  H        1.0964230000    -1.2503700000     0.6987400000
| 23>  H        2.3963760000    -0.1919300000     1.1999780000
| 24>  H        3.7482550000    -0.9775000000    -0.8438570000
| 25>  H        2.6280270000    -3.2684030000     0.9052830000
| 26>  H        4.1917670000    -3.2617510000    -0.0446800000
| 27>  H        1.3470880000    -2.8544080000    -1.1859330000
| 28>  H        3.1158650000    -3.9501700000    -2.6124280000
| 29>  H        2.6304590000    -1.1930410000    -3.4717090000
| 30>  H        1.4393380000    -2.4759310000    -3.7389320000
| 31>  H        3.0419160000    -2.5645660000    -4.5038260000
| 32> *
| 33>
| 34>                          ****END OF INPUT****
 Total Charge           Charge          ....    0
 Multiplicity           Mult            ....    1
 Number of Electrons    NEL             ....   56
 Basis Dimension        Dim             ....  163

MULLIKEN ATOMIC CHARGES
-----------------------
   0 C :   -0.018153
   1 C :    0.068643
   2 C :   -0.122862
   3 C :    0.038154
   4 C :   -0.066740
   5 N :   -0.202112
   6 C :    0.075576
   7 H :    0.019237
   8 H :    0.018262
   9 H :    0.014977
  10 H :   -0.009773
  11 H :    0.010445
  12 H :    0.012535
  13 H :    0.014631
  14 H :    0.017574
  15 H :   -0.007584
  16 H :    0.102694
  17 H :    0.024769
  18 H :   -0.006330
  19 H :    0.016053
Sum of atomic charges:   -0.0000000

LOEWDIN ATOMIC CHARGES
----------------------
   0 C :   -0.067418
   1 C :   -0.036762
   2 C :   -0.044818
   3 C :   -0.045309
   4 C :   -0.007710
   5 N :   -0.089128
   6 C :   -0.006018
   7 H :    0.025478
   8 H :    0.023877
   9 H :    0.024600
  10 H :    0.022412
  11 H :    0.026105
  12 H :    0.026406
  13 H :    0.023301
  14 H :    0.027381
  15 H :   -0.000866
  16 H :    0.056732
  17 H :    0.022097
  18 H :   -0.001416
  19 H :    0.021056

  Mayer bond orders larger than 0.1
B(  0-C ,  1-C ) :   1.1169 B(  0-C ,  7-H ) :   0.9601 B(  0-C ,  8-H ) :   0.9659
B(  0-C ,  9-H ) :   0.9633 B(  1-C ,  2-C ) :   1.0741 B(  1-C , 10-H ) :   0.9169
B(  1-C , 11-H ) :   0.9292 B(  2-C ,  3-C ) :   1.0081 B(  2-C ,  4-C ) :   0.9359
B(  2-C , 12-H ) :   0.9325 B(  3-C ,  4-C ) :   1.0157 B(  3-C , 13-H ) :   0.9322
B(  3-C , 14-H ) :   0.9256 B(  4-C ,  5-N ) :   1.1190 B(  4-C , 15-H ) :   0.9147
B(  5-N ,  6-C ) :   1.0603 B(  5-N , 16-H ) :   0.9437 B(  6-C , 17-H ) :   0.9673
B(  6-C , 18-H ) :   0.9459 B(  6-C , 19-H ) :   0.9693

FINAL SINGLE POINT ENERGY      -290.567563329609

DIPOLE MOMENT
-------------
                                X             Y             Z
Electronic contribution:      2.36805      -3.22564       0.65237
Nuclear contribution   :     -2.59394       3.04926      -0.75572
                        -----------------------------------------
Total Dipole Moment    :     -0.22590      -0.17638      -0.10335
                        -----------------------------------------
Magnitude (a.u.)       :      0.30466
Magnitude (Debye)      :      0.77439

                             ****ORCA TERMINATED NORMALLY****
TOTAL RUN TIME: 0 days 0 hours 0 minutes 8 seconds 787 msec
