                         Program Version 3.0.3 - RELEASE   -
|  1> ! RI PBE def2-SVP def2-SVP/J NBO PAL2
|  2> % maxcore 2000
|  3> % output
|  4>     # printlevel mini
|  5>     print[ P_Basis ] 0
|  6>     print[ P_SCFInfo ] 1
|  7>     print[ P_SCFIterInfo ] 1
|  8>     print[ P_OrbEn ] 0
|  9>     print[ P_Cartesian ] 0
| 10> end
| 11> *xyz 0 1
| 12>  C        2.7181980000    -1.4951060000    -0.4223810000
| 13>  C        2.1063860000    -0.1159360000    -0.2435320000
| 14>  C        2.9083080000     0.7762740000     0.6768680000
| 15>  C        4.0909830000     1.4818530000     0.1043090000
| 16>  C        2.8519830000     2.2659010000     0.4477970000
| 17>  N        3.0319370000     0.2729970000     2.0176700000
| 18>  C        1.8639030000     0.4669320000     2.8506590000
| 19>  H        2.0945230000    -2.1238090000    -1.0622270000
| 20>  H        2.8332510000    -1.9906750000     0.5430050000
| 21>  H        3.7090840000    -1.4289440000    -0.8798480000
| 22>  H        1.0864220000    -0.2100340000     0.1467960000
| 23>  H        2.0100650000     0.3845010000    -1.2121610000
| 24>  H        4.3235540000     1.3199360000    -0.9417290000
| 25>  H        4.9640480000     1.6145990000     0.7341730000
| 26>  H        2.2470140000     2.6534230000    -0.3637990000
| 27>  H        2.8959290000     2.9075730000     1.3203740000
| 28>  H        3.8512410000     0.6620210000     2.4621890000
| 29>  H        1.0326700000    -0.1379790000     2.4799420000
| 30>  H        1.5178380000     1.5115980000     2.9001730000
| 31>  H        2.0825440000     0.1269650000     3.8648020000
| 32> *
| 33>
| 34>                          ****END OF INPUT****
 Total Charge           Charge          ....    0
 Multiplicity           Mult            ....    1
 Number of Electrons    NEL             ....   56
 Basis Dimension        Dim             ....  163

MULLIKEN ATOMIC CHARGES
-----------------------
   0 C :   -0.005014
   1 C :    0.097684
   2 C :   -0.250255
   3 C :   -0.012535
   4 C :   -0.002581
   5 N :   -0.159825
   6 C :    0.084725
   7 H :    0.017920
   8 H :    0.024147
   9 H :    0.005518
  10 H :    0.002610
  11 H :   -0.015919
  12 H :    0.027531
  13 H :    0.023919
  14 H :    0.025523
  15 H :    0.022250
  16 H :    0.086896
  17 H :    0.017420
  18 H :   -0.008479
  19 H :    0.018464
Sum of atomic charges:    0.0000000

LOEWDIN ATOMIC CHARGES
----------------------
   0 C :   -0.067477
   1 C :   -0.034211
   2 C :   -0.024290
   3 C :   -0.045525
   4 C :   -0.060193
   5 N :   -0.074746
   6 C :   -0.003334
   7 H :    0.024109
   8 H :    0.026104
   9 H :    0.023279
  10 H :    0.023407
  11 H :    0.023792
  12 H :    0.025963
  13 H :    0.023294
  14 H :    0.023117
  15 H :    0.022985
  16 H :    0.053275
  17 H :    0.019868
  18 H :   -0.001999
  19 H :    0.022584

  Mayer bond orders larger than 0.1
B(  0-C ,  1-C ) :   1.1256 B(  0-C ,  7-H ) :   0.9599 B(  0-C ,  8-H ) :   0.9560
B(  0-C ,  9-H ) :   0.9611 B(  1-C ,  2-C ) :   1.0635 B(  1-C , 10-H ) :   0.9172
B(  1-C , 11-H ) :   0.9065 B(  2-C ,  3-C ) :   0.9828 B(  2-C ,  4-C ) :   0.9595
B(  2-C ,  5-N ) :   1.1086 B(  3-C ,  4-C ) :   1.0250 B(  3-C , 12-H ) :   0.9388
B(  3-C , 13-H ) :   0.9403 B(  4-C , 14-H ) :   0.9359 B(  4-C , 15-H ) :   0.9361
B(  5-N ,  6-C ) :   1.0620 B(  5-N , 16-H ) :   0.9335 B(  6-C , 17-H ) :   0.9645
B(  6-C , 18-H ) :   0.9417 B(  6-C , 19-H ) :   0.9708

FINAL SINGLE POINT ENERGY      -290.564883691656

DIPOLE MOMENT
-------------
                                X             Y             Z
Electronic contribution:      1.48101       1.43407       0.53534
Nuclear contribution   :     -1.44012      -1.15728      -0.37559
                        -----------------------------------------
Total Dipole Moment    :      0.04089       0.27679       0.15975
                        -----------------------------------------
Magnitude (a.u.)       :      0.32219
Magnitude (Debye)      :      0.81894

                             ****ORCA TERMINATED NORMALLY****
TOTAL RUN TIME: 0 days 0 hours 0 minutes 8 seconds 295 msec
