                         Program Version 3.0.3 - RELEASE   -
|  1> ! RI PBE def2-SVP def2-SVP/J NBO PAL2
|  2> % maxcore 2000
|  3> % output
|  4>     # printlevel mini
|  5>     print[ P_Basis ] 0
|  6>     print[ P_SCFInfo ] 1
|  7>     print[ P_SCFIterInfo ] 1
|  8>     print[ P_OrbEn ] 0
|  9>     print[ P_Cartesian ] 0
| 10> end
| 11> *xyz 0 1
| 12>  C        3.1672750000    -1.2980600000    -0.3172380000
| 13>  C        2.5488040000     0.0442620000     0.0423100000
| 14>  C        3.0637960000     1.1934210000    -0.7953160000
| 15>  C        2.6289310000     2.6316850000    -0.4527870000
| 16>  C        4.0394570000     3.1117860000    -0.8379190000
| 17>  C        4.5365300000     1.6727670000    -0.6437340000
| 18>  N        5.6108520000     1.2323720000    -1.4954410000
| 19>  H        2.7568760000    -2.1040770000     0.2954370000
| 20>  H        4.2499680000    -1.2919370000    -0.1650110000
| 21>  H        2.9830100000    -1.5506340000    -1.3652680000
| 22>  H        2.7407200000     0.2660330000     1.0994260000
| 23>  H        1.4586460000    -0.0164120000    -0.0591540000
| 24>  H        2.8751530000     0.9989620000    -1.8598310000
| 25>  H        2.4465350000     2.7400190000     0.6198850000
| 26>  H        1.7799050000     3.0515680000    -0.9936060000
| 27>  H        4.5088370000     3.9015230000    -0.2499760000
| 28>  H        4.0873460000     3.3883310000    -1.8952950000
| 29>  H        4.8471170000     1.5283350000     0.3980180000
| 30>  H        5.3380990000     1.2826070000    -2.4699800000
| 31>  H        5.8710330000     0.2734390000    -1.3028290000
| 32> *
| 33>
| 34>                          ****END OF INPUT****
 Total Charge           Charge          ....    0
 Multiplicity           Mult            ....    1
 Number of Electrons    NEL             ....   56
 Basis Dimension        Dim             ....  163

MULLIKEN ATOMIC CHARGES
-----------------------
   0 C :   -0.023477
   1 C :    0.042885
   2 C :   -0.131594
   3 C :    0.054240
   4 C :    0.067286
   5 C :   -0.085035
   6 N :   -0.129312
   7 H :    0.020345
   8 H :    0.016466
   9 H :    0.014996
  10 H :   -0.002635
  11 H :    0.014738
  12 H :   -0.026424
  13 H :    0.000737
  14 H :    0.005517
  15 H :    0.008434
  16 H :   -0.005260
  17 H :   -0.007443
  18 H :    0.080899
  19 H :    0.084636
Sum of atomic charges:   -0.0000000

LOEWDIN ATOMIC CHARGES
----------------------
   0 C :   -0.068475
   1 C :   -0.048223
   2 C :   -0.054464
   3 C :   -0.029689
   4 C :   -0.032317
   5 C :    0.000984
   6 N :   -0.091081
   7 H :    0.027488
   8 H :    0.020052
   9 H :    0.023820
  10 H :    0.020618
  11 H :    0.025598
  12 H :    0.014624
  13 H :    0.021612
  14 H :    0.015524
  15 H :    0.016669
  16 H :    0.021150
  17 H :    0.019198
  18 H :    0.047415
  19 H :    0.049499

  Mayer bond orders larger than 0.1
B(  0-C ,  1-C ) :   1.1162 B(  0-C ,  7-H ) :   0.9570 B(  0-C ,  8-H ) :   0.9645
B(  0-C ,  9-H ) :   0.9645 B(  1-C ,  2-C ) :   1.0809 B(  1-C , 10-H ) :   0.9182
B(  1-C , 11-H ) :   0.9312 B(  2-C ,  3-C ) :   1.0870 B(  2-C ,  5-C ) :   1.0004
B(  2-C , 12-H ) :   0.8778 B(  3-C ,  4-C ) :   1.1218 B(  3-C , 13-H ) :   0.9168
B(  3-C , 14-H ) :   0.9260 B(  4-C ,  5-C ) :   1.0820 B(  4-C , 15-H ) :   0.9246
B(  4-C , 16-H ) :   0.9133 B(  5-C ,  6-N ) :   1.1534 B(  5-C , 17-H ) :   0.8994
B(  6-N , 18-H ) :   0.9563 B(  6-N , 19-H ) :   0.9706

FINAL SINGLE POINT ENERGY      -290.579354075096

DIPOLE MOMENT
-------------
                                X             Y             Z
Electronic contribution:      1.49486       2.46355      -0.66816
Nuclear contribution   :     -1.76492      -2.83608       0.53782
                        -----------------------------------------
Total Dipole Moment    :     -0.27006      -0.37253      -0.13035
                        -----------------------------------------
Magnitude (a.u.)       :      0.47822
Magnitude (Debye)      :      1.21555

                             ****ORCA TERMINATED NORMALLY****
TOTAL RUN TIME: 0 days 0 hours 0 minutes 8 seconds 869 msec
