                         Program Version 3.0.3 - RELEASE   -
|  1> ! RI PBE def2-SVP def2-SVP/J NBO PAL2
|  2> % maxcore 2000
|  3> % output
|  4>     # printlevel mini
|  5>     print[ P_Basis ] 0
|  6>     print[ P_SCFInfo ] 1
|  7>     print[ P_SCFIterInfo ] 1
|  8>     print[ P_OrbEn ] 0
|  9>     print[ P_Cartesian ] 0
| 10> end
| 11> *xyz 0 1
| 12>  C        3.4163070000    -0.1505990000    -1.2350390000
| 13>  C        2.4315280000     0.1562750000    -0.1200120000
| 14>  C        2.8356720000    -0.2157250000     1.2950980000
| 15>  C        1.8021400000     0.2236350000     2.3031710000
| 16>  C        3.5429440000    -1.5201820000     1.5669510000
| 17>  C        4.2785900000    -0.2071680000     1.6935150000
| 18>  N        4.7194490000     0.3698620000     2.9299670000
| 19>  H        2.9793630000     0.1076860000    -2.2021830000
| 20>  H        3.6788350000    -1.2107400000    -1.2713750000
| 21>  H        4.3403930000     0.4228180000    -1.1350290000
| 22>  H        1.4823960000    -0.3506290000    -0.3353060000
| 23>  H        2.2056020000     1.2297210000    -0.1328820000
| 24>  H        0.8196940000    -0.1724220000     2.0292090000
| 25>  H        1.7221040000     1.3144290000     2.3402250000
| 26>  H        2.0156680000    -0.1357270000     3.3119920000
| 27>  H        3.7920280000    -2.1763020000     0.7407660000
| 28>  H        3.2785510000    -2.0344050000     2.4847750000
| 29>  H        4.9779400000    -0.0036010000     0.8890890000
| 30>  H        5.4998390000    -0.1524480000     3.3092340000
| 31>  H        3.9879570000     0.3642220000     3.6273220000
| 32> *
| 33>
| 34>                          ****END OF INPUT****
 Total Charge           Charge          ....    0
 Multiplicity           Mult            ....    1
 Number of Electrons    NEL             ....   56
 Basis Dimension        Dim             ....  163

MULLIKEN ATOMIC CHARGES
-----------------------
   0 C :   -0.024431
   1 C :    0.069678
   2 C :   -0.284827
   3 C :    0.083600
   4 C :    0.022251
   5 C :   -0.056670
   6 N :   -0.115038
   7 H :    0.014592
   8 H :    0.017276
   9 H :    0.029541
  10 H :    0.002001
  11 H :    0.008880
  12 H :    0.012442
  13 H :    0.027344
  14 H :   -0.001306
  15 H :    0.020227
  16 H :    0.003861
  17 H :    0.009933
  18 H :    0.093615
  19 H :    0.067031
Sum of atomic charges:   -0.0000000

LOEWDIN ATOMIC CHARGES
----------------------
   0 C :   -0.068152
   1 C :   -0.030760
   2 C :   -0.064018
   3 C :   -0.046885
   4 C :   -0.069183
   5 C :   -0.002018
   6 N :   -0.086032
   7 H :    0.029754
   8 H :    0.023868
   9 H :    0.025766
  10 H :    0.024469
  11 H :    0.026878
  12 H :    0.029935
  13 H :    0.029469
  14 H :    0.018831
  15 H :    0.019323
  16 H :    0.018416
  17 H :    0.018510
  18 H :    0.055471
  19 H :    0.046358

  Mayer bond orders larger than 0.1
B(  0-C ,  1-C ) :   1.1335 B(  0-C ,  7-H ) :   0.9526 B(  0-C ,  8-H ) :   0.9595
B(  0-C ,  9-H ) :   0.9525 B(  1-C ,  2-C ) :   1.0518 B(  1-C , 10-H ) :   0.9232
B(  1-C , 11-H ) :   0.9292 B(  2-C ,  3-C ) :   1.0990 B(  2-C ,  4-C ) :   0.9564
B(  2-C ,  5-C ) :   0.9296 B(  3-C , 12-H ) :   0.9500 B(  3-C , 13-H ) :   0.9587
B(  3-C , 14-H ) :   0.9364 B(  4-C ,  5-C ) :   0.9457 B(  4-C , 15-H ) :   0.9298
B(  4-C , 16-H ) :   0.9313 B(  5-C ,  6-N ) :   1.1647 B(  5-C , 17-H ) :   0.9292
B(  6-N , 18-H ) :   0.9622 B(  6-N , 19-H ) :   0.9576

FINAL SINGLE POINT ENERGY      -290.570038092416

DIPOLE MOMENT
-------------
                                X             Y             Z
Electronic contribution:      1.82627       0.07931       2.19526
Nuclear contribution   :     -1.95806      -0.38041      -2.04789
                        -----------------------------------------
Total Dipole Moment    :     -0.13178      -0.30111       0.14737
                        -----------------------------------------
Magnitude (a.u.)       :      0.36021
Magnitude (Debye)      :      0.91557

                             ****ORCA TERMINATED NORMALLY****
TOTAL RUN TIME: 0 days 0 hours 0 minutes 9 seconds 42 msec
