                         Program Version 3.0.3 - RELEASE   -
|  1> ! RI PBE def2-SVP def2-SVP/J NBO PAL2
|  2> % maxcore 2000
|  3> % output
|  4>     # printlevel mini
|  5>     print[ P_Basis ] 0
|  6>     print[ P_SCFInfo ] 1
|  7>     print[ P_SCFIterInfo ] 1
|  8>     print[ P_OrbEn ] 0
|  9>     print[ P_Cartesian ] 0
| 10> end
| 11> *xyz 0 1
| 12>  C        3.3378370000    -0.0169200000     1.2802970000
| 13>  C        2.3749720000     0.1792050000     0.1185450000
| 14>  C        2.9765780000     1.0004270000    -0.9897800000
| 15>  C        2.1436870000     1.7219500000    -2.0248180000
| 16>  C        0.6420790000     1.6606070000    -2.0630770000
| 17>  C        2.8811510000     2.5057210000    -0.9917920000
| 18>  N        3.9461270000     3.3866100000    -1.3768220000
| 19>  H        2.8887400000    -0.6156600000     2.0763180000
| 20>  H        3.6339910000     0.9439200000     1.7098150000
| 21>  H        4.2486800000    -0.5272480000     0.9547830000
| 22>  H        1.4630470000     0.6614090000     0.4837410000
| 23>  H        2.0636680000    -0.7985060000    -0.2683840000
| 24>  H        3.9184510000     0.6088520000    -1.3694620000
| 25>  H        2.6014180000     1.7505170000    -3.0115440000
| 26>  H        0.2929490000     0.7509240000    -2.5600110000
| 27>  H        0.2082480000     1.6764390000    -1.0618940000
| 28>  H        0.2347970000     2.5158560000    -2.6089760000
| 29>  H        2.2570820000     2.9216550000    -0.2029900000
| 30>  H        4.3189590000     3.1270540000    -2.2807750000
| 31>  H        4.7101400000     3.3463660000    -0.7127930000
| 32> *
| 33>
| 34>                          ****END OF INPUT****
 Total Charge           Charge          ....    0
 Multiplicity           Mult            ....    1
 Number of Electrons    NEL             ....   56
 Basis Dimension        Dim             ....  163

MULLIKEN ATOMIC CHARGES
-----------------------
   0 C :   -0.014336
   1 C :    0.069198
   2 C :   -0.087738
   3 C :   -0.134776
   4 C :    0.083386
   5 C :   -0.069752
   6 N :   -0.111715
   7 H :    0.019779
   8 H :    0.013455
   9 H :    0.014340
  10 H :   -0.008773
  11 H :    0.006974
  12 H :   -0.012742
  13 H :    0.006016
  14 H :    0.020485
  15 H :    0.004692
  16 H :    0.024636
  17 H :    0.011734
  18 H :    0.074662
  19 H :    0.090475
Sum of atomic charges:    0.0000000

LOEWDIN ATOMIC CHARGES
----------------------
   0 C :   -0.065091
   1 C :   -0.038367
   2 C :   -0.062962
   3 C :   -0.048194
   4 C :   -0.056164
   5 C :   -0.007805
   6 N :   -0.086741
   7 H :    0.025440
   8 H :    0.023678
   9 H :    0.023447
  10 H :    0.022496
  11 H :    0.024612
  12 H :    0.017146
  13 H :    0.022970
  14 H :    0.028017
  15 H :    0.024981
  16 H :    0.031886
  17 H :    0.017846
  18 H :    0.049508
  19 H :    0.053296

  Mayer bond orders larger than 0.1
B(  0-C ,  1-C ) :   1.1218 B(  0-C ,  7-H ) :   0.9597 B(  0-C ,  8-H ) :   0.9651
B(  0-C ,  9-H ) :   0.9645 B(  1-C ,  2-C ) :   1.0843 B(  1-C , 10-H ) :   0.9153
B(  1-C , 11-H ) :   0.9223 B(  2-C ,  3-C ) :   0.9277 B(  2-C ,  5-C ) :   0.9061
B(  2-C , 12-H ) :   0.9269 B(  3-C ,  4-C ) :   1.1138 B(  3-C ,  5-C ) :   0.9635
B(  3-C , 13-H ) :   0.9247 B(  4-C , 14-H ) :   0.9574 B(  4-C , 15-H ) :   0.9465
B(  4-C , 16-H ) :   0.9552 B(  5-C ,  6-N ) :   1.1565 B(  5-C , 17-H ) :   0.9378
B(  6-N , 18-H ) :   0.9594 B(  6-N , 19-H ) :   0.9690

FINAL SINGLE POINT ENERGY      -290.572497060441

DIPOLE MOMENT
-------------
                                X             Y             Z
Electronic contribution:      1.47239       2.55204      -2.09056
Nuclear contribution   :     -1.25598      -2.91588       2.05986
                        -----------------------------------------
Total Dipole Moment    :      0.21642      -0.36383      -0.03071
                        -----------------------------------------
Magnitude (a.u.)       :      0.42444
Magnitude (Debye)      :      1.07885

                             ****ORCA TERMINATED NORMALLY****
TOTAL RUN TIME: 0 days 0 hours 0 minutes 8 seconds 139 msec
