                         Program Version 3.0.3 - RELEASE   -
|  1> ! RI PBE def2-SVP def2-SVP/J NBO PAL2
|  2> % maxcore 2000
|  3> % output
|  4>     # printlevel mini
|  5>     print[ P_Basis ] 0
|  6>     print[ P_SCFInfo ] 1
|  7>     print[ P_SCFIterInfo ] 1
|  8>     print[ P_OrbEn ] 0
|  9>     print[ P_Cartesian ] 0
| 10> end
| 11> *xyz 0 1
| 12>  C        3.3828950000     0.0607570000    -1.1660060000
| 13>  C        2.5265690000    -0.0350210000     0.0857770000
| 14>  C        2.9584810000    -1.1269250000     1.0436950000
| 15>  C        2.1662620000    -1.1719700000     2.3602120000
| 16>  C        2.2513770000    -2.6400760000     2.8103670000
| 17>  C        2.9144780000    -3.3616060000     1.6151500000
| 18>  N        2.8362650000    -2.4644180000     0.4689620000
| 19>  H        3.0219710000     0.8465300000    -1.8337810000
| 20>  H        3.3832210000    -0.8827070000    -1.7146080000
| 21>  H        4.4209300000     0.2916450000    -0.9114130000
| 22>  H        1.4770310000    -0.2093520000    -0.1876120000
| 23>  H        2.5413960000     0.9201950000     0.6214090000
| 24>  H        4.0228480000    -0.9833640000     1.2813340000
| 25>  H        1.1277330000    -0.8854830000     2.1635910000
| 26>  H        2.5562590000    -0.4745520000     3.1050780000
| 27>  H        1.2592010000    -3.0466640000     3.0176380000
| 28>  H        2.8396490000    -2.7579310000     3.7229650000
| 29>  H        2.4561660000    -4.3240450000     1.3811210000
| 30>  H        3.9707150000    -3.5521170000     1.8318730000
| 31>  H        1.9143640000    -2.5438960000     0.0485480000
| 32> *
| 33>
| 34>                          ****END OF INPUT****
 Total Charge           Charge          ....    0
 Multiplicity           Mult            ....    1
 Number of Electrons    NEL             ....   56
 Basis Dimension        Dim             ....  163

MULLIKEN ATOMIC CHARGES
-----------------------
   0 C :    0.006769
   1 C :   -0.002407
   2 C :   -0.078806
   3 C :    0.062005
   4 C :   -0.027813
   5 C :    0.105291
   6 N :   -0.228834
   7 H :    0.016900
   8 H :    0.025377
   9 H :    0.013176
  10 H :   -0.003235
  11 H :    0.012072
  12 H :   -0.001422
  13 H :   -0.009539
  14 H :    0.003694
  15 H :    0.003623
  16 H :    0.002823
  17 H :    0.005160
  18 H :    0.003676
  19 H :    0.091490
Sum of atomic charges:   -0.0000000

LOEWDIN ATOMIC CHARGES
----------------------
   0 C :   -0.066501
   1 C :   -0.047186
   2 C :   -0.000962
   3 C :   -0.052168
   4 C :   -0.061599
   5 C :    0.008752
   6 N :   -0.095816
   7 H :    0.024525
   8 H :    0.026703
   9 H :    0.025823
  10 H :    0.019066
  11 H :    0.028099
  12 H :    0.017942
  13 H :    0.019350
  14 H :    0.023519
  15 H :    0.022311
  16 H :    0.022650
  17 H :    0.019140
  18 H :    0.018281
  19 H :    0.048070

  Mayer bond orders larger than 0.1
B(  0-C ,  1-C ) :   1.1222 B(  0-C ,  7-H ) :   0.9602 B(  0-C ,  8-H ) :   0.9613
B(  0-C ,  9-H ) :   0.9603 B(  1-C ,  2-C ) :   1.0777 B(  1-C , 10-H ) :   0.9160
B(  1-C , 11-H ) :   0.9330 B(  2-C ,  3-C ) :   1.0665 B(  2-C ,  6-N ) :   1.0447
B(  2-C , 12-H ) :   0.8922 B(  3-C ,  4-C ) :   1.1438 B(  3-C , 13-H ) :   0.9112
B(  3-C , 14-H ) :   0.9177 B(  4-C ,  5-C ) :   1.0856 B(  4-C , 15-H ) :   0.9254
B(  4-C , 16-H ) :   0.9223 B(  5-C ,  6-N ) :   1.0893 B(  5-C , 17-H ) :   0.9471
B(  5-C , 18-H ) :   0.9256 B(  6-N , 19-H ) :   0.9387

FINAL SINGLE POINT ENERGY      -290.598350743581

DIPOLE MOMENT
-------------
                                X             Y             Z
Electronic contribution:     -0.01231      -2.05986       0.79634
Nuclear contribution   :     -0.32251       2.13057      -0.58069
                        -----------------------------------------
Total Dipole Moment    :     -0.33482       0.07071       0.21565
                        -----------------------------------------
Magnitude (a.u.)       :      0.40449
Magnitude (Debye)      :      1.02813

                             ****ORCA TERMINATED NORMALLY****
TOTAL RUN TIME: 0 days 0 hours 0 minutes 8 seconds 872 msec
