                         Program Version 3.0.3 - RELEASE   -
|  1> ! RI PBE def2-SVP def2-SVP/J NBO PAL2
|  2> % maxcore 2000
|  3> % output
|  4>     # printlevel mini
|  5>     print[ P_Basis ] 0
|  6>     print[ P_SCFInfo ] 1
|  7>     print[ P_SCFIterInfo ] 1
|  8>     print[ P_OrbEn ] 0
|  9>     print[ P_Cartesian ] 0
| 10> end
| 11> *xyz 0 1
| 12>  C        1.2494020000    -0.3227420000     0.3172390000
| 13>  C        2.3855390000     0.3464320000     0.1747210000
| 14>  C        2.8641560000     0.9512190000    -1.1048250000
| 15>  C        3.1575490000     2.4587260000    -0.9802730000
| 16>  C        4.4522530000     2.6583480000    -1.7607010000
| 17>  C        5.1952790000     1.3660460000    -1.4703920000
| 18>  N        4.1369210000     0.3730630000    -1.5638740000
| 19>  H        0.9509830000    -0.7480270000     1.2684710000
| 20>  H        0.5732910000    -0.4636280000    -0.5207560000
| 21>  H        3.0492760000     0.4706580000     1.0308890000
| 22>  H        2.0964350000     0.7796390000    -1.8700770000
| 23>  H        3.3170130000     2.7159150000     0.0717120000
| 24>  H        2.3271960000     3.0671760000    -1.3408050000
| 25>  H        5.0050720000     3.5480130000    -1.4544410000
| 26>  H        4.2487450000     2.7335090000    -2.8323580000
| 27>  H        5.6638260000     1.4227310000    -0.4739110000
| 28>  H        5.9866360000     1.1568980000    -2.1959160000
| 29>  H        4.3522180000    -0.5002770000    -1.1050010000
| 30> *
| 31>
| 32>                          ****END OF INPUT****
 Total Charge           Charge          ....    0
 Multiplicity           Mult            ....    1
 Number of Electrons    NEL             ....   54
 Basis Dimension        Dim             ....  153

MULLIKEN ATOMIC CHARGES
-----------------------
   0 C :   -0.028966
   1 C :   -0.042879
   2 C :    0.024648
   3 C :    0.027427
   4 C :   -0.040290
   5 C :    0.113857
   6 N :   -0.236130
   7 H :    0.019551
   8 H :    0.020533
   9 H :   -0.007534
  10 H :   -0.009898
  11 H :    0.001393
  12 H :    0.018103
  13 H :    0.015225
  14 H :    0.025669
  15 H :   -0.005674
  16 H :    0.012439
  17 H :    0.092526
Sum of atomic charges:   -0.0000000

LOEWDIN ATOMIC CHARGES
----------------------
   0 C :   -0.065502
   1 C :   -0.045119
   2 C :    0.009371
   3 C :   -0.033447
   4 C :   -0.045147
   5 C :    0.014051
   6 N :   -0.094451
   7 H :    0.023777
   8 H :    0.022605
   9 H :    0.020533
  10 H :    0.016387
  11 H :    0.024846
  12 H :    0.028549
  13 H :    0.025514
  14 H :    0.028872
  15 H :   -0.000500
  16 H :    0.018049
  17 H :    0.051613

  Mayer bond orders larger than 0.1
B(  0-C ,  1-C ) :   1.9766 B(  0-C ,  7-H ) :   0.9379 B(  0-C ,  8-H ) :   0.9466
B(  1-C ,  2-C ) :   1.0350 B(  1-C ,  9-H ) :   0.9431 B(  2-C ,  3-C ) :   1.0527
B(  2-C ,  6-N ) :   1.0649 B(  2-C , 10-H ) :   0.9055 B(  3-C ,  4-C ) :   1.1165
B(  3-C , 11-H ) :   0.9223 B(  3-C , 12-H ) :   0.9323 B(  4-C ,  5-C ) :   1.0890
B(  4-C , 13-H ) :   0.9396 B(  4-C , 14-H ) :   0.9262 B(  5-C ,  6-N ) :   1.0332
B(  5-C , 15-H ) :   0.9294 B(  5-C , 16-H ) :   0.9355 B(  6-N , 17-H ) :   0.9471

FINAL SINGLE POINT ENERGY      -289.373533743518

DIPOLE MOMENT
-------------
                                X             Y             Z
Electronic contribution:     -0.27149      -1.58092      -0.39098
Nuclear contribution   :      0.44771       1.71362       0.64671
                        -----------------------------------------
Total Dipole Moment    :      0.17622       0.13271       0.25573
                        -----------------------------------------
Magnitude (a.u.)       :      0.33773
Magnitude (Debye)      :      0.85845

                             ****ORCA TERMINATED NORMALLY****
TOTAL RUN TIME: 0 days 0 hours 0 minutes 7 seconds 782 msec
