                         Program Version 3.0.3 - RELEASE   -
|  1> ! RI PBE def2-SVP def2-SVP/J NBO PAL2
|  2> % maxcore 2000
|  3> % output
|  4>     # printlevel mini
|  5>     print[ P_Basis ] 0
|  6>     print[ P_SCFInfo ] 1
|  7>     print[ P_SCFIterInfo ] 1
|  8>     print[ P_OrbEn ] 0
|  9>     print[ P_Cartesian ] 0
| 10> end
| 11> *xyz 0 1
| 12>  C        1.2433950000    -0.1337600000     0.8023410000
| 13>  C        2.3258850000     0.0314500000     0.3064440000
| 14>  C        3.6533850000     0.1896770000    -0.2995970000
| 15>  C        4.4506600000     1.3411530000     0.3402170000
| 16>  C        5.3136050000     0.6643980000     1.4238350000
| 17>  C        4.9984090000    -0.8281250000     1.2983900000
| 18>  N        4.5332890000    -0.9526700000    -0.0766200000
| 19>  H        0.2830480000    -0.2739910000     1.2393720000
| 20>  H        3.5195250000     0.3498020000    -1.3738120000
| 21>  H        3.7886860000     2.1092580000     0.7385460000
| 22>  H        5.0794970000     1.8020580000    -0.4222600000
| 23>  H        5.0876180000     1.0353010000     2.4241360000
| 24>  H        6.3718010000     0.8515010000     1.2360450000
| 25>  H        4.2280650000    -1.1126070000     2.0306180000
| 26>  H        5.8715120000    -1.4633060000     1.4625600000
| 27>  H        4.0576310000    -1.8301360000    -0.2455940000
| 28> *
| 29>
| 30>                          ****END OF INPUT****
 Total Charge           Charge          ....    0
 Multiplicity           Mult            ....    1
 Number of Electrons    NEL             ....   52
 Basis Dimension        Dim             ....  143

MULLIKEN ATOMIC CHARGES
-----------------------
   0 C :   -0.521658
   1 C :    0.418989
   2 C :   -0.055607
   3 C :    0.082719
   4 C :   -0.027067
   5 C :    0.133267
   6 N :   -0.229023
   7 H :   -0.004701
   8 H :    0.029375
   9 H :    0.019259
  10 H :    0.013919
  11 H :    0.012240
  12 H :    0.016788
  13 H :   -0.000262
  14 H :    0.010847
  15 H :    0.100914
Sum of atomic charges:    0.0000000

LOEWDIN ATOMIC CHARGES
----------------------
   0 C :   -0.093956
   1 C :   -0.038397
   2 C :   -0.004206
   3 C :   -0.023393
   4 C :   -0.041597
   5 C :    0.014063
   6 N :   -0.082805
   7 H :    0.033774
   8 H :    0.039894
   9 H :    0.030936
  10 H :    0.030377
  11 H :    0.027150
  12 H :    0.028923
  13 H :    0.003871
  14 H :    0.019574
  15 H :    0.055790

  Mayer bond orders larger than 0.1
B(  0-C ,  1-C ) :   2.2935 B(  0-C ,  7-H ) :   1.1099 B(  1-C ,  2-C ) :   0.9205
B(  1-C ,  7-H ) :  -0.1208 B(  2-C ,  3-C ) :   1.1054 B(  2-C ,  6-N ) :   1.0868
B(  2-C ,  8-H ) :   0.8815 B(  3-C ,  4-C ) :   1.1297 B(  3-C ,  9-H ) :   0.9307
B(  3-C , 10-H ) :   0.9141 B(  4-C ,  5-C ) :   1.1373 B(  4-C , 11-H ) :   0.9316
B(  4-C , 12-H ) :   0.9232 B(  5-C ,  6-N ) :   1.0292 B(  5-C , 13-H ) :   0.9158
B(  5-C , 14-H ) :   0.9384 B(  6-N , 15-H ) :   0.9465

FINAL SINGLE POINT ENERGY      -288.128953408576

DIPOLE MOMENT
-------------
                                X             Y             Z
Electronic contribution:     -3.43522      -1.11877      -1.81923
Nuclear contribution   :      3.42967       1.07644       1.98208
                        -----------------------------------------
Total Dipole Moment    :     -0.00555      -0.04233       0.16285
                        -----------------------------------------
Magnitude (a.u.)       :      0.16835
Magnitude (Debye)      :      0.42792

                             ****ORCA TERMINATED NORMALLY****
TOTAL RUN TIME: 0 days 0 hours 0 minutes 7 seconds 544 msec
