                         Program Version 3.0.3 - RELEASE   -
|  1> ! RI PBE def2-SVP def2-SVP/J NBO PAL2
|  2> % maxcore 2000
|  3> % output
|  4>     # printlevel mini
|  5>     print[ P_Basis ] 0
|  6>     print[ P_SCFInfo ] 1
|  7>     print[ P_SCFIterInfo ] 1
|  8>     print[ P_OrbEn ] 0
|  9>     print[ P_Cartesian ] 0
| 10> end
| 11> *xyz 0 1
| 12>  C        0.7744820000     0.5456020000    -0.2106160000
| 13>  C        2.2098670000     0.1719180000     0.1201210000
| 14>  C        3.1495020000     1.3142090000     0.5077940000
| 15>  C        4.5270090000     0.7602680000     0.8139280000
| 16>  C        3.1205390000     2.5325980000    -0.4477850000
| 17>  C        2.3018270000     3.2577480000     0.6287870000
| 18>  N        2.6430520000     2.1968030000     1.5894900000
| 19>  H        0.1895670000    -0.3488870000    -0.4358520000
| 20>  H        0.7110260000     1.2024220000    -1.0813540000
| 21>  H        0.2813460000     1.0506710000     0.6243200000
| 22>  H        2.6540890000    -0.3535840000    -0.7332830000
| 23>  H        2.2109630000    -0.5492170000     0.9475880000
| 24>  H        4.9522400000     0.2585030000    -0.0605720000
| 25>  H        4.4780230000     0.0346430000     1.6312000000
| 26>  H        5.1985160000     1.5645540000     1.1185660000
| 27>  H        2.6416400000     2.3859920000    -1.4161000000
| 28>  H        4.1099800000     2.9635120000    -0.6048100000
| 29>  H        1.2368130000     3.3257940000     0.3798030000
| 30>  H        2.6512780000     4.2506840000     0.9252810000
| 31>  H        1.8666420000     1.8247680000     2.1224070000
| 32> *
| 33>
| 34>                          ****END OF INPUT****
 Total Charge           Charge          ....    0
 Multiplicity           Mult            ....    1
 Number of Electrons    NEL             ....   56
 Basis Dimension        Dim             ....  163

MULLIKEN ATOMIC CHARGES
-----------------------
   0 C :   -0.008443
   1 C :    0.037806
   2 C :   -0.289000
   3 C :    0.116702
   4 C :    0.037069
   5 C :    0.125233
   6 N :   -0.212911
   7 H :    0.022109
   8 H :    0.018387
   9 H :    0.010618
  10 H :    0.006363
  11 H :    0.010501
  12 H :    0.008623
  13 H :    0.009455
  14 H :    0.007250
  15 H :    0.011053
  16 H :    0.000956
  17 H :    0.003694
  18 H :    0.001037
  19 H :    0.083499
Sum of atomic charges:   -0.0000000

LOEWDIN ATOMIC CHARGES
----------------------
   0 C :   -0.070892
   1 C :   -0.049091
   2 C :   -0.008107
   3 C :   -0.061489
   4 C :   -0.032206
   5 C :    0.027362
   6 N :   -0.101383
   7 H :    0.030639
   8 H :    0.025055
   9 H :    0.020069
  10 H :    0.027084
  11 H :    0.025496
  12 H :    0.024198
  13 H :    0.025196
  14 H :    0.024447
  15 H :    0.017464
  16 H :    0.024861
  17 H :    0.003097
  18 H :    0.009267
  19 H :    0.038932

  Mayer bond orders larger than 0.1
B(  0-C ,  1-C ) :   1.1263 B(  0-C ,  7-H ) :   0.9525 B(  0-C ,  8-H ) :   0.9570
B(  0-C ,  9-H ) :   0.9503 B(  1-C ,  2-C ) :   1.0159 B(  1-C , 10-H ) :   0.9222
B(  1-C , 11-H ) :   0.9248 B(  2-C ,  3-C ) :   1.0649 B(  2-C ,  4-C ) :   1.0624
B(  2-C ,  6-N ) :   1.0764 B(  3-C , 12-H ) :   0.9512 B(  3-C , 13-H ) :   0.9508
B(  3-C , 14-H ) :   0.9379 B(  4-C ,  5-C ) :   1.1256 B(  4-C , 15-H ) :   0.9330
B(  4-C , 16-H ) :   0.9016 B(  5-C ,  6-N ) :   1.0703 B(  5-C , 17-H ) :   0.9249
B(  5-C , 18-H ) :   0.9275 B(  6-N , 19-H ) :   0.9483

FINAL SINGLE POINT ENERGY      -290.571953571448

DIPOLE MOMENT
-------------
                                X             Y             Z
Electronic contribution:      0.93792       1.91703       1.75706
Nuclear contribution   :     -1.29108      -2.11866      -2.03513
                        -----------------------------------------
Total Dipole Moment    :     -0.35316      -0.20163      -0.27807
                        -----------------------------------------
Magnitude (a.u.)       :      0.49265
Magnitude (Debye)      :      1.25221

                             ****ORCA TERMINATED NORMALLY****
TOTAL RUN TIME: 0 days 0 hours 0 minutes 8 seconds 748 msec
