                         Program Version 3.0.3 - RELEASE   -
|  1> ! RI PBE def2-SVP def2-SVP/J NBO PAL2
|  2> % maxcore 2000
|  3> % output
|  4>     # printlevel mini
|  5>     print[ P_Basis ] 0
|  6>     print[ P_SCFInfo ] 1
|  7>     print[ P_SCFIterInfo ] 1
|  8>     print[ P_OrbEn ] 0
|  9>     print[ P_Cartesian ] 0
| 10> end
| 11> *xyz 0 1
| 12>  C        1.7486280000     1.7691350000    -1.0033310000
| 13>  C        1.9296400000     0.7798850000     0.1339150000
| 14>  C        3.2794800000     0.8089590000     0.8208760000
| 15>  C        3.4369030000    -0.1741980000     1.9599200000
| 16>  C        2.5211450000     0.0767970000     3.1490110000
| 17>  C        4.0943250000     2.0408100000     0.8791750000
| 18>  N        4.4249230000     0.9779940000    -0.0713300000
| 19>  H        0.8091160000     1.5799020000    -1.5269420000
| 20>  H        2.5655570000     1.6859760000    -1.7218780000
| 21>  H        1.7155080000     2.7997030000    -0.6419000000
| 22>  H        1.7828160000    -0.2393580000    -0.2453930000
| 23>  H        1.1492010000     0.9395740000     0.8849610000
| 24>  H        4.4794430000    -0.1400500000     2.2979880000
| 25>  H        3.2701840000    -1.1880160000     1.5751350000
| 26>  H        2.7338940000    -0.6269580000     3.9569370000
| 27>  H        2.6556500000     1.0880040000     3.5419470000
| 28>  H        1.4686440000    -0.0406340000     2.8836120000
| 29>  H        4.7335780000     2.1781560000     1.7468870000
| 30>  H        3.7440060000     2.9619130000     0.4272800000
| 31>  H        5.2138490000     0.4374960000     0.2680210000
| 32> *
| 33>
| 34>                          ****END OF INPUT****
 Total Charge           Charge          ....    0
 Multiplicity           Mult            ....    1
 Number of Electrons    NEL             ....   56
 Basis Dimension        Dim             ....  163

MULLIKEN ATOMIC CHARGES
-----------------------
   0 C :   -0.020017
   1 C :    0.102563
   2 C :   -0.312943
   3 C :    0.076088
   4 C :   -0.012655
   5 C :    0.071089
   6 N :   -0.169324
   7 H :    0.010846
   8 H :    0.037150
   9 H :    0.012673
  10 H :   -0.002358
  11 H :    0.005587
  12 H :   -0.018115
  13 H :    0.011525
  14 H :    0.021021
  15 H :    0.015557
  16 H :    0.029819
  17 H :    0.020548
  18 H :    0.023323
  19 H :    0.097623
Sum of atomic charges:   -0.0000000

LOEWDIN ATOMIC CHARGES
----------------------
   0 C :   -0.066335
   1 C :   -0.037060
   2 C :   -0.032321
   3 C :   -0.039379
   4 C :   -0.064783
   5 C :    0.000748
   6 N :   -0.094565
   7 H :    0.026551
   8 H :    0.029913
   9 H :    0.022036
  10 H :    0.026668
  11 H :    0.025017
  12 H :    0.020067
  13 H :    0.025924
  14 H :    0.028499
  15 H :    0.025533
  16 H :    0.025498
  17 H :    0.012647
  18 H :    0.016802
  19 H :    0.048540

  Mayer bond orders larger than 0.1
B(  0-C ,  1-C ) :   1.1328 B(  0-C ,  7-H ) :   0.9541 B(  0-C ,  8-H ) :   0.9553
B(  0-C ,  9-H ) :   0.9568 B(  1-C ,  2-C ) :   1.0168 B(  1-C , 10-H ) :   0.9163
B(  1-C , 11-H ) :   0.9266 B(  2-C ,  3-C ) :   1.0637 B(  2-C ,  5-C ) :   1.0398
B(  2-C ,  6-N ) :   0.9800 B(  3-C ,  4-C ) :   1.1150 B(  3-C , 12-H ) :   0.9030
B(  3-C , 13-H ) :   0.9261 B(  4-C , 14-H ) :   0.9548 B(  4-C , 15-H ) :   0.9635
B(  4-C , 16-H ) :   0.9629 B(  5-C ,  6-N ) :   0.9995 B(  5-C , 17-H ) :   0.9366
B(  5-C , 18-H ) :   0.9278 B(  6-N , 19-H ) :   0.9412

FINAL SINGLE POINT ENERGY      -290.569374292321

DIPOLE MOMENT
-------------
                                X             Y             Z
Electronic contribution:      3.19613       0.04398      -1.68801
Nuclear contribution   :     -3.16572      -0.20343       2.29327
                        -----------------------------------------
Total Dipole Moment    :      0.03042      -0.15946       0.60525
                        -----------------------------------------
Magnitude (a.u.)       :      0.62664
Magnitude (Debye)      :      1.59280

                             ****ORCA TERMINATED NORMALLY****
TOTAL RUN TIME: 0 days 0 hours 0 minutes 8 seconds 889 msec
