                         Program Version 3.0.3 - RELEASE   -
|  1> ! RI PBE def2-SVP def2-SVP/J NBO PAL2
|  2> % maxcore 2000
|  3> % output
|  4>     # printlevel mini
|  5>     print[ P_Basis ] 0
|  6>     print[ P_SCFInfo ] 1
|  7>     print[ P_SCFIterInfo ] 1
|  8>     print[ P_OrbEn ] 0
|  9>     print[ P_Cartesian ] 0
| 10> end
| 11> *xyz 0 1
| 12>  C        2.0809170000    -0.0386920000    -1.4723080000
| 13>  C        2.4307830000    -0.4991870000    -0.0667970000
| 14>  C        3.7105790000    -1.3147520000    -0.0079600000
| 15>  C        3.9740210000    -1.9930000000     1.3481140000
| 16>  C        3.4799920000    -3.2954980000     0.6918870000
| 17>  C        4.2736420000    -4.5610680000     0.8999330000
| 18>  N        3.6521160000    -2.6542810000    -0.6259090000
| 19>  H        1.1583840000     0.5458840000    -1.4832150000
| 20>  H        1.9368690000    -0.8847600000    -2.1506900000
| 21>  H        2.8765230000     0.5840220000    -1.8906660000
| 22>  H        1.6063420000    -1.0891790000     0.3519240000
| 23>  H        2.5491430000     0.3729950000     0.5870670000
| 24>  H        4.5365280000    -0.7096830000    -0.4021180000
| 25>  H        3.4082630000    -1.6163630000     2.2010770000
| 26>  H        5.0333430000    -2.0372720000     1.6056770000
| 27>  H        2.4254610000    -3.4791120000     0.9430540000
| 28>  H        5.3262870000    -4.3905520000     0.6625610000
| 29>  H        3.9076690000    -5.3639420000     0.2539130000
| 30>  H        4.1971450000    -4.9025930000     1.9364960000
| 31>  H        2.9017920000    -2.7972760000    -1.2916400000
| 32> *
| 33>
| 34>                          ****END OF INPUT****
 Total Charge           Charge          ....    0
 Multiplicity           Mult            ....    1
 Number of Electrons    NEL             ....   56
 Basis Dimension        Dim             ....  163

MULLIKEN ATOMIC CHARGES
-----------------------
   0 C :   -0.020208
   1 C :    0.036219
   2 C :   -0.070167
   3 C :    0.097371
   4 C :   -0.079778
   5 C :    0.081482
   6 N :   -0.213905
   7 H :    0.024251
   8 H :    0.013928
   9 H :    0.023371
  10 H :   -0.008066
  11 H :    0.008114
  12 H :   -0.006933
  13 H :    0.003751
  14 H :   -0.004231
  15 H :   -0.004453
  16 H :    0.010258
  17 H :    0.012659
  18 H :    0.011452
  19 H :    0.084884
Sum of atomic charges:   -0.0000000

LOEWDIN ATOMIC CHARGES
----------------------
   0 C :   -0.069943
   1 C :   -0.055957
   2 C :    0.016931
   3 C :   -0.031512
   4 C :    0.017064
   5 C :   -0.071606
   6 N :   -0.101915
   7 H :    0.028650
   8 H :    0.021327
   9 H :    0.026908
  10 H :    0.020578
  11 H :    0.027071
  12 H :    0.007923
  13 H :    0.018352
  14 H :    0.025333
  15 H :    0.004042
  16 H :    0.024938
  17 H :    0.026614
  18 H :    0.026078
  19 H :    0.039124

  Mayer bond orders larger than 0.1
B(  0-C ,  1-C ) :   1.1138 B(  0-C ,  7-H ) :   0.9586 B(  0-C ,  8-H ) :   0.9601
B(  0-C ,  9-H ) :   0.9627 B(  1-C ,  2-C ) :   1.0502 B(  1-C , 10-H ) :   0.9182
B(  1-C , 11-H ) :   0.9182 B(  2-C ,  3-C ) :   1.0856 B(  2-C ,  6-N ) :   1.0756
B(  2-C , 12-H ) :   0.9163 B(  3-C ,  4-C ) :   1.0815 B(  3-C , 13-H ) :   0.9317
B(  3-C , 14-H ) :   0.8915 B(  4-C ,  5-C ) :   1.1001 B(  4-C ,  6-N ) :   1.0413
B(  4-C , 15-H ) :   0.9116 B(  5-C , 16-H ) :   0.9416 B(  5-C , 17-H ) :   0.9523
B(  5-C , 18-H ) :   0.9525 B(  6-N , 19-H ) :   0.9445

FINAL SINGLE POINT ENERGY      -290.575209518809

DIPOLE MOMENT
-------------
                                X             Y             Z
Electronic contribution:      1.25266      -0.73824       0.05746
Nuclear contribution   :     -1.67009       0.87287       0.09440
                        -----------------------------------------
Total Dipole Moment    :     -0.41743       0.13463       0.15185
                        -----------------------------------------
Magnitude (a.u.)       :      0.46415
Magnitude (Debye)      :      1.17978

                             ****ORCA TERMINATED NORMALLY****
TOTAL RUN TIME: 0 days 0 hours 0 minutes 8 seconds 203 msec
