                         Program Version 3.0.3 - RELEASE   -
|  1> ! RI PBE def2-SVP def2-SVP/J NBO PAL2
|  2> % maxcore 2000
|  3> % output
|  4>     # printlevel mini
|  5>     print[ P_Basis ] 0
|  6>     print[ P_SCFInfo ] 1
|  7>     print[ P_SCFIterInfo ] 1
|  8>     print[ P_OrbEn ] 0
|  9>     print[ P_Cartesian ] 0
| 10> end
| 11> *xyz 0 1
| 12>  C        2.6532630000    -1.3904270000     0.4173520000
| 13>  C        2.3998010000    -0.1381330000     0.0320640000
| 14>  C        2.9846480000     0.5749070000    -1.0743640000
| 15>  C        2.7468840000     1.8683030000    -1.5005680000
| 16>  C        3.5607810000     2.1127880000    -2.6263220000
| 17>  C        4.2765100000     0.9644410000    -2.8620860000
| 18>  N        3.9209950000     0.0478240000    -1.9222570000
| 19>  H        2.1484850000    -1.8232440000     1.2710930000
| 20>  H        3.3650300000    -2.0311200000    -0.0935420000
| 21>  H        1.6735470000     0.4424440000     0.5940020000
| 22>  H        2.0542510000     2.5542390000    -1.0370680000
| 23>  H        3.6205650000     3.0225480000    -3.2023900000
| 24>  H        5.0059620000     0.7325810000    -3.6216810000
| 25>  H        4.2907880000    -0.8826500000    -1.8578220000
| 26> *
| 27>
| 28>                          ****END OF INPUT****
 Total Charge           Charge          ....    0
 Multiplicity           Mult            ....    1
 Number of Electrons    NEL             ....   50
 Basis Dimension        Dim             ....  133

MULLIKEN ATOMIC CHARGES
-----------------------
   0 C :   -0.065452
   1 C :    0.039241
   2 C :    0.018438
   3 C :   -0.050185
   4 C :   -0.017927
   5 C :    0.048467
   6 N :   -0.042924
   7 H :    0.023737
   8 H :   -0.000081
   9 H :   -0.013421
  10 H :   -0.028602
  11 H :   -0.018695
  12 H :   -0.003000
  13 H :    0.110405
Sum of atomic charges:   -0.0000000

LOEWDIN ATOMIC CHARGES
----------------------
   0 C :   -0.086644
   1 C :   -0.034513
   2 C :   -0.039401
   3 C :   -0.068061
   4 C :   -0.082703
   5 C :   -0.022464
   6 N :    0.106703
   7 H :    0.026632
   8 H :    0.012138
   9 H :    0.037185
  10 H :    0.024294
  11 H :    0.025028
  12 H :    0.019602
  13 H :    0.082204

  Mayer bond orders larger than 0.1
B(  0-C ,  1-C ) :   1.8672 B(  0-C ,  7-H ) :   0.9332 B(  0-C ,  8-H ) :   0.9535
B(  1-C ,  2-C ) :   1.1574 B(  1-C ,  9-H ) :   0.9431 B(  2-C ,  3-C ) :   1.3918
B(  2-C ,  6-N ) :   1.2253 B(  3-C ,  4-C ) :   1.3141 B(  3-C , 10-H ) :   1.0062
B(  4-C ,  5-C ) :   1.4449 B(  4-C , 11-H ) :   1.0031 B(  5-C ,  6-N ) :   1.2306
B(  5-C , 12-H ) :   0.9850 B(  6-N , 13-H ) :   0.9336

FINAL SINGLE POINT ENERGY      -287.001943001161

DIPOLE MOMENT
-------------
                                X             Y             Z
Electronic contribution:      0.77136       1.25226      -1.62721
Nuclear contribution   :     -0.42800      -1.68402       1.45332
                        -----------------------------------------
Total Dipole Moment    :      0.34336      -0.43176      -0.17389
                        -----------------------------------------
Magnitude (a.u.)       :      0.57840
Magnitude (Debye)      :      1.47018

                             ****ORCA TERMINATED NORMALLY****
TOTAL RUN TIME: 0 days 0 hours 0 minutes 7 seconds 153 msec
