                         Program Version 3.0.3 - RELEASE   -
|  1> ! RI PBE def2-SVP def2-SVP/J NBO PAL2
|  2> % maxcore 2000
|  3> % output
|  4>     # printlevel mini
|  5>     print[ P_Basis ] 0
|  6>     print[ P_SCFInfo ] 1
|  7>     print[ P_SCFIterInfo ] 1
|  8>     print[ P_OrbEn ] 0
|  9>     print[ P_Cartesian ] 0
| 10> end
| 11> *xyz 0 1
| 12>  C        1.0437660000    -0.0551510000     0.0480580000
| 13>  C        2.2463290000     0.0080250000     0.0514120000
| 14>  C        3.6524270000     0.0732840000     0.0552610000
| 15>  C        4.5090880000     1.1579200000     0.0575270000
| 16>  C        5.8261800000     0.6580530000     0.0611790000
| 17>  C        5.7446540000    -0.7145050000     0.0610520000
| 18>  N        4.4316520000    -1.0559410000     0.0574730000
| 19>  H       -0.0191950000    -0.1021480000     0.0450500000
| 20>  H        4.1980740000     2.1903060000     0.0565990000
| 21>  H        6.7373250000     1.2349890000     0.0636370000
| 22>  H        6.5176560000    -1.4660360000     0.0632260000
| 23>  H        4.0659240000    -1.9909950000     0.0565360000
| 24> *
| 25>
| 26>                          ****END OF INPUT****
 Total Charge           Charge          ....    0
 Multiplicity           Mult            ....    1
 Number of Electrons    NEL             ....   48
 Basis Dimension        Dim             ....  123

MULLIKEN ATOMIC CHARGES
-----------------------
   0 C :   -0.507574
   1 C :    0.446112
   2 C :    0.006542
   3 C :   -0.020468
   4 C :   -0.014035
   5 C :    0.049153
   6 N :   -0.036294
   7 H :    0.002941
   8 H :   -0.023083
   9 H :   -0.016281
  10 H :    0.000078
  11 H :    0.112909
Sum of atomic charges:   -0.0000000

LOEWDIN ATOMIC CHARGES
----------------------
   0 C :   -0.074845
   1 C :   -0.032321
   2 C :   -0.053328
   3 C :   -0.053856
   4 C :   -0.079276
   5 C :   -0.023447
   6 N :    0.116243
   7 H :    0.034612
   8 H :    0.029562
   9 H :    0.026950
  10 H :    0.021773
  11 H :    0.087934

  Mayer bond orders larger than 0.1
B(  0-C ,  1-C ) :   2.1892 B(  0-C ,  7-H ) :   1.0991 B(  1-C ,  2-C ) :   0.9245
B(  1-C ,  7-H ) :  -0.1098 B(  2-C ,  3-C ) :   1.4298 B(  2-C ,  5-C ) :   0.1068
B(  2-C ,  6-N ) :   1.2266 B(  3-C ,  4-C ) :   1.3148 B(  3-C ,  8-H ) :   1.0169
B(  4-C ,  5-C ) :   1.4352 B(  4-C ,  9-H ) :   0.9998 B(  5-C ,  6-N ) :   1.2342
B(  5-C , 10-H ) :   0.9854 B(  6-N , 11-H ) :   0.9397

FINAL SINGLE POINT ENERGY      -285.756775785995

DIPOLE MOMENT
-------------
                                X             Y             Z
Electronic contribution:     -1.48246      -0.64217      -0.00399
Nuclear contribution   :      1.62508      -0.06021       0.00435
                        -----------------------------------------
Total Dipole Moment    :      0.14261      -0.70238       0.00037
                        -----------------------------------------
Magnitude (a.u.)       :      0.71671
Magnitude (Debye)      :      1.82174

                             ****ORCA TERMINATED NORMALLY****
TOTAL RUN TIME: 0 days 0 hours 0 minutes 6 seconds 308 msec
