                         Program Version 3.0.3 - RELEASE   -
|  1> ! RI PBE def2-SVP def2-SVP/J NBO PAL2
|  2> % maxcore 2000
|  3> % output
|  4>     # printlevel mini
|  5>     print[ P_Basis ] 0
|  6>     print[ P_SCFInfo ] 1
|  7>     print[ P_SCFIterInfo ] 1
|  8>     print[ P_OrbEn ] 0
|  9>     print[ P_Cartesian ] 0
| 10> end
| 11> *xyz 0 1
| 12>  C        3.3893210000     0.1580660000    -1.1717660000
| 13>  C        2.5699810000    -0.0634680000     0.0975330000
| 14>  C        2.9817000000    -1.2584020000     0.8845080000
| 15>  C        3.5881790000    -1.3633040000     2.1131780000
| 16>  C        3.7779310000    -2.7407330000     2.3910190000
| 17>  C        3.2817670000    -3.4403860000     1.3236950000
| 18>  N        2.8055030000    -2.5327360000     0.4206770000
| 19>  H        3.0540690000     1.0522600000    -1.7028280000
| 20>  H        3.3010620000    -0.6866190000    -1.8600510000
| 21>  H        4.4480500000     0.2776220000    -0.9328250000
| 22>  H        1.5066380000    -0.1341580000    -0.1635510000
| 23>  H        2.6618940000     0.8088650000     0.7487730000
| 24>  H        3.8632840000    -0.5313310000     2.7437440000
| 25>  H        4.2253270000    -3.1697190000     3.2739220000
| 26>  H        3.2265790000    -4.5005300000     1.1356420000
| 27>  H        2.3748060000    -2.7679270000    -0.4549590000
| 28> *
| 29>
| 30>                          ****END OF INPUT****
 Total Charge           Charge          ....    0
 Multiplicity           Mult            ....    1
 Number of Electrons    NEL             ....   52
 Basis Dimension        Dim             ....  143

MULLIKEN ATOMIC CHARGES
-----------------------
   0 C :   -0.025436
   1 C :    0.078122
   2 C :   -0.057489
   3 C :   -0.059498
   4 C :   -0.027715
   5 C :    0.034618
   6 N :   -0.052210
   7 H :    0.020075
   8 H :    0.013903
   9 H :    0.030162
  10 H :    0.012035
  11 H :    0.005553
  12 H :   -0.039410
  13 H :   -0.025569
  14 H :   -0.010700
  15 H :    0.103560
Sum of atomic charges:    0.0000000

LOEWDIN ATOMIC CHARGES
----------------------
   0 C :   -0.065453
   1 C :   -0.047348
   2 C :   -0.038241
   3 C :   -0.093247
   4 C :   -0.087943
   5 C :   -0.044144
   6 N :    0.097535
   7 H :    0.026016
   8 H :    0.019570
   9 H :    0.030294
  10 H :    0.029041
  11 H :    0.038222
  12 H :    0.019932
  13 H :    0.021899
  14 H :    0.015774
  15 H :    0.078094

  Mayer bond orders larger than 0.1
B(  0-C ,  1-C ) :   1.1103 B(  0-C ,  7-H ) :   0.9585 B(  0-C ,  8-H ) :   0.9689
B(  0-C ,  9-H ) :   0.9639 B(  1-C ,  2-C ) :   1.0813 B(  1-C , 10-H ) :   0.9117
B(  1-C , 11-H ) :   0.9074 B(  2-C ,  3-C ) :   1.4959 B(  2-C ,  5-C ) :   0.1058
B(  2-C ,  6-N ) :   1.2324 B(  3-C ,  4-C ) :   1.2866 B(  3-C , 12-H ) :   1.0068
B(  4-C ,  5-C ) :   1.4831 B(  4-C , 13-H ) :   1.0004 B(  5-C ,  6-N ) :   1.2050
B(  5-C , 14-H ) :   0.9857 B(  6-N , 15-H ) :   0.9403

FINAL SINGLE POINT ENERGY      -288.216845114193

DIPOLE MOMENT
-------------
                                X             Y             Z
Electronic contribution:     -0.29548      -4.28900       3.45003
Nuclear contribution   :     -0.04362       4.23373      -4.16868
                        -----------------------------------------
Total Dipole Moment    :     -0.33910      -0.05527      -0.71865
                        -----------------------------------------
Magnitude (a.u.)       :      0.79655
Magnitude (Debye)      :      2.02468

                             ****ORCA TERMINATED NORMALLY****
TOTAL RUN TIME: 0 days 0 hours 0 minutes 7 seconds 441 msec
