                         Program Version 3.0.3 - RELEASE   -
|  1> ! RI PBE def2-SVP def2-SVP/J NBO PAL2
|  2> % maxcore 2000
|  3> % output
|  4>     # printlevel mini
|  5>     print[ P_Basis ] 0
|  6>     print[ P_SCFInfo ] 1
|  7>     print[ P_SCFIterInfo ] 1
|  8>     print[ P_OrbEn ] 0
|  9>     print[ P_Cartesian ] 0
| 10> end
| 11> *xyz 0 1
| 12>  C        2.4283110000    -1.4671850000     0.7408080000
| 13>  C        2.4967920000    -0.0946500000     0.0917000000
| 14>  C        3.0080780000     0.9995860000     1.0009790000
| 15>  C        2.9467700000     2.4528550000     0.5014940000
| 16>  C        2.4765490000     2.8024450000     1.9176660000
| 17>  N        2.1497500000     1.3907930000     2.1338920000
| 18>  C        2.4205330000     0.8500350000     3.4373010000
| 19>  H        2.1145780000    -2.2279810000     0.0224100000
| 20>  H        1.7097690000    -1.4776100000     1.5632210000
| 21>  H        3.4013470000    -1.7689880000     1.1395290000
| 22>  H        1.5038710000     0.1960060000    -0.2672370000
| 23>  H        3.1522670000    -0.1325650000    -0.7868960000
| 24>  H        4.0285560000     0.7522180000     1.3469840000
| 25>  H        2.1651270000     2.5908780000    -0.2471020000
| 26>  H        3.8732320000     2.9053700000     0.1519960000
| 27>  H        1.6392970000     3.4962330000     2.0344320000
| 28>  H        3.3106040000     3.1443100000     2.5515530000
| 29>  H        1.7787560000     1.3362920000     4.1770110000
| 30>  H        3.4711500000     0.9957700000     3.7496490000
| 31>  H        2.2046540000    -0.2197030000     3.4637080000
| 32> *
| 33>
| 34>                          ****END OF INPUT****
 Total Charge           Charge          ....    0
 Multiplicity           Mult            ....    1
 Number of Electrons    NEL             ....   56
 Basis Dimension        Dim             ....  163

MULLIKEN ATOMIC CHARGES
-----------------------
   0 C :   -0.033983
   1 C :    0.071988
   2 C :   -0.035083
   3 C :    0.014509
   4 C :    0.126052
   5 N :   -0.338853
   6 C :    0.096598
   7 H :    0.020334
   8 H :    0.032995
   9 H :    0.013780
  10 H :   -0.009061
  11 H :    0.008701
  12 H :   -0.026920
  13 H :    0.012389
  14 H :    0.017396
  15 H :    0.013861
  16 H :   -0.011212
  17 H :    0.019573
  18 H :   -0.011873
  19 H :    0.018810
Sum of atomic charges:    0.0000000

LOEWDIN ATOMIC CHARGES
----------------------
   0 C :   -0.069051
   1 C :   -0.050003
   2 C :    0.024800
   3 C :   -0.034699
   4 C :    0.031393
   5 N :   -0.119118
   6 C :   -0.006862
   7 H :    0.027820
   8 H :    0.026430
   9 H :    0.023492
  10 H :    0.022488
  11 H :    0.027011
  12 H :   -0.000689
  13 H :    0.026075
  14 H :    0.020030
  15 H :    0.010934
  16 H :    0.000931
  17 H :    0.023803
  18 H :   -0.004941
  19 H :    0.020156

  Mayer bond orders larger than 0.1
B(  0-C ,  1-C ) :   1.1275 B(  0-C ,  7-H ) :   0.9570 B(  0-C ,  8-H ) :   0.9616
B(  0-C ,  9-H ) :   0.9628 B(  1-C ,  2-C ) :   1.0811 B(  1-C , 10-H ) :   0.9056
B(  1-C , 11-H ) :   0.9246 B(  2-C ,  3-C ) :   1.0703 B(  2-C ,  5-N ) :   1.0060
B(  2-C , 12-H ) :   0.8908 B(  3-C ,  4-C ) :   1.1140 B(  3-C , 13-H ) :   0.9071
B(  3-C , 14-H ) :   0.9417 B(  4-C ,  5-N ) :   1.0210 B(  4-C , 15-H ) :   0.9392
B(  4-C , 16-H ) :   0.9139 B(  5-N ,  6-C ) :   1.0424 B(  6-C , 17-H ) :   0.9656
B(  6-C , 18-H ) :   0.9378 B(  6-C , 19-H ) :   0.9656

FINAL SINGLE POINT ENERGY      -290.568510122013

DIPOLE MOMENT
-------------
                                X             Y             Z
Electronic contribution:     -0.74132       2.79834      -0.37135
Nuclear contribution   :      0.96223      -2.77221       0.35790
                        -----------------------------------------
Total Dipole Moment    :      0.22091       0.02613      -0.01345
                        -----------------------------------------
Magnitude (a.u.)       :      0.22285
Magnitude (Debye)      :      0.56644

                             ****ORCA TERMINATED NORMALLY****
TOTAL RUN TIME: 0 days 0 hours 0 minutes 8 seconds 868 msec
