                         Program Version 3.0.3 - RELEASE   -
|  1> ! RI PBE def2-SVP def2-SVP/J NBO PAL2
|  2> % maxcore 2000
|  3> % output
|  4>     # printlevel mini
|  5>     print[ P_Basis ] 0
|  6>     print[ P_SCFInfo ] 1
|  7>     print[ P_SCFIterInfo ] 1
|  8>     print[ P_OrbEn ] 0
|  9>     print[ P_Cartesian ] 0
| 10> end
| 11> *xyz 0 1
| 12>  C        3.3321370000    -0.4366800000    -1.2162100000
| 13>  C        2.4590100000     0.0834790000    -0.0891220000
| 14>  C        2.8647920000    -0.3354740000     1.3112040000
| 15>  C        1.8928490000     0.1375000000     2.3632510000
| 16>  C        3.6193800000    -1.5920660000     1.5541340000
| 17>  N        4.2975560000    -0.3130130000     1.5660590000
| 18>  C        4.8214770000     0.1671520000     2.8218350000
| 19>  H        3.0501620000     0.0261230000    -2.1643340000
| 20>  H        3.2309000000    -1.5176930000    -1.3391240000
| 21>  H        4.3828070000    -0.2135800000    -1.0231820000
| 22>  H        1.4198640000    -0.2267530000    -0.2496030000
| 23>  H        2.4521350000     1.1805450000    -0.1101400000
| 24>  H        0.8943820000    -0.2506010000     2.1465500000
| 25>  H        1.8260850000     1.2301540000     2.3662790000
| 26>  H        2.1601880000    -0.1901090000     3.3676400000
| 27>  H        3.8791680000    -2.2647030000     0.7428280000
| 28>  H        3.4541310000    -2.0816320000     2.5130080000
| 29>  H        5.8514800000    -0.1828880000     2.9260240000
| 30>  H        4.2644930000    -0.1670770000     3.7082340000
| 31>  H        4.8403050000     1.2598460000     2.8195700000
| 32> *
| 33>
| 34>                          ****END OF INPUT****
 Total Charge           Charge          ....    0
 Multiplicity           Mult            ....    1
 Number of Electrons    NEL             ....   56
 Basis Dimension        Dim             ....  163

MULLIKEN ATOMIC CHARGES
-----------------------
   0 C :   -0.020056
   1 C :    0.068325
   2 C :   -0.249823
   3 C :    0.097969
   4 C :    0.105912
   5 N :   -0.291613
   6 C :    0.106058
   7 H :    0.009066
   8 H :    0.018475
   9 H :    0.032564
  10 H :    0.001299
  11 H :    0.008747
  12 H :    0.020016
  13 H :    0.022073
  14 H :    0.004253
  15 H :    0.024393
  16 H :    0.008046
  17 H :    0.022581
  18 H :   -0.013481
  19 H :    0.025196
Sum of atomic charges:   -0.0000000

LOEWDIN ATOMIC CHARGES
----------------------
   0 C :   -0.069247
   1 C :   -0.040094
   2 C :   -0.024693
   3 C :   -0.058213
   4 C :    0.006813
   5 N :   -0.104851
   6 C :   -0.001258
   7 H :    0.026248
   8 H :    0.023262
   9 H :    0.028027
  10 H :    0.024217
  11 H :    0.027441
  12 H :    0.033423
  13 H :    0.029830
  14 H :    0.024751
  15 H :    0.015967
  16 H :    0.009439
  17 H :    0.025169
  18 H :   -0.001089
  19 H :    0.024858

  Mayer bond orders larger than 0.1
B(  0-C ,  1-C ) :   1.1326 B(  0-C ,  7-H ) :   0.9534 B(  0-C ,  8-H ) :   0.9586
B(  0-C ,  9-H ) :   0.9521 B(  1-C ,  2-C ) :   1.0305 B(  1-C , 10-H ) :   0.9286
B(  1-C , 11-H ) :   0.9233 B(  2-C ,  3-C ) :   1.0828 B(  2-C ,  4-C ) :   1.0372
B(  2-C ,  5-N ) :   0.9124 B(  3-C , 12-H ) :   0.9468 B(  3-C , 13-H ) :   0.9543
B(  3-C , 14-H ) :   0.9372 B(  4-C ,  5-N ) :   0.9649 B(  4-C , 15-H ) :   0.9243
B(  4-C , 16-H ) :   0.9282 B(  5-N ,  6-C ) :   1.0440 B(  6-C , 17-H ) :   0.9667
B(  6-C , 18-H ) :   0.9355 B(  6-C , 19-H ) :   0.9698

FINAL SINGLE POINT ENERGY      -290.562187766837

DIPOLE MOMENT
-------------
                                X             Y             Z
Electronic contribution:      1.20593      -0.70679       0.22214
Nuclear contribution   :     -1.48813       0.69097       0.12789
                        -----------------------------------------
Total Dipole Moment    :     -0.28220      -0.01582       0.35002
                        -----------------------------------------
Magnitude (a.u.)       :      0.44990
Magnitude (Debye)      :      1.14354

                             ****ORCA TERMINATED NORMALLY****
TOTAL RUN TIME: 0 days 0 hours 0 minutes 8 seconds 927 msec
