                         Program Version 3.0.3 - RELEASE   -
|  1> ! RI PBE def2-SVP def2-SVP/J NBO PAL2
|  2> % maxcore 2000
|  3> % output
|  4>     # printlevel mini
|  5>     print[ P_Basis ] 0
|  6>     print[ P_SCFInfo ] 1
|  7>     print[ P_SCFIterInfo ] 1
|  8>     print[ P_OrbEn ] 0
|  9>     print[ P_Cartesian ] 0
| 10> end
| 11> *xyz 0 1
| 12>  C        1.6716950000     1.1832170000    -0.5368670000
| 13>  C        2.3182000000    -0.0554950000     0.0642620000
| 14>  C        2.9409030000    -0.9300230000    -0.9867100000
| 15>  C        3.0585220000    -2.4099870000    -0.9076590000
| 16>  C        2.5814950000    -3.2465160000     0.2421670000
| 17>  N        2.0730420000    -1.7881710000    -1.7701920000
| 18>  C        2.3243810000    -1.8485410000    -3.1907610000
| 19>  H        1.2192100000     1.8116910000     0.2335210000
| 20>  H        0.8885780000     0.8997360000    -1.2440610000
| 21>  H        2.4045160000     1.7921870000    -1.0740770000
| 22>  H        1.5695250000    -0.6275930000     0.6168750000
| 23>  H        3.0899930000     0.2360180000     0.7857690000
| 24>  H        3.7426350000    -0.4441480000    -1.5480080000
| 25>  H        3.9336930000    -2.8140240000    -1.4198200000
| 26>  H        3.3582610000    -3.3375290000     1.0063760000
| 27>  H        1.6915990000    -2.8182870000     0.7031080000
| 28>  H        2.3266460000    -4.2539310000    -0.0980170000
| 29>  H        1.9440530000    -2.7918050000    -3.5909000000
| 30>  H        3.3949760000    -1.7743900000    -3.4419100000
| 31>  H        1.7990780000    -1.0316080000    -3.6917060000
| 32> *
| 33>
| 34>                          ****END OF INPUT****
 Total Charge           Charge          ....    0
 Multiplicity           Mult            ....    1
 Number of Electrons    NEL             ....   56
 Basis Dimension        Dim             ....  163

MULLIKEN ATOMIC CHARGES
-----------------------
   0 C :   -0.041073
   1 C :    0.095118
   2 C :   -0.048620
   3 C :   -0.065698
   4 C :    0.091649
   5 N :   -0.286394
   6 C :    0.098335
   7 H :    0.020370
   8 H :    0.030383
   9 H :    0.014996
  10 H :   -0.004958
  11 H :    0.010253
  12 H :   -0.003368
  13 H :   -0.000451
  14 H :    0.025032
  15 H :    0.008091
  16 H :    0.019990
  17 H :    0.020469
  18 H :   -0.007718
  19 H :    0.023593
Sum of atomic charges:    0.0000000

LOEWDIN ATOMIC CHARGES
----------------------
   0 C :   -0.066784
   1 C :   -0.044335
   2 C :    0.001340
   3 C :   -0.001965
   4 C :   -0.064794
   5 N :   -0.111639
   6 C :    0.001352
   7 H :    0.026222
   8 H :    0.027889
   9 H :    0.023173
  10 H :    0.026823
  11 H :    0.027172
  12 H :    0.008131
  13 H :    0.009231
  14 H :    0.031395
  15 H :    0.028831
  16 H :    0.031961
  17 H :    0.022753
  18 H :    0.000276
  19 H :    0.022968

  Mayer bond orders larger than 0.1
B(  0-C ,  1-C ) :   1.1131 B(  0-C ,  7-H ) :   0.9600 B(  0-C ,  8-H ) :   0.9682
B(  0-C ,  9-H ) :   0.9651 B(  1-C ,  2-C ) :   1.0750 B(  1-C , 10-H ) :   0.9092
B(  1-C , 11-H ) :   0.9248 B(  2-C ,  3-C ) :   0.9981 B(  2-C ,  5-N ) :   0.9111
B(  2-C , 12-H ) :   0.9231 B(  3-C ,  4-C ) :   1.1055 B(  3-C ,  5-N ) :   0.9323
B(  3-C , 13-H ) :   0.9231 B(  4-C , 14-H ) :   0.9546 B(  4-C , 15-H ) :   0.9398
B(  4-C , 16-H ) :   0.9476 B(  5-N ,  6-C ) :   1.0277 B(  6-C , 17-H ) :   0.9699
B(  6-C , 18-H ) :   0.9376 B(  6-C , 19-H ) :   0.9703

FINAL SINGLE POINT ENERGY      -290.566925557260

DIPOLE MOMENT
-------------
                                X             Y             Z
Electronic contribution:      0.37670      -1.53887      -0.56217
Nuclear contribution   :     -0.03760       1.53235       0.50470
                        -----------------------------------------
Total Dipole Moment    :      0.33909      -0.00652      -0.05747
                        -----------------------------------------
Magnitude (a.u.)       :      0.34399
Magnitude (Debye)      :      0.87436

                             ****ORCA TERMINATED NORMALLY****
TOTAL RUN TIME: 0 days 0 hours 0 minutes 8 seconds 278 msec
