                         Program Version 3.0.3 - RELEASE   -
|  1> ! RI PBE def2-SVP def2-SVP/J NBO PAL2
|  2> % maxcore 2000
|  3> % output
|  4>     # printlevel mini
|  5>     print[ P_Basis ] 0
|  6>     print[ P_SCFInfo ] 1
|  7>     print[ P_SCFIterInfo ] 1
|  8>     print[ P_OrbEn ] 0
|  9>     print[ P_Cartesian ] 0
| 10> end
| 11> *xyz 0 1
| 12>  C        2.3993030000    -0.7704930000    -0.7396230000
| 13>  C        2.0662180000     0.2716300000     0.0103050000
| 14>  C        2.9899950000     1.3506560000     0.4562950000
| 15>  C        2.5554150000     2.7602270000     0.0282370000
| 16>  C        3.0881340000     3.6368180000     1.1573530000
| 17>  N        2.8751590000     2.8674760000     2.3760920000
| 18>  C        3.0982300000     1.4696880000     2.0086770000
| 19>  H        1.6730630000    -1.5239650000    -1.0214790000
| 20>  H        3.4146500000    -0.9052520000    -1.1001500000
| 21>  H        1.0342370000     0.3691930000     0.3497930000
| 22>  H        3.9846270000     1.1464780000     0.0476890000
| 23>  H        1.4617790000     2.8232970000    -0.0013540000
| 24>  H        2.9289530000     3.0268870000    -0.9627570000
| 25>  H        2.6055270000     4.6136040000     1.2264010000
| 26>  H        4.1629750000     3.8103560000     1.0255000000
| 27>  H        1.9141990000     2.9862780000     2.6702830000
| 28>  H        2.3794380000     0.8234600000     2.5182260000
| 29>  H        4.0947990000     1.1511510000     2.3289110000
| 30> *
| 31>
| 32>                          ****END OF INPUT****
 Total Charge           Charge          ....    0
 Multiplicity           Mult            ....    1
 Number of Electrons    NEL             ....   54
 Basis Dimension        Dim             ....  153

MULLIKEN ATOMIC CHARGES
-----------------------
   0 C :   -0.037493
   1 C :   -0.012794
   2 C :   -0.172007
   3 C :    0.039409
   4 C :    0.086288
   5 N :   -0.256648
   6 C :    0.191691
   7 H :    0.021925
   8 H :    0.013920
   9 H :   -0.007841
  10 H :   -0.004467
  11 H :    0.003791
  12 H :    0.009923
  13 H :    0.010208
  14 H :    0.011231
  15 H :    0.094954
  16 H :    0.004611
  17 H :    0.003299
Sum of atomic charges:   -0.0000000

LOEWDIN ATOMIC CHARGES
----------------------
   0 C :   -0.072809
   1 C :   -0.026700
   2 C :   -0.055833
   3 C :   -0.045402
   4 C :    0.009028
   5 N :   -0.098630
   6 C :    0.022811
   7 H :    0.023832
   8 H :    0.020989
   9 H :    0.021324
  10 H :    0.026943
  11 H :    0.019942
  12 H :    0.025171
  13 H :    0.020294
  14 H :    0.017884
  15 H :    0.051780
  16 H :    0.020192
  17 H :    0.019183

  Mayer bond orders larger than 0.1
B(  0-C ,  1-C ) :   2.0084 B(  0-C ,  7-H ) :   0.9396 B(  0-C ,  8-H ) :   0.9468
B(  1-C ,  2-C ) :   1.0260 B(  1-C ,  9-H ) :   0.9430 B(  2-C ,  3-C ) :   1.0750
B(  2-C ,  6-C ) :   0.9951 B(  2-C , 10-H ) :   0.9061 B(  3-C ,  4-C ) :   1.0614
B(  3-C , 11-H ) :   0.9279 B(  3-C , 12-H ) :   0.9280 B(  4-C ,  5-N ) :   1.0809
B(  4-C , 13-H ) :   0.9442 B(  4-C , 14-H ) :   0.9325 B(  5-N ,  6-C ) :   1.0847
B(  5-N , 15-H ) :   0.9503 B(  6-C , 16-H ) :   0.9433 B(  6-C , 17-H ) :   0.9261

FINAL SINGLE POINT ENERGY      -289.371347858474

DIPOLE MOMENT
-------------
                                X             Y             Z
Electronic contribution:     -0.02130       0.23755       1.20193
Nuclear contribution   :     -0.29434      -0.15498      -1.36784
                        -----------------------------------------
Total Dipole Moment    :     -0.31564       0.08256      -0.16591
                        -----------------------------------------
Magnitude (a.u.)       :      0.36602
Magnitude (Debye)      :      0.93036

                             ****ORCA TERMINATED NORMALLY****
TOTAL RUN TIME: 0 days 0 hours 0 minutes 7 seconds 740 msec
