                         Program Version 3.0.3 - RELEASE   -
|  1> ! RI PBE def2-SVP def2-SVP/J NBO PAL2
|  2> % maxcore 2000
|  3> % output
|  4>     # printlevel mini
|  5>     print[ P_Basis ] 0
|  6>     print[ P_SCFInfo ] 1
|  7>     print[ P_SCFIterInfo ] 1
|  8>     print[ P_OrbEn ] 0
|  9>     print[ P_Cartesian ] 0
| 10> end
| 11> *xyz 0 1
| 12>  C        2.7167330000     0.9857530000    -0.3507840000
| 13>  C        2.2114770000    -0.2269740000    -0.1234810000
| 14>  C        2.9276780000    -1.3196000000     0.4959400000
| 15>  C        2.4612530000    -2.5536550000     0.7053880000
| 16>  C        3.4895460000    -3.4235180000     1.3414170000
| 17>  N        4.5446700000    -2.4811150000     1.7025570000
| 18>  C        4.3474510000    -1.2287610000     0.9778410000
| 19>  H        2.1274550000     1.7614700000    -0.8241310000
| 20>  H        3.7328540000     1.2427380000    -0.0721600000
| 21>  H        1.1870880000    -0.4388440000    -0.4206370000
| 22>  H        1.4698580000    -2.9010210000     0.4405120000
| 23>  H        3.8197920000    -4.2070670000     0.6375880000
| 24>  H        3.1016790000    -3.9459950000     2.2261070000
| 25>  H        5.4676640000    -2.8634130000     1.5696840000
| 26>  H        5.0289990000    -1.1012770000     0.1204260000
| 27>  H        4.5001820000    -0.3633120000     1.6349430000
| 28> *
| 29>
| 30>                          ****END OF INPUT****
 Total Charge           Charge          ....    0
 Multiplicity           Mult            ....    1
 Number of Electrons    NEL             ....   52
 Basis Dimension        Dim             ....  143

MULLIKEN ATOMIC CHARGES
-----------------------
   0 C :   -0.047040
   1 C :    0.022414
   2 C :   -0.112223
   3 C :   -0.151012
   4 C :    0.207569
   5 N :   -0.295713
   6 C :    0.225725
   7 H :    0.026789
   8 H :    0.021297
   9 H :   -0.018976
  10 H :   -0.016587
  11 H :    0.010497
  12 H :    0.015250
  13 H :    0.094500
  14 H :    0.006171
  15 H :    0.011339
Sum of atomic charges:   -0.0000000

LOEWDIN ATOMIC CHARGES
----------------------
   0 C :   -0.056900
   1 C :   -0.027585
   2 C :   -0.045924
   3 C :   -0.028555
   4 C :    0.020882
   5 N :   -0.109555
   6 C :    0.026677
   7 H :    0.026130
   8 H :    0.022571
   9 H :    0.030249
  10 H :    0.023661
  11 H :    0.014634
  12 H :    0.020282
  13 H :    0.052893
  14 H :    0.012494
  15 H :    0.018048

  Mayer bond orders larger than 0.1
B(  0-C ,  1-C ) :   1.8868 B(  0-C ,  3-C ) :   0.1338 B(  0-C ,  7-H ) :   0.9399
B(  0-C ,  8-H ) :   0.9387 B(  1-C ,  2-C ) :   1.1536 B(  1-C ,  9-H ) :   0.9547
B(  2-C ,  3-C ) :   1.7638 B(  2-C ,  6-C ) :   1.0273 B(  3-C ,  4-C ) :   1.0112
B(  3-C , 10-H ) :   0.9801 B(  4-C ,  5-N ) :   1.0512 B(  4-C , 11-H ) :   0.9060
B(  4-C , 12-H ) :   0.9174 B(  5-N ,  6-C ) :   1.0414 B(  5-N , 13-H ) :   0.9448
B(  6-C , 14-H ) :   0.9010 B(  6-C , 15-H ) :   0.9051

FINAL SINGLE POINT ENERGY      -288.163449645276

DIPOLE MOMENT
-------------
                                X             Y             Z
Electronic contribution:     -0.72032      -0.71658       0.50469
Nuclear contribution   :      0.83840       0.47945      -0.84919
                        -----------------------------------------
Total Dipole Moment    :      0.11808      -0.23713      -0.34450
                        -----------------------------------------
Magnitude (a.u.)       :      0.43457
Magnitude (Debye)      :      1.10460

                             ****ORCA TERMINATED NORMALLY****
TOTAL RUN TIME: 0 days 0 hours 0 minutes 6 seconds 949 msec
