                         Program Version 3.0.3 - RELEASE   -
|  1> ! RI PBE def2-SVP def2-SVP/J NBO PAL2
|  2> % maxcore 2000
|  3> % output
|  4>     # printlevel mini
|  5>     print[ P_Basis ] 0
|  6>     print[ P_SCFInfo ] 1
|  7>     print[ P_SCFIterInfo ] 1
|  8>     print[ P_OrbEn ] 0
|  9>     print[ P_Cartesian ] 0
| 10> end
| 11> *xyz 0 1
| 12>  C        1.2189580000    -0.1156230000     0.7657930000
| 13>  C        2.3246360000    -0.0665300000     0.2971360000
| 14>  C        3.6752140000    -0.0228920000    -0.2412780000
| 15>  C        4.5027020000     1.1408710000     0.3481660000
| 16>  C        5.3382050000     0.4886660000     1.4803490000
| 17>  N        4.9773570000    -0.9263970000     1.5439470000
| 18>  C        4.4923350000    -1.2516730000     0.2177860000
| 19>  H        0.2347880000    -0.1543630000     1.1688490000
| 20>  H        3.6168800000     0.0402890000    -1.3318620000
| 21>  H        3.8581150000     1.9416460000     0.7098010000
| 22>  H        5.1512830000     1.5619680000    -0.4225170000
| 23>  H        5.1757360000     0.9617660000     2.4497220000
| 24>  H        6.4049810000     0.5768900000     1.2533060000
| 25>  H        4.2165210000    -1.0477560000     2.2020730000
| 26>  H        3.9154970000    -2.1765250000     0.2187840000
| 27>  H        5.3457230000    -1.3787360000    -0.4581350000
| 28> *
| 29>
| 30>                          ****END OF INPUT****
 Total Charge           Charge          ....    0
 Multiplicity           Mult            ....    1
 Number of Electrons    NEL             ....   52
 Basis Dimension        Dim             ....  143

MULLIKEN ATOMIC CHARGES
-----------------------
   0 C :   -0.512177
   1 C :    0.424520
   2 C :   -0.174747
   3 C :    0.040084
   4 C :    0.094960
   5 N :   -0.233061
   6 C :    0.129631
   7 H :   -0.004577
   8 H :    0.033449
   9 H :    0.022487
  10 H :    0.010159
  11 H :    0.015199
  12 H :    0.012501
  13 H :    0.101709
  14 H :    0.024890
  15 H :    0.014974
Sum of atomic charges:    0.0000000

LOEWDIN ATOMIC CHARGES
----------------------
   0 C :   -0.099115
   1 C :   -0.019737
   2 C :   -0.067275
   3 C :   -0.039686
   4 C :    0.011386
   5 N :   -0.093511
   6 C :    0.025996
   7 H :    0.033786
   8 H :    0.045317
   9 H :    0.031373
  10 H :    0.026429
  11 H :    0.023028
  12 H :    0.020150
  13 H :    0.055464
  14 H :    0.026090
  15 H :    0.020308

  Mayer bond orders larger than 0.1
B(  0-C ,  1-C ) :   2.2784 B(  0-C ,  7-H ) :   1.1070 B(  1-C ,  2-C ) :   0.9871
B(  1-C ,  7-H ) :  -0.1169 B(  2-C ,  3-C ) :   1.0817 B(  2-C ,  6-C ) :   1.0208
B(  2-C ,  8-H ) :   0.8663 B(  3-C ,  4-C ) :   1.0515 B(  3-C ,  9-H ) :   0.9325
B(  3-C , 10-H ) :   0.9234 B(  4-C ,  5-N ) :   1.0942 B(  4-C , 11-H ) :   0.9488
B(  4-C , 12-H ) :   0.9343 B(  5-N ,  6-C ) :   1.0844 B(  5-N , 13-H ) :   0.9509
B(  6-C , 14-H ) :   0.9469 B(  6-C , 15-H ) :   0.9291

FINAL SINGLE POINT ENERGY      -288.128578326805

DIPOLE MOMENT
-------------
                                X             Y             Z
Electronic contribution:     -3.11138      -1.00957      -0.00913
Nuclear contribution   :      3.02972       1.23884      -0.05713
                        -----------------------------------------
Total Dipole Moment    :     -0.08166       0.22927      -0.06626
                        -----------------------------------------
Magnitude (a.u.)       :      0.25224
Magnitude (Debye)      :      0.64114

                             ****ORCA TERMINATED NORMALLY****
TOTAL RUN TIME: 0 days 0 hours 0 minutes 7 seconds 564 msec
