                         Program Version 3.0.3 - RELEASE   -
|  1> ! RI PBE def2-SVP def2-SVP/J NBO PAL2
|  2> % maxcore 2000
|  3> % output
|  4>     # printlevel mini
|  5>     print[ P_Basis ] 0
|  6>     print[ P_SCFInfo ] 1
|  7>     print[ P_SCFIterInfo ] 1
|  8>     print[ P_OrbEn ] 0
|  9>     print[ P_Cartesian ] 0
| 10> end
| 11> *xyz 0 1
| 12>  C        0.9537360000     0.0007560000    -0.0422930000
| 13>  C        2.1540990000    -0.0828200000    -0.0839040000
| 14>  C        3.5648590000    -0.1157130000    -0.1337630000
| 15>  C        4.3559230000    -1.1892890000    -0.1972080000
| 16>  C        5.7961460000    -0.7751650000    -0.1572700000
| 17>  N        5.7797230000     0.6806710000    -0.3233180000
| 18>  C        4.4192120000     1.1334400000    -0.0405420000
| 19>  H       -0.1081730000     0.0594320000    -0.0059540000
| 20>  H        4.0161820000    -2.2169300000    -0.2135690000
| 21>  H        6.4066010000    -1.2522160000    -0.9300760000
| 22>  H        6.2434820000    -1.0564930000     0.8076040000
| 23>  H        5.9969110000     0.8955080000    -1.2862180000
| 24>  H        4.1054820000     1.9153120000    -0.7365180000
| 25>  H        4.3408190000     1.5549970000     0.9704420000
| 26> *
| 27>
| 28>                          ****END OF INPUT****
 Total Charge           Charge          ....    0
 Multiplicity           Mult            ....    1
 Number of Electrons    NEL             ....   50
 Basis Dimension        Dim             ....  133

MULLIKEN ATOMIC CHARGES
-----------------------
   0 C :   -0.461484
   1 C :    0.430191
   2 C :   -0.173083
   3 C :   -0.089837
   4 C :    0.155808
   5 N :   -0.269544
   6 C :    0.205876
   7 H :    0.004440
   8 H :   -0.008915
   9 H :    0.024731
  10 H :    0.030015
  11 H :    0.102185
  12 H :    0.023820
  13 H :    0.025796
Sum of atomic charges:   -0.0000000

LOEWDIN ATOMIC CHARGES
----------------------
   0 C :   -0.067431
   1 C :   -0.017194
   2 C :   -0.071980
   3 C :   -0.020671
   4 C :    0.016700
   5 N :   -0.099666
   6 C :    0.034051
   7 H :    0.035298
   8 H :    0.028559
   9 H :    0.026156
  10 H :    0.026304
  11 H :    0.056809
  12 H :    0.027048
  13 H :    0.026018

  Mayer bond orders larger than 0.1
B(  0-C ,  1-C ) :   2.2314 B(  0-C ,  3-C ) :   0.1252 B(  0-C ,  7-H ) :   1.0949
B(  1-C ,  2-C ) :   1.0353 B(  1-C ,  7-H ) :  -0.1047 B(  2-C ,  3-C ) :   1.7825
B(  2-C ,  6-C ) :   0.9887 B(  3-C ,  4-C ) :   0.9909 B(  3-C ,  8-H ) :   0.9909
B(  4-C ,  5-N ) :   1.0725 B(  4-C ,  9-H ) :   0.9348 B(  4-C , 10-H ) :   0.9067
B(  5-N ,  6-C ) :   1.0573 B(  5-N , 11-H ) :   0.9554 B(  6-C , 12-H ) :   0.9368
B(  6-C , 13-H ) :   0.9082

FINAL SINGLE POINT ENERGY      -286.918047906215

DIPOLE MOMENT
-------------
                                X             Y             Z
Electronic contribution:     -3.14600      -0.28390      -0.01686
Nuclear contribution   :      3.18893       0.11592      -0.33583
                        -----------------------------------------
Total Dipole Moment    :      0.04293      -0.16798      -0.35269
                        -----------------------------------------
Magnitude (a.u.)       :      0.39301
Magnitude (Debye)      :      0.99894

                             ****ORCA TERMINATED NORMALLY****
TOTAL RUN TIME: 0 days 0 hours 0 minutes 6 seconds 687 msec
