                         Program Version 3.0.3 - RELEASE   -
|  1> ! RI PBE def2-SVP def2-SVP/J NBO PAL2
|  2> % maxcore 2000
|  3> % output
|  4>     # printlevel mini
|  5>     print[ P_Basis ] 0
|  6>     print[ P_SCFInfo ] 1
|  7>     print[ P_SCFIterInfo ] 1
|  8>     print[ P_OrbEn ] 0
|  9>     print[ P_Cartesian ] 0
| 10> end
| 11> *xyz 0 1
| 12>  C        0.9665140000     0.1169340000    -0.1511240000
| 13>  C        2.4441470000    -0.0871770000    -0.1501650000
| 14>  C        3.1042410000    -1.0115790000    -0.8382490000
| 15>  C        2.5295790000    -2.0383040000    -1.7856740000
| 16>  C        3.7562380000    -2.8790620000    -2.1732810000
| 17>  N        4.9214270000    -2.0140420000    -2.0138410000
| 18>  C        4.6069290000    -1.2087940000    -0.8363320000
| 19>  H        0.7084250000     1.1327780000    -0.4686970000
| 20>  H        0.5483540000    -0.0098100000     0.8532710000
| 21>  H        0.4571870000    -0.5819360000    -0.8162640000
| 22>  H        3.0197340000     0.5923180000     0.4769250000
| 23>  H        2.1058800000    -1.5483460000    -2.6697840000
| 24>  H        1.7303450000    -2.6329570000    -1.3354100000
| 25>  H        3.7086190000    -3.2823100000    -3.1858800000
| 26>  H        3.8602460000    -3.7268170000    -1.4871640000
| 27>  H        4.9786570000    -1.3990090000    -2.8180460000
| 28>  H        5.1661310000    -0.2714090000    -0.8367450000
| 29>  H        4.9105480000    -1.7676790000     0.0585520000
| 30> *
| 31>
| 32>                          ****END OF INPUT****
 Total Charge           Charge          ....    0
 Multiplicity           Mult            ....    1
 Number of Electrons    NEL             ....   54
 Basis Dimension        Dim             ....  153

MULLIKEN ATOMIC CHARGES
-----------------------
   0 C :    0.048827
   1 C :   -0.132578
   2 C :   -0.230322
   3 C :    0.058509
   4 C :    0.084570
   5 N :   -0.255192
   6 C :    0.192853
   7 H :    0.024413
   8 H :    0.027104
   9 H :    0.018482
  10 H :   -0.022407
  11 H :    0.020898
  12 H :    0.020604
  13 H :    0.005432
  14 H :    0.012995
  15 H :    0.094975
  16 H :    0.011740
  17 H :    0.019097
Sum of atomic charges:   -0.0000000

LOEWDIN ATOMIC CHARGES
----------------------
   0 C :   -0.066555
   1 C :   -0.065073
   2 C :   -0.062829
   3 C :   -0.057188
   4 C :    0.011739
   5 N :   -0.099216
   6 C :    0.013651
   7 H :    0.034503
   8 H :    0.035544
   9 H :    0.028545
  10 H :    0.020601
  11 H :    0.031881
  12 H :    0.030945
  13 H :    0.019384
  14 H :    0.019356
  15 H :    0.051466
  16 H :    0.026204
  17 H :    0.027043

  Mayer bond orders larger than 0.1
B(  0-C ,  1-C ) :   1.0908 B(  0-C ,  7-H ) :   0.9448 B(  0-C ,  8-H ) :   0.9454
B(  0-C ,  9-H ) :   0.9557 B(  1-C ,  2-C ) :   1.9433 B(  1-C , 10-H ) :   0.9407
B(  2-C ,  3-C ) :   1.0693 B(  2-C ,  6-C ) :   1.0189 B(  3-C ,  4-C ) :   1.0712
B(  3-C , 11-H ) :   0.9009 B(  3-C , 12-H ) :   0.9091 B(  4-C ,  5-N ) :   1.0860
B(  4-C , 13-H ) :   0.9428 B(  4-C , 14-H ) :   0.9289 B(  5-N ,  6-C ) :   1.0644
B(  5-N , 15-H ) :   0.9544 B(  6-C , 16-H ) :   0.9365 B(  6-C , 17-H ) :   0.9075

FINAL SINGLE POINT ENERGY      -289.379628827845

DIPOLE MOMENT
-------------
                                X             Y             Z
Electronic contribution:      3.20915      -0.61456      -0.57071
Nuclear contribution   :     -3.59424       0.84449       0.39881
                        -----------------------------------------
Total Dipole Moment    :     -0.38508       0.22994      -0.17190
                        -----------------------------------------
Magnitude (a.u.)       :      0.48032
Magnitude (Debye)      :      1.22089

                             ****ORCA TERMINATED NORMALLY****
TOTAL RUN TIME: 0 days 0 hours 0 minutes 7 seconds 991 msec
