                         Program Version 3.0.3 - RELEASE   -
|  1> ! RI PBE def2-SVP def2-SVP/J NBO PAL2
|  2> % maxcore 2000
|  3> % output
|  4>     # printlevel mini
|  5>     print[ P_Basis ] 0
|  6>     print[ P_SCFInfo ] 1
|  7>     print[ P_SCFIterInfo ] 1
|  8>     print[ P_OrbEn ] 0
|  9>     print[ P_Cartesian ] 0
| 10> end
| 11> *xyz 0 1
| 12>  C        1.1540950000    -0.5708090000     0.3559610000
| 13>  C        2.5865180000    -0.1338490000     0.0589810000
| 14>  C        3.0619840000     0.9820480000     0.9257770000
| 15>  C        4.0484510000     0.9589010000     1.8158200000
| 16>  C        4.2310360000     2.2901860000     2.4675270000
| 17>  N        3.0526040000     3.0331100000     2.0265360000
| 18>  C        2.4653260000     2.3600560000     0.8736920000
| 19>  H        0.8584380000    -1.3976550000    -0.2937510000
| 20>  H        0.4439360000     0.2438980000     0.1986050000
| 21>  H        1.0563050000    -0.9015480000     1.3923990000
| 22>  H        2.6529700000     0.1744060000    -0.9922740000
| 23>  H        3.2616700000    -0.9863230000     0.1748540000
| 24>  H        4.6687710000     0.0996710000     2.0423260000
| 25>  H        5.1842430000     2.7490100000     2.1521680000
| 26>  H        4.2663900000     2.2196630000     3.5624960000
| 27>  H        3.2503990000     4.0056580000     1.8496110000
| 28>  H        2.7115480000     2.8345010000    -0.0933060000
| 29>  H        1.3702260000     2.3452660000     0.9427960000
| 30> *
| 31>
| 32>                          ****END OF INPUT****
 Total Charge           Charge          ....    0
 Multiplicity           Mult            ....    1
 Number of Electrons    NEL             ....   54
 Basis Dimension        Dim             ....  153

MULLIKEN ATOMIC CHARGES
-----------------------
   0 C :   -0.036323
   1 C :    0.055367
   2 C :   -0.179663
   3 C :   -0.144525
   4 C :    0.195722
   5 N :   -0.296423
   6 C :    0.215356
   7 H :    0.021824
   8 H :    0.028654
   9 H :    0.026657
  10 H :    0.015445
  11 H :    0.005089
  12 H :   -0.024028
  13 H :   -0.002534
  14 H :    0.016847
  15 H :    0.097040
  16 H :   -0.006507
  17 H :    0.012001
Sum of atomic charges:    0.0000000

LOEWDIN ATOMIC CHARGES
----------------------
   0 C :   -0.062205
   1 C :   -0.040204
   2 C :   -0.040342
   3 C :   -0.055707
   4 C :    0.018808
   5 N :   -0.110153
   6 C :    0.022283
   7 H :    0.027120
   8 H :    0.024829
   9 H :    0.028621
  10 H :    0.031943
  11 H :    0.030884
  12 H :    0.020670
  13 H :    0.008138
  14 H :    0.018026
  15 H :    0.052646
  16 H :    0.008602
  17 H :    0.016042

  Mayer bond orders larger than 0.1
B(  0-C ,  1-C ) :   1.1096 B(  0-C ,  7-H ) :   0.9592 B(  0-C ,  8-H ) :   0.9663
B(  0-C ,  9-H ) :   0.9662 B(  1-C ,  2-C ) :   1.0892 B(  1-C , 10-H ) :   0.9149
B(  1-C , 11-H ) :   0.9195 B(  2-C ,  3-C ) :   1.8792 B(  2-C ,  6-C ) :   1.0231
B(  3-C ,  4-C ) :   1.0104 B(  3-C , 12-H ) :   0.9828 B(  4-C ,  5-N ) :   1.0548
B(  4-C , 13-H ) :   0.9061 B(  4-C , 14-H ) :   0.9212 B(  5-N ,  6-C ) :   1.0415
B(  5-N , 15-H ) :   0.9450 B(  6-C , 16-H ) :   0.8961 B(  6-C , 17-H ) :   0.9187

FINAL SINGLE POINT ENERGY      -289.379213118674

DIPOLE MOMENT
-------------
                                X             Y             Z
Electronic contribution:      2.41092       2.56095       1.83964
Nuclear contribution   :     -2.22211      -2.54911      -2.21099
                        -----------------------------------------
Total Dipole Moment    :      0.18881       0.01184      -0.37136
                        -----------------------------------------
Magnitude (a.u.)       :      0.41677
Magnitude (Debye)      :      1.05934

                             ****ORCA TERMINATED NORMALLY****
TOTAL RUN TIME: 0 days 0 hours 0 minutes 7 seconds 973 msec
