                         Program Version 3.0.3 - RELEASE   -
|  1> ! RI PBE def2-SVP def2-SVP/J NBO PAL2
|  2> % maxcore 2000
|  3> % output
|  4>     # printlevel mini
|  5>     print[ P_Basis ] 0
|  6>     print[ P_SCFInfo ] 1
|  7>     print[ P_SCFIterInfo ] 1
|  8>     print[ P_OrbEn ] 0
|  9>     print[ P_Cartesian ] 0
| 10> end
| 11> *xyz 0 1
| 12>  C        2.5362760000     0.2527850000     1.7323000000
| 13>  C        2.4893620000     0.0207510000     0.2305850000
| 14>  C        3.0312400000     1.1278220000    -0.6633850000
| 15>  C        2.9062640000     0.7281860000    -2.1240590000
| 16>  C        2.5312860000     2.5745590000    -0.4391760000
| 17>  N        3.9107090000     3.0547010000    -0.6097360000
| 18>  C        4.4356410000     1.7032660000    -0.3637520000
| 19>  H        2.1215510000    -0.6080410000     2.2619410000
| 20>  H        1.9541310000     1.1279150000     2.0302330000
| 21>  H        3.5575580000     0.3943480000     2.0934910000
| 22>  H        1.4517710000    -0.1727910000    -0.0685190000
| 23>  H        3.0387150000    -0.8989320000    -0.0058730000
| 24>  H        1.8605650000     0.5466940000    -2.3907550000
| 25>  H        3.4678950000    -0.1888320000    -2.3270430000
| 26>  H        3.2925550000     1.5159880000    -2.7745700000
| 27>  H        2.1210240000     2.7320800000     0.5657810000
| 28>  H        1.8190700000     2.9650710000    -1.1736070000
| 29>  H        4.2097820000     3.7650180000     0.0446080000
| 30>  H        4.7562800000     1.5263600000     0.6701570000
| 31>  H        5.2429160000     1.3985710000    -1.0379990000
| 32> *
| 33>
| 34>                          ****END OF INPUT****
 Total Charge           Charge          ....    0
 Multiplicity           Mult            ....    1
 Number of Electrons    NEL             ....   56
 Basis Dimension        Dim             ....  163

MULLIKEN ATOMIC CHARGES
-----------------------
   0 C :   -0.011964
   1 C :    0.057867
   2 C :   -0.481141
   3 C :    0.101895
   4 C :    0.227005
   5 N :   -0.278709
   6 C :    0.239424
   7 H :    0.018176
   8 H :    0.019320
   9 H :    0.017622
  10 H :    0.003297
  11 H :    0.002578
  12 H :    0.009564
  13 H :    0.008594
  14 H :    0.020121
  15 H :   -0.019402
  16 H :   -0.000399
  17 H :    0.090200
  18 H :   -0.019559
  19 H :   -0.004489
Sum of atomic charges:    0.0000000

LOEWDIN ATOMIC CHARGES
----------------------
   0 C :   -0.069204
   1 C :   -0.040494
   2 C :   -0.063601
   3 C :   -0.045477
   4 C :    0.034829
   5 N :   -0.110748
   6 C :    0.035990
   7 H :    0.029743
   8 H :    0.021551
   9 H :    0.020973
  10 H :    0.025624
  11 H :    0.025575
  12 H :    0.022940
  13 H :    0.022727
  14 H :    0.030058
  15 H :    0.000282
  16 H :    0.007035
  17 H :    0.045444
  18 H :    0.000329
  19 H :    0.006424

  Mayer bond orders larger than 0.1
B(  0-C ,  1-C ) :   1.1199 B(  0-C ,  7-H ) :   0.9529 B(  0-C ,  8-H ) :   0.9576
B(  0-C ,  9-H ) :   0.9592 B(  1-C ,  2-C ) :   1.0396 B(  1-C , 10-H ) :   0.9264
B(  1-C , 11-H ) :   0.9266 B(  2-C ,  3-C ) :   1.0418 B(  2-C ,  4-C ) :   1.0209
B(  2-C ,  6-C ) :   1.0210 B(  3-C , 12-H ) :   0.9555 B(  3-C , 13-H ) :   0.9547
B(  3-C , 14-H ) :   0.9456 B(  4-C ,  5-N ) :   1.0523 B(  4-C , 15-H ) :   0.9190
B(  4-C , 16-H ) :   0.9299 B(  5-N ,  6-C ) :   1.0519 B(  5-N , 17-H ) :   0.9433
B(  6-C , 18-H ) :   0.9190 B(  6-C , 19-H ) :   0.9276

FINAL SINGLE POINT ENERGY      -290.567122576331

DIPOLE MOMENT
-------------
                                X             Y             Z
Electronic contribution:      1.45990       3.08686      -1.29417
Nuclear contribution   :     -1.54751      -3.23312       1.73273
                        -----------------------------------------
Total Dipole Moment    :     -0.08761      -0.14626       0.43856
                        -----------------------------------------
Magnitude (a.u.)       :      0.47054
Magnitude (Debye)      :      1.19601

                             ****ORCA TERMINATED NORMALLY****
TOTAL RUN TIME: 0 days 0 hours 0 minutes 8 seconds 705 msec
