                         Program Version 3.0.3 - RELEASE   -
|  1> ! RI PBE def2-SVP def2-SVP/J NBO PAL2
|  2> % maxcore 2000
|  3> % output
|  4>     # printlevel mini
|  5>     print[ P_Basis ] 0
|  6>     print[ P_SCFInfo ] 1
|  7>     print[ P_SCFIterInfo ] 1
|  8>     print[ P_OrbEn ] 0
|  9>     print[ P_Cartesian ] 0
| 10> end
| 11> *xyz 0 1
| 12>  C        1.0506960000     0.1645800000     0.0058450000
| 13>  C        2.5436570000    -0.1163000000     0.0514950000
| 14>  C        3.0023180000    -1.0696410000    -1.0296080000
| 15>  C        4.4674960000    -1.5553340000    -1.0130810000
| 16>  C        3.9906300000    -2.9773320000    -1.3668580000
| 17>  N        4.2173870000    -3.2993210000    -2.7611830000
| 18>  C        2.5586180000    -2.5477100000    -0.9487990000
| 19>  H        0.7437730000     0.8394490000     0.8081430000
| 20>  H        0.4730620000    -0.7581890000     0.1093510000
| 21>  H        0.7657400000     0.6264340000    -0.9438350000
| 22>  H        2.8109820000    -0.5390280000     1.0280850000
| 23>  H        3.1006060000     0.8241190000    -0.0361420000
| 24>  H        2.7492100000    -0.6493170000    -2.0097650000
| 25>  H        4.8938820000    -1.5045110000    -0.0078860000
| 26>  H        5.1702990000    -1.1002270000    -1.7140580000
| 27>  H        4.4243050000    -3.7813010000    -0.7673880000
| 28>  H        3.8591250000    -2.5645090000    -3.3610500000
| 29>  H        3.7266540000    -4.1493120000    -3.0139540000
| 30>  H        2.3304990000    -2.8368690000     0.0820900000
| 31>  H        1.7409620000    -2.8779800000    -1.5941020000
| 32> *
| 33>
| 34>                          ****END OF INPUT****
 Total Charge           Charge          ....    0
 Multiplicity           Mult            ....    1
 Number of Electrons    NEL             ....   56
 Basis Dimension        Dim             ....  163

MULLIKEN ATOMIC CHARGES
-----------------------
   0 C :   -0.020850
   1 C :    0.053796
   2 C :   -0.248267
   3 C :    0.155731
   4 C :   -0.159488
   5 N :   -0.134059
   6 C :    0.167694
   7 H :    0.021421
   8 H :    0.018642
   9 H :    0.015080
  10 H :   -0.005309
  11 H :    0.005651
  12 H :   -0.005808
  13 H :   -0.003735
  14 H :    0.005751
  15 H :   -0.001787
  16 H :    0.075542
  17 H :    0.087001
  18 H :   -0.013462
  19 H :   -0.013543
Sum of atomic charges:   -0.0000000

LOEWDIN ATOMIC CHARGES
----------------------
   0 C :   -0.067339
   1 C :   -0.044206
   2 C :   -0.039079
   3 C :   -0.030887
   4 C :    0.006775
   5 N :   -0.092074
   6 C :   -0.050402
   7 H :    0.026567
   8 H :    0.024318
   9 H :    0.023949
  10 H :    0.019487
  11 H :    0.024223
  12 H :    0.017315
  13 H :    0.025072
  14 H :    0.017395
  15 H :    0.011584
  16 H :    0.047200
  17 H :    0.050725
  18 H :    0.020199
  19 H :    0.009180

  Mayer bond orders larger than 0.1
B(  0-C ,  1-C ) :   1.1151 B(  0-C ,  7-H ) :   0.9618 B(  0-C ,  8-H ) :   0.9648
B(  0-C ,  9-H ) :   0.9652 B(  1-C ,  2-C ) :   1.0738 B(  1-C , 10-H ) :   0.9209
B(  1-C , 11-H ) :   0.9274 B(  2-C ,  3-C ) :   1.0728 B(  2-C ,  6-C ) :   1.0672
B(  2-C , 12-H ) :   0.9079 B(  3-C ,  4-C ) :   1.0822 B(  3-C , 13-H ) :   0.9045
B(  3-C , 14-H ) :   0.9192 B(  4-C ,  5-N ) :   1.1247 B(  4-C ,  6-C ) :   1.0457
B(  4-C , 15-H ) :   0.9119 B(  5-N , 16-H ) :   0.9639 B(  5-N , 17-H ) :   0.9660
B(  6-C , 18-H ) :   0.8953 B(  6-C , 19-H ) :   0.9161

FINAL SINGLE POINT ENERGY      -290.575582604758

DIPOLE MOMENT
-------------
                                X             Y             Z
Electronic contribution:      2.87231      -2.55872      -1.82181
Nuclear contribution   :     -3.31997       2.60104       1.80065
                        -----------------------------------------
Total Dipole Moment    :     -0.44766       0.04232      -0.02116
                        -----------------------------------------
Magnitude (a.u.)       :      0.45015
Magnitude (Debye)      :      1.14420

                             ****ORCA TERMINATED NORMALLY****
TOTAL RUN TIME: 0 days 0 hours 0 minutes 8 seconds 852 msec
