                         Program Version 3.0.3 - RELEASE   -
|  1> ! RI PBE def2-SVP def2-SVP/J NBO PAL2
|  2> % maxcore 2000
|  3> % output
|  4>     # printlevel mini
|  5>     print[ P_Basis ] 0
|  6>     print[ P_SCFInfo ] 1
|  7>     print[ P_SCFIterInfo ] 1
|  8>     print[ P_OrbEn ] 0
|  9>     print[ P_Cartesian ] 0
| 10> end
| 11> *xyz 0 1
| 12>  C        0.9343490000     0.2161280000     0.0152970000
| 13>  C        2.2309270000     0.0611130000     0.2785520000
| 14>  C        2.9351510000    -1.1960800000     0.4356380000
| 15>  C        4.2821990000    -1.3130190000     0.7086890000
| 16>  N        4.5892270000    -2.6353160000     0.7864600000
| 17>  C        3.4671680000    -3.3830980000     0.5691650000
| 18>  C        2.4265120000    -2.5250670000     0.3489930000
| 19>  H        0.4981750000     1.2021450000    -0.0844920000
| 20>  H        0.2677210000    -0.6303110000    -0.1089170000
| 21>  H        2.8449600000     0.9522600000     0.3916290000
| 22>  H        5.0312290000    -0.5498230000     0.8505910000
| 23>  H        5.5022730000    -3.0054260000     0.9750240000
| 24>  H        3.5004080000    -4.4605430000     0.5887910000
| 25>  H        1.4076120000    -2.8153540000     0.1469800000
| 26> *
| 27>
| 28>                          ****END OF INPUT****
 Total Charge           Charge          ....    0
 Multiplicity           Mult            ....    1
 Number of Electrons    NEL             ....   50
 Basis Dimension        Dim             ....  133

MULLIKEN ATOMIC CHARGES
-----------------------
   0 C :   -0.044052
   1 C :    0.002510
   2 C :    0.023796
   3 C :   -0.000168
   4 N :   -0.042803
   5 C :    0.041703
   6 C :   -0.053019
   7 H :    0.014782
   8 H :    0.011982
   9 H :   -0.024391
  10 H :   -0.012705
  11 H :    0.114276
  12 H :   -0.004581
  13 H :   -0.027329
Sum of atomic charges:   -0.0000000

LOEWDIN ATOMIC CHARGES
----------------------
   0 C :   -0.074117
   1 C :   -0.027716
   2 C :   -0.080575
   3 C :   -0.029274
   4 N :    0.105307
   5 C :   -0.033119
   6 C :   -0.073632
   7 H :    0.021791
   8 H :    0.019264
   9 H :    0.026697
  10 H :    0.018488
  11 H :    0.083563
  12 H :    0.019160
  13 H :    0.024164

  Mayer bond orders larger than 0.1
B(  0-C ,  1-C ) :   1.9212 B(  0-C ,  7-H ) :   0.9385 B(  0-C ,  8-H ) :   0.9416
B(  1-C ,  2-C ) :   1.1303 B(  1-C ,  9-H ) :   0.9521 B(  2-C ,  3-C ) :   1.4042
B(  2-C ,  6-C ) :   1.2994 B(  3-C ,  4-N ) :   1.2336 B(  3-C , 10-H ) :   0.9853
B(  4-N ,  5-C ) :   1.2134 B(  4-N , 11-H ) :   0.9427 B(  5-C ,  6-C ) :   1.4829
B(  5-C , 12-H ) :   0.9833 B(  6-C , 13-H ) :   1.0011

FINAL SINGLE POINT ENERGY      -286.998215783391

DIPOLE MOMENT
-------------
                                X             Y             Z
Electronic contribution:      2.73813      -1.92923       0.57350
Nuclear contribution   :     -1.78979       1.42141      -0.37792
                        -----------------------------------------
Total Dipole Moment    :      0.94833      -0.50782       0.19558
                        -----------------------------------------
Magnitude (a.u.)       :      1.09337
Magnitude (Debye)      :      2.77913

                             ****ORCA TERMINATED NORMALLY****
TOTAL RUN TIME: 0 days 0 hours 0 minutes 6 seconds 739 msec
