                         Program Version 3.0.3 - RELEASE   -
|  1> ! RI PBE def2-SVP def2-SVP/J NBO PAL2
|  2> % maxcore 2000
|  3> % output
|  4>     # printlevel mini
|  5>     print[ P_Basis ] 0
|  6>     print[ P_SCFInfo ] 1
|  7>     print[ P_SCFIterInfo ] 1
|  8>     print[ P_OrbEn ] 0
|  9>     print[ P_Cartesian ] 0
| 10> end
| 11> *xyz 0 1
| 12>  C        0.8952600000     0.0996150000     0.0689200000
| 13>  C        2.0986670000     0.0857430000     0.0716010000
| 14>  C        3.5116740000     0.0545000000     0.0757370000
| 15>  C        4.3507720000     1.1504110000     0.0785400000
| 16>  N        5.6282300000     0.6934110000     0.0820960000
| 17>  C        5.6410770000    -0.6723710000     0.0817240000
| 18>  C        4.3441550000    -1.1030940000     0.0778430000
| 19>  H       -0.1683930000     0.1130880000     0.0671170000
| 20>  H        4.1180800000     2.2024920000     0.0781850000
| 21>  H        6.4444800000     1.2770890000     0.0846380000
| 22>  H        6.5670200000    -1.2239400000     0.0842400000
| 23>  H        4.0063980000    -2.1267540000     0.0765580000
| 24> *
| 25>
| 26>                          ****END OF INPUT****
 Total Charge           Charge          ....    0
 Multiplicity           Mult            ....    1
 Number of Electrons    NEL             ....   48
 Basis Dimension        Dim             ....  123

MULLIKEN ATOMIC CHARGES
-----------------------
   0 C :   -0.500679
   1 C :    0.439766
   2 C :   -0.046004
   3 C :    0.029352
   4 N :   -0.041531
   5 C :    0.045835
   6 C :   -0.018339
   7 H :   -0.004034
   8 H :   -0.001362
   9 H :    0.119718
  10 H :   -0.002452
  11 H :   -0.020271
Sum of atomic charges:   -0.0000000

LOEWDIN ATOMIC CHARGES
----------------------
   0 C :   -0.090431
   1 C :   -0.011322
   2 C :   -0.095436
   3 C :   -0.014063
   4 N :    0.110864
   5 C :   -0.033217
   6 C :   -0.060125
   7 H :    0.031328
   8 H :    0.024475
   9 H :    0.087093
  10 H :    0.020942
  11 H :    0.029895

  Mayer bond orders larger than 0.1
B(  0-C ,  1-C ) :   2.2347 B(  0-C ,  7-H ) :   1.0974 B(  1-C ,  2-C ) :   0.9843
B(  1-C ,  7-H ) :  -0.1078 B(  2-C ,  3-C ) :   1.4093 B(  2-C ,  6-C ) :   1.2975
B(  3-C ,  4-N ) :   1.2388 B(  3-C ,  8-H ) :   0.9916 B(  4-N ,  5-C ) :   1.2151
B(  4-N ,  9-H ) :   0.9421 B(  5-C ,  6-C ) :   1.4664 B(  5-C , 10-H ) :   0.9822
B(  6-C , 11-H ) :   1.0151

FINAL SINGLE POINT ENERGY      -285.754820356615

DIPOLE MOMENT
-------------
                                X             Y             Z
Electronic contribution:     -0.54266       0.49841      -0.00242
Nuclear contribution   :      1.64627      -0.04390       0.00616
                        -----------------------------------------
Total Dipole Moment    :      1.10361       0.45452       0.00374
                        -----------------------------------------
Magnitude (a.u.)       :      1.19355
Magnitude (Debye)      :      3.03376

                             ****ORCA TERMINATED NORMALLY****
TOTAL RUN TIME: 0 days 0 hours 0 minutes 5 seconds 559 msec
