                         Program Version 3.0.3 - RELEASE   -
|  1> ! RI PBE def2-SVP def2-SVP/J NBO PAL2
|  2> % maxcore 2000
|  3> % output
|  4>     # printlevel mini
|  5>     print[ P_Basis ] 0
|  6>     print[ P_SCFInfo ] 1
|  7>     print[ P_SCFIterInfo ] 1
|  8>     print[ P_OrbEn ] 0
|  9>     print[ P_Cartesian ] 0
| 10> end
| 11> *xyz 0 1
| 12>  C        1.9887440000    -0.7025770000    -1.3264580000
| 13>  C        2.3453820000    -0.0340190000    -0.0025840000
| 14>  C        2.9300720000     1.3312510000    -0.1647260000
| 15>  C        2.3500970000     2.5189690000     0.2081960000
| 16>  N        3.1974080000     3.5353590000    -0.1286450000
| 17>  C        4.3169020000     3.0256380000    -0.7129890000
| 18>  C        4.1822190000     1.6621320000    -0.7519210000
| 19>  H        1.5766960000    -1.7022830000    -1.1659810000
| 20>  H        2.8688650000    -0.8010210000    -1.9662950000
| 21>  H        1.2498520000    -0.1120980000    -1.8732410000
| 22>  H        3.0503010000    -0.6721620000     0.5422000000
| 23>  H        1.4511260000     0.0328900000     0.6245960000
| 24>  H        1.4036980000     2.7127180000     0.6886720000
| 25>  H        3.0244420000     4.5093010000     0.0362550000
| 26>  H        5.1160410000     3.6663950000    -1.0496840000
| 27>  H        4.9073750000     0.9710970000    -1.1550050000
| 28> *
| 29>
| 30>                          ****END OF INPUT****
 Total Charge           Charge          ....    0
 Multiplicity           Mult            ....    1
 Number of Electrons    NEL             ....   52
 Basis Dimension        Dim             ....  143

MULLIKEN ATOMIC CHARGES
-----------------------
   0 C :   -0.022699
   1 C :    0.061985
   2 C :   -0.077631
   3 C :   -0.002499
   4 N :   -0.048038
   5 C :    0.037001
   6 C :   -0.052419
   7 H :    0.014760
   8 H :    0.022818
   9 H :    0.018880
  10 H :    0.014777
  11 H :   -0.006454
  12 H :   -0.025865
  13 H :    0.111376
  14 H :   -0.011611
  15 H :   -0.034382
Sum of atomic charges:    0.0000000

LOEWDIN ATOMIC CHARGES
----------------------
   0 C :   -0.063818
   1 C :   -0.039965
   2 C :   -0.078564
   3 C :   -0.048733
   4 N :    0.099834
   5 C :   -0.040970
   6 C :   -0.089341
   7 H :    0.022883
   8 H :    0.024665
   9 H :    0.024983
  10 H :    0.030381
  11 H :    0.026864
  12 H :    0.014043
  13 H :    0.081183
  14 H :    0.016250
  15 H :    0.020305

  Mayer bond orders larger than 0.1
B(  0-C ,  1-C ) :   1.1152 B(  0-C ,  7-H ) :   0.9576 B(  0-C ,  8-H ) :   0.9680
B(  0-C ,  9-H ) :   0.9648 B(  1-C ,  2-C ) :   1.0946 B(  1-C , 10-H ) :   0.9169
B(  1-C , 11-H ) :   0.9165 B(  2-C ,  3-C ) :   1.4783 B(  2-C ,  6-C ) :   1.3363
B(  3-C ,  4-N ) :   1.2143 B(  3-C , 12-H ) :   0.9837 B(  4-N ,  5-C ) :   1.2330
B(  4-N , 13-H ) :   0.9436 B(  5-C ,  6-C ) :   1.4560 B(  5-C , 14-H ) :   0.9820
B(  6-C , 15-H ) :   1.0046

FINAL SINGLE POINT ENERGY      -288.214712031569

DIPOLE MOMENT
-------------
                                X             Y             Z
Electronic contribution:      2.23024       6.12211       1.55588
Nuclear contribution   :     -2.36115      -5.39639      -1.42062
                        -----------------------------------------
Total Dipole Moment    :     -0.13091       0.72573       0.13526
                        -----------------------------------------
Magnitude (a.u.)       :      0.74974
Magnitude (Debye)      :      1.90569

                             ****ORCA TERMINATED NORMALLY****
TOTAL RUN TIME: 0 days 0 hours 0 minutes 7 seconds 411 msec
