                         Program Version 3.0.3 - RELEASE   -
|  1> ! RI PBE def2-SVP def2-SVP/J NBO PAL2
|  2> % maxcore 2000
|  3> % output
|  4>     # printlevel mini
|  5>     print[ P_Basis ] 0
|  6>     print[ P_SCFInfo ] 1
|  7>     print[ P_SCFIterInfo ] 1
|  8>     print[ P_OrbEn ] 0
|  9>     print[ P_Cartesian ] 0
| 10> end
| 11> *xyz 0 1
| 12>  C        1.4124390000    -0.8003170000    -0.4569650000
| 13>  C        2.1645550000     0.0786940000     0.1989380000
| 14>  C        2.9487720000    -0.1975330000     1.3891980000
| 15>  N        3.6577640000     0.7837860000     1.9431410000
| 16>  N        4.2528920000     0.2281530000     2.9931790000
| 17>  C        3.9567910000    -1.0796230000     3.1426860000
| 18>  C        3.1079270000    -1.4002980000     2.1171120000
| 19>  H        0.8567280000    -0.5111370000    -1.3400900000
| 20>  H        1.3241810000    -1.8336450000    -0.1390260000
| 21>  H        2.2282780000     1.1053830000    -0.1497220000
| 22>  H        4.8501890000     0.7918700000     3.5714180000
| 23>  H        4.3635530000    -1.6690170000     3.9492640000
| 24>  H        2.6663410000    -2.3630960000     1.9211580000
| 25> *
| 26>
| 27>                          ****END OF INPUT****
 Total Charge           Charge          ....    0
 Multiplicity           Mult            ....    1
 Number of Electrons    NEL             ....   50
 Basis Dimension        Dim             ....  128

MULLIKEN ATOMIC CHARGES
-----------------------
   0 C :   -0.037644
   1 C :    0.034945
   2 C :   -0.006918
   3 N :   -0.128722
   4 N :    0.000396
   5 C :    0.095159
   6 C :   -0.093235
   7 H :    0.023841
   8 H :    0.015767
   9 H :   -0.010742
  10 H :    0.126326
  11 H :   -0.003862
  12 H :   -0.015310
Sum of atomic charges:   -0.0000000

LOEWDIN ATOMIC CHARGES
----------------------
   0 C :   -0.058118
   1 C :   -0.028745
   2 C :   -0.059517
   3 N :   -0.096225
   4 N :    0.138110
   5 C :   -0.023582
   6 C :   -0.087839
   7 H :    0.025932
   8 H :    0.020739
   9 H :    0.034298
  10 H :    0.082136
  11 H :    0.024719
  12 H :    0.028092

  Mayer bond orders larger than 0.1
B(  0-C ,  1-C ) :   1.9169 B(  0-C ,  7-H ) :   0.9378 B(  0-C ,  8-H ) :   0.9422
B(  1-C ,  2-C ) :   1.1193 B(  1-C ,  9-H ) :   0.9438 B(  2-C ,  3-N ) :   1.5125
B(  2-C ,  6-C ) :   1.2937 B(  3-N ,  4-N ) :   1.1826 B(  3-N ,  5-C ) :   0.1194
B(  4-N ,  5-C ) :   1.2251 B(  4-N , 10-H ) :   0.9480 B(  5-C ,  6-C ) :   1.4516
B(  5-C , 11-H ) :   0.9757 B(  6-C , 12-H ) :   0.9835

FINAL SINGLE POINT ENERGY      -303.013127209831

DIPOLE MOMENT
-------------
                                X             Y             Z
Electronic contribution:      2.54587       1.97446       2.64401
Nuclear contribution   :     -2.08035      -2.32937      -1.85832
                        -----------------------------------------
Total Dipole Moment    :      0.46552      -0.35491       0.78569
                        -----------------------------------------
Magnitude (a.u.)       :      0.97978
Magnitude (Debye)      :      2.49041

                             ****ORCA TERMINATED NORMALLY****
TOTAL RUN TIME: 0 days 0 hours 0 minutes 6 seconds 749 msec
