                         Program Version 3.0.3 - RELEASE   -
|  1> ! RI PBE def2-SVP def2-SVP/J NBO PAL2
|  2> % maxcore 2000
|  3> % output
|  4>     # printlevel mini
|  5>     print[ P_Basis ] 0
|  6>     print[ P_SCFInfo ] 1
|  7>     print[ P_SCFIterInfo ] 1
|  8>     print[ P_OrbEn ] 0
|  9>     print[ P_Cartesian ] 0
| 10> end
| 11> *xyz 0 1
| 12>  C        1.0280580000     0.0412550000    -0.0603120000
| 13>  C        2.2291500000     0.0135570000    -0.0630350000
| 14>  C        3.6443970000    -0.0652440000    -0.0661120000
| 15>  N        4.4028270000     1.0307810000    -0.0710230000
| 16>  N        5.6466010000     0.5708120000    -0.0726070000
| 17>  C        5.7279020000    -0.7755100000    -0.0689390000
| 18>  C        4.4372580000    -1.2353840000    -0.0646090000
| 19>  H       -0.0353810000     0.0783890000    -0.0579400000
| 20>  H        6.4056090000     1.2293200000    -0.0762640000
| 21>  H        6.6743660000    -1.2921770000    -0.0696670000
| 22>  H        4.0989140000    -2.2576080000    -0.0608910000
| 23> *
| 24>
| 25>                          ****END OF INPUT****
 Total Charge           Charge          ....    0
 Multiplicity           Mult            ....    1
 Number of Electrons    NEL             ....   48
 Basis Dimension        Dim             ....  118

MULLIKEN ATOMIC CHARGES
-----------------------
   0 C :   -0.495843
   1 C :    0.483805
   2 C :   -0.046791
   3 N :   -0.116901
   4 N :    0.003431
   5 C :    0.104766
   6 C :   -0.057292
   7 H :    0.003978
   8 H :    0.130000
   9 H :    0.000003
  10 H :   -0.009154
Sum of atomic charges:    0.0000000

LOEWDIN ATOMIC CHARGES
----------------------
   0 C :   -0.061378
   1 C :   -0.013210
   2 C :   -0.073296
   3 N :   -0.082521
   4 N :    0.144609
   5 C :   -0.022462
   6 C :   -0.073487
   7 H :    0.035073
   8 H :    0.085516
   9 H :    0.027060
  10 H :    0.034096

  Mayer bond orders larger than 0.1
B(  0-C ,  1-C ) :   2.2448 B(  0-C ,  7-H ) :   1.0958 B(  1-C ,  2-C ) :   0.9399
B(  1-C ,  7-H ) :  -0.1069 B(  2-C ,  3-N ) :   1.5138 B(  2-C ,  6-C ) :   1.3074
B(  3-N ,  4-N ) :   1.1859 B(  3-N ,  5-C ) :   0.1233 B(  4-N ,  5-C ) :   1.2240
B(  4-N ,  8-H ) :   0.9465 B(  5-C ,  6-C ) :   1.4381 B(  5-C ,  9-H ) :   0.9744
B(  6-C , 10-H ) :   0.9959

FINAL SINGLE POINT ENERGY      -301.765459132899

DIPOLE MOMENT
-------------
                                X             Y             Z
Electronic contribution:     -0.24440       1.55886      -0.00380
Nuclear contribution   :      1.30363      -1.92691       0.00248
                        -----------------------------------------
Total Dipole Moment    :      1.05923      -0.36805      -0.00132
                        -----------------------------------------
Magnitude (a.u.)       :      1.12135
Magnitude (Debye)      :      2.85025

                             ****ORCA TERMINATED NORMALLY****
TOTAL RUN TIME: 0 days 0 hours 0 minutes 5 seconds 442 msec
