                         Program Version 3.0.3 - RELEASE   -
|  1> ! RI PBE def2-SVP def2-SVP/J NBO PAL2
|  2> % maxcore 2000
|  3> % output
|  4>     # printlevel mini
|  5>     print[ P_Basis ] 0
|  6>     print[ P_SCFInfo ] 1
|  7>     print[ P_SCFIterInfo ] 1
|  8>     print[ P_OrbEn ] 0
|  9>     print[ P_Cartesian ] 0
| 10> end
| 11> *xyz 0 1
| 12>  C        3.5464780000    -0.2035130000    -0.9450740000
| 13>  C        2.4310510000     0.2093060000     0.0095150000
| 14>  C        2.8879580000     1.1500980000     1.0726320000
| 15>  N        2.5029260000     2.4186460000     1.0649370000
| 16>  N        3.1015300000     2.9690640000     2.1230320000
| 17>  C        3.8595050000     2.0975270000     2.8146810000
| 18>  C        3.7499600000     0.8952430000     2.1617870000
| 19>  H        3.1740010000    -0.8937040000    -1.7057470000
| 20>  H        4.3612200000    -0.6997650000    -0.4122900000
| 21>  H        3.9644100000     0.6687330000    -1.4524490000
| 22>  H        2.0017710000    -0.6834560000     0.4762020000
| 23>  H        1.6254310000     0.6967130000    -0.5442500000
| 24>  H        2.9455040000     3.9404840000     2.3229460000
| 25>  H        4.4035360000     2.3890440000     3.6993400000
| 26>  H        4.2207990000    -0.0358480000     2.4331490000
| 27> *
| 28>
| 29>                          ****END OF INPUT****
 Total Charge           Charge          ....    0
 Multiplicity           Mult            ....    1
 Number of Electrons    NEL             ....   52
 Basis Dimension        Dim             ....  138

MULLIKEN ATOMIC CHARGES
-----------------------
   0 C :   -0.035670
   1 C :    0.096833
   2 C :   -0.102176
   3 N :   -0.128628
   4 N :   -0.010976
   5 C :    0.097765
   6 C :   -0.095515
   7 H :    0.022605
   8 H :    0.020007
   9 H :    0.025982
  10 H :    0.008021
  11 H :    0.007821
  12 H :    0.123462
  13 H :   -0.008842
  14 H :   -0.020689
Sum of atomic charges:   -0.0000000

LOEWDIN ATOMIC CHARGES
----------------------
   0 C :   -0.061467
   1 C :   -0.044723
   2 C :   -0.054514
   3 N :   -0.108712
   4 N :    0.131695
   5 C :   -0.027394
   6 C :   -0.104551
   7 H :    0.025395
   8 H :    0.023480
   9 H :    0.028103
  10 H :    0.031698
  11 H :    0.033635
  12 H :    0.079825
  13 H :    0.022321
  14 H :    0.025210

  Mayer bond orders larger than 0.1
B(  0-C ,  1-C ) :   1.1171 B(  0-C ,  7-H ) :   0.9630 B(  0-C ,  8-H ) :   0.9689
B(  0-C ,  9-H ) :   0.9640 B(  1-C ,  2-C ) :   1.0820 B(  1-C , 10-H ) :   0.9134
B(  1-C , 11-H ) :   0.9099 B(  2-C ,  3-N ) :   1.5854 B(  2-C ,  6-C ) :   1.3105
B(  3-N ,  4-N ) :   1.1646 B(  3-N ,  5-C ) :   0.1242 B(  4-N ,  5-C ) :   1.2394
B(  4-N , 12-H ) :   0.9484 B(  5-C ,  6-C ) :   1.4354 B(  5-C , 13-H ) :   0.9758
B(  6-C , 14-H ) :   0.9909

FINAL SINGLE POINT ENERGY      -304.231644645215

DIPOLE MOMENT
-------------
                                X             Y             Z
Electronic contribution:     -1.00454       5.41155       4.74664
Nuclear contribution   :      1.36329      -5.14162      -4.13656
                        -----------------------------------------
Total Dipole Moment    :      0.35874       0.26993       0.61008
                        -----------------------------------------
Magnitude (a.u.)       :      0.75746
Magnitude (Debye)      :      1.92532

                             ****ORCA TERMINATED NORMALLY****
TOTAL RUN TIME: 0 days 0 hours 0 minutes 7 seconds 513 msec
