                         Program Version 3.0.3 - RELEASE   -
|  1> ! RI PBE def2-SVP def2-SVP/J NBO PAL2
|  2> % maxcore 2000
|  3> % output
|  4>     # printlevel mini
|  5>     print[ P_Basis ] 0
|  6>     print[ P_SCFInfo ] 1
|  7>     print[ P_SCFIterInfo ] 1
|  8>     print[ P_OrbEn ] 0
|  9>     print[ P_Cartesian ] 0
| 10> end
| 11> *xyz 0 1
| 12>  C        2.6908500000     1.2774240000     0.4012770000
| 13>  C        2.2545730000     0.0270810000     0.3476000000
| 14>  C        2.9008740000    -1.0553530000    -0.4441130000
| 15>  C        3.3514700000    -2.2810600000     0.3616920000
| 16>  C        3.1291950000    -3.3556360000    -0.6634300000
| 17>  N        2.3674390000    -2.9881420000    -1.6148800000
| 18>  N        1.9648240000    -1.6908320000    -1.3836770000
| 19>  H        2.1896290000     2.0288800000     0.9997900000
| 20>  H        3.5701170000     1.5937500000    -0.1518200000
| 21>  H        1.3654910000    -0.2683860000     0.9005570000
| 22>  H        3.7687420000    -0.6458820000    -0.9845530000
| 23>  H        2.6995480000    -2.4449130000     1.2303180000
| 24>  H        4.3762890000    -2.2033060000     0.7244900000
| 25>  H        3.4929720000    -4.3741200000    -0.6145230000
| 26>  H        1.8191570000    -1.1997120000    -2.2538080000
| 27> *
| 28>
| 29>                          ****END OF INPUT****
 Total Charge           Charge          ....    0
 Multiplicity           Mult            ....    1
 Number of Electrons    NEL             ....   52
 Basis Dimension        Dim             ....  138

MULLIKEN ATOMIC CHARGES
-----------------------
   0 C :   -0.030019
   1 C :   -0.002428
   2 C :    0.017904
   3 C :    0.066818
   4 C :   -0.061701
   5 N :   -0.082701
   6 N :   -0.138328
   7 H :    0.028207
   8 H :    0.019628
   9 H :    0.000662
  10 H :    0.000462
  11 H :    0.025070
  12 H :    0.032307
  13 H :    0.008893
  14 H :    0.115224
Sum of atomic charges:   -0.0000000

LOEWDIN ATOMIC CHARGES
----------------------
   0 C :   -0.058285
   1 C :   -0.031789
   2 C :    0.005989
   3 C :   -0.049758
   4 C :   -0.057318
   5 N :   -0.037917
   6 N :   -0.016070
   7 H :    0.027393
   8 H :    0.022402
   9 H :    0.027233
  10 H :    0.017042
  11 H :    0.036882
  12 H :    0.035254
  13 H :    0.018856
  14 H :    0.060084

  Mayer bond orders larger than 0.1
B(  0-C ,  1-C ) :   1.9840 B(  0-C ,  7-H ) :   0.9382 B(  0-C ,  8-H ) :   0.9498
B(  1-C ,  2-C ) :   1.0384 B(  1-C ,  9-H ) :   0.9480 B(  2-C ,  3-C ) :   1.0508
B(  2-C ,  6-N ) :   0.9194 B(  2-C , 10-H ) :   0.9111 B(  3-C ,  4-C ) :   1.0009
B(  3-C , 11-H ) :   0.8913 B(  3-C , 12-H ) :   0.9389 B(  4-C ,  5-N ) :   1.8829
B(  4-C ,  6-N ) :   0.1107 B(  4-C , 13-H ) :   0.9763 B(  5-N ,  6-N ) :   1.0873
B(  6-N , 14-H ) :   0.9410

FINAL SINGLE POINT ENERGY      -304.173817293298

DIPOLE MOMENT
-------------
                                X             Y             Z
Electronic contribution:     -1.38964      -3.20091      -2.79636
Nuclear contribution   :      1.83227       3.70106       3.13608
                        -----------------------------------------
Total Dipole Moment    :      0.44264       0.50015       0.33972
                        -----------------------------------------
Magnitude (a.u.)       :      0.74932
Magnitude (Debye)      :      1.90463

                             ****ORCA TERMINATED NORMALLY****
TOTAL RUN TIME: 0 days 0 hours 0 minutes 7 seconds 110 msec
