                         Program Version 3.0.3 - RELEASE   -
|  1> ! RI PBE def2-SVP def2-SVP/J NBO PAL2
|  2> % maxcore 2000
|  3> % output
|  4>     # printlevel mini
|  5>     print[ P_Basis ] 0
|  6>     print[ P_SCFInfo ] 1
|  7>     print[ P_SCFIterInfo ] 1
|  8>     print[ P_OrbEn ] 0
|  9>     print[ P_Cartesian ] 0
| 10> end
| 11> *xyz 0 1
| 12>  C        0.8921520000    -0.0385880000     0.0083750000
| 13>  C        2.0921220000    -0.0812970000    -0.0074020000
| 14>  C        3.5523100000    -0.1002780000    -0.0221050000
| 15>  C        4.1310320000    -1.2917140000    -0.8082120000
| 16>  C        4.4188370000    -0.6237840000    -2.1210740000
| 17>  N        4.3866940000     0.6455400000    -2.0647660000
| 18>  N        4.1268540000     1.0379020000    -0.7682960000
| 19>  H       -0.1717650000    -0.0025610000     0.0194370000
| 20>  H        3.9160000000    -0.0824770000     1.0076340000
| 21>  H        3.4394520000    -2.1309670000    -0.8782180000
| 22>  H        5.0578590000    -1.6502080000    -0.3469440000
| 23>  H        4.6817180000    -1.1260790000    -3.0429940000
| 24>  H        3.5585240000     1.8735100000    -0.7630250000
| 25> *
| 26>
| 27>                          ****END OF INPUT****
 Total Charge           Charge          ....    0
 Multiplicity           Mult            ....    1
 Number of Electrons    NEL             ....   50
 Basis Dimension        Dim             ....  128

MULLIKEN ATOMIC CHARGES
-----------------------
   0 C :   -0.498364
   1 C :    0.439036
   2 C :   -0.016361
   3 C :    0.035615
   4 C :   -0.036934
   5 N :   -0.082062
   6 N :   -0.103983
   7 H :    0.003823
   8 H :    0.039636
   9 H :    0.044826
  10 H :    0.039711
  11 H :    0.014178
  12 H :    0.120880
Sum of atomic charges:   -0.0000000

LOEWDIN ATOMIC CHARGES
----------------------
   0 C :   -0.070541
   1 C :   -0.034427
   2 C :   -0.002741
   3 C :   -0.045463
   4 C :   -0.052064
   5 N :   -0.035511
   6 N :   -0.006908
   7 H :    0.036874
   8 H :    0.044785
   9 H :    0.041393
  10 H :    0.041055
  11 H :    0.021259
  12 H :    0.062288

  Mayer bond orders larger than 0.1
B(  0-C ,  1-C ) :   2.3039 B(  0-C ,  7-H ) :   1.1068 B(  1-C ,  2-C ) :   0.9469
B(  1-C ,  7-H ) :  -0.1164 B(  2-C ,  3-C ) :   1.0930 B(  2-C ,  6-N ) :   1.0110
B(  2-C ,  8-H ) :   0.8859 B(  3-C ,  4-C ) :   0.9935 B(  3-C ,  9-H ) :   0.9382
B(  3-C , 10-H ) :   0.9005 B(  4-C ,  5-N ) :   1.8855 B(  4-C ,  6-N ) :   0.1013
B(  4-C , 11-H ) :   0.9758 B(  5-N ,  6-N ) :   1.0786 B(  6-N , 12-H ) :   0.9392

FINAL SINGLE POINT ENERGY      -302.927218094996

DIPOLE MOMENT
-------------
                                X             Y             Z
Electronic contribution:     -0.35518       2.13382      -0.51763
Nuclear contribution   :      0.02022      -2.60417       0.97137
                        -----------------------------------------
Total Dipole Moment    :     -0.33496      -0.47035       0.45374
                        -----------------------------------------
Magnitude (a.u.)       :      0.73438
Magnitude (Debye)      :      1.86665

                             ****ORCA TERMINATED NORMALLY****
TOTAL RUN TIME: 0 days 0 hours 0 minutes 6 seconds 554 msec
