                         Program Version 3.0.3 - RELEASE   -
|  1> ! RI PBE def2-SVP def2-SVP/J NBO PAL2
|  2> % maxcore 2000
|  3> % output
|  4>     # printlevel mini
|  5>     print[ P_Basis ] 0
|  6>     print[ P_SCFInfo ] 1
|  7>     print[ P_SCFIterInfo ] 1
|  8>     print[ P_OrbEn ] 0
|  9>     print[ P_Cartesian ] 0
| 10> end
| 11> *xyz 0 1
| 12>  C        1.6525910000     0.8134580000    -1.0792760000
| 13>  C        2.4263200000     0.0773370000     0.0017350000
| 14>  C        2.9042720000    -1.2950800000    -0.4293060000
| 15>  C        3.6379050000    -2.1018190000     0.6449930000
| 16>  C        3.1982250000    -3.4888110000     0.2796310000
| 17>  N        2.1929630000    -3.5077110000    -0.5019340000
| 18>  N        1.7997100000    -2.2097740000    -0.7530990000
| 19>  H        1.3581750000     1.8105920000    -0.7455270000
| 20>  H        0.7392940000     0.2754640000    -1.3454670000
| 21>  H        2.2525100000     0.9326810000    -1.9865320000
| 22>  H        1.8014990000    -0.0414220000     0.8929370000
| 23>  H        3.2986090000     0.6690080000     0.3002270000
| 24>  H        3.5657600000    -1.1878940000    -1.3057760000
| 25>  H        3.2773910000    -1.8399030000     1.6496610000
| 26>  H        4.7192910000    -1.9600320000     0.6344730000
| 27>  H        3.6097590000    -4.4144640000     0.6618090000
| 28>  H        1.4275350000    -2.1383410000    -1.6886570000
| 29> *
| 30>
| 31>                          ****END OF INPUT****
 Total Charge           Charge          ....    0
 Multiplicity           Mult            ....    1
 Number of Electrons    NEL             ....   54
 Basis Dimension        Dim             ....  148

MULLIKEN ATOMIC CHARGES
-----------------------
   0 C :   -0.017274
   1 C :    0.026220
   2 C :   -0.052763
   3 C :    0.065082
   4 C :   -0.062258
   5 N :   -0.089199
   6 N :   -0.136063
   7 H :    0.022766
   8 H :    0.022604
   9 H :    0.014896
  10 H :    0.009854
  11 H :    0.014016
  12 H :    0.005224
  13 H :    0.019891
  14 H :    0.035678
  15 H :    0.005240
  16 H :    0.116088
Sum of atomic charges:    0.0000000

LOEWDIN ATOMIC CHARGES
----------------------
   0 C :   -0.068597
   1 C :   -0.047580
   2 C :    0.005568
   3 C :   -0.058291
   4 C :   -0.056593
   5 N :   -0.041680
   6 N :   -0.020616
   7 H :    0.030088
   8 H :    0.024924
   9 H :    0.024154
  10 H :    0.025535
  11 H :    0.027458
  12 H :    0.012304
  13 H :    0.034748
  14 H :    0.034583
  15 H :    0.017032
  16 H :    0.056965

  Mayer bond orders larger than 0.1
B(  0-C ,  1-C ) :   1.1272 B(  0-C ,  7-H ) :   0.9581 B(  0-C ,  8-H ) :   0.9619
B(  0-C ,  9-H ) :   0.9627 B(  1-C ,  2-C ) :   1.0708 B(  1-C , 10-H ) :   0.9157
B(  1-C , 11-H ) :   0.9267 B(  2-C ,  3-C ) :   1.0650 B(  2-C ,  6-N ) :   0.9607
B(  2-C , 12-H ) :   0.9103 B(  3-C ,  4-C ) :   1.0119 B(  3-C , 13-H ) :   0.8854
B(  3-C , 14-H ) :   0.9350 B(  4-C ,  5-N ) :   1.8804 B(  4-C ,  6-N ) :   0.1105
B(  4-C , 15-H ) :   0.9777 B(  5-N ,  6-N ) :   1.0851 B(  6-N , 16-H ) :   0.9324

FINAL SINGLE POINT ENERGY      -305.398327544118

DIPOLE MOMENT
-------------
                                X             Y             Z
Electronic contribution:     -0.22153      -7.16229       0.07504
Nuclear contribution   :      0.71191       7.87864      -0.12398
                        -----------------------------------------
Total Dipole Moment    :      0.49038       0.71636      -0.04894
                        -----------------------------------------
Magnitude (a.u.)       :      0.86950
Magnitude (Debye)      :      2.21010

                             ****ORCA TERMINATED NORMALLY****
TOTAL RUN TIME: 0 days 0 hours 0 minutes 7 seconds 916 msec
