                         Program Version 3.0.3 - RELEASE   -
|  1> ! RI PBE def2-SVP def2-SVP/J NBO PAL2
|  2> % maxcore 2000
|  3> % output
|  4>     # printlevel mini
|  5>     print[ P_Basis ] 0
|  6>     print[ P_SCFInfo ] 1
|  7>     print[ P_SCFIterInfo ] 1
|  8>     print[ P_OrbEn ] 0
|  9>     print[ P_Cartesian ] 0
| 10> end
| 11> *xyz 0 1
| 12>  C        1.1778700000     0.1140520000    -0.5360870000
| 13>  C        2.6114320000    -0.3923500000    -0.5441110000
| 14>  C        2.8850340000    -1.3609660000     0.5707930000
| 15>  C        2.6497800000    -2.8173150000     0.4332800000
| 16>  N        3.9950940000    -2.2789490000     0.4270480000
| 17>  C        4.7835760000    -2.5253230000     1.6184440000
| 18>  C        5.8900740000    -1.5012160000     1.7584250000
| 19>  H        1.0023630000     0.8199080000    -1.3507650000
| 20>  H        0.9422590000     0.6260930000     0.4011030000
| 21>  H        0.4686800000    -0.7103740000    -0.6479990000
| 22>  H        3.3066360000     0.4509740000    -0.4630780000
| 23>  H        2.8379070000    -0.8879580000    -1.4925750000
| 24>  H        2.7273140000    -0.9638620000     1.5758730000
| 25>  H        2.2985750000    -3.2240320000    -0.5104250000
| 26>  H        2.3280110000    -3.3634860000     1.3174820000
| 27>  H        5.2100800000    -3.5301310000     1.5328670000
| 28>  H        4.1517520000    -2.5220620000     2.5241950000
| 29>  H        6.5353200000    -1.5116920000     0.8778720000
| 30>  H        6.5014870000    -1.7092240000     2.6394380000
| 31>  H        5.4793680000    -0.4936750000     1.8636100000
| 32> *
| 33>
| 34>                          ****END OF INPUT****
 Total Charge           Charge          ....    0
 Multiplicity           Mult            ....    1
 Number of Electrons    NEL             ....   56
 Basis Dimension        Dim             ....  163

MULLIKEN ATOMIC CHARGES
-----------------------
   0 C :   -0.040619
   1 C :    0.100693
   2 C :   -0.101086
   3 C :    0.087009
   4 N :   -0.283671
   5 C :    0.071199
   6 C :   -0.008933
   7 H :    0.024534
   8 H :    0.018395
   9 H :    0.022237
  10 H :    0.013100
  11 H :   -0.002306
  12 H :    0.002756
  13 H :    0.021228
  14 H :    0.015038
  15 H :    0.007669
  16 H :   -0.016222
  17 H :    0.032092
  18 H :    0.020057
  19 H :    0.016830
Sum of atomic charges:   -0.0000000

LOEWDIN ATOMIC CHARGES
----------------------
   0 C :   -0.067688
   1 C :   -0.044032
   2 C :   -0.003276
   3 C :    0.004869
   4 N :   -0.107573
   5 C :    0.012422
   6 C :   -0.071164
   7 H :    0.027874
   8 H :    0.024201
   9 H :    0.026029
  10 H :    0.028264
  11 H :    0.028485
  12 H :    0.008914
  13 H :    0.017766
  14 H :    0.012041
  15 H :    0.020676
  16 H :   -0.001271
  17 H :    0.030160
  18 H :    0.028985
  19 H :    0.024316

  Mayer bond orders larger than 0.1
B(  0-C ,  1-C ) :   1.1066 B(  0-C ,  7-H ) :   0.9612 B(  0-C ,  8-H ) :   0.9665
B(  0-C ,  9-H ) :   0.9678 B(  1-C ,  2-C ) :   1.0535 B(  1-C , 10-H ) :   0.9246
B(  1-C , 11-H ) :   0.9164 B(  2-C ,  3-C ) :   1.0595 B(  2-C ,  4-N ) :   0.9133
B(  2-C , 12-H ) :   0.9216 B(  3-C ,  4-N ) :   0.9778 B(  3-C , 13-H ) :   0.9358
B(  3-C , 14-H ) :   0.9261 B(  4-N ,  5-C ) :   1.0063 B(  5-C ,  6-C ) :   1.1223
B(  5-C , 15-H ) :   0.9393 B(  5-C , 16-H ) :   0.9116 B(  6-C , 17-H ) :   0.9601
B(  6-C , 18-H ) :   0.9584 B(  6-C , 19-H ) :   0.9620

FINAL SINGLE POINT ENERGY      -290.565004237848

DIPOLE MOMENT
-------------
                                X             Y             Z
Electronic contribution:      0.57177      -2.53964      -0.81256
Nuclear contribution   :     -0.76186       2.59377       1.12001
                        -----------------------------------------
Total Dipole Moment    :     -0.19009       0.05412       0.30745
                        -----------------------------------------
Magnitude (a.u.)       :      0.36550
Magnitude (Debye)      :      0.92903

                             ****ORCA TERMINATED NORMALLY****
TOTAL RUN TIME: 0 days 0 hours 0 minutes 8 seconds 108 msec
