                         Program Version 3.0.3 - RELEASE   -
|  1> ! RI PBE def2-SVP def2-SVP/J NBO PAL2
|  2> % maxcore 2000
|  3> % output
|  4>     # printlevel mini
|  5>     print[ P_Basis ] 0
|  6>     print[ P_SCFInfo ] 1
|  7>     print[ P_SCFIterInfo ] 1
|  8>     print[ P_OrbEn ] 0
|  9>     print[ P_Cartesian ] 0
| 10> end
| 11> *xyz 0 1
| 12>  C        1.5152140000    -0.3887500000     0.9232540000
| 13>  C        1.7462740000    -0.3297150000    -0.3797160000
| 14>  C        2.9684230000    -0.8239270000    -1.0563610000
| 15>  C        3.7744340000    -1.9446750000    -0.5021850000
| 16>  N        3.0133330000    -2.1213570000    -1.7135500000
| 17>  C        1.9482900000    -3.0056370000    -1.8062860000
| 18>  N        0.7942060000    -2.7964840000    -2.2777540000
| 19>  H        0.6049000000     0.0163030000     1.3494490000
| 20>  H        2.2221660000    -0.8383040000     1.6121280000
| 21>  H        1.0134790000     0.1523370000    -1.0230350000
| 22>  H        3.5029370000    -0.0591340000    -1.6175490000
| 23>  H        3.4005010000    -2.4243010000     0.3977490000
| 24>  H        4.8540990000    -1.9403540000    -0.6113080000
| 25>  H        2.2138720000    -4.0185780000    -1.4933720000
| 26>  H        0.6787630000    -1.8194360000    -2.5468840000
| 27> *
| 28>
| 29>                          ****END OF INPUT****
 Total Charge           Charge          ....    0
 Multiplicity           Mult            ....    1
 Number of Electrons    NEL             ....   52
 Basis Dimension        Dim             ....  138

MULLIKEN ATOMIC CHARGES
-----------------------
   0 C :   -0.019679
   1 C :   -0.031164
   2 C :   -0.014771
   3 C :    0.083545
   4 N :   -0.202267
   5 C :    0.007592
   6 N :   -0.123643
   7 H :    0.035927
   8 H :    0.026702
   9 H :    0.020760
  10 H :    0.041197
  11 H :    0.037867
  12 H :    0.045971
  13 H :    0.014500
  14 H :    0.077462
Sum of atomic charges:    0.0000000

LOEWDIN ATOMIC CHARGES
----------------------
   0 C :   -0.036266
   1 C :   -0.040778
   2 C :    0.011712
   3 C :    0.029398
   4 N :   -0.068553
   5 C :    0.014633
   6 N :   -0.133374
   7 H :    0.030720
   8 H :    0.024107
   9 H :    0.031556
  10 H :    0.034092
  11 H :    0.021029
  12 H :    0.025965
  13 H :    0.014092
  14 H :    0.041666

  Mayer bond orders larger than 0.1
B(  0-C ,  1-C ) :   2.0099 B(  0-C ,  7-H ) :   0.9414 B(  0-C ,  8-H ) :   0.9433
B(  1-C ,  2-C ) :   1.0373 B(  1-C ,  9-H ) :   0.9483 B(  2-C ,  3-C ) :   1.0423
B(  2-C ,  4-N ) :   0.9262 B(  2-C , 10-H ) :   0.9164 B(  3-C ,  4-N ) :   0.9499
B(  3-C , 11-H ) :   0.9352 B(  3-C , 12-H ) :   0.9348 B(  4-N ,  5-C ) :   1.0893
B(  5-C ,  6-N ) :   2.0205 B(  5-C , 13-H ) :   0.9394 B(  6-N , 14-H ) :   0.9415

FINAL SINGLE POINT ENERGY      -304.152056597476

DIPOLE MOMENT
-------------
                                X             Y             Z
Electronic contribution:      0.16943      -1.32314      -2.91652
Nuclear contribution   :      0.51640       2.06211       3.61899
                        -----------------------------------------
Total Dipole Moment    :      0.68583       0.73897       0.70248
                        -----------------------------------------
Magnitude (a.u.)       :      1.22878
Magnitude (Debye)      :      3.12332

                             ****ORCA TERMINATED NORMALLY****
TOTAL RUN TIME: 0 days 0 hours 0 minutes 7 seconds 44 msec
