                         Program Version 3.0.3 - RELEASE   -
|  1> ! RI PBE def2-SVP def2-SVP/J NBO PAL2
|  2> % maxcore 2000
|  3> % output
|  4>     # printlevel mini
|  5>     print[ P_Basis ] 0
|  6>     print[ P_SCFInfo ] 1
|  7>     print[ P_SCFIterInfo ] 1
|  8>     print[ P_OrbEn ] 0
|  9>     print[ P_Cartesian ] 0
| 10> end
| 11> *xyz 0 1
| 12>  C        1.5113920000    -0.1459950000     1.8639270000
| 13>  C        2.2507650000    -0.2922940000     0.5432760000
| 14>  C        2.4896920000    -1.7296550000     0.1841790000
| 15>  C        1.5477580000    -2.5198250000    -0.6188200000
| 16>  N        2.7858610000    -2.0228930000    -1.2263010000
| 17>  C        3.7851740000    -3.0021270000    -1.4243050000
| 18>  N        4.7099460000    -2.9227650000    -2.2712210000
| 19>  H        1.3502370000     0.9057500000     2.1083040000
| 20>  H        2.0744310000    -0.5936890000     2.6873370000
| 21>  H        0.5344870000    -0.6348400000     1.8269300000
| 22>  H        3.2146950000     0.2249540000     0.5927960000
| 23>  H        1.6876680000     0.1774350000    -0.2680330000
| 24>  H        3.0723450000    -2.2975820000     0.9097710000
| 25>  H        0.6462300000    -2.0598270000    -1.0088740000
| 26>  H        1.4765540000    -3.5875290000    -0.4285890000
| 27>  H        3.7340340000    -3.8905720000    -0.7785490000
| 28>  H        4.6159310000    -2.0503470000    -2.7954180000
| 29> *
| 30>
| 31>                          ****END OF INPUT****
 Total Charge           Charge          ....    0
 Multiplicity           Mult            ....    1
 Number of Electrons    NEL             ....   54
 Basis Dimension        Dim             ....  148

MULLIKEN ATOMIC CHARGES
-----------------------
   0 C :   -0.032698
   1 C :    0.081262
   2 C :   -0.089809
   3 C :    0.088212
   4 N :   -0.240112
   5 C :   -0.017594
   6 N :   -0.074460
   7 H :    0.029611
   8 H :    0.022543
   9 H :    0.021913
  10 H :    0.021243
  11 H :    0.007012
  12 H :    0.021628
  13 H :    0.034281
  14 H :    0.037137
  15 H :   -0.000600
  16 H :    0.090432
Sum of atomic charges:   -0.0000000

LOEWDIN ATOMIC CHARGES
----------------------
   0 C :   -0.064877
   1 C :   -0.042350
   2 C :    0.015904
   3 C :    0.019473
   4 N :   -0.118961
   5 C :    0.026247
   6 N :   -0.095148
   7 H :    0.030772
   8 H :    0.026506
   9 H :    0.026698
  10 H :    0.032840
  11 H :    0.031377
  12 H :    0.017295
  13 H :    0.025910
  14 H :    0.018719
  15 H :   -0.001328
  16 H :    0.050924

  Mayer bond orders larger than 0.1
B(  0-C ,  1-C ) :   1.1132 B(  0-C ,  7-H ) :   0.9597 B(  0-C ,  8-H ) :   0.9650
B(  0-C ,  9-H ) :   0.9673 B(  1-C ,  2-C ) :   1.0728 B(  1-C , 10-H ) :   0.9226
B(  1-C , 11-H ) :   0.9182 B(  2-C ,  3-C ) :   1.0480 B(  2-C ,  4-N ) :   0.8616
B(  2-C , 12-H ) :   0.9291 B(  3-C ,  4-N ) :   0.9369 B(  3-C , 13-H ) :   0.9345
B(  3-C , 14-H ) :   0.9375 B(  4-N ,  5-C ) :   1.0470 B(  5-C ,  6-N ) :   2.1063
B(  5-C , 15-H ) :   0.9149 B(  6-N , 16-H ) :   0.9341

FINAL SINGLE POINT ENERGY      -305.376365662407

DIPOLE MOMENT
-------------
                                X             Y             Z
Electronic contribution:      3.65497      -3.47386      -5.69548
Nuclear contribution   :     -4.46267       3.82043       6.43407
                        -----------------------------------------
Total Dipole Moment    :     -0.80770       0.34657       0.73859
                        -----------------------------------------
Magnitude (a.u.)       :      1.14804
Magnitude (Debye)      :      2.91810

                             ****ORCA TERMINATED NORMALLY****
TOTAL RUN TIME: 0 days 0 hours 0 minutes 7 seconds 145 msec
