                         Program Version 3.0.3 - RELEASE   -
|  1> ! RI PBE def2-SVP def2-SVP/J NBO PAL2
|  2> % maxcore 2000
|  3> % output
|  4>     # printlevel mini
|  5>     print[ P_Basis ] 0
|  6>     print[ P_SCFInfo ] 1
|  7>     print[ P_SCFIterInfo ] 1
|  8>     print[ P_OrbEn ] 0
|  9>     print[ P_Cartesian ] 0
| 10> end
| 11> *xyz 0 1
| 12>  C        1.8129590000    -1.0699620000    -1.0350800000
| 13>  C        1.7647370000     0.1489370000    -0.5134490000
| 14>  C        2.8081910000     1.1630410000    -0.7047110000
| 15>  C        2.5146690000     2.6049940000    -0.8074470000
| 16>  N        3.0533920000     2.0735250000     0.4396620000
| 17>  N        4.4397380000     2.3554580000     0.5353390000
| 18>  C        4.8385760000     2.3842100000     1.7324160000
| 19>  H        1.0130890000    -1.7836820000    -0.8796430000
| 20>  H        2.6540300000    -1.3947710000    -1.6394160000
| 21>  H        0.9151820000     0.4519930000     0.0934060000
| 22>  H        3.7083700000     0.8366320000    -1.2165630000
| 23>  H        1.4930970000     2.9605560000    -0.7353330000
| 24>  H        3.1905440000     3.2040410000    -1.4072890000
| 25>  H        5.8906350000     2.5892560000     1.9089620000
| 26>  H        4.1683940000     2.2127710000     2.5764380000
| 27> *
| 28>
| 29>                          ****END OF INPUT****
 Total Charge           Charge          ....    0
 Multiplicity           Mult            ....    1
 Number of Electrons    NEL             ....   52
 Basis Dimension        Dim             ....  138

MULLIKEN ATOMIC CHARGES
-----------------------
   0 C :   -0.033852
   1 C :    0.068416
   2 C :   -0.034755
   3 C :    0.119174
   4 N :   -0.242008
   5 N :   -0.101082
   6 C :    0.030040
   7 H :    0.026369
   8 H :    0.019679
   9 H :   -0.007266
  10 H :    0.014621
  11 H :    0.034279
  12 H :    0.034489
  13 H :    0.046529
  14 H :    0.025367
Sum of atomic charges:   -0.0000000

LOEWDIN ATOMIC CHARGES
----------------------
   0 C :   -0.059291
   1 C :   -0.023180
   2 C :    0.000927
   3 C :    0.011695
   4 N :   -0.071820
   5 N :   -0.035304
   6 C :    0.001608
   7 H :    0.027601
   8 H :    0.023880
   9 H :    0.030548
  10 H :    0.022937
  11 H :    0.024585
  12 H :    0.021954
  13 H :    0.021592
  14 H :    0.002267

  Mayer bond orders larger than 0.1
B(  0-C ,  1-C ) :   1.9711 B(  0-C ,  7-H ) :   0.9338 B(  0-C ,  8-H ) :   0.9531
B(  1-C ,  2-C ) :   1.0774 B(  1-C ,  9-H ) :   0.9416 B(  2-C ,  3-C ) :   1.0281
B(  2-C ,  4-N ) :   0.8160 B(  2-C , 10-H ) :   0.9330 B(  3-C ,  4-N ) :   0.9441
B(  3-C , 11-H ) :   0.9394 B(  3-C , 12-H ) :   0.9247 B(  4-N ,  5-N ) :   0.9497
B(  5-N ,  6-C ) :   1.9823 B(  6-C , 13-H ) :   0.9489 B(  6-C , 14-H ) :   0.9268

FINAL SINGLE POINT ENERGY      -304.121443648068

DIPOLE MOMENT
-------------
                                X             Y             Z
Electronic contribution:      1.24853       1.93206       0.96737
Nuclear contribution   :     -1.27363      -1.93857      -0.93172
                        -----------------------------------------
Total Dipole Moment    :     -0.02510      -0.00651       0.03565
                        -----------------------------------------
Magnitude (a.u.)       :      0.04408
Magnitude (Debye)      :      0.11205

                             ****ORCA TERMINATED NORMALLY****
TOTAL RUN TIME: 0 days 0 hours 0 minutes 6 seconds 594 msec
