                         Program Version 3.0.3 - RELEASE   -
|  1> ! RI PBE def2-SVP def2-SVP/J NBO PAL2
|  2> % maxcore 2000
|  3> % output
|  4>     # printlevel mini
|  5>     print[ P_Basis ] 0
|  6>     print[ P_SCFInfo ] 1
|  7>     print[ P_SCFIterInfo ] 1
|  8>     print[ P_OrbEn ] 0
|  9>     print[ P_Cartesian ] 0
| 10> end
| 11> *xyz 0 1
| 12>  C        2.6426800000     0.2104210000     1.8800100000
| 13>  C        2.2095820000    -0.1277290000     0.4619440000
| 14>  C        2.9470110000    -1.3135440000    -0.0867200000
| 15>  C        2.4743950000    -2.6940450000     0.0782370000
| 16>  N        2.3214430000    -2.0144070000    -1.2162660000
| 17>  N        3.3124840000    -2.4711570000    -2.1217550000
| 18>  C        2.9176700000    -2.4383010000    -3.3198200000
| 19>  H        2.0991850000     1.0772630000     2.2615850000
| 20>  H        3.7101600000     0.4426430000     1.9246900000
| 21>  H        2.4587070000    -0.6264780000     2.5586490000
| 22>  H        2.3774890000     0.7313200000    -0.1967370000
| 23>  H        1.1366050000    -0.3377010000     0.4305400000
| 24>  H        4.0250620000    -1.2055440000    -0.1774540000
| 25>  H        1.5349010000    -2.8966700000     0.5810560000
| 26>  H        3.2152420000    -3.4843460000     0.1144970000
| 27>  H        3.6102790000    -2.7668220000    -4.0896270000
| 28>  H        1.9188950000    -2.0959130000    -3.5967270000
| 29> *
| 30>
| 31>                          ****END OF INPUT****
 Total Charge           Charge          ....    0
 Multiplicity           Mult            ....    1
 Number of Electrons    NEL             ....   54
 Basis Dimension        Dim             ....  148

MULLIKEN ATOMIC CHARGES
-----------------------
   0 C :   -0.035282
   1 C :    0.083003
   2 C :   -0.078930
   3 C :    0.101381
   4 N :   -0.237127
   5 N :   -0.099268
   6 C :    0.021339
   7 H :    0.024398
   8 H :    0.023303
   9 H :    0.024449
  10 H :    0.017388
  11 H :    0.005201
  12 H :    0.020453
  13 H :    0.029357
  14 H :    0.031767
  15 H :    0.045819
  16 H :    0.022747
Sum of atomic charges:   -0.0000000

LOEWDIN ATOMIC CHARGES
----------------------
   0 C :   -0.065807
   1 C :   -0.043764
   2 C :   -0.002674
   3 C :    0.004588
   4 N :   -0.076034
   5 N :   -0.034486
   6 C :   -0.004590
   7 H :    0.028759
   8 H :    0.026541
   9 H :    0.026429
  10 H :    0.030153
  11 H :    0.029328
  12 H :    0.017704
  13 H :    0.022482
  14 H :    0.020229
  15 H :    0.020603
  16 H :    0.000537

  Mayer bond orders larger than 0.1
B(  0-C ,  1-C ) :   1.1130 B(  0-C ,  7-H ) :   0.9594 B(  0-C ,  8-H ) :   0.9644
B(  0-C ,  9-H ) :   0.9686 B(  1-C ,  2-C ) :   1.0556 B(  1-C , 10-H ) :   0.9243
B(  1-C , 11-H ) :   0.9172 B(  2-C ,  3-C ) :   1.0703 B(  2-C ,  4-N ) :   0.8712
B(  2-C , 12-H ) :   0.9256 B(  3-C ,  4-N ) :   0.9375 B(  3-C , 13-H ) :   0.9371
B(  3-C , 14-H ) :   0.9287 B(  4-N ,  5-N ) :   0.9435 B(  5-N ,  6-C ) :   1.9894
B(  6-C , 15-H ) :   0.9483 B(  6-C , 16-H ) :   0.9253

FINAL SINGLE POINT ENERGY      -305.344929809853

DIPOLE MOMENT
-------------
                                X             Y             Z
Electronic contribution:      0.67159      -3.78487      -5.34075
Nuclear contribution   :     -0.72637       3.90675       5.43032
                        -----------------------------------------
Total Dipole Moment    :     -0.05479       0.12187       0.08957
                        -----------------------------------------
Magnitude (a.u.)       :      0.16086
Magnitude (Debye)      :      0.40888

                             ****ORCA TERMINATED NORMALLY****
TOTAL RUN TIME: 0 days 0 hours 0 minutes 7 seconds 329 msec
