                         Program Version 3.0.3 - RELEASE   -
|  1> ! RI PBE def2-SVP def2-SVP/J NBO PAL2
|  2> % maxcore 2000
|  3> % output
|  4>     # printlevel mini
|  5>     print[ P_Basis ] 0
|  6>     print[ P_SCFInfo ] 1
|  7>     print[ P_SCFIterInfo ] 1
|  8>     print[ P_OrbEn ] 0
|  9>     print[ P_Cartesian ] 0
| 10> end
| 11> *xyz 0 1
| 12>  C        0.9626850000     0.2695740000     0.1088330000
| 13>  C        2.4669070000     0.0474480000     0.0933860000
| 14>  C        2.9349200000    -0.8301980000    -1.0442630000
| 15>  C        4.4055890000    -1.2755720000    -1.0821970000
| 16>  N        3.9640570000    -2.6034660000    -1.5326980000
| 17>  C        2.5992580000    -2.3392020000    -1.0394120000
| 18>  C        1.4881580000    -2.8696620000    -1.9107610000
| 19>  H        0.6656230000     0.9249560000     0.9307000000
| 20>  H        0.4230530000    -0.6735840000     0.2282510000
| 21>  H        0.6215110000     0.7287060000    -0.8231140000
| 22>  H        2.7832690000    -0.3998060000     1.0432450000
| 23>  H        2.9791680000     1.0147530000     0.0290580000
| 24>  H        2.6436850000    -0.3949300000    -2.0062610000
| 25>  H        4.8481130000    -1.2644090000    -0.0758310000
| 26>  H        5.0821980000    -0.7598710000    -1.7692940000
| 27>  H        4.4394110000    -3.3921220000    -1.1126530000
| 28>  H        2.4542810000    -2.6756220000     0.0005840000
| 29>  H        1.6160600000    -2.5219040000    -2.9382870000
| 30>  H        0.5101670000    -2.5422150000    -1.5475740000
| 31>  H        1.4917870000    -3.9633830000    -1.9234220000
| 32> *
| 33>
| 34>                          ****END OF INPUT****
 Total Charge           Charge          ....    0
 Multiplicity           Mult            ....    1
 Number of Electrons    NEL             ....   56
 Basis Dimension        Dim             ....  163

MULLIKEN ATOMIC CHARGES
-----------------------
   0 C :   -0.022623
   1 C :    0.054236
   2 C :   -0.198246
   3 C :    0.196233
   4 N :   -0.256945
   5 C :   -0.014463
   6 C :    0.084023
   7 H :    0.020799
   8 H :    0.023694
   9 H :    0.017683
  10 H :   -0.003386
  11 H :    0.007595
  12 H :   -0.001815
  13 H :   -0.016661
  14 H :    0.006736
  15 H :    0.089948
  16 H :   -0.020730
  17 H :    0.009818
  18 H :    0.006498
  19 H :    0.017605
Sum of atomic charges:    0.0000000

LOEWDIN ATOMIC CHARGES
----------------------
   0 C :   -0.066868
   1 C :   -0.043390
   2 C :   -0.038505
   3 C :    0.030590
   4 N :   -0.107316
   5 C :    0.017439
   6 C :   -0.072022
   7 H :    0.027272
   8 H :    0.023738
   9 H :    0.025212
  10 H :    0.019159
  11 H :    0.025662
  12 H :    0.023572
  13 H :    0.001815
  14 H :    0.009199
  15 H :    0.044084
  16 H :    0.001999
  17 H :    0.025591
  18 H :    0.024864
  19 H :    0.027905

  Mayer bond orders larger than 0.1
B(  0-C ,  1-C ) :   1.1176 B(  0-C ,  7-H ) :   0.9597 B(  0-C ,  8-H ) :   0.9638
B(  0-C ,  9-H ) :   0.9657 B(  1-C ,  2-C ) :   1.0648 B(  1-C , 10-H ) :   0.9214
B(  1-C , 11-H ) :   0.9265 B(  2-C ,  3-C ) :   1.0695 B(  2-C ,  5-C ) :   1.0254
B(  2-C , 12-H ) :   0.8870 B(  3-C ,  4-N ) :   1.0568 B(  3-C , 13-H ) :   0.9179
B(  3-C , 14-H ) :   0.9320 B(  4-N ,  5-C ) :   1.0375 B(  4-N , 15-H ) :   0.9394
B(  5-C ,  6-C ) :   1.0999 B(  5-C , 16-H ) :   0.9038 B(  6-C , 17-H ) :   0.9409
B(  6-C , 18-H ) :   0.9508 B(  6-C , 19-H ) :   0.9527

FINAL SINGLE POINT ENERGY      -290.573653440166

DIPOLE MOMENT
-------------
                                X             Y             Z
Electronic contribution:      3.85983      -1.82225      -1.28669
Nuclear contribution   :     -3.88522       1.85171       1.72307
                        -----------------------------------------
Total Dipole Moment    :     -0.02539       0.02946       0.43637
                        -----------------------------------------
Magnitude (a.u.)       :      0.43810
Magnitude (Debye)      :      1.11357

                             ****ORCA TERMINATED NORMALLY****
TOTAL RUN TIME: 0 days 0 hours 0 minutes 8 seconds 908 msec
