                         Program Version 3.0.3 - RELEASE   -
|  1> ! RI PBE def2-SVP def2-SVP/J NBO PAL2
|  2> % maxcore 2000
|  3> % output
|  4>     # printlevel mini
|  5>     print[ P_Basis ] 0
|  6>     print[ P_SCFInfo ] 1
|  7>     print[ P_SCFIterInfo ] 1
|  8>     print[ P_OrbEn ] 0
|  9>     print[ P_Cartesian ] 0
| 10> end
| 11> *xyz 0 1
| 12>  C        1.3525840000     0.3592400000    -0.0637910000
| 13>  C        2.3713390000     0.1418260000    -1.1723280000
| 14>  C        3.2844480000    -1.0408640000    -0.9452230000
| 15>  C        4.2447420000    -0.8945650000     0.2066250000
| 16>  N        3.7952270000    -1.6617020000    -2.1695790000
| 17>  C        2.8705760000    -2.4164680000    -1.3203520000
| 18>  C        1.5429790000    -2.7933160000    -1.9072020000
| 19>  H        0.7025110000     1.2064580000    -0.2931690000
| 20>  H        1.8316870000     0.5671850000     0.8958340000
| 21>  H        0.7184330000    -0.5214980000     0.0665240000
| 22>  H        2.9950930000     1.0366470000    -1.2860310000
| 23>  H        1.8643250000     0.0108190000    -2.1300330000
| 24>  H        3.7206360000    -0.7417380000     1.1532080000
| 25>  H        4.9059260000    -0.0358740000     0.0507070000
| 26>  H        4.8661960000    -1.7875180000     0.3138140000
| 27>  H        4.7485420000    -1.9820720000    -2.0342420000
| 28>  H        3.3160860000    -3.1989420000    -0.7068500000
| 29>  H        1.1267120000    -1.9839730000    -2.5067390000
| 30>  H        0.8258420000    -3.0500220000    -1.1226860000
| 31>  H        1.6513050000    -3.6640150000    -2.5597080000
| 32> *
| 33>
| 34>                          ****END OF INPUT****
 Total Charge           Charge          ....    0
 Multiplicity           Mult            ....    1
 Number of Electrons    NEL             ....   56
 Basis Dimension        Dim             ....  163

MULLIKEN ATOMIC CHARGES
-----------------------
   0 C :   -0.016782
   1 C :    0.098044
   2 C :   -0.279669
   3 C :    0.109557
   4 N :   -0.150983
   5 C :   -0.096762
   6 C :    0.100112
   7 H :    0.020343
   8 H :    0.016093
   9 H :    0.019111
  10 H :    0.002242
  11 H :   -0.002698
  12 H :    0.020666
  13 H :    0.020056
  14 H :   -0.002827
  15 H :    0.092371
  16 H :    0.000829
  17 H :    0.007328
  18 H :    0.021748
  19 H :    0.021221
Sum of atomic charges:   -0.0000000

LOEWDIN ATOMIC CHARGES
----------------------
   0 C :   -0.066110
   1 C :   -0.037790
   2 C :   -0.030346
   3 C :   -0.057196
   4 N :   -0.099743
   5 C :   -0.004067
   6 C :   -0.066167
   7 H :    0.028592
   8 H :    0.021981
   9 H :    0.025814
  10 H :    0.026245
  11 H :    0.026742
  12 H :    0.030162
  13 H :    0.028953
  14 H :    0.023465
  15 H :    0.048192
  16 H :    0.010606
  17 H :    0.029793
  18 H :    0.028671
  19 H :    0.032204

  Mayer bond orders larger than 0.1
B(  0-C ,  1-C ) :   1.1125 B(  0-C ,  7-H ) :   0.9577 B(  0-C ,  8-H ) :   0.9613
B(  0-C ,  9-H ) :   0.9648 B(  1-C ,  2-C ) :   1.0576 B(  1-C , 10-H ) :   0.9156
B(  1-C , 11-H ) :   0.9043 B(  2-C ,  3-C ) :   1.0726 B(  2-C ,  4-N ) :   0.9721
B(  2-C ,  5-C ) :   0.9761 B(  3-C , 12-H ) :   0.9488 B(  3-C , 13-H ) :   0.9507
B(  3-C , 14-H ) :   0.9335 B(  4-N ,  5-C ) :   0.9809 B(  4-N , 15-H ) :   0.9371
B(  5-C ,  6-C ) :   1.1063 B(  5-C , 16-H ) :   0.9324 B(  6-C , 17-H ) :   0.9370
B(  6-C , 18-H ) :   0.9526 B(  6-C , 19-H ) :   0.9439

FINAL SINGLE POINT ENERGY      -290.575002933217

DIPOLE MOMENT
-------------
                                X             Y             Z
Electronic contribution:      2.71244      -1.30494      -2.62875
Nuclear contribution   :     -2.58048       1.15669       3.14299
                        -----------------------------------------
Total Dipole Moment    :      0.13196      -0.14826       0.51425
                        -----------------------------------------
Magnitude (a.u.)       :      0.55122
Magnitude (Debye)      :      1.40109

                             ****ORCA TERMINATED NORMALLY****
TOTAL RUN TIME: 0 days 0 hours 0 minutes 8 seconds 887 msec
