                         Program Version 3.0.3 - RELEASE   -
|  1> ! RI PBE def2-SVP def2-SVP/J NBO PAL2
|  2> % maxcore 2000
|  3> % output
|  4>     # printlevel mini
|  5>     print[ P_Basis ] 0
|  6>     print[ P_SCFInfo ] 1
|  7>     print[ P_SCFIterInfo ] 1
|  8>     print[ P_OrbEn ] 0
|  9>     print[ P_Cartesian ] 0
| 10> end
| 11> *xyz 0 1
| 12>  C        2.8228950000     1.3138790000     0.1266270000
| 13>  C        2.3451260000    -0.1246270000    -0.0060030000
| 14>  C        2.9379620000    -1.0333140000     1.0334760000
| 15>  C        3.0929000000    -2.5255400000     0.8014940000
| 16>  N        2.7019830000    -3.2076580000    -0.3950900000
| 17>  C        4.2991020000    -1.6557080000     0.8282170000
| 18>  N        5.2879860000    -1.8088730000     1.8536590000
| 19>  H        2.3782960000     1.9559920000    -0.6375990000
| 20>  H        3.9097700000     1.3750530000     0.0261020000
| 21>  H        2.5580930000     1.7283080000     1.1032750000
| 22>  H        2.5945130000    -0.5017640000    -1.0033720000
| 23>  H        1.2504710000    -0.1537720000     0.0585190000
| 24>  H        2.7110030000    -0.7618510000     2.0624230000
| 25>  H        2.9552240000    -3.1312980000     1.6950850000
| 26>  H        3.2429020000    -2.9126760000    -1.1946970000
| 27>  H        1.7220170000    -3.0721630000    -0.6070300000
| 28>  H        4.7308530000    -1.4608090000    -0.1533200000
| 29>  H        4.9469670000    -2.3878220000     2.6086540000
| 30>  H        5.5554570000    -0.9146470000     2.2453190000
| 31> *
| 32>
| 33>                          ****END OF INPUT****
 Total Charge           Charge          ....    0
 Multiplicity           Mult            ....    1
 Number of Electrons    NEL             ....   56
 Basis Dimension        Dim             ....  158

MULLIKEN ATOMIC CHARGES
-----------------------
   0 C :   -0.017768
   1 C :    0.059318
   2 C :   -0.073705
   3 C :   -0.048807
   4 N :   -0.118621
   5 C :   -0.079399
   6 N :   -0.112948
   7 H :    0.018601
   8 H :    0.020391
   9 H :    0.014344
  10 H :   -0.032293
  11 H :    0.013758
  12 H :   -0.013689
  13 H :    0.009060
  14 H :    0.084616
  15 H :    0.095868
  16 H :    0.009884
  17 H :    0.080742
  18 H :    0.090649
Sum of atomic charges:   -0.0000000

LOEWDIN ATOMIC CHARGES
----------------------
   0 C :   -0.065481
   1 C :   -0.042139
   2 C :   -0.077823
   3 C :   -0.008272
   4 N :   -0.079368
   5 C :   -0.011071
   6 N :   -0.085771
   7 H :    0.025119
   8 H :    0.024793
   9 H :    0.023914
  10 H :    0.013052
  11 H :    0.024770
  12 H :    0.016460
  13 H :    0.016103
  14 H :    0.050622
  15 H :    0.054659
  16 H :    0.015463
  17 H :    0.051727
  18 H :    0.053243

  Mayer bond orders larger than 0.1
B(  0-C ,  1-C ) :   1.1229 B(  0-C ,  7-H ) :   0.9595 B(  0-C ,  8-H ) :   0.9674
B(  0-C ,  9-H ) :   0.9642 B(  1-C ,  2-C ) :   1.0742 B(  1-C , 10-H ) :   0.9079
B(  1-C , 11-H ) :   0.9256 B(  2-C ,  3-C ) :   0.8728 B(  2-C ,  5-C ) :   0.8917
B(  2-C , 12-H ) :   0.9259 B(  3-C ,  4-N ) :   1.1852 B(  3-C ,  5-C ) :   0.9713
B(  3-C , 13-H ) :   0.9312 B(  4-N , 14-H ) :   0.9656 B(  4-N , 15-H ) :   0.9707
B(  5-C ,  6-N ) :   1.1707 B(  5-C , 16-H ) :   0.9329 B(  6-N , 17-H ) :   0.9602
B(  6-N , 18-H ) :   0.9686

FINAL SINGLE POINT ENERGY      -306.586302944196

DIPOLE MOMENT
-------------
                                X             Y             Z
Electronic contribution:      1.28864      -4.32450       1.03625
Nuclear contribution   :     -1.69014       4.87364      -0.93591
                        -----------------------------------------
Total Dipole Moment    :     -0.40150       0.54913       0.10034
                        -----------------------------------------
Magnitude (a.u.)       :      0.68762
Magnitude (Debye)      :      1.74779

                             ****ORCA TERMINATED NORMALLY****
TOTAL RUN TIME: 0 days 0 hours 0 minutes 8 seconds 317 msec
