                         Program Version 3.0.3 - RELEASE   -
|  1> ! RI PBE def2-SVP def2-SVP/J NBO PAL2
|  2> % maxcore 2000
|  3> % output
|  4>     # printlevel mini
|  5>     print[ P_Basis ] 0
|  6>     print[ P_SCFInfo ] 1
|  7>     print[ P_SCFIterInfo ] 1
|  8>     print[ P_OrbEn ] 0
|  9>     print[ P_Cartesian ] 0
| 10> end
| 11> *xyz 0 1
| 12>  C        0.6359890000     0.2327510000     0.3706690000
| 13>  C        2.0587870000     0.1218220000    -0.1542510000
| 14>  C        2.8249370000    -1.0583170000     0.3999640000
| 15>  C        3.0651890000    -1.0623340000     1.8899270000
| 16>  N        3.7933470000     0.1271290000     2.3033140000
| 17>  C        2.6248380000    -2.3911690000    -0.2537620000
| 18>  C        3.9130040000    -1.6461210000    -0.4524980000
| 19>  H        0.1055460000     1.0571810000    -0.1116080000
| 20>  H        0.6213030000     0.4226880000     1.4463520000
| 21>  H        0.0701230000    -0.6843010000     0.1833090000
| 22>  H        2.6067990000     1.0385950000     0.0824800000
| 23>  H        2.0397880000     0.0369860000    -1.2462620000
| 24>  H        3.5695570000    -2.0064670000     2.1521610000
| 25>  H        2.1051980000    -1.0680740000     2.4173300000
| 26>  H        4.7115910000     0.1402760000     1.8752610000
| 27>  H        3.9284680000     0.1381970000     3.3059270000
| 28>  H        1.9363590000    -2.4441450000    -1.0891200000
| 29>  H        2.6437340000    -3.2795870000     0.3671890000
| 30>  H        4.0996880000    -1.1999280000    -1.4222810000
| 31>  H        4.7983550000    -2.0341830000     0.0392100000
| 32> *
| 33>
| 34>                          ****END OF INPUT****
 Total Charge           Charge          ....    0
 Multiplicity           Mult            ....    1
 Number of Electrons    NEL             ....   56
 Basis Dimension        Dim             ....  163

MULLIKEN ATOMIC CHARGES
-----------------------
   0 C :   -0.024893
   1 C :    0.104822
   2 C :   -0.342654
   3 C :    0.192304
   4 N :   -0.201160
   5 C :    0.000127
   6 C :   -0.004994
   7 H :    0.015129
   8 H :    0.027098
   9 H :    0.013072
  10 H :    0.007098
  11 H :   -0.011739
  12 H :   -0.034147
  13 H :    0.000463
  14 H :    0.085934
  15 H :    0.088895
  16 H :    0.025422
  17 H :    0.020056
  18 H :    0.020955
  19 H :    0.018212
Sum of atomic charges:   -0.0000000

LOEWDIN ATOMIC CHARGES
----------------------
   0 C :   -0.067661
   1 C :   -0.027792
   2 C :   -0.065656
   3 C :    0.020902
   4 N :   -0.106094
   5 C :   -0.041773
   6 C :   -0.044604
   7 H :    0.026421
   8 H :    0.026092
   9 H :    0.022820
  10 H :    0.025019
  11 H :    0.021188
  12 H :   -0.002779
  13 H :    0.019284
  14 H :    0.050659
  15 H :    0.052789
  16 H :    0.024682
  17 H :    0.022279
  18 H :    0.023353
  19 H :    0.020870

  Mayer bond orders larger than 0.1
B(  0-C ,  1-C ) :   1.1247 B(  0-C ,  7-H ) :   0.9562 B(  0-C ,  8-H ) :   0.9618
B(  0-C ,  9-H ) :   0.9630 B(  1-C ,  2-C ) :   1.0599 B(  1-C , 10-H ) :   0.9171
B(  1-C , 11-H ) :   0.9120 B(  2-C ,  3-C ) :   1.0648 B(  2-C ,  5-C ) :   0.9700
B(  2-C ,  6-C ) :   0.9731 B(  3-C ,  4-N ) :   1.1117 B(  3-C , 12-H ) :   0.8994
B(  3-C , 13-H ) :   0.9174 B(  4-N , 14-H ) :   0.9653 B(  4-N , 15-H ) :   0.9646
B(  5-C ,  6-C ) :   1.0472 B(  5-C , 16-H ) :   0.9399 B(  5-C , 17-H ) :   0.9347
B(  6-C , 18-H ) :   0.9397 B(  6-C , 19-H ) :   0.9384

FINAL SINGLE POINT ENERGY      -290.571713996645

DIPOLE MOMENT
-------------
                                X             Y             Z
Electronic contribution:      2.12806      -0.53119       0.35639
Nuclear contribution   :     -1.80343       0.31121      -0.10331
                        -----------------------------------------
Total Dipole Moment    :      0.32463      -0.21998       0.25308
                        -----------------------------------------
Magnitude (a.u.)       :      0.46672
Magnitude (Debye)      :      1.18630

                             ****ORCA TERMINATED NORMALLY****
TOTAL RUN TIME: 0 days 0 hours 0 minutes 8 seconds 391 msec
