                         Program Version 3.0.3 - RELEASE   -
|  1> ! RI PBE def2-SVP def2-SVP/J NBO PAL2
|  2> % maxcore 2000
|  3> % output
|  4>     # printlevel mini
|  5>     print[ P_Basis ] 0
|  6>     print[ P_SCFInfo ] 1
|  7>     print[ P_SCFIterInfo ] 1
|  8>     print[ P_OrbEn ] 0
|  9>     print[ P_Cartesian ] 0
| 10> end
| 11> *xyz 0 1
| 12>  C        1.0477560000     0.1193520000     0.4093460000
| 13>  C        2.5066030000    -0.2545180000     0.2074970000
| 14>  C        2.8064290000    -0.7408770000    -1.1969690000
| 15>  C        4.2269970000    -1.2994460000    -1.3970070000
| 16>  N        3.6980660000    -2.6505480000    -1.2039500000
| 17>  C        4.2424280000    -3.7224990000    -1.9845360000
| 18>  C        2.3442530000    -2.1803400000    -1.5007000000
| 19>  H        0.8587950000     0.4508980000     1.4328650000
| 20>  H        0.3877020000    -0.7296600000     0.2115230000
| 21>  H        0.7516900000     0.9300880000    -0.2626930000
| 22>  H        2.7984840000    -1.0344280000     0.9192180000
| 23>  H        3.1402300000     0.6137620000     0.4231090000
| 24>  H        2.4958360000     0.0061090000    -1.9307660000
| 25>  H        5.0000830000    -0.9959720000    -0.6829720000
| 26>  H        4.5981100000    -1.1283320000    -2.4205420000
| 27>  H        5.2840740000    -3.8981670000    -1.7031100000
| 28>  H        4.2098890000    -3.5211680000    -3.0715950000
| 29>  H        3.6863530000    -4.6440850000    -1.7932590000
| 30>  H        1.5559860000    -2.6128550000    -0.8754300000
| 31>  H        2.0688360000    -2.3101250000    -2.5598370000
| 32> *
| 33>
| 34>                          ****END OF INPUT****
 Total Charge           Charge          ....    0
 Multiplicity           Mult            ....    1
 Number of Electrons    NEL             ....   56
 Basis Dimension        Dim             ....  163

MULLIKEN ATOMIC CHARGES
-----------------------
   0 C :   -0.014426
   1 C :    0.041120
   2 C :   -0.251272
   3 C :    0.222796
   4 N :   -0.370872
   5 C :    0.095882
   6 C :    0.202917
   7 H :    0.019825
   8 H :    0.018927
   9 H :    0.014965
  10 H :    0.009367
  11 H :    0.009229
  12 H :    0.006410
  13 H :    0.001114
  14 H :   -0.020927
  15 H :    0.019838
  16 H :   -0.009398
  17 H :    0.019030
  18 H :    0.006451
  19 H :   -0.020977
Sum of atomic charges:    0.0000000

LOEWDIN ATOMIC CHARGES
----------------------
   0 C :   -0.067509
   1 C :   -0.040406
   2 C :   -0.040553
   3 C :    0.038983
   4 N :   -0.121086
   5 C :   -0.007176
   6 C :    0.036831
   7 H :    0.027456
   8 H :    0.023829
   9 H :    0.023642
  10 H :    0.027122
  11 H :    0.024075
  12 H :    0.017383
  13 H :    0.008515
  14 H :   -0.000199
  15 H :    0.023299
  16 H :   -0.005014
  17 H :    0.023006
  18 H :    0.007549
  19 H :    0.000255

  Mayer bond orders larger than 0.1
B(  0-C ,  1-C ) :   1.1205 B(  0-C ,  7-H ) :   0.9596 B(  0-C ,  8-H ) :   0.9645
B(  0-C ,  9-H ) :   0.9627 B(  1-C ,  2-C ) :   1.0444 B(  1-C , 10-H ) :   0.9240
B(  1-C , 11-H ) :   0.9309 B(  2-C ,  3-C ) :   1.0426 B(  2-C ,  6-C ) :   1.0488
B(  2-C , 12-H ) :   0.9319 B(  3-C ,  4-N ) :   1.0101 B(  3-C , 13-H ) :   0.9323
B(  3-C , 14-H ) :   0.9092 B(  4-N ,  5-C ) :   1.0457 B(  4-N ,  6-C ) :   1.0086
B(  5-C , 15-H ) :   0.9679 B(  5-C , 16-H ) :   0.9375 B(  5-C , 17-H ) :   0.9684
B(  6-C , 18-H ) :   0.9337 B(  6-C , 19-H ) :   0.9074

FINAL SINGLE POINT ENERGY      -290.565416111165

DIPOLE MOMENT
-------------
                                X             Y             Z
Electronic contribution:      1.70572      -1.01055      -0.30535
Nuclear contribution   :     -1.74101       1.12414       0.11480
                        -----------------------------------------
Total Dipole Moment    :     -0.03528       0.11358      -0.19054
                        -----------------------------------------
Magnitude (a.u.)       :      0.22461
Magnitude (Debye)      :      0.57092

                             ****ORCA TERMINATED NORMALLY****
TOTAL RUN TIME: 0 days 0 hours 0 minutes 8 seconds 778 msec
