                         Program Version 3.0.3 - RELEASE   -
|  1> ! RI PBE def2-SVP def2-SVP/J NBO PAL2
|  2> % maxcore 2000
|  3> % output
|  4>     # printlevel mini
|  5>     print[ P_Basis ] 0
|  6>     print[ P_SCFInfo ] 1
|  7>     print[ P_SCFIterInfo ] 1
|  8>     print[ P_OrbEn ] 0
|  9>     print[ P_Cartesian ] 0
| 10> end
| 11> *xyz 0 1
| 12>  C        1.1856020000     0.6482290000     0.4869150000
| 13>  C        2.0476900000    -0.0803830000    -0.2081580000
| 14>  C        3.1077350000    -0.9339760000     0.3958450000
| 15>  C        2.9762980000    -2.4441360000     0.0751500000
| 16>  N        4.3389050000    -2.9419740000    -0.1071220000
| 17>  C        5.0663920000    -1.9082020000    -0.2274160000
| 18>  N        4.4378410000    -0.6827860000    -0.1621480000
| 19>  H        0.4115070000     1.2302860000     0.0011160000
| 20>  H        1.2207140000     0.6831370000     1.5716960000
| 21>  H        1.9999530000    -0.0975530000    -1.2951600000
| 22>  H        3.1159800000    -0.7836430000     1.4847960000
| 23>  H        2.4153700000    -2.5932110000    -0.8558510000
| 24>  H        2.4551890000    -2.9904970000     0.8622880000
| 25>  H        6.1353080000    -1.9490680000    -0.4181800000
| 26>  H        4.9566270000     0.1147770000     0.1695400000
| 27> *
| 28>
| 29>                          ****END OF INPUT****
 Total Charge           Charge          ....    0
 Multiplicity           Mult            ....    1
 Number of Electrons    NEL             ....   52
 Basis Dimension        Dim             ....  138

MULLIKEN ATOMIC CHARGES
-----------------------
   0 C :   -0.033683
   1 C :   -0.002610
   2 C :   -0.038818
   3 C :    0.173704
   4 N :   -0.229044
   5 C :    0.089789
   6 N :   -0.178085
   7 H :    0.025870
   8 H :    0.022507
   9 H :    0.001407
  10 H :    0.004744
  11 H :    0.012796
  12 H :    0.025307
  13 H :    0.012931
  14 H :    0.113185
Sum of atomic charges:    0.0000000

LOEWDIN ATOMIC CHARGES
----------------------
   0 C :   -0.062108
   1 C :   -0.034438
   2 C :    0.005485
   3 C :    0.015856
   4 N :   -0.146353
   5 C :    0.019351
   6 N :   -0.031526
   7 H :    0.027152
   8 H :    0.022873
   9 H :    0.027018
  10 H :    0.018297
  11 H :    0.025556
  12 H :    0.027111
  13 H :    0.017021
  14 H :    0.068704

  Mayer bond orders larger than 0.1
B(  0-C ,  1-C ) :   1.9775 B(  0-C ,  7-H ) :   0.9373 B(  0-C ,  8-H ) :   0.9499
B(  1-C ,  2-C ) :   1.0475 B(  1-C ,  9-H ) :   0.9457 B(  2-C ,  3-C ) :   1.0274
B(  2-C ,  6-N ) :   0.9664 B(  2-C , 10-H ) :   0.9075 B(  3-C ,  4-N ) :   1.0672
B(  3-C , 11-H ) :   0.9159 B(  3-C , 12-H ) :   0.9370 B(  4-N ,  5-C ) :   1.8630
B(  4-N ,  6-N ) :   0.1270 B(  5-C ,  6-N ) :   1.1364 B(  5-C , 13-H ) :   0.9602
B(  6-N , 14-H ) :   0.9378

FINAL SINGLE POINT ENERGY      -304.199141285369

DIPOLE MOMENT
-------------
                                X             Y             Z
Electronic contribution:      3.57925      -1.90862      -0.82462
Nuclear contribution   :     -3.55500       2.89327       1.10933
                        -----------------------------------------
Total Dipole Moment    :      0.02425       0.98465       0.28471
                        -----------------------------------------
Magnitude (a.u.)       :      1.02527
Magnitude (Debye)      :      2.60604

                             ****ORCA TERMINATED NORMALLY****
TOTAL RUN TIME: 0 days 0 hours 0 minutes 6 seconds 862 msec
