                         Program Version 3.0.3 - RELEASE   -
|  1> ! RI PBE def2-SVP def2-SVP/J NBO PAL2
|  2> % maxcore 2000
|  3> % output
|  4>     # printlevel mini
|  5>     print[ P_Basis ] 0
|  6>     print[ P_SCFInfo ] 1
|  7>     print[ P_SCFIterInfo ] 1
|  8>     print[ P_OrbEn ] 0
|  9>     print[ P_Cartesian ] 0
| 10> end
| 11> *xyz 0 1
| 12>  C        0.8958640000     0.0139330000     0.1017700000
| 13>  C        2.0963620000     0.0240680000     0.0756340000
| 14>  C        3.5543070000     0.0428510000     0.0468280000
| 15>  C        4.1793500000    -1.1389700000    -0.7550820000
| 16>  N        4.5880490000    -0.5836930000    -2.0392270000
| 17>  C        4.4902840000     0.6757710000    -1.9289150000
| 18>  N        4.0851400000     1.1813020000    -0.7084870000
| 19>  H       -0.1684080000     0.0011190000     0.1197650000
| 20>  H        3.9248970000     0.0615370000     1.0750440000
| 21>  H        3.4750190000    -1.9611050000    -0.8881000000
| 22>  H        5.0589330000    -1.5283990000    -0.2324310000
| 23>  H        4.7485040000     1.3677680000    -2.7252830000
| 24>  H        3.5471090000     2.0346270000    -0.7000150000
| 25> *
| 26>
| 27>                          ****END OF INPUT****
 Total Charge           Charge          ....    0
 Multiplicity           Mult            ....    1
 Number of Electrons    NEL             ....   50
 Basis Dimension        Dim             ....  128

MULLIKEN ATOMIC CHARGES
-----------------------
   0 C :   -0.491275
   1 C :    0.423390
   2 C :   -0.048225
   3 C :    0.162388
   4 N :   -0.220032
   5 C :    0.098183
   6 N :   -0.162795
   7 H :    0.003527
   8 H :    0.040678
   9 H :    0.029946
  10 H :    0.026031
  11 H :    0.018552
  12 H :    0.119631
Sum of atomic charges:   -0.0000000

LOEWDIN ATOMIC CHARGES
----------------------
   0 C :   -0.071216
   1 C :   -0.034135
   2 C :   -0.003385
   3 C :    0.024046
   4 N :   -0.142581
   5 C :    0.023331
   6 N :   -0.025987
   7 H :    0.036819
   8 H :    0.042312
   9 H :    0.031286
  10 H :    0.028669
  11 H :    0.019191
  12 H :    0.071651

  Mayer bond orders larger than 0.1
B(  0-C ,  1-C ) :   2.3132 B(  0-C ,  7-H ) :   1.1064 B(  1-C ,  2-C ) :   0.9569
B(  1-C ,  7-H ) :  -0.1160 B(  2-C ,  3-C ) :   1.0387 B(  2-C ,  6-N ) :   1.0523
B(  2-C ,  8-H ) :   0.8850 B(  3-C ,  4-N ) :   1.0744 B(  3-C ,  9-H ) :   0.9370
B(  3-C , 10-H ) :   0.9219 B(  4-N ,  5-C ) :   1.8634 B(  4-N ,  6-N ) :   0.1156
B(  5-C ,  6-N ) :   1.1271 B(  5-C , 11-H ) :   0.9593 B(  6-N , 12-H ) :   0.9343

FINAL SINGLE POINT ENERGY      -302.952493469802

DIPOLE MOMENT
-------------
                                X             Y             Z
Electronic contribution:     -0.30283       0.89517      -0.56988
Nuclear contribution   :     -0.11475      -0.24459       1.12031
                        -----------------------------------------
Total Dipole Moment    :     -0.41757       0.65057       0.55042
                        -----------------------------------------
Magnitude (a.u.)       :      0.94899
Magnitude (Debye)      :      2.41214

                             ****ORCA TERMINATED NORMALLY****
TOTAL RUN TIME: 0 days 0 hours 0 minutes 6 seconds 399 msec
