                         Program Version 3.0.3 - RELEASE   -
|  1> ! RI PBE def2-SVP def2-SVP/J NBO PAL2
|  2> % maxcore 2000
|  3> % output
|  4>     # printlevel mini
|  5>     print[ P_Basis ] 0
|  6>     print[ P_SCFInfo ] 1
|  7>     print[ P_SCFIterInfo ] 1
|  8>     print[ P_OrbEn ] 0
|  9>     print[ P_Cartesian ] 0
| 10> end
| 11> *xyz 0 1
| 12>  C        1.1019620000    -0.0925520000    -0.0391580000
| 13>  C        2.5914650000     0.0409110000    -0.1012720000
| 14>  C        3.2452000000     0.2129060000    -1.2497990000
| 15>  C        2.6934120000     0.3080770000    -2.6561470000
| 16>  N        3.8429600000     0.4958810000    -3.5406170000
| 17>  C        4.8625220000     0.5059550000    -2.7798450000
| 18>  N        4.6174940000     0.3492280000    -1.4391020000
| 19>  H        0.7618830000    -0.2255240000     0.9884190000
| 20>  H        0.7398060000    -0.9527320000    -0.6141220000
| 21>  H        0.5908730000     0.7915320000    -0.4376990000
| 22>  H        3.1525390000    -0.0050930000     0.8269890000
| 23>  H        1.9925850000     1.1443140000    -2.7637330000
| 24>  H        2.1413920000    -0.5957070000    -2.9398490000
| 25>  H        5.8820450000     0.6285970000    -3.1307310000
| 26>  H        5.3092710000     0.3349960000    -0.7129450000
| 27> *
| 28>
| 29>                          ****END OF INPUT****
 Total Charge           Charge          ....    0
 Multiplicity           Mult            ....    1
 Number of Electrons    NEL             ....   52
 Basis Dimension        Dim             ....  138

MULLIKEN ATOMIC CHARGES
-----------------------
   0 C :    0.027363
   1 C :   -0.169502
   2 C :   -0.049198
   3 C :    0.166089
   4 N :   -0.228805
   5 C :    0.115173
   6 N :   -0.103541
   7 H :    0.016005
   8 H :    0.029380
   9 H :    0.031025
  10 H :   -0.030290
  11 H :    0.041312
  12 H :    0.038235
  13 H :    0.009829
  14 H :    0.106925
Sum of atomic charges:   -0.0000000

LOEWDIN ATOMIC CHARGES
----------------------
   0 C :   -0.066153
   1 C :   -0.125809
   2 C :   -0.012179
   3 C :    0.011569
   4 N :   -0.147982
   5 C :    0.026013
   6 N :    0.029704
   7 H :    0.031509
   8 H :    0.030466
   9 H :    0.030874
  10 H :    0.017638
  11 H :    0.039433
  12 H :    0.038931
  13 H :    0.017013
  14 H :    0.078974

  Mayer bond orders larger than 0.1
B(  0-C ,  1-C ) :   1.0894 B(  0-C ,  7-H ) :   0.9540 B(  0-C ,  8-H ) :   0.9530
B(  0-C ,  9-H ) :   0.9527 B(  1-C ,  2-C ) :   1.7939 B(  1-C , 10-H ) :   0.9418
B(  2-C ,  3-C ) :   1.0141 B(  2-C ,  6-N ) :   1.1217 B(  3-C ,  4-N ) :   1.0938
B(  3-C , 11-H ) :   0.9062 B(  3-C , 12-H ) :   0.9048 B(  4-N ,  5-C ) :   1.8477
B(  4-N ,  6-N ) :   0.1074 B(  5-C ,  6-N ) :   1.1199 B(  5-C , 13-H ) :   0.9623
B(  6-N , 14-H ) :   0.9354

FINAL SINGLE POINT ENERGY      -304.215867279193

DIPOLE MOMENT
-------------
                                X             Y             Z
Electronic contribution:      5.61835       0.82469      -3.41475
Nuclear contribution   :     -5.15369      -0.87399       4.28848
                        -----------------------------------------
Total Dipole Moment    :      0.46466      -0.04930       0.87373
                        -----------------------------------------
Magnitude (a.u.)       :      0.99083
Magnitude (Debye)      :      2.51849

                             ****ORCA TERMINATED NORMALLY****
TOTAL RUN TIME: 0 days 0 hours 0 minutes 6 seconds 832 msec
