                         Program Version 3.0.3 - RELEASE   -
|  1> ! RI PBE def2-SVP def2-SVP/J NBO PAL2
|  2> % maxcore 2000
|  3> % output
|  4>     # printlevel mini
|  5>     print[ P_Basis ] 0
|  6>     print[ P_SCFInfo ] 1
|  7>     print[ P_SCFIterInfo ] 1
|  8>     print[ P_OrbEn ] 0
|  9>     print[ P_Cartesian ] 0
| 10> end
| 11> *xyz 0 1
| 12>  C        1.6953170000    -1.2448280000     0.3567940000
| 13>  C        2.5723500000    -0.0041810000     0.2934050000
| 14>  C        3.3058310000     0.1647560000    -1.0154220000
| 15>  C        4.3103340000    -0.9008010000    -1.3769290000
| 16>  N        5.3650670000    -0.9445150000    -0.3772670000
| 17>  C        2.6492460000     0.9132370000    -2.1035700000
| 18>  N        3.7696980000     1.5092180000    -1.3726890000
| 19>  H        1.1405160000    -1.2793960000     1.2971140000
| 20>  H        2.2917910000    -2.1577540000     0.2979390000
| 21>  H        0.9697530000    -1.2627410000    -0.4611290000
| 22>  H        3.3108450000    -0.0375040000     1.1002030000
| 23>  H        1.9559870000     0.8880090000     0.4567900000
| 24>  H        4.6703940000    -0.6899890000    -2.3941800000
| 25>  H        3.8164880000    -1.8773040000    -1.4054720000
| 26>  H        5.8750660000    -0.0685630000    -0.4000320000
| 27>  H        6.0270390000    -1.6809660000    -0.5847480000
| 28>  H        1.6500560000     1.2970670000    -1.9193610000
| 29>  H        2.8571850000     0.6688590000    -3.1405660000
| 30>  H        3.4197460000     2.1839960000    -0.6999900000
| 31> *
| 32>
| 33>                          ****END OF INPUT****
 Total Charge           Charge          ....    0
 Multiplicity           Mult            ....    1
 Number of Electrons    NEL             ....   56
 Basis Dimension        Dim             ....  158

MULLIKEN ATOMIC CHARGES
-----------------------
   0 C :   -0.018544
   1 C :    0.114469
   2 C :   -0.360461
   3 C :    0.224743
   4 N :   -0.210794
   5 C :    0.085146
   6 N :   -0.181390
   7 H :    0.016778
   8 H :    0.027544
   9 H :    0.016520
  10 H :    0.018871
  11 H :   -0.022422
  12 H :   -0.026816
  13 H :   -0.001363
  14 H :    0.090869
  15 H :    0.087584
  16 H :    0.017860
  17 H :    0.022016
  18 H :    0.099390
Sum of atomic charges:   -0.0000000

LOEWDIN ATOMIC CHARGES
----------------------
   0 C :   -0.063985
   1 C :   -0.039437
   2 C :   -0.039045
   3 C :    0.016314
   4 N :   -0.106452
   5 C :    0.003823
   6 N :   -0.103268
   7 H :    0.027861
   8 H :    0.026512
   9 H :    0.023805
  10 H :    0.028753
  11 H :    0.018047
  12 H :    0.003940
  13 H :    0.018736
  14 H :    0.052575
  15 H :    0.052437
  16 H :    0.013279
  17 H :    0.016745
  18 H :    0.049361

  Mayer bond orders larger than 0.1
B(  0-C ,  1-C ) :   1.1172 B(  0-C ,  7-H ) :   0.9546 B(  0-C ,  8-H ) :   0.9640
B(  0-C ,  9-H ) :   0.9645 B(  1-C ,  2-C ) :   1.0467 B(  1-C , 10-H ) :   0.9142
B(  1-C , 11-H ) :   0.8990 B(  2-C ,  3-C ) :   1.0333 B(  2-C ,  5-C ) :   1.0402
B(  2-C ,  6-N ) :   0.9581 B(  3-C ,  4-N ) :   1.1011 B(  3-C , 12-H ) :   0.8946
B(  3-C , 13-H ) :   0.9224 B(  4-N , 14-H ) :   0.9629 B(  4-N , 15-H ) :   0.9648
B(  5-C ,  6-N ) :   1.0154 B(  5-C , 16-H ) :   0.9342 B(  5-C , 17-H ) :   0.9266
B(  6-N , 18-H ) :   0.9421

FINAL SINGLE POINT ENERGY      -306.585897173097

DIPOLE MOMENT
-------------
                                X             Y             Z
Electronic contribution:      2.48204       2.64289      -1.49569
Nuclear contribution   :     -2.65470      -2.75095       1.46753
                        -----------------------------------------
Total Dipole Moment    :     -0.17265      -0.10806      -0.02816
                        -----------------------------------------
Magnitude (a.u.)       :      0.20562
Magnitude (Debye)      :      0.52264

                             ****ORCA TERMINATED NORMALLY****
TOTAL RUN TIME: 0 days 0 hours 0 minutes 8 seconds 443 msec
