                         Program Version 3.0.3 - RELEASE   -
|  1> ! RI PBE def2-SVP def2-SVP/J NBO PAL2
|  2> % maxcore 2000
|  3> % output
|  4>     # printlevel mini
|  5>     print[ P_Basis ] 0
|  6>     print[ P_SCFInfo ] 1
|  7>     print[ P_SCFIterInfo ] 1
|  8>     print[ P_OrbEn ] 0
|  9>     print[ P_Cartesian ] 0
| 10> end
| 11> *xyz 0 1
| 12>  C        3.5481150000    -0.6465410000     0.9652690000
| 13>  C        2.5074450000    -0.2028340000    -0.0483610000
| 14>  C        2.9779600000     0.9190480000    -0.9538610000
| 15>  C        1.9222770000     1.4096950000    -1.9682320000
| 16>  N        2.0402210000     2.8667080000    -2.0238440000
| 17>  C        2.7897410000     3.1859610000    -1.0497700000
| 18>  N        3.2525000000     2.1698510000    -0.2406240000
| 19>  H        3.1820000000    -1.4763080000     1.5735450000
| 20>  H        3.8067790000     0.1679320000     1.6471480000
| 21>  H        4.4667630000    -0.9785790000     0.4722810000
| 22>  H        1.5995910000     0.1293380000     0.4657580000
| 23>  H        2.2202510000    -1.0512510000    -0.6797070000
| 24>  H        3.8853350000     0.5916460000    -1.4840290000
| 25>  H        0.9117940000     1.1474870000    -1.6285680000
| 26>  H        2.0531870000     0.9732490000    -2.9603000000
| 27>  H        3.0427890000     4.2145660000    -0.8066180000
| 28>  H        4.1514400000     2.2901100000     0.1981110000
| 29> *
| 30>
| 31>                          ****END OF INPUT****
 Total Charge           Charge          ....    0
 Multiplicity           Mult            ....    1
 Number of Electrons    NEL             ....   54
 Basis Dimension        Dim             ....  148

MULLIKEN ATOMIC CHARGES
-----------------------
   0 C :   -0.018855
   1 C :    0.025490
   2 C :   -0.082650
   3 C :    0.177810
   4 N :   -0.234316
   5 C :    0.090588
   6 N :   -0.182016
   7 H :    0.024937
   8 H :    0.015656
   9 H :    0.013884
  10 H :    0.010514
  11 H :    0.014794
  12 H :    0.001556
  13 H :    0.006670
  14 H :    0.015583
  15 H :    0.006378
  16 H :    0.113977
Sum of atomic charges:   -0.0000000

LOEWDIN ATOMIC CHARGES
----------------------
   0 C :   -0.069659
   1 C :   -0.048618
   2 C :    0.006652
   3 C :    0.011397
   4 N :   -0.149463
   5 C :    0.017569
   6 N :   -0.036264
   7 H :    0.029643
   8 H :    0.022327
   9 H :    0.023783
  10 H :    0.025417
  11 H :    0.028119
  12 H :    0.011775
  13 H :    0.023536
  14 H :    0.023721
  15 H :    0.014349
  16 H :    0.065715

  Mayer bond orders larger than 0.1
B(  0-C ,  1-C ) :   1.1203 B(  0-C ,  7-H ) :   0.9611 B(  0-C ,  8-H ) :   0.9617
B(  0-C ,  9-H ) :   0.9629 B(  1-C ,  2-C ) :   1.0689 B(  1-C , 10-H ) :   0.9168
B(  1-C , 11-H ) :   0.9309 B(  2-C ,  3-C ) :   1.0444 B(  2-C ,  6-N ) :   1.0047
B(  2-C , 12-H ) :   0.9083 B(  3-C ,  4-N ) :   1.0777 B(  3-C , 13-H ) :   0.9153
B(  3-C , 14-H ) :   0.9333 B(  4-N ,  5-C ) :   1.8649 B(  4-N ,  6-N ) :   0.1263
B(  5-C ,  6-N ) :   1.1404 B(  5-C , 15-H ) :   0.9606 B(  6-N , 16-H ) :   0.9304

FINAL SINGLE POINT ENERGY      -305.423397677295

DIPOLE MOMENT
-------------
                                X             Y             Z
Electronic contribution:     -1.03978       6.46874      -3.21662
Nuclear contribution   :      1.81369      -7.02893       3.83897
                        -----------------------------------------
Total Dipole Moment    :      0.77391      -0.56018       0.62235
                        -----------------------------------------
Magnitude (a.u.)       :      1.14020
Magnitude (Debye)      :      2.89816

                             ****ORCA TERMINATED NORMALLY****
TOTAL RUN TIME: 0 days 0 hours 0 minutes 7 seconds 603 msec
