                         Program Version 3.0.3 - RELEASE   -
|  1> ! RI PBE def2-SVP def2-SVP/J NBO PAL2
|  2> % maxcore 2000
|  3> % output
|  4>     # printlevel mini
|  5>     print[ P_Basis ] 0
|  6>     print[ P_SCFInfo ] 1
|  7>     print[ P_SCFIterInfo ] 1
|  8>     print[ P_OrbEn ] 0
|  9>     print[ P_Cartesian ] 0
| 10> end
| 11> *xyz 0 1
| 12>  C        3.5182190000    -0.5495080000    -0.9845470000
| 13>  C        2.4073030000     0.0790730000    -0.1472250000
| 14>  C        2.8055550000     1.3342830000     0.5425090000
| 15>  C        2.4014300000     2.6334910000     0.3987810000
| 16>  N        3.0719380000     3.4594880000     1.2604240000
| 17>  C        3.8782290000     2.6784310000     1.9251110000
| 18>  N        3.7583980000     1.3851220000     1.5300710000
| 19>  H        3.1654710000    -1.4560240000    -1.4814420000
| 20>  H        4.3793360000    -0.8256210000    -0.3702750000
| 21>  H        3.8684680000     0.1464930000    -1.7493690000
| 22>  H        2.0431340000    -0.6515450000     0.5853140000
| 23>  H        1.5537330000     0.3140990000    -0.7874820000
| 24>  H        1.6562200000     3.0138330000    -0.2840420000
| 25>  H        4.5664690000     2.9865110000     2.6984870000
| 26>  H        4.2698980000     0.6027810000     1.8989750000
| 27> *
| 28>
| 29>                          ****END OF INPUT****
 Total Charge           Charge          ....    0
 Multiplicity           Mult            ....    1
 Number of Electrons    NEL             ....   52
 Basis Dimension        Dim             ....  138

MULLIKEN ATOMIC CHARGES
-----------------------
   0 C :   -0.021497
   1 C :    0.074793
   2 C :   -0.062699
   3 C :   -0.048378
   4 N :   -0.145434
   5 C :    0.075009
   6 N :   -0.062768
   7 H :    0.024356
   8 H :    0.011760
   9 H :    0.032232
  10 H :    0.020057
  11 H :    0.010727
  12 H :   -0.022810
  13 H :    0.005137
  14 H :    0.109514
Sum of atomic charges:    0.0000000

LOEWDIN ATOMIC CHARGES
----------------------
   0 C :   -0.062669
   1 C :   -0.047360
   2 C :   -0.049010
   3 C :   -0.064857
   4 N :   -0.111399
   5 C :   -0.015356
   6 N :    0.088957
   7 H :    0.028451
   8 H :    0.019683
   9 H :    0.031142
  10 H :    0.032221
  11 H :    0.040980
  12 H :    0.015115
  13 H :    0.012975
  14 H :    0.081128

  Mayer bond orders larger than 0.1
B(  0-C ,  1-C ) :   1.1106 B(  0-C ,  7-H ) :   0.9592 B(  0-C ,  8-H ) :   0.9684
B(  0-C ,  9-H ) :   0.9651 B(  1-C ,  2-C ) :   1.0823 B(  1-C , 10-H ) :   0.9120
B(  1-C , 11-H ) :   0.9049 B(  2-C ,  3-C ) :   1.5068 B(  2-C ,  5-C ) :   0.1021
B(  2-C ,  6-N ) :   1.2104 B(  3-C ,  4-N ) :   1.4008 B(  3-C , 12-H ) :   0.9952
B(  4-N ,  5-C ) :   1.6478 B(  5-C ,  6-N ) :   1.2063 B(  5-C , 13-H ) :   0.9706
B(  6-N , 14-H ) :   0.9342

FINAL SINGLE POINT ENERGY      -304.246728368139

DIPOLE MOMENT
-------------
                                X             Y             Z
Electronic contribution:      0.05940       6.07234       4.34037
Nuclear contribution   :      0.37652      -7.52915      -4.23131
                        -----------------------------------------
Total Dipole Moment    :      0.43592      -1.45681       0.10906
                        -----------------------------------------
Magnitude (a.u.)       :      1.52454
Magnitude (Debye)      :      3.87507

                             ****ORCA TERMINATED NORMALLY****
TOTAL RUN TIME: 0 days 0 hours 0 minutes 6 seconds 601 msec
