                         Program Version 3.0.3 - RELEASE   -
|  1> ! RI PBE def2-SVP def2-SVP/J NBO PAL2
|  2> % maxcore 2000
|  3> % output
|  4>     # printlevel mini
|  5>     print[ P_Basis ] 0
|  6>     print[ P_SCFInfo ] 1
|  7>     print[ P_SCFIterInfo ] 1
|  8>     print[ P_OrbEn ] 0
|  9>     print[ P_Cartesian ] 0
| 10> end
| 11> *xyz 0 1
| 12>  C        2.5985900000    -1.1869180000     0.4881300000
| 13>  C        2.1196140000     0.0230400000     0.2124160000
| 14>  C        2.9042530000     1.2422970000     0.2184280000
| 15>  C        2.4632990000     2.5133930000    -0.0572090000
| 16>  N        3.5588220000     3.3195070000     0.0759500000
| 17>  C        4.6020440000     2.5231520000     0.4203430000
| 18>  N        4.2463030000     1.2739370000     0.5145810000
| 19>  H        1.9595360000    -2.0608140000     0.4666460000
| 20>  H        3.6433710000    -1.3246430000     0.7413070000
| 21>  H        1.0689790000     0.1430620000    -0.0396110000
| 22>  H        1.4932550000     2.8969190000    -0.3278060000
| 23>  H        3.5849830000     4.3149440000    -0.0567100000
| 24>  H        5.5952720000     2.9133230000     0.5884450000
| 25> *
| 26>
| 27>                          ****END OF INPUT****
 Total Charge           Charge          ....    0
 Multiplicity           Mult            ....    1
 Number of Electrons    NEL             ....   50
 Basis Dimension        Dim             ....  128

MULLIKEN ATOMIC CHARGES
-----------------------
   0 C :   -0.015299
   1 C :    0.004328
   2 C :   -0.033039
   3 C :    0.003617
   4 N :   -0.047260
   5 C :    0.087218
   6 N :   -0.136336
   7 H :    0.015684
   8 H :    0.028438
   9 H :   -0.026352
  10 H :   -0.008437
  11 H :    0.120039
  12 H :    0.007399
Sum of atomic charges:   -0.0000000

LOEWDIN ATOMIC CHARGES
----------------------
   0 C :   -0.047998
   1 C :   -0.042605
   2 C :   -0.057023
   3 C :   -0.041897
   4 N :    0.096081
   5 C :   -0.003073
   6 N :   -0.103893
   7 H :    0.022126
   8 H :    0.027390
   9 H :    0.026940
  10 H :    0.021989
  11 H :    0.086002
  12 H :    0.015962

  Mayer bond orders larger than 0.1
B(  0-C ,  1-C ) :   1.9263 B(  0-C ,  7-H ) :   0.9359 B(  0-C ,  8-H ) :   0.9381
B(  1-C ,  2-C ) :   1.1314 B(  1-C ,  9-H ) :   0.9445 B(  2-C ,  3-C ) :   1.4278
B(  2-C ,  6-N ) :   1.3998 B(  3-C ,  4-N ) :   1.2118 B(  3-C , 10-H ) :   0.9766
B(  4-N ,  5-C ) :   1.2198 B(  4-N , 11-H ) :   0.9320 B(  5-C ,  6-N ) :   1.6365
B(  5-C , 12-H ) :   0.9700

FINAL SINGLE POINT ENERGY      -303.030128532421

DIPOLE MOMENT
-------------
                                X             Y             Z
Electronic contribution:      1.57685       2.96954      -0.06328
Nuclear contribution   :     -1.85514      -1.47048      -0.21072
                        -----------------------------------------
Total Dipole Moment    :     -0.27828       1.49906      -0.27400
                        -----------------------------------------
Magnitude (a.u.)       :      1.54909
Magnitude (Debye)      :      3.93748

                             ****ORCA TERMINATED NORMALLY****
TOTAL RUN TIME: 0 days 0 hours 0 minutes 6 seconds 725 msec
