                         Program Version 3.0.3 - RELEASE   -
|  1> ! RI PBE def2-SVP def2-SVP/J NBO PAL2
|  2> % maxcore 2000
|  3> % output
|  4>     # printlevel mini
|  5>     print[ P_Basis ] 0
|  6>     print[ P_SCFInfo ] 1
|  7>     print[ P_SCFIterInfo ] 1
|  8>     print[ P_OrbEn ] 0
|  9>     print[ P_Cartesian ] 0
| 10> end
| 11> *xyz 0 1
| 12>  C        0.9550980000    -0.0804760000     0.0678010000
| 13>  C        2.1571570000    -0.0770790000     0.0710260000
| 14>  C        3.5725240000    -0.0554380000     0.0747820000
| 15>  C        4.3810970000     1.0550710000     0.0742060000
| 16>  N        5.6548670000     0.5710750000     0.0788360000
| 17>  C        5.5754110000    -0.7843370000     0.0819800000
| 18>  N        4.3401190000    -1.1975670000     0.0796820000
| 19>  H       -0.1087770000    -0.0931300000     0.0649730000
| 20>  H        4.1533610000     2.1075300000     0.0709850000
| 21>  H        6.4964570000     1.1204900000     0.0797360000
| 22>  H        6.4516850000    -1.4154490000     0.0859030000
| 23> *
| 24>
| 25>                          ****END OF INPUT****
 Total Charge           Charge          ....    0
 Multiplicity           Mult            ....    1
 Number of Electrons    NEL             ....   48
 Basis Dimension        Dim             ....  118

MULLIKEN ATOMIC CHARGES
-----------------------
   0 C :   -0.502153
   1 C :    0.490473
   2 C :   -0.081315
   3 C :    0.036015
   4 N :   -0.039891
   5 C :    0.084049
   6 N :   -0.125887
   7 H :    0.001586
   8 H :    0.002538
   9 H :    0.121816
  10 H :    0.012769
Sum of atomic charges:   -0.0000000

LOEWDIN ATOMIC CHARGES
----------------------
   0 C :   -0.067676
   1 C :   -0.013697
   2 C :   -0.073033
   3 C :   -0.021752
   4 N :    0.101877
   5 C :   -0.003683
   6 N :   -0.091747
   7 H :    0.033974
   8 H :    0.028182
   9 H :    0.088927
  10 H :    0.018627

  Mayer bond orders larger than 0.1
B(  0-C ,  1-C ) :   2.2284 B(  0-C ,  7-H ) :   1.0967 B(  1-C ,  2-C ) :   0.9363
B(  1-C ,  7-H ) :  -0.1079 B(  2-C ,  3-C ) :   1.4446 B(  2-C ,  6-N ) :   1.3946
B(  3-C ,  4-N ) :   1.2226 B(  3-C ,  8-H ) :   0.9854 B(  4-N ,  5-C ) :   1.2163
B(  4-N ,  9-H ) :   0.9303 B(  5-C ,  6-N ) :   1.6372 B(  5-C , 10-H ) :   0.9695

FINAL SINGLE POINT ENERGY      -301.781945780587

DIPOLE MOMENT
-------------
                                X             Y             Z
Electronic contribution:     -0.18365      -0.73849       0.00121
Nuclear contribution   :      1.40808       1.86912      -0.00084
                        -----------------------------------------
Total Dipole Moment    :      1.22443       1.13064       0.00037
                        -----------------------------------------
Magnitude (a.u.)       :      1.66660
Magnitude (Debye)      :      4.23617

                             ****ORCA TERMINATED NORMALLY****
TOTAL RUN TIME: 0 days 0 hours 0 minutes 5 seconds 456 msec
