                         Program Version 3.0.3 - RELEASE   -
|  1> ! RI PBE def2-SVP def2-SVP/J NBO PAL2
|  2> % maxcore 2000
|  3> % output
|  4>     # printlevel mini
|  5>     print[ P_Basis ] 0
|  6>     print[ P_SCFInfo ] 1
|  7>     print[ P_SCFIterInfo ] 1
|  8>     print[ P_OrbEn ] 0
|  9>     print[ P_Cartesian ] 0
| 10> end
| 11> *xyz 0 1
| 12>  C        1.4519150000    -0.4918180000     0.9502800000
| 13>  C        2.1897820000     0.0651510000     0.0017010000
| 14>  C        3.0710870000    -0.6741350000    -0.9612000000
| 15>  C        2.5761220000    -0.7263710000    -2.3725010000
| 16>  N        2.5333730000    -1.9124150000    -2.8375590000
| 17>  N        2.9794840000    -2.8128530000    -1.8239870000
| 18>  C        3.2604840000    -2.1392350000    -0.7778830000
| 19>  H        0.8295370000     0.1160090000     1.5959930000
| 20>  H        1.4347660000    -1.5632240000     1.1158350000
| 21>  H        2.1675210000     1.1440730000    -0.1283360000
| 22>  H        4.0652680000    -0.1962970000    -0.9698840000
| 23>  H        2.2793130000     0.1267530000    -2.9718810000
| 24>  H        3.6310590000    -2.6241260000     0.1179340000
| 25> *
| 26>
| 27>                          ****END OF INPUT****
 Total Charge           Charge          ....    0
 Multiplicity           Mult            ....    1
 Number of Electrons    NEL             ....   50
 Basis Dimension        Dim             ....  128

MULLIKEN ATOMIC CHARGES
-----------------------
   0 C :   -0.017275
   1 C :   -0.050145
   2 C :   -0.072268
   3 C :    0.054199
   4 N :   -0.091873
   5 N :   -0.092311
   6 C :    0.037344
   7 H :    0.036495
   8 H :    0.038002
   9 H :    0.021351
  10 H :    0.080450
  11 H :    0.027114
  12 H :    0.028916
Sum of atomic charges:   -0.0000000

LOEWDIN ATOMIC CHARGES
----------------------
   0 C :   -0.046684
   1 C :   -0.019365
   2 C :   -0.083985
   3 C :    0.011761
   4 N :   -0.049223
   5 N :   -0.045465
   6 C :    0.005083
   7 H :    0.032560
   8 H :    0.028492
   9 H :    0.032429
  10 H :    0.079736
  11 H :    0.027233
  12 H :    0.027429

  Mayer bond orders larger than 0.1
B(  0-C ,  1-C ) :   2.0309 B(  0-C ,  7-H ) :   0.9437 B(  0-C ,  8-H ) :   0.9356
B(  1-C ,  2-C ) :   0.9849 B(  1-C ,  9-H ) :   0.9561 B(  2-C ,  3-C ) :   0.9815
B(  2-C ,  6-C ) :   0.9919 B(  2-C , 10-H ) :   0.8415 B(  3-C ,  4-N ) :   1.8941
B(  3-C , 11-H ) :   0.9704 B(  4-N ,  5-N ) :   1.0185 B(  5-N ,  6-C ) :   1.8841
B(  6-C , 12-H ) :   0.9687

FINAL SINGLE POINT ENERGY      -302.952412625638

DIPOLE MOMENT
-------------
                                X             Y             Z
Electronic contribution:      1.21318      -2.87508      -4.04797
Nuclear contribution   :     -0.98332       4.16470       5.07263
                        -----------------------------------------
Total Dipole Moment    :      0.22986       1.28963       1.02466
                        -----------------------------------------
Magnitude (a.u.)       :      1.66310
Magnitude (Debye)      :      4.22727

                             ****ORCA TERMINATED NORMALLY****
TOTAL RUN TIME: 0 days 0 hours 0 minutes 6 seconds 351 msec
