                         Program Version 3.0.3 - RELEASE   -
|  1> ! RI PBE def2-SVP def2-SVP/J NBO PAL2
|  2> % maxcore 2000
|  3> % output
|  4>     # printlevel mini
|  5>     print[ P_Basis ] 0
|  6>     print[ P_SCFInfo ] 1
|  7>     print[ P_SCFIterInfo ] 1
|  8>     print[ P_OrbEn ] 0
|  9>     print[ P_Cartesian ] 0
| 10> end
| 11> *xyz 0 1
| 12>  C        1.0405430000     0.5785480000    -0.2065120000
| 13>  C        2.2915700000     0.1654290000    -0.0595340000
| 14>  C        2.8853460000    -0.3693420000     1.2039540000
| 15>  C        3.0082240000    -1.9008100000     1.2621560000
| 16>  N        2.9277070000    -2.1426790000     2.7029650000
| 17>  N        2.1613420000    -1.1506090000     3.2743250000
| 18>  C        2.1192290000    -0.1543570000     2.4826140000
| 19>  H        0.6781880000     0.9431320000    -1.1604790000
| 20>  H        0.3332160000     0.5650720000     0.6162580000
| 21>  H        2.9600240000     0.1961550000    -0.9174010000
| 22>  H        3.8866610000     0.0716260000     1.3310310000
| 23>  H        3.9422220000    -2.2818480000     0.8483570000
| 24>  H        2.1628620000    -2.3546160000     0.7256750000
| 25>  H        2.5888520000    -3.0519980000     2.9813510000
| 26>  H        1.6422260000     0.7690980000     2.7853390000
| 27> *
| 28>
| 29>                          ****END OF INPUT****
 Total Charge           Charge          ....    0
 Multiplicity           Mult            ....    1
 Number of Electrons    NEL             ....   52
 Basis Dimension        Dim             ....  138

MULLIKEN ATOMIC CHARGES
-----------------------
   0 C :   -0.026860
   1 C :   -0.054751
   2 C :   -0.080864
   3 C :    0.178135
   4 N :   -0.146334
   5 N :   -0.085349
   6 C :   -0.035801
   7 H :    0.024331
   8 H :    0.029906
   9 H :    0.006703
  10 H :    0.034875
  11 H :    0.015305
  12 H :    0.014794
  13 H :    0.115958
  14 H :    0.009952
Sum of atomic charges:   -0.0000000

LOEWDIN ATOMIC CHARGES
----------------------
   0 C :   -0.057146
   1 C :   -0.027689
   2 C :   -0.065640
   3 C :    0.024726
   4 N :   -0.019577
   5 N :   -0.036120
   6 C :   -0.055842
   7 H :    0.026561
   8 H :    0.024147
   9 H :    0.026532
  10 H :    0.043777
  11 H :    0.023560
  12 H :    0.014423
  13 H :    0.059072
  14 H :    0.019215

  Mayer bond orders larger than 0.1
B(  0-C ,  1-C ) :   2.0224 B(  0-C ,  7-H ) :   0.9425 B(  0-C ,  8-H ) :   0.9336
B(  1-C ,  2-C ) :   1.0264 B(  1-C ,  9-H ) :   0.9580 B(  2-C ,  3-C ) :   1.0564
B(  2-C ,  6-C ) :   0.9806 B(  2-C , 10-H ) :   0.8537 B(  3-C ,  4-N ) :   0.9897
B(  3-C , 11-H ) :   0.9320 B(  3-C , 12-H ) :   0.9339 B(  4-N ,  5-N ) :   1.1005
B(  4-N , 13-H ) :   0.9399 B(  5-N ,  6-C ) :   1.8809 B(  6-C , 14-H ) :   0.9781

FINAL SINGLE POINT ENERGY      -304.169488374970

DIPOLE MOMENT
-------------
                                X             Y             Z
Electronic contribution:      0.66989      -0.98534       3.95403
Nuclear contribution   :     -0.56407       0.74677      -4.71471
                        -----------------------------------------
Total Dipole Moment    :      0.10582      -0.23857      -0.76068
                        -----------------------------------------
Magnitude (a.u.)       :      0.80421
Magnitude (Debye)      :      2.04414

                             ****ORCA TERMINATED NORMALLY****
TOTAL RUN TIME: 0 days 0 hours 0 minutes 7 seconds 341 msec
