                         Program Version 3.0.3 - RELEASE   -
|  1> ! RI PBE def2-SVP def2-SVP/J NBO PAL2
|  2> % maxcore 2000
|  3> % output
|  4>     # printlevel mini
|  5>     print[ P_Basis ] 0
|  6>     print[ P_SCFInfo ] 1
|  7>     print[ P_SCFIterInfo ] 1
|  8>     print[ P_OrbEn ] 0
|  9>     print[ P_Cartesian ] 0
| 10> end
| 11> *xyz 0 1
| 12>  C        0.9694190000    -0.0221870000    -0.0381620000
| 13>  C        2.1674690000    -0.0223750000    -0.0855130000
| 14>  C        3.6150200000    -0.0224240000    -0.1541580000
| 15>  C        4.2533020000     1.1016580000    -0.9145060000
| 16>  N        5.0672100000     0.6899470000    -1.8019990000
| 17>  N        5.0672160000    -0.7374840000    -1.8008330000
| 18>  C        4.2533030000    -1.1477450000    -0.9126750000
| 19>  H       -0.0944930000    -0.0222250000     0.0010070000
| 20>  H        4.0288980000    -0.0215840000     0.8680410000
| 21>  H        4.0806820000     2.1558650000    -0.7352270000
| 22>  H        4.0806850000    -2.2016560000    -0.7316660000
| 23> *
| 24>
| 25>                          ****END OF INPUT****
 Total Charge           Charge          ....    0
 Multiplicity           Mult            ....    1
 Number of Electrons    NEL             ....   48
 Basis Dimension        Dim             ....  118

MULLIKEN ATOMIC CHARGES
-----------------------
   0 C :   -0.464547
   1 C :    0.416894
   2 C :   -0.111568
   3 C :    0.069434
   4 N :   -0.082998
   5 N :   -0.083007
   6 C :    0.069466
   7 H :    0.009638
   8 H :    0.099376
   9 H :    0.038666
  10 H :    0.038645
Sum of atomic charges:   -0.0000000

LOEWDIN ATOMIC CHARGES
----------------------
   0 C :   -0.055745
   1 C :   -0.020170
   2 C :   -0.086685
   3 C :    0.021078
   4 N :   -0.039232
   5 N :   -0.039234
   6 C :    0.021084
   7 H :    0.040312
   8 H :    0.092531
   9 H :    0.033033
  10 H :    0.033030

  Mayer bond orders larger than 0.1
B(  0-C ,  1-C ) :   2.3385 B(  0-C ,  7-H ) :   1.1060 B(  1-C ,  2-C ) :   0.9600
B(  1-C ,  7-H ) :  -0.1149 B(  2-C ,  3-C ) :   0.9765 B(  2-C ,  6-C ) :   0.9765
B(  2-C ,  8-H ) :   0.8305 B(  3-C ,  4-N ) :   1.8942 B(  3-C ,  9-H ) :   0.9727
B(  4-N ,  5-N ) :   1.0159 B(  5-N ,  6-C ) :   1.8941 B(  6-C , 10-H ) :   0.9727

FINAL SINGLE POINT ENERGY      -301.706648555796

DIPOLE MOMENT
-------------
                                X             Y             Z
Electronic contribution:      1.49383      -0.00117      -1.36642
Nuclear contribution   :     -2.38475       0.00208       2.53936
                        -----------------------------------------
Total Dipole Moment    :     -0.89092       0.00091       1.17294
                        -----------------------------------------
Magnitude (a.u.)       :      1.47293
Magnitude (Debye)      :      3.74390

                             ****ORCA TERMINATED NORMALLY****
TOTAL RUN TIME: 0 days 0 hours 0 minutes 5 seconds 92 msec
