                         Program Version 3.0.3 - RELEASE   -
|  1> ! RI PBE def2-SVP def2-SVP/J NBO PAL2
|  2> % maxcore 2000
|  3> % output
|  4>     # printlevel mini
|  5>     print[ P_Basis ] 0
|  6>     print[ P_SCFInfo ] 1
|  7>     print[ P_SCFIterInfo ] 1
|  8>     print[ P_OrbEn ] 0
|  9>     print[ P_Cartesian ] 0
| 10> end
| 11> *xyz 0 1
| 12>  C        1.0585750000    -0.0038760000    -0.4645030000
| 13>  C        2.2339960000     0.0045840000    -0.2221440000
| 14>  C        3.6514080000     0.0186900000     0.0789470000
| 15>  C        4.1961030000    -1.2656820000     0.7206350000
| 16>  N        5.3069210000    -0.7338110000     1.5099760000
| 17>  N        4.9937050000     0.5490090000     1.9027650000
| 18>  C        4.0896820000     1.0105390000     1.1385190000
| 19>  H        0.0163700000    -0.0110300000    -0.6802570000
| 20>  H        4.2076440000     0.2367140000    -0.8452290000
| 21>  H        4.5381320000    -1.9974170000    -0.0104160000
| 22>  H        3.4201370000    -1.7169100000     1.3531870000
| 23>  H        5.5850720000    -1.2858120000     2.3080530000
| 24>  H        3.7425650000     2.0314030000     1.2216590000
| 25> *
| 26>
| 27>                          ****END OF INPUT****
 Total Charge           Charge          ....    0
 Multiplicity           Mult            ....    1
 Number of Electrons    NEL             ....   50
 Basis Dimension        Dim             ....  128

MULLIKEN ATOMIC CHARGES
-----------------------
   0 C :   -0.505432
   1 C :    0.424154
   2 C :   -0.119290
   3 C :    0.183681
   4 N :   -0.150054
   5 N :   -0.079848
   6 C :   -0.001942
   7 H :    0.000772
   8 H :    0.056605
   9 H :    0.028586
  10 H :    0.023901
  11 H :    0.121416
  12 H :    0.017451
Sum of atomic charges:   -0.0000000

LOEWDIN ATOMIC CHARGES
----------------------
   0 C :   -0.078919
   1 C :   -0.019723
   2 C :   -0.069267
   3 C :    0.030258
   4 N :   -0.018572
   5 N :   -0.031792
   6 C :   -0.040763
   7 H :    0.036002
   8 H :    0.057785
   9 H :    0.028768
  10 H :    0.019782
  11 H :    0.062177
  12 H :    0.024264

  Mayer bond orders larger than 0.1
B(  0-C ,  1-C ) :   2.3049 B(  0-C ,  7-H ) :   1.1074 B(  1-C ,  2-C ) :   0.9892
B(  1-C ,  7-H ) :  -0.1171 B(  2-C ,  3-C ) :   1.0642 B(  2-C ,  6-C ) :   0.9656
B(  2-C ,  8-H ) :   0.8307 B(  3-C ,  4-N ) :   0.9871 B(  3-C ,  9-H ) :   0.9293
B(  3-C , 10-H ) :   0.9369 B(  4-N ,  5-N ) :   1.0991 B(  4-N ,  6-C ) :   0.1078
B(  4-N , 11-H ) :   0.9392 B(  5-N ,  6-C ) :   1.8889 B(  6-C , 12-H ) :   0.9819

FINAL SINGLE POINT ENERGY      -302.926320105408

DIPOLE MOMENT
-------------
                                X             Y             Z
Electronic contribution:      0.40861       1.50505       0.61342
Nuclear contribution   :     -0.67068      -2.08399      -0.80868
                        -----------------------------------------
Total Dipole Moment    :     -0.26206      -0.57894      -0.19526
                        -----------------------------------------
Magnitude (a.u.)       :      0.66481
Magnitude (Debye)      :      1.68982

                             ****ORCA TERMINATED NORMALLY****
TOTAL RUN TIME: 0 days 0 hours 0 minutes 6 seconds 560 msec
