                         Program Version 3.0.3 - RELEASE   -
|  1> ! RI PBE def2-SVP def2-SVP/J NBO PAL2
|  2> % maxcore 2000
|  3> % output
|  4>     # printlevel mini
|  5>     print[ P_Basis ] 0
|  6>     print[ P_SCFInfo ] 1
|  7>     print[ P_SCFIterInfo ] 1
|  8>     print[ P_OrbEn ] 0
|  9>     print[ P_Cartesian ] 0
| 10> end
| 11> *xyz 0 1
| 12>  C        1.0105820000    -0.0393150000    -0.0911270000
| 13>  C        2.5047600000    -0.0028110000    -0.0063420000
| 14>  C        3.1850080000     0.5622730000     0.9962760000
| 15>  C        4.6883650000     0.6446310000     1.1617790000
| 16>  N        4.7872610000     1.3584090000     2.4177080000
| 17>  N        3.6063200000     1.6709350000     2.9507620000
| 18>  C        2.6685600000     1.2370400000     2.1751790000
| 19>  H        0.6797330000    -0.5511950000    -0.9953270000
| 20>  H        0.5785620000     0.9666730000    -0.1084740000
| 21>  H        0.5665460000    -0.5629480000     0.7618640000
| 22>  H        3.0613870000    -0.4674410000    -0.8153320000
| 23>  H        5.1667210000     1.1958040000     0.3436780000
| 24>  H        5.1546160000    -0.3458410000     1.2207880000
| 25>  H        5.6227750000     1.6251660000     2.8981790000
| 26>  H        1.6328930000     1.3939410000     2.4366780000
| 27> *
| 28>
| 29>                          ****END OF INPUT****
 Total Charge           Charge          ....    0
 Multiplicity           Mult            ....    1
 Number of Electrons    NEL             ....   52
 Basis Dimension        Dim             ....  138

MULLIKEN ATOMIC CHARGES
-----------------------
   0 C :    0.035984
   1 C :   -0.149167
   2 C :   -0.166783
   3 C :    0.259164
   4 N :   -0.166396
   5 N :   -0.053251
   6 C :   -0.004092
   7 H :    0.016919
   8 H :    0.035413
   9 H :    0.037483
  10 H :   -0.022296
  11 H :    0.035544
  12 H :    0.035555
  13 H :    0.117346
  14 H :   -0.011423
Sum of atomic charges:   -0.0000000

LOEWDIN ATOMIC CHARGES
----------------------
   0 C :   -0.068974
   1 C :   -0.068878
   2 C :   -0.072175
   3 C :    0.027508
   4 N :    0.019131
   5 N :   -0.024876
   6 C :   -0.082151
   7 H :    0.030985
   8 H :    0.035550
   9 H :    0.035968
  10 H :    0.019651
  11 H :    0.033109
  12 H :    0.033269
  13 H :    0.064066
  14 H :    0.017814

  Mayer bond orders larger than 0.1
B(  0-C ,  1-C ) :   1.0921 B(  0-C ,  7-H ) :   0.9561 B(  0-C ,  8-H ) :   0.9496
B(  0-C ,  9-H ) :   0.9498 B(  1-C ,  2-C ) :   1.8124 B(  1-C , 10-H ) :   0.9391
B(  2-C ,  3-C ) :   1.0103 B(  2-C ,  6-C ) :   1.1034 B(  3-C ,  4-N ) :   0.9511
B(  3-C , 11-H ) :   0.9177 B(  3-C , 12-H ) :   0.9173 B(  4-N ,  5-N ) :   1.1735
B(  4-N ,  6-C ) :   0.1230 B(  4-N , 13-H ) :   0.9525 B(  5-N ,  6-C ) :   1.7223
B(  6-C , 14-H ) :   0.9812

FINAL SINGLE POINT ENERGY      -304.184859034913

DIPOLE MOMENT
-------------
                                X             Y             Z
Electronic contribution:      3.64697       2.51663       4.46872
Nuclear contribution   :     -3.04353      -2.76006      -4.89321
                        -----------------------------------------
Total Dipole Moment    :      0.60344      -0.24343      -0.42449
                        -----------------------------------------
Magnitude (a.u.)       :      0.77691
Magnitude (Debye)      :      1.97475

                             ****ORCA TERMINATED NORMALLY****
TOTAL RUN TIME: 0 days 0 hours 0 minutes 7 seconds 460 msec
