                         Program Version 3.0.3 - RELEASE   -
|  1> ! RI PBE def2-SVP def2-SVP/J NBO PAL2
|  2> % maxcore 2000
|  3> % output
|  4>     # printlevel mini
|  5>     print[ P_Basis ] 0
|  6>     print[ P_SCFInfo ] 1
|  7>     print[ P_SCFIterInfo ] 1
|  8>     print[ P_OrbEn ] 0
|  9>     print[ P_Cartesian ] 0
| 10> end
| 11> *xyz 0 1
| 12>  C        2.8030230000    -1.4401580000     0.1083960000
| 13>  C        2.3256720000    -0.0061390000    -0.0447160000
| 14>  C        2.8924530000     0.9389450000     1.0212840000
| 15>  C        2.4260350000     2.3502940000     0.9372100000
| 16>  N        3.3811060000     3.1911300000     0.8431550000
| 17>  N        4.6143020000     2.4710950000     0.8520600000
| 18>  C        4.3527460000     1.2252550000     0.9479180000
| 19>  H        2.3529960000    -2.0801080000    -0.6531950000
| 20>  H        2.5310330000    -1.8457790000     1.0865730000
| 21>  H        3.8873430000    -1.5195340000     0.0040670000
| 22>  H        1.2338800000     0.0262750000     0.0165040000
| 23>  H        2.5932550000     0.3791110000    -1.0328640000
| 24>  H        2.6514310000     0.5325420000     2.0157320000
| 25>  H        1.3920350000     2.6778700000     0.9495790000
| 26>  H        5.1519190000     0.4934900000     0.9786070000
| 27> *
| 28>
| 29>                          ****END OF INPUT****
 Total Charge           Charge          ....    0
 Multiplicity           Mult            ....    1
 Number of Electrons    NEL             ....   52
 Basis Dimension        Dim             ....  138

MULLIKEN ATOMIC CHARGES
-----------------------
   0 C :   -0.017257
   1 C :   -0.008205
   2 C :   -0.146773
   3 C :    0.056349
   4 N :   -0.096532
   5 N :   -0.094171
   6 C :    0.040590
   7 H :    0.033824
   8 H :    0.022714
   9 H :    0.032790
  10 H :    0.034685
  11 H :    0.033090
  12 H :    0.063073
  13 H :    0.020252
  14 H :    0.025570
Sum of atomic charges:   -0.0000000

LOEWDIN ATOMIC CHARGES
----------------------
   0 C :   -0.065916
   1 C :   -0.021436
   2 C :   -0.082390
   3 C :    0.000857
   4 N :   -0.050825
   5 N :   -0.051244
   6 C :   -0.000806
   7 H :    0.034478
   8 H :    0.027651
   9 H :    0.028648
  10 H :    0.032557
  11 H :    0.033921
  12 H :    0.065693
  13 H :    0.024672
  14 H :    0.024141

  Mayer bond orders larger than 0.1
B(  0-C ,  1-C ) :   1.1180 B(  0-C ,  7-H ) :   0.9572 B(  0-C ,  8-H ) :   0.9643
B(  0-C ,  9-H ) :   0.9660 B(  1-C ,  2-C ) :   1.0208 B(  1-C , 10-H ) :   0.9375
B(  1-C , 11-H ) :   0.9381 B(  2-C ,  3-C ) :   0.9905 B(  2-C ,  6-C ) :   0.9933
B(  2-C , 12-H ) :   0.8633 B(  3-C ,  4-N ) :   1.8843 B(  3-C , 13-H ) :   0.9737
B(  4-N ,  5-N ) :   1.0165 B(  5-N ,  6-C ) :   1.8887 B(  6-C , 14-H ) :   0.9718

FINAL SINGLE POINT ENERGY      -304.179146153337

DIPOLE MOMENT
-------------
                                X             Y             Z
Electronic contribution:      2.97876       8.60688       1.79873
Nuclear contribution   :     -3.88229     -10.19956      -1.74472
                        -----------------------------------------
Total Dipole Moment    :     -0.90353      -1.59268       0.05401
                        -----------------------------------------
Magnitude (a.u.)       :      1.83191
Magnitude (Debye)      :      4.65635

                             ****ORCA TERMINATED NORMALLY****
TOTAL RUN TIME: 0 days 0 hours 0 minutes 6 seconds 612 msec
