                         Program Version 3.0.3 - RELEASE   -
|  1> ! RI PBE def2-SVP def2-SVP/J NBO PAL2
|  2> % maxcore 2000
|  3> % output
|  4>     # printlevel mini
|  5>     print[ P_Basis ] 0
|  6>     print[ P_SCFInfo ] 1
|  7>     print[ P_SCFIterInfo ] 1
|  8>     print[ P_OrbEn ] 0
|  9>     print[ P_Cartesian ] 0
| 10> end
| 11> *xyz 0 1
| 12>  C        1.7312610000     1.3958620000     0.2676320000
| 13>  C        2.3323930000     0.0140880000     0.0701570000
| 14>  C        3.1256010000    -0.1263860000    -1.2214090000
| 15>  C        3.6779190000    -1.5287590000    -1.4872410000
| 16>  N        4.9013140000    -1.2378670000    -2.2346940000
| 17>  N        5.3692590000    -0.0002600000    -1.8455970000
| 18>  C        4.4159560000     0.6472360000    -1.3031000000
| 19>  H        1.1536410000     1.4452060000     1.1931190000
| 20>  H        1.0607640000     1.6555680000    -0.5562370000
| 21>  H        2.5024850000     2.1681140000     0.3215510000
| 22>  H        1.5304560000    -0.7325690000     0.0712700000
| 23>  H        2.9844750000    -0.2351050000     0.9144870000
| 24>  H        2.4848860000     0.1845840000    -2.0614460000
| 25>  H        3.0029600000    -2.1606500000    -2.0654860000
| 26>  H        3.8968790000    -2.0266020000    -0.5294460000
| 27>  H        5.6375650000    -1.9252210000    -2.1695700000
| 28>  H        4.5629860000     1.6780600000    -1.0060910000
| 29> *
| 30>
| 31>                          ****END OF INPUT****
 Total Charge           Charge          ....    0
 Multiplicity           Mult            ....    1
 Number of Electrons    NEL             ....   54
 Basis Dimension        Dim             ....  148

MULLIKEN ATOMIC CHARGES
-----------------------
   0 C :   -0.027155
   1 C :    0.012168
   2 C :   -0.178259
   3 C :    0.188550
   4 N :   -0.147037
   5 N :   -0.090768
   6 C :   -0.027068
   7 H :    0.024430
   8 H :    0.022745
   9 H :    0.028415
  10 H :    0.018776
  11 H :    0.009226
  12 H :    0.026219
  13 H :    0.017820
  14 H :    0.002246
  15 H :    0.114660
  16 H :    0.005034
Sum of atomic charges:    0.0000000

LOEWDIN ATOMIC CHARGES
----------------------
   0 C :   -0.067662
   1 C :   -0.039323
   2 C :   -0.064466
   3 C :    0.016281
   4 N :   -0.020550
   5 N :   -0.040667
   6 C :   -0.058729
   7 H :    0.029752
   8 H :    0.026520
   9 H :    0.026793
  10 H :    0.026858
  11 H :    0.022329
  12 H :    0.033916
  13 H :    0.023829
  14 H :    0.011312
  15 H :    0.057751
  16 H :    0.016056

  Mayer bond orders larger than 0.1
B(  0-C ,  1-C ) :   1.1209 B(  0-C ,  7-H ) :   0.9591 B(  0-C ,  8-H ) :   0.9645
B(  0-C ,  9-H ) :   0.9652 B(  1-C ,  2-C ) :   1.0663 B(  1-C , 10-H ) :   0.9333
B(  1-C , 11-H ) :   0.9289 B(  2-C ,  3-C ) :   1.0643 B(  2-C ,  6-C ) :   0.9843
B(  2-C , 12-H ) :   0.8728 B(  3-C ,  4-N ) :   0.9943 B(  3-C , 13-H ) :   0.9276
B(  3-C , 14-H ) :   0.9279 B(  4-N ,  5-N ) :   1.0943 B(  4-N ,  6-C ) :   0.1045
B(  4-N , 15-H ) :   0.9399 B(  5-N ,  6-C ) :   1.8888 B(  6-C , 16-H ) :   0.9794

FINAL SINGLE POINT ENERGY      -305.394983214951

DIPOLE MOMENT
-------------
                                X             Y             Z
Electronic contribution:      6.39410      -1.66256      -4.27231
Nuclear contribution   :     -7.02211       1.23397       4.71413
                        -----------------------------------------
Total Dipole Moment    :     -0.62801      -0.42859       0.44182
                        -----------------------------------------
Magnitude (a.u.)       :      0.87937
Magnitude (Debye)      :      2.23519

                             ****ORCA TERMINATED NORMALLY****
TOTAL RUN TIME: 0 days 0 hours 0 minutes 8 seconds 37 msec
