                         Program Version 3.0.3 - RELEASE   -
|  1> ! RI PBE def2-SVP def2-SVP/J NBO PAL2
|  2> % maxcore 2000
|  3> % output
|  4>     # printlevel mini
|  5>     print[ P_Basis ] 0
|  6>     print[ P_SCFInfo ] 1
|  7>     print[ P_SCFIterInfo ] 1
|  8>     print[ P_OrbEn ] 0
|  9>     print[ P_Cartesian ] 0
| 10> end
| 11> *xyz 0 1
| 12>  C        2.6930310000    -1.2154200000     0.2412970000
| 13>  C        2.3988300000     0.0604120000     0.0005950000
| 14>  C        3.0832550000     0.9376050000    -0.9289110000
| 15>  C        2.7807980000     2.2618660000    -1.1805810000
| 16>  N        3.6595930000     2.6904020000    -2.1040450000
| 17>  N        4.5234100000     1.7480230000    -2.4841150000
| 18>  C        4.1850880000     0.6844160000    -1.7808730000
| 19>  H        2.1224650000    -1.7937490000     0.9568960000
| 20>  H        3.5071160000    -1.7245470000    -0.2629020000
| 21>  H        1.5693540000     0.5112990000     0.5406440000
| 22>  H        2.0175780000     2.9056820000    -0.7717090000
| 23>  H        3.7228960000     3.6056860000    -2.5127950000
| 24>  H        4.7411850000    -0.2326640000    -1.9054920000
| 25> *
| 26>
| 27>                          ****END OF INPUT****
 Total Charge           Charge          ....    0
 Multiplicity           Mult            ....    1
 Number of Electrons    NEL             ....   50
 Basis Dimension        Dim             ....  128

MULLIKEN ATOMIC CHARGES
-----------------------
   0 C :   -0.038884
   1 C :    0.013741
   2 C :   -0.052810
   3 C :    0.051648
   4 N :   -0.012517
   5 N :   -0.108526
   6 C :    0.005738
   7 H :    0.023860
   8 H :    0.017348
   9 H :   -0.019675
  10 H :   -0.001255
  11 H :    0.127731
  12 H :   -0.006397
Sum of atomic charges:    0.0000000

LOEWDIN ATOMIC CHARGES
----------------------
   0 C :   -0.061664
   1 C :   -0.028387
   2 C :   -0.099397
   3 C :   -0.021306
   4 N :    0.137468
   5 N :   -0.089512
   6 C :   -0.041135
   7 H :    0.025553
   8 H :    0.021951
   9 H :    0.028663
  10 H :    0.024954
  11 H :    0.082646
  12 H :    0.020165

  Mayer bond orders larger than 0.1
B(  0-C ,  1-C ) :   1.9290 B(  0-C ,  7-H ) :   0.9386 B(  0-C ,  8-H ) :   0.9441
B(  1-C ,  2-C ) :   1.1198 B(  1-C ,  9-H ) :   0.9523 B(  2-C ,  3-C ) :   1.3817
B(  2-C ,  6-C ) :   1.2876 B(  3-C ,  4-N ) :   1.2377 B(  3-C ,  5-N ) :   0.1195
B(  3-C , 10-H ) :   0.9826 B(  4-N ,  5-N ) :   1.1755 B(  4-N , 11-H ) :   0.9469
B(  5-N ,  6-C ) :   1.6080 B(  6-C , 12-H ) :   0.9884

FINAL SINGLE POINT ENERGY      -303.011012877339

DIPOLE MOMENT
-------------
                                X             Y             Z
Electronic contribution:      1.67338       3.52972      -2.81209
Nuclear contribution   :     -2.20222      -2.79348       2.98015
                        -----------------------------------------
Total Dipole Moment    :     -0.52884       0.73624       0.16806
                        -----------------------------------------
Magnitude (a.u.)       :      0.92193
Magnitude (Debye)      :      2.34337

                             ****ORCA TERMINATED NORMALLY****
TOTAL RUN TIME: 0 days 0 hours 0 minutes 6 seconds 735 msec
