                         Program Version 3.0.3 - RELEASE   -
|  1> ! RI PBE def2-SVP def2-SVP/J NBO PAL2
|  2> % maxcore 2000
|  3> % output
|  4>     # printlevel mini
|  5>     print[ P_Basis ] 0
|  6>     print[ P_SCFInfo ] 1
|  7>     print[ P_SCFIterInfo ] 1
|  8>     print[ P_OrbEn ] 0
|  9>     print[ P_Cartesian ] 0
| 10> end
| 11> *xyz 0 1
| 12>  C        0.8785330000    -0.0103990000    -0.0851820000
| 13>  C        2.0812480000     0.0029090000    -0.0827540000
| 14>  C        3.4927150000     0.0017270000    -0.0799240000
| 15>  C        4.3405820000     1.0938560000    -0.0770950000
| 16>  N        5.5880690000     0.5985200000    -0.0751050000
| 17>  N        5.6328050000    -0.7346670000    -0.0763930000
| 18>  C        4.3694080000    -1.1101500000    -0.0793150000
| 19>  H       -0.1854010000    -0.0215060000    -0.0873290000
| 20>  H        4.1323100000     2.1515260000    -0.0764190000
| 21>  H        6.4493260000     1.1162920000    -0.0728420000
| 22>  H        4.1088050000    -2.1574280000    -0.0809210000
| 23> *
| 24>
| 25>                          ****END OF INPUT****
 Total Charge           Charge          ....    0
 Multiplicity           Mult            ....    1
 Number of Electrons    NEL             ....   48
 Basis Dimension        Dim             ....  118

MULLIKEN ATOMIC CHARGES
-----------------------
   0 C :   -0.485526
   1 C :    0.443188
   2 C :   -0.112778
   3 C :    0.082392
   4 N :   -0.007916
   5 N :   -0.106670
   6 C :    0.041844
   7 H :    0.002981
   8 H :    0.009321
   9 H :    0.131917
  10 H :    0.001248
Sum of atomic charges:   -0.0000000

LOEWDIN ATOMIC CHARGES
----------------------
   0 C :   -0.073035
   1 C :   -0.016653
   2 C :   -0.112803
   3 C :   -0.003947
   4 N :    0.143869
   5 N :   -0.087197
   6 C :   -0.028193
   7 H :    0.034516
   8 H :    0.031112
   9 H :    0.086006
  10 H :    0.026324

  Mayer bond orders larger than 0.1
B(  0-C ,  1-C ) :   2.2399 B(  0-C ,  7-H ) :   1.0951 B(  1-C ,  2-C ) :   0.9697
B(  1-C ,  7-H ) :  -0.1054 B(  2-C ,  3-C ) :   1.3833 B(  2-C ,  6-C ) :   1.2856
B(  3-C ,  4-N ) :   1.2452 B(  3-C ,  5-N ) :   0.1227 B(  3-C ,  8-H ) :   0.9868
B(  4-N ,  5-N ) :   1.1774 B(  4-N ,  9-H ) :   0.9457 B(  5-N ,  6-C ) :   1.5977
B(  6-C , 10-H ) :   0.9968

FINAL SINGLE POINT ENERGY      -301.767507782824

DIPOLE MOMENT
-------------
                                X             Y             Z
Electronic contribution:      1.07426      -0.19250       0.00192
Nuclear contribution   :     -0.79244       1.06472      -0.00049
                        -----------------------------------------
Total Dipole Moment    :      0.28182       0.87222       0.00142
                        -----------------------------------------
Magnitude (a.u.)       :      0.91662
Magnitude (Debye)      :      2.32987

                             ****ORCA TERMINATED NORMALLY****
TOTAL RUN TIME: 0 days 0 hours 0 minutes 5 seconds 822 msec
