                         Program Version 3.0.3 - RELEASE   -
|  1> ! RI PBE def2-SVP def2-SVP/J NBO PAL2
|  2> % maxcore 2000
|  3> % output
|  4>     # printlevel mini
|  5>     print[ P_Basis ] 0
|  6>     print[ P_SCFInfo ] 1
|  7>     print[ P_SCFIterInfo ] 1
|  8>     print[ P_OrbEn ] 0
|  9>     print[ P_Cartesian ] 0
| 10> end
| 11> *xyz 0 1
| 12>  C        1.1520540000     0.4952400000    -0.5291260000
| 13>  C        2.5637280000     0.0595900000    -0.1476890000
| 14>  C        3.0155380000    -1.1718420000    -0.8606230000
| 15>  C        3.8921450000    -1.2703670000    -1.9173900000
| 16>  N        3.9663560000    -2.5783680000    -2.2402100000
| 17>  N        3.2037230000    -3.3512570000    -1.4713600000
| 18>  C        2.6223310000    -2.5077540000    -0.6341010000
| 19>  H        0.8553040000     1.3919430000     0.0206090000
| 20>  H        0.4261200000    -0.2908730000    -0.3090350000
| 21>  H        1.0868070000     0.7131330000    -1.5976210000
| 22>  H        2.6088200000    -0.1103820000     0.9330300000
| 23>  H        3.2649930000     0.8733490000    -0.3546240000
| 24>  H        4.4575470000    -0.5184870000    -2.4462250000
| 25>  H        4.5233010000    -3.0015030000    -2.9607050000
| 26>  H        1.9395130000    -2.8855130000     0.1137490000
| 27> *
| 28>
| 29>                          ****END OF INPUT****
 Total Charge           Charge          ....    0
 Multiplicity           Mult            ....    1
 Number of Electrons    NEL             ....   52
 Basis Dimension        Dim             ....  138

MULLIKEN ATOMIC CHARGES
-----------------------
   0 C :   -0.018033
   1 C :    0.056336
   2 C :   -0.154655
   3 C :    0.053336
   4 N :   -0.013281
   5 N :   -0.122487
   6 C :    0.011514
   7 H :    0.019738
   8 H :    0.025481
   9 H :    0.019983
  10 H :    0.021048
  11 H :    0.003761
  12 H :   -0.012336
  13 H :    0.123494
  14 H :   -0.013898
Sum of atomic charges:   -0.0000000

LOEWDIN ATOMIC CHARGES
----------------------
   0 C :   -0.061921
   1 C :   -0.040196
   2 C :   -0.096641
   3 C :   -0.037241
   4 N :    0.133254
   5 N :   -0.098582
   6 C :   -0.057879
   7 H :    0.024984
   8 H :    0.026601
   9 H :    0.025919
  10 H :    0.034052
  11 H :    0.029773
  12 H :    0.021108
  13 H :    0.079839
  14 H :    0.016930

  Mayer bond orders larger than 0.1
B(  0-C ,  1-C ) :   1.1175 B(  0-C ,  7-H ) :   0.9595 B(  0-C ,  8-H ) :   0.9683
B(  0-C ,  9-H ) :   0.9649 B(  1-C ,  2-C ) :   1.0807 B(  1-C , 10-H ) :   0.9200
B(  1-C , 11-H ) :   0.9190 B(  2-C ,  3-C ) :   1.4446 B(  2-C ,  6-C ) :   1.3322
B(  3-C ,  4-N ) :   1.2240 B(  3-C ,  5-N ) :   0.1319 B(  3-C , 12-H ) :   0.9828
B(  4-N ,  5-N ) :   1.1881 B(  4-N , 13-H ) :   0.9473 B(  5-N ,  6-C ) :   1.5793
B(  6-C , 14-H ) :   0.9938

FINAL SINGLE POINT ENERGY      -304.228929506502

DIPOLE MOMENT
-------------
                                X             Y             Z
Electronic contribution:      4.22462      -6.68470      -2.63240
Nuclear contribution   :     -3.78485       7.29893       2.21185
                        -----------------------------------------
Total Dipole Moment    :      0.43976       0.61423      -0.42056
                        -----------------------------------------
Magnitude (a.u.)       :      0.86460
Magnitude (Debye)      :      2.19765

                             ****ORCA TERMINATED NORMALLY****
TOTAL RUN TIME: 0 days 0 hours 0 minutes 7 seconds 492 msec
