                         Program Version 3.0.3 - RELEASE   -
|  1> ! RI PBE def2-SVP def2-SVP/J NBO PAL2
|  2> % maxcore 2000
|  3> % output
|  4>     # printlevel mini
|  5>     print[ P_Basis ] 0
|  6>     print[ P_SCFInfo ] 1
|  7>     print[ P_SCFIterInfo ] 1
|  8>     print[ P_OrbEn ] 0
|  9>     print[ P_Cartesian ] 0
| 10> end
| 11> *xyz 0 1
| 12>  C        1.1681750000    -0.0443930000    -0.4020610000
| 13>  C        2.6556590000     0.2727170000    -0.3889990000
| 14>  C        3.0797630000     1.0117980000     0.8483800000
| 15>  N        4.3608670000     1.7128900000     0.8948410000
| 16>  C        3.1194560000     2.4870790000     0.8847930000
| 17>  C        2.7961420000     3.2763000000     2.1206000000
| 18>  C        1.3169650000     3.6108580000     2.2272400000
| 19>  H        0.8866400000    -0.5928320000    -1.3035870000
| 20>  H        0.5708920000     0.8700790000    -0.3632400000
| 21>  H        0.8904420000    -0.6582520000     0.4588730000
| 22>  H        2.9174600000     0.8744750000    -1.2679250000
| 23>  H        3.2312320000    -0.6571930000    -0.4681780000
| 24>  H        2.8463410000     0.5014230000     1.7823330000
| 25>  H        4.7849700000     1.7129480000    -0.0276900000
| 26>  H        2.8596980000     2.9796290000    -0.0527170000
| 27>  H        3.3900020000     4.1972720000     2.1217830000
| 28>  H        3.1241710000     2.7003600000     2.9910460000
| 29>  H        0.9808630000     4.2030190000     1.3712640000
| 30>  H        1.1044250000     4.1872790000     3.1301510000
| 31>  H        0.7086480000     2.7028330000     2.2586930000
| 32> *
| 33>
| 34>                          ****END OF INPUT****
 Total Charge           Charge          ....    0
 Multiplicity           Mult            ....    1
 Number of Electrons    NEL             ....   56
 Basis Dimension        Dim             ....  163

MULLIKEN ATOMIC CHARGES
-----------------------
   0 C :   -0.023802
   1 C :    0.065625
   2 C :   -0.090863
   3 N :   -0.150924
   4 C :   -0.125097
   5 C :    0.105156
   6 C :   -0.033973
   7 H :    0.021942
   8 H :    0.023596
   9 H :    0.023625
  10 H :   -0.012227
  11 H :    0.017293
  12 H :    0.008182
  13 H :    0.099512
  14 H :    0.004001
  15 H :    0.008902
  16 H :   -0.001715
  17 H :    0.016599
  18 H :    0.023144
  19 H :    0.021024
Sum of atomic charges:   -0.0000000

LOEWDIN ATOMIC CHARGES
----------------------
   0 C :   -0.065036
   1 C :   -0.049138
   2 C :   -0.008122
   3 N :   -0.100209
   4 C :   -0.007430
   5 C :   -0.043585
   6 C :   -0.067878
   7 H :    0.027641
   8 H :    0.025929
   9 H :    0.026826
  10 H :    0.021323
  11 H :    0.028154
  12 H :    0.017755
  13 H :    0.050615
  14 H :    0.010556
  15 H :    0.027917
  16 H :    0.028716
  17 H :    0.023417
  18 H :    0.027747
  19 H :    0.024802

  Mayer bond orders larger than 0.1
B(  0-C ,  1-C ) :   1.1079 B(  0-C ,  7-H ) :   0.9573 B(  0-C ,  8-H ) :   0.9655
B(  0-C ,  9-H ) :   0.9675 B(  1-C ,  2-C ) :   1.0636 B(  1-C , 10-H ) :   0.9116
B(  1-C , 11-H ) :   0.9234 B(  2-C ,  3-N ) :   0.9988 B(  2-C ,  4-C ) :   1.0021
B(  2-C , 12-H ) :   0.9239 B(  3-N ,  4-C ) :   1.0051 B(  3-N , 13-H ) :   0.9368
B(  4-C ,  5-C ) :   1.0436 B(  4-C , 14-H ) :   0.9341 B(  5-C ,  6-C ) :   1.1103
B(  5-C , 15-H ) :   0.9184 B(  5-C , 16-H ) :   0.9153 B(  6-C , 17-H ) :   0.9658
B(  6-C , 18-H ) :   0.9610 B(  6-C , 19-H ) :   0.9655

FINAL SINGLE POINT ENERGY      -290.572439636968

DIPOLE MOMENT
-------------
                                X             Y             Z
Electronic contribution:      4.97065      -0.13659       0.21961
Nuclear contribution   :     -5.34296       0.11543      -0.69902
                        -----------------------------------------
Total Dipole Moment    :     -0.37231      -0.02117      -0.47941
                        -----------------------------------------
Magnitude (a.u.)       :      0.60737
Magnitude (Debye)      :      1.54381

                             ****ORCA TERMINATED NORMALLY****
TOTAL RUN TIME: 0 days 0 hours 0 minutes 8 seconds 685 msec
