                         Program Version 3.0.3 - RELEASE   -
|  1> ! RI PBE def2-SVP def2-SVP/J NBO PAL2
|  2> % maxcore 2000
|  3> % output
|  4>     # printlevel mini
|  5>     print[ P_Basis ] 0
|  6>     print[ P_SCFInfo ] 1
|  7>     print[ P_SCFIterInfo ] 1
|  8>     print[ P_OrbEn ] 0
|  9>     print[ P_Cartesian ] 0
| 10> end
| 11> *xyz 0 1
| 12>  C        1.0519710000    -0.8702180000    -0.0636300000
| 13>  C        2.2124790000    -0.2282450000    -0.0230820000
| 14>  C        3.1570600000    -0.0713620000    -1.1445910000
| 15>  N        2.8347490000    -0.4608040000    -2.5002300000
| 16>  C        2.9082970000     0.9698980000    -2.1907670000
| 17>  C        4.0086410000     1.7286780000    -2.7977250000
| 18>  C        3.9486250000     3.0207690000    -3.0936180000
| 19>  H        0.4088350000    -0.9219430000     0.8062360000
| 20>  H        0.6982070000    -1.3785470000    -0.9552390000
| 21>  H        2.5298070000     0.2343700000     0.9089830000
| 22>  H        4.1990080000    -0.2431630000    -0.8821040000
| 23>  H        1.8643750000    -0.7486890000    -2.5691760000
| 24>  H        1.9669070000     1.5037090000    -2.0856730000
| 25>  H        4.9127840000     1.1593510000    -3.0000820000
| 26>  H        3.0511840000     3.6031280000    -2.9093110000
| 27>  H        4.7919690000     3.5414680000    -3.5304990000
| 28> *
| 29>
| 30>                          ****END OF INPUT****
 Total Charge           Charge          ....    0
 Multiplicity           Mult            ....    1
 Number of Electrons    NEL             ....   52
 Basis Dimension        Dim             ....  143

MULLIKEN ATOMIC CHARGES
-----------------------
   0 C :   -0.067236
   1 C :    0.008005
   2 C :    0.007362
   3 N :   -0.148376
   4 C :   -0.071877
   5 C :    0.074501
   6 C :   -0.032967
   7 H :    0.033676
   8 H :    0.018652
   9 H :    0.005160
  10 H :    0.022652
  11 H :    0.103730
  12 H :    0.012629
  13 H :   -0.006309
  14 H :    0.016885
  15 H :    0.023512
Sum of atomic charges:   -0.0000000

LOEWDIN ATOMIC CHARGES
----------------------
   0 C :   -0.071855
   1 C :   -0.033940
   2 C :    0.000094
   3 N :   -0.080722
   4 C :    0.008945
   5 C :   -0.023644
   6 C :   -0.063756
   7 H :    0.029137
   8 H :    0.017672
   9 H :    0.033176
  10 H :    0.029093
  11 H :    0.053376
  12 H :    0.021739
  13 H :    0.031576
  14 H :    0.022350
  15 H :    0.026760

  Mayer bond orders larger than 0.1
B(  0-C ,  1-C ) :   1.9667 B(  0-C ,  7-H ) :   0.9427 B(  0-C ,  8-H ) :   0.9403
B(  1-C ,  2-C ) :   1.0515 B(  1-C ,  9-H ) :   0.9501 B(  2-C ,  3-N ) :   1.0206
B(  2-C ,  4-C ) :   0.9348 B(  2-C , 10-H ) :   0.9089 B(  3-N ,  4-C ) :   0.9475
B(  3-N , 11-H ) :   0.9369 B(  4-C ,  5-C ) :   1.0672 B(  4-C , 12-H ) :   0.9468
B(  5-C ,  6-C ) :   1.9670 B(  5-C , 13-H ) :   0.9367 B(  6-C , 14-H ) :   0.9523
B(  6-C , 15-H ) :   0.9320

FINAL SINGLE POINT ENERGY      -288.125551718072

DIPOLE MOMENT
-------------
                                X             Y             Z
Electronic contribution:      0.89928      -1.23905      -0.61562
Nuclear contribution   :     -1.22189       1.44631       0.96454
                        -----------------------------------------
Total Dipole Moment    :     -0.32262       0.20726       0.34892
                        -----------------------------------------
Magnitude (a.u.)       :      0.51844
Magnitude (Debye)      :      1.31778

                             ****ORCA TERMINATED NORMALLY****
TOTAL RUN TIME: 0 days 0 hours 0 minutes 7 seconds 28 msec
