                         Program Version 3.0.3 - RELEASE   -
|  1> ! RI PBE def2-SVP def2-SVP/J NBO PAL2
|  2> % maxcore 2000
|  3> % output
|  4>     # printlevel mini
|  5>     print[ P_Basis ] 0
|  6>     print[ P_SCFInfo ] 1
|  7>     print[ P_SCFIterInfo ] 1
|  8>     print[ P_OrbEn ] 0
|  9>     print[ P_Cartesian ] 0
| 10> end
| 11> *xyz 0 1
| 12>  C        2.0487760000    -0.2275980000     1.1105410000
| 13>  C        2.4310980000     0.1591850000    -0.0992260000
| 14>  C        3.2990540000    -0.6055560000    -1.0149470000
| 15>  N        3.6612920000    -1.9859660000    -0.7796630000
| 16>  C        2.7141620000    -1.6931040000    -1.8610090000
| 17>  C        3.1430520000    -1.9145830000    -3.2110570000
| 18>  C        3.4751350000    -2.0832420000    -4.3525110000
| 19>  H        1.3969450000     0.3894170000     1.7166380000
| 20>  H        2.3761680000    -1.1630460000     1.5535100000
| 21>  H        2.1008080000     1.1230130000    -0.4798530000
| 22>  H        4.0924430000    -0.0285530000    -1.4833650000
| 23>  H        3.1508490000    -2.3579000000     0.0151540000
| 24>  H        1.6660250000    -1.9081880000    -1.6715470000
| 25>  H        3.7790830000    -2.2387700000    -5.3604650000
| 26> *
| 27>
| 28>                          ****END OF INPUT****
 Total Charge           Charge          ....    0
 Multiplicity           Mult            ....    1
 Number of Electrons    NEL             ....   50
 Basis Dimension        Dim             ....  133

MULLIKEN ATOMIC CHARGES
-----------------------
   0 C :   -0.061405
   1 C :    0.005938
   2 C :    0.007566
   3 N :   -0.126593
   4 C :   -0.121431
   5 C :    0.487338
   6 C :   -0.460244
   7 H :    0.037148
   8 H :    0.019756
   9 H :    0.010861
  10 H :    0.038021
  11 H :    0.107585
  12 H :    0.050498
  13 H :    0.004961
Sum of atomic charges:    0.0000000

LOEWDIN ATOMIC CHARGES
----------------------
   0 C :   -0.064564
   1 C :   -0.034858
   2 C :    0.010364
   3 N :   -0.068458
   4 C :   -0.002148
   5 C :   -0.019217
   6 C :   -0.068390
   7 H :    0.030598
   8 H :    0.018587
   9 H :    0.035035
  10 H :    0.036318
  11 H :    0.055139
  12 H :    0.035509
  13 H :    0.036085

  Mayer bond orders larger than 0.1
B(  0-C ,  1-C ) :   1.9656 B(  0-C ,  7-H ) :   0.9442 B(  0-C ,  8-H ) :   0.9418
B(  1-C ,  2-C ) :   1.0450 B(  1-C ,  9-H ) :   0.9500 B(  2-C ,  3-N ) :   1.0184
B(  2-C ,  4-C ) :   0.9574 B(  2-C , 10-H ) :   0.9138 B(  3-N ,  4-C ) :   1.0198
B(  3-N , 11-H ) :   0.9321 B(  4-C ,  5-C ) :   0.9525 B(  4-C , 12-H ) :   0.9226
B(  5-C ,  6-C ) :   2.3067 B(  5-C , 13-H ) :  -0.1013 B(  6-C , 13-H ) :   1.0913

FINAL SINGLE POINT ENERGY      -286.877805709923

DIPOLE MOMENT
-------------
                                X             Y             Z
Electronic contribution:      1.47878      -1.70166      -3.55099
Nuclear contribution   :     -2.01028       1.98607       3.80802
                        -----------------------------------------
Total Dipole Moment    :     -0.53149       0.28440       0.25702
                        -----------------------------------------
Magnitude (a.u.)       :      0.65531
Magnitude (Debye)      :      1.66566

                             ****ORCA TERMINATED NORMALLY****
TOTAL RUN TIME: 0 days 0 hours 0 minutes 6 seconds 506 msec
