                         Program Version 3.0.3 - RELEASE   -
|  1> ! RI PBE def2-SVP def2-SVP/J NBO PAL2
|  2> % maxcore 2000
|  3> % output
|  4>     # printlevel mini
|  5>     print[ P_Basis ] 0
|  6>     print[ P_SCFInfo ] 1
|  7>     print[ P_SCFIterInfo ] 1
|  8>     print[ P_OrbEn ] 0
|  9>     print[ P_Cartesian ] 0
| 10> end
| 11> *xyz 0 1
| 12>  C        0.9453480000    -0.0593900000    -0.1604900000
| 13>  C        2.1451820000    -0.0361360000    -0.1071390000
| 14>  C        3.5764260000    -0.0337500000    -0.0470100000
| 15>  N        4.3567930000    -0.7531380000    -1.0505990000
| 16>  C        4.3478920000     0.7077660000    -1.0946340000
| 17>  C        5.5626220000     1.3961000000    -0.7678780000
| 18>  C        6.5640250000     1.9986480000    -0.4948760000
| 19>  H       -0.1180450000    -0.0770360000    -0.2055430000
| 20>  H        4.0067520000    -0.0722790000     0.9484030000
| 21>  H        3.7359540000    -1.1164700000    -1.7673200000
| 22>  H        3.7422530000     1.1833450000    -1.8605680000
| 23>  H        7.4576080000     2.5239520000    -0.2532350000
| 24> *
| 25>
| 26>                          ****END OF INPUT****
 Total Charge           Charge          ....    0
 Multiplicity           Mult            ....    1
 Number of Electrons    NEL             ....   48
 Basis Dimension        Dim             ....  123

MULLIKEN ATOMIC CHARGES
-----------------------
   0 C :   -0.440827
   1 C :    0.431590
   2 C :   -0.054667
   3 N :   -0.110183
   4 C :   -0.113383
   5 C :    0.489547
   6 C :   -0.454057
   7 H :    0.008656
   8 H :    0.059775
   9 H :    0.116498
  10 H :    0.059068
  11 H :    0.007982
Sum of atomic charges:   -0.0000000

LOEWDIN ATOMIC CHARGES
----------------------
   0 C :   -0.062433
   1 C :   -0.035801
   2 C :    0.006895
   3 N :   -0.059507
   4 C :    0.004168
   5 C :   -0.019168
   6 C :   -0.060233
   7 H :    0.037982
   8 H :    0.046319
   9 H :    0.063901
  10 H :    0.040247
  11 H :    0.037630

  Mayer bond orders larger than 0.1
B(  0-C ,  1-C ) :   2.2916 B(  0-C ,  7-H ) :   1.0952 B(  1-C ,  2-C ) :   0.9832
B(  1-C ,  7-H ) :  -0.1043 B(  2-C ,  3-N ) :   0.9871 B(  2-C ,  4-C ) :   0.9483
B(  2-C ,  8-H ) :   0.9133 B(  3-N ,  4-C ) :   1.0239 B(  3-N ,  9-H ) :   0.9333
B(  4-C ,  5-C ) :   0.9446 B(  4-C , 10-H ) :   0.9253 B(  5-C ,  6-C ) :   2.3086
B(  5-C , 11-H ) :  -0.1014 B(  6-C , 11-H ) :   1.0912

FINAL SINGLE POINT ENERGY      -285.633096628610

DIPOLE MOMENT
-------------
                                X             Y             Z
Electronic contribution:      0.30437      -0.04862       0.16844
Nuclear contribution   :     -0.76586       0.24348      -0.37420
                        -----------------------------------------
Total Dipole Moment    :     -0.46150       0.19486      -0.20576
                        -----------------------------------------
Magnitude (a.u.)       :      0.54156
Magnitude (Debye)      :      1.37654

                             ****ORCA TERMINATED NORMALLY****
TOTAL RUN TIME: 0 days 0 hours 0 minutes 5 seconds 291 msec
