                         Program Version 3.0.3 - RELEASE   -
|  1> ! RI PBE def2-SVP def2-SVP/J NBO PAL2
|  2> % maxcore 2000
|  3> % output
|  4>     # printlevel mini
|  5>     print[ P_Basis ] 0
|  6>     print[ P_SCFInfo ] 1
|  7>     print[ P_SCFIterInfo ] 1
|  8>     print[ P_OrbEn ] 0
|  9>     print[ P_Cartesian ] 0
| 10> end
| 11> *xyz 0 1
| 12>  C        1.3297150000    -0.4188000000     0.2766610000
| 13>  C        2.6690780000     0.1327870000    -0.1891990000
| 14>  C        3.1773850000     1.2341670000     0.6976400000
| 15>  N        4.2321390000     2.1496890000     0.2534990000
| 16>  C        2.8834100000     2.6746230000     0.5067700000
| 17>  C        2.0616860000     3.1607670000    -0.6566120000
| 18>  C        2.7946520000     3.5538200000     1.7258550000
| 19>  H        1.0009440000    -1.2490810000    -0.3521980000
| 20>  H        0.5554350000     0.3518670000     0.2488570000
| 21>  H        1.3929770000    -0.7863810000     1.3043630000
| 22>  H        2.5890600000     0.4834700000    -1.2224770000
| 23>  H        3.4137160000    -0.6717310000    -0.2020440000
| 24>  H        3.3154040000     0.9164180000     1.7312460000
| 25>  H        4.3681200000     2.0346180000    -0.7475030000
| 26>  H        2.1241390000     2.4999350000    -1.5224460000
| 27>  H        2.4049590000     4.1519510000    -0.9689800000
| 28>  H        1.0079250000     3.2527730000    -0.3783030000
| 29>  H        3.4447690000     3.1773560000     2.5166050000
| 30>  H        1.7695180000     3.5949270000     2.1054100000
| 31>  H        3.1091790000     4.5746360000     1.4889560000
| 32> *
| 33>
| 34>                          ****END OF INPUT****
 Total Charge           Charge          ....    0
 Multiplicity           Mult            ....    1
 Number of Electrons    NEL             ....   56
 Basis Dimension        Dim             ....  163

MULLIKEN ATOMIC CHARGES
-----------------------
   0 C :   -0.023470
   1 C :    0.056369
   2 C :   -0.057603
   3 N :   -0.145761
   4 C :   -0.304181
   5 C :    0.110087
   6 C :    0.118632
   7 H :    0.022536
   8 H :    0.024145
   9 H :    0.021173
  10 H :   -0.015533
  11 H :    0.024282
  12 H :    0.003250
  13 H :    0.091301
  14 H :   -0.004367
  15 H :    0.018388
  16 H :    0.023589
  17 H :    0.011409
  18 H :    0.014431
  19 H :    0.011324
Sum of atomic charges:    0.0000000

LOEWDIN ATOMIC CHARGES
----------------------
   0 C :   -0.064362
   1 C :   -0.052519
   2 C :   -0.004018
   3 N :   -0.098553
   4 C :   -0.033756
   5 C :   -0.059403
   6 C :   -0.051311
   7 H :    0.027210
   8 H :    0.026141
   9 H :    0.027131
  10 H :    0.019651
  11 H :    0.031342
  12 H :    0.017400
  13 H :    0.045897
  14 H :    0.021884
  15 H :    0.031012
  16 H :    0.031753
  17 H :    0.030785
  18 H :    0.026378
  19 H :    0.027340

  Mayer bond orders larger than 0.1
B(  0-C ,  1-C ) :   1.1136 B(  0-C ,  7-H ) :   0.9567 B(  0-C ,  8-H ) :   0.9675
B(  0-C ,  9-H ) :   0.9632 B(  1-C ,  2-C ) :   1.0836 B(  1-C , 10-H ) :   0.9052
B(  1-C , 11-H ) :   0.9207 B(  2-C ,  3-N ) :   0.9739 B(  2-C ,  4-C ) :   0.9839
B(  2-C , 12-H ) :   0.9175 B(  3-N ,  4-C ) :   0.9932 B(  3-N , 13-H ) :   0.9459
B(  4-C ,  5-C ) :   1.0989 B(  4-C ,  6-C ) :   1.0659 B(  5-C , 14-H ) :   0.9338
B(  5-C , 15-H ) :   0.9447 B(  5-C , 16-H ) :   0.9478 B(  6-C , 17-H ) :   0.9384
B(  6-C , 18-H ) :   0.9575 B(  6-C , 19-H ) :   0.9482

FINAL SINGLE POINT ENERGY      -290.574475585872

DIPOLE MOMENT
-------------
                                X             Y             Z
Electronic contribution:      3.95655       0.62905       0.30909
Nuclear contribution   :     -4.48266      -0.78758      -0.66667
                        -----------------------------------------
Total Dipole Moment    :     -0.52611      -0.15853      -0.35757
                        -----------------------------------------
Magnitude (a.u.)       :      0.65558
Magnitude (Debye)      :      1.66634

                             ****ORCA TERMINATED NORMALLY****
TOTAL RUN TIME: 0 days 0 hours 0 minutes 8 seconds 534 msec
