                         Program Version 3.0.3 - RELEASE   -
|  1> ! RI PBE def2-SVP def2-SVP/J NBO PAL2
|  2> % maxcore 2000
|  3> % output
|  4>     # printlevel mini
|  5>     print[ P_Basis ] 0
|  6>     print[ P_SCFInfo ] 1
|  7>     print[ P_SCFIterInfo ] 1
|  8>     print[ P_OrbEn ] 0
|  9>     print[ P_Cartesian ] 0
| 10> end
| 11> *xyz 0 1
| 12>  C        2.4268930000     1.3390930000    -0.0522180000
| 13>  C        2.4705340000    -0.1774090000    -0.1578870000
| 14>  C        2.9887220000    -0.8322120000     1.0913870000
| 15>  N        3.4524300000    -2.2079870000     1.0788460000
| 16>  C        4.4366290000    -1.1254140000     1.2399990000
| 17>  C        5.1237070000    -1.0486410000     2.5359290000
| 18>  C        6.3572940000    -0.5902120000     2.7051810000
| 19>  H        2.0365800000     1.7885710000    -0.9677200000
| 20>  H        3.4230510000     1.7501660000     0.1281650000
| 21>  H        1.7838740000     1.6566720000     0.7726990000
| 22>  H        3.1027820000    -0.4771800000    -1.0024600000
| 23>  H        1.4663000000    -0.5622820000    -0.3714190000
| 24>  H        2.4433170000    -0.5763940000     1.9984890000
| 25>  H        3.4813990000    -2.5590000000     0.1263440000
| 26>  H        5.0512560000    -0.8801300000     0.3758180000
| 27>  H        4.5481340000    -1.3999850000     3.3891860000
| 28>  H        6.9548360000    -0.2462470000     1.8664190000
| 29>  H        6.8143500000    -0.5426190000     3.6860640000
| 30> *
| 31>
| 32>                          ****END OF INPUT****
 Total Charge           Charge          ....    0
 Multiplicity           Mult            ....    1
 Number of Electrons    NEL             ....   54
 Basis Dimension        Dim             ....  153

MULLIKEN ATOMIC CHARGES
-----------------------
   0 C :   -0.009503
   1 C :    0.050467
   2 C :   -0.067561
   3 N :   -0.150786
   4 C :   -0.079530
   5 C :    0.072378
   6 C :   -0.035249
   7 H :    0.021750
   8 H :    0.022202
   9 H :    0.024053
  10 H :   -0.009969
  11 H :    0.020745
  12 H :    0.013317
  13 H :    0.103754
  14 H :   -0.000620
  15 H :   -0.007412
  16 H :    0.012151
  17 H :    0.019815
Sum of atomic charges:    0.0000000

LOEWDIN ATOMIC CHARGES
----------------------
   0 C :   -0.061986
   1 C :   -0.049695
   2 C :    0.000421
   3 N :   -0.092775
   4 C :   -0.006352
   5 C :   -0.021820
   6 C :   -0.069387
   7 H :    0.028067
   8 H :    0.027030
   9 H :    0.027824
  10 H :    0.022212
  11 H :    0.029432
  12 H :    0.019904
  13 H :    0.053432
  14 H :    0.016842
  15 H :    0.031256
  16 H :    0.020458
  17 H :    0.025135

  Mayer bond orders larger than 0.1
B(  0-C ,  1-C ) :   1.1068 B(  0-C ,  7-H ) :   0.9572 B(  0-C ,  8-H ) :   0.9684
B(  0-C ,  9-H ) :   0.9670 B(  1-C ,  2-C ) :   1.0656 B(  1-C , 10-H ) :   0.9112
B(  1-C , 11-H ) :   0.9254 B(  2-C ,  3-N ) :   0.9896 B(  2-C ,  4-C ) :   0.9542
B(  2-C , 12-H ) :   0.9257 B(  3-N ,  4-C ) :   0.9651 B(  3-N , 13-H ) :   0.9365
B(  4-C ,  5-C ) :   1.0633 B(  4-C , 14-H ) :   0.9405 B(  5-C ,  6-C ) :   1.9736
B(  5-C , 15-H ) :   0.9379 B(  6-C , 16-H ) :   0.9502 B(  6-C , 17-H ) :   0.9339

FINAL SINGLE POINT ENERGY      -289.349271527155

DIPOLE MOMENT
-------------
                                X             Y             Z
Electronic contribution:      1.24256      -4.27291       2.12767
Nuclear contribution   :     -1.34264       4.68001      -2.68566
                        -----------------------------------------
Total Dipole Moment    :     -0.10008       0.40710      -0.55800
                        -----------------------------------------
Magnitude (a.u.)       :      0.69793
Magnitude (Debye)      :      1.77399

                             ****ORCA TERMINATED NORMALLY****
TOTAL RUN TIME: 0 days 0 hours 0 minutes 7 seconds 492 msec
