                         Program Version 3.0.3 - RELEASE   -
|  1> ! RI PBE def2-SVP def2-SVP/J NBO PAL2
|  2> % maxcore 2000
|  3> % output
|  4>     # printlevel mini
|  5>     print[ P_Basis ] 0
|  6>     print[ P_SCFInfo ] 1
|  7>     print[ P_SCFIterInfo ] 1
|  8>     print[ P_OrbEn ] 0
|  9>     print[ P_Cartesian ] 0
| 10> end
| 11> *xyz 0 1
| 12>  C        2.8302590000     1.3000890000     0.2021710000
| 13>  C        2.4477780000    -0.1462290000    -0.0708900000
| 14>  C        3.0288430000    -1.1007310000     0.9322180000
| 15>  N        3.1063320000    -2.5239150000     0.6579510000
| 16>  C        4.3493010000    -1.7359680000     0.6825210000
| 17>  C        5.2869660000    -2.0013200000     1.7352110000
| 18>  C        6.0875510000    -2.1977380000     2.6083390000
| 19>  H        2.3828660000     1.9718550000    -0.5331640000
| 20>  H        3.9139540000     1.4346580000     0.1671230000
| 21>  H        2.4894530000     1.6165510000     1.1912240000
| 22>  H        2.7797360000    -0.4400520000    -1.0740520000
| 23>  H        1.3564930000    -0.2493060000    -0.0633520000
| 24>  H        2.7900640000    -0.8850550000     1.9711570000
| 25>  H        2.8503840000    -2.7081970000    -0.3078980000
| 26>  H        4.8055470000    -1.5018650000    -0.2766240000
| 27>  H        6.7903820000    -2.3811060000     3.3859670000
| 28> *
| 29>
| 30>                          ****END OF INPUT****
 Total Charge           Charge          ....    0
 Multiplicity           Mult            ....    1
 Number of Electrons    NEL             ....   52
 Basis Dimension        Dim             ....  143

MULLIKEN ATOMIC CHARGES
-----------------------
   0 C :   -0.013550
   1 C :    0.035681
   2 C :   -0.054338
   3 N :   -0.127411
   4 C :   -0.139091
   5 C :    0.500444
   6 C :   -0.475233
   7 H :    0.025788
   8 H :    0.028148
   9 H :    0.025053
  10 H :   -0.009605
  11 H :    0.034091
  12 H :    0.022987
  13 H :    0.105268
  14 H :    0.040448
  15 H :    0.001321
Sum of atomic charges:   -0.0000000

LOEWDIN ATOMIC CHARGES
----------------------
   0 C :   -0.061930
   1 C :   -0.051694
   2 C :    0.011301
   3 N :   -0.077102
   4 C :   -0.017739
   5 C :   -0.016766
   6 C :   -0.076017
   7 H :    0.029545
   8 H :    0.028560
   9 H :    0.029041
  10 H :    0.022443
  11 H :    0.033145
  12 H :    0.026609
  13 H :    0.054775
  14 H :    0.031414
  15 H :    0.034415

  Mayer bond orders larger than 0.1
B(  0-C ,  1-C ) :   1.1116 B(  0-C ,  7-H ) :   0.9559 B(  0-C ,  8-H ) :   0.9681
B(  0-C ,  9-H ) :   0.9660 B(  1-C ,  2-C ) :   1.0582 B(  1-C , 10-H ) :   0.9082
B(  1-C , 11-H ) :   0.9271 B(  2-C ,  3-N ) :   0.9818 B(  2-C ,  4-C ) :   0.9747
B(  2-C , 12-H ) :   0.9286 B(  3-N ,  4-C ) :   1.0305 B(  3-N , 13-H ) :   0.9352
B(  4-C ,  5-C ) :   0.9533 B(  4-C , 14-H ) :   0.9179 B(  5-C ,  6-C ) :   2.2972
B(  5-C , 15-H ) :  -0.1047 B(  6-C , 15-H ) :   1.0948

FINAL SINGLE POINT ENERGY      -288.102139360814

DIPOLE MOMENT
-------------
                                X             Y             Z
Electronic contribution:      3.70547      -6.14949       2.93636
Nuclear contribution   :     -3.88322       6.73220      -3.52457
                        -----------------------------------------
Total Dipole Moment    :     -0.17775       0.58271      -0.58821
                        -----------------------------------------
Magnitude (a.u.)       :      0.84684
Magnitude (Debye)      :      2.15250

                             ****ORCA TERMINATED NORMALLY****
TOTAL RUN TIME: 0 days 0 hours 0 minutes 7 seconds 235 msec
