                         Program Version 3.0.3 - RELEASE   -
|  1> ! RI PBE def2-SVP def2-SVP/J NBO PAL2
|  2> % maxcore 2000
|  3> % output
|  4>     # printlevel mini
|  5>     print[ P_Basis ] 0
|  6>     print[ P_SCFInfo ] 1
|  7>     print[ P_SCFIterInfo ] 1
|  8>     print[ P_OrbEn ] 0
|  9>     print[ P_Cartesian ] 0
| 10> end
| 11> *xyz 0 1
| 12>  C        1.2566560000    -0.2444660000     0.0110270000
| 13>  C        2.7025170000     0.1950990000    -0.1615140000
| 14>  C        3.1574030000     1.1287670000     0.9243980000
| 15>  N        4.3591460000     1.9415350000     0.7490100000
| 16>  C        3.0423500000     2.5890040000     0.7642790000
| 17>  C        2.8013540000     3.5155650000     1.9167390000
| 18>  N        3.4837260000     4.7768160000     1.6748110000
| 19>  H        0.9528140000    -0.9303100000    -0.7827110000
| 20>  H        0.5802890000     0.6137150000    -0.0079650000
| 21>  H        1.1132770000    -0.7586110000     0.9651040000
| 22>  H        2.8288260000     0.6913640000    -1.1312350000
| 23>  H        3.3564010000    -0.6847540000    -0.1756860000
| 24>  H        3.0627130000     0.7289180000     1.9329250000
| 25>  H        4.6947170000     1.8535060000    -0.2052130000
| 26>  H        2.6615060000     2.9458370000    -0.1907310000
| 27>  H        3.1182220000     3.0049680000     2.8389930000
| 28>  H        1.7271710000     3.7112450000     2.0039750000
| 29>  H        4.4811330000     4.6032180000     1.6204000000
| 30>  H        3.3353790000     5.4189840000     2.4429740000
| 31> *
| 32>
| 33>                          ****END OF INPUT****
 Total Charge           Charge          ....    0
 Multiplicity           Mult            ....    1
 Number of Electrons    NEL             ....   56
 Basis Dimension        Dim             ....  158

MULLIKEN ATOMIC CHARGES
-----------------------
   0 C :   -0.026382
   1 C :    0.058721
   2 C :   -0.077686
   3 N :   -0.168714
   4 C :   -0.128027
   5 C :    0.209191
   6 N :   -0.227285
   7 H :    0.024481
   8 H :    0.024650
   9 H :    0.023079
  10 H :   -0.011156
  11 H :    0.020030
  12 H :    0.008904
  13 H :    0.102030
  14 H :    0.012066
  15 H :   -0.026061
  16 H :    0.006507
  17 H :    0.090601
  18 H :    0.085051
Sum of atomic charges:   -0.0000000

LOEWDIN ATOMIC CHARGES
----------------------
   0 C :   -0.065148
   1 C :   -0.048823
   2 C :   -0.005954
   3 N :   -0.105979
   4 C :   -0.011015
   5 C :    0.007176
   6 N :   -0.113385
   7 H :    0.028022
   8 H :    0.026952
   9 H :    0.026958
  10 H :    0.021997
  11 H :    0.028584
  12 H :    0.017696
  13 H :    0.051511
  14 H :    0.014620
  15 H :    0.002661
  16 H :    0.022477
  17 H :    0.051220
  18 H :    0.050429

  Mayer bond orders larger than 0.1
B(  0-C ,  1-C ) :   1.1091 B(  0-C ,  7-H ) :   0.9582 B(  0-C ,  8-H ) :   0.9664
B(  0-C ,  9-H ) :   0.9668 B(  1-C ,  2-C ) :   1.0674 B(  1-C , 10-H ) :   0.9122
B(  1-C , 11-H ) :   0.9250 B(  2-C ,  3-N ) :   0.9924 B(  2-C ,  4-C ) :   0.9814
B(  2-C , 12-H ) :   0.9212 B(  3-N ,  4-C ) :   0.9901 B(  3-N , 13-H ) :   0.9390
B(  4-C ,  5-C ) :   1.0473 B(  4-C , 14-H ) :   0.9366 B(  5-C ,  6-N ) :   1.0749
B(  5-C , 15-H ) :   0.9023 B(  5-C , 16-H ) :   0.9269 B(  6-N , 17-H ) :   0.9697
B(  6-N , 18-H ) :   0.9646

FINAL SINGLE POINT ENERGY      -306.586516059398

DIPOLE MOMENT
-------------
                                X             Y             Z
Electronic contribution:      3.29945       2.52422       0.75017
Nuclear contribution   :     -3.50898      -2.77441      -0.79564
                        -----------------------------------------
Total Dipole Moment    :     -0.20953      -0.25019      -0.04547
                        -----------------------------------------
Magnitude (a.u.)       :      0.32950
Magnitude (Debye)      :      0.83752

                             ****ORCA TERMINATED NORMALLY****
TOTAL RUN TIME: 0 days 0 hours 0 minutes 8 seconds 198 msec
