                         Program Version 3.0.3 - RELEASE   -
|  1> ! RI PBE def2-SVP def2-SVP/J NBO PAL2
|  2> % maxcore 2000
|  3> % output
|  4>     # printlevel mini
|  5>     print[ P_Basis ] 0
|  6>     print[ P_SCFInfo ] 1
|  7>     print[ P_SCFIterInfo ] 1
|  8>     print[ P_OrbEn ] 0
|  9>     print[ P_Cartesian ] 0
| 10> end
| 11> *xyz 0 1
| 12>  C        1.3526700000    -0.3605520000    -0.5757050000
| 13>  C        2.2040420000     0.2970500000     0.1988810000
| 14>  C        3.0285760000    -0.3038380000     1.2665740000
| 15>  N        3.2055390000    -1.7304290000     1.4094060000
| 16>  C        4.3331800000    -0.9446290000     0.9130480000
| 17>  C        5.4784130000    -0.8223640000     1.7743490000
| 18>  N        6.4041720000    -0.6926980000     2.4442540000
| 19>  H        0.7862700000     0.1496930000    -1.3448180000
| 20>  H        1.1707390000    -1.4255100000    -0.4697250000
| 21>  H        2.3228140000     1.3708760000     0.0770910000
| 22>  H        3.0064990000     0.2225990000     2.2175380000
| 23>  H        2.7831360000    -2.2314960000     0.6341660000
| 24>  H        4.5734390000    -0.9933110000    -0.1443590000
| 25> *
| 26>
| 27>                          ****END OF INPUT****
 Total Charge           Charge          ....    0
 Multiplicity           Mult            ....    1
 Number of Electrons    NEL             ....   50
 Basis Dimension        Dim             ....  128

MULLIKEN ATOMIC CHARGES
-----------------------
   0 C :   -0.054346
   1 C :   -0.003130
   2 C :    0.014651
   3 N :   -0.111289
   4 C :   -0.201661
   5 C :   -0.032184
   6 N :    0.056996
   7 H :    0.041198
   8 H :    0.028417
   9 H :    0.026960
  10 H :    0.048738
  11 H :    0.114961
  12 H :    0.070689
Sum of atomic charges:   -0.0000000

LOEWDIN ATOMIC CHARGES
----------------------
   0 C :   -0.054465
   1 C :   -0.037049
   2 C :    0.018814
   3 N :   -0.055575
   4 C :   -0.019829
   5 C :   -0.040057
   6 N :   -0.051337
   7 H :    0.033800
   8 H :    0.021604
   9 H :    0.039409
  10 H :    0.041049
  11 H :    0.059967
  12 H :    0.043668

  Mayer bond orders larger than 0.1
B(  0-C ,  1-C ) :   1.9708 B(  0-C ,  7-H ) :   0.9435 B(  0-C ,  8-H ) :   0.9443
B(  1-C ,  2-C ) :   1.0446 B(  1-C ,  9-H ) :   0.9499 B(  2-C ,  3-N ) :   1.0108
B(  2-C ,  4-C ) :   0.9837 B(  2-C , 10-H ) :   0.9115 B(  3-N ,  4-C ) :   1.0912
B(  3-N , 11-H ) :   0.9320 B(  4-C ,  5-C ) :   1.0431 B(  4-C , 12-H ) :   0.9259
B(  5-C ,  6-N ) :   3.0472

FINAL SINGLE POINT ENERGY      -302.954902360616

DIPOLE MOMENT
-------------
                                X             Y             Z
Electronic contribution:      5.66571      -0.81691       3.63889
Nuclear contribution   :     -6.96227       1.00502      -4.93688
                        -----------------------------------------
Total Dipole Moment    :     -1.29656       0.18811      -1.29799
                        -----------------------------------------
Magnitude (a.u.)       :      1.84424
Magnitude (Debye)      :      4.68769

                             ****ORCA TERMINATED NORMALLY****
TOTAL RUN TIME: 0 days 0 hours 0 minutes 6 seconds 31 msec
