                         Program Version 3.0.3 - RELEASE   -
|  1> ! RI PBE def2-SVP def2-SVP/J NBO PAL2
|  2> % maxcore 2000
|  3> % output
|  4>     # printlevel mini
|  5>     print[ P_Basis ] 0
|  6>     print[ P_SCFInfo ] 1
|  7>     print[ P_SCFIterInfo ] 1
|  8>     print[ P_OrbEn ] 0
|  9>     print[ P_Cartesian ] 0
| 10> end
| 11> *xyz 0 1
| 12>  C        0.9898820000     0.0738890000    -0.0231480000
| 13>  C        2.1889060000     0.0940040000     0.0312200000
| 14>  C        3.6203030000     0.0892380000     0.0946360000
| 15>  N        4.4020000000    -0.6261770000    -0.9073080000
| 16>  C        4.3867700000     0.8290310000    -0.9563150000
| 17>  C        5.6101100000     1.5074090000    -0.6196000000
| 18>  N        6.5700440000     2.0772750000    -0.3447920000
| 19>  H       -0.0739650000     0.0593350000    -0.0674790000
| 20>  H        4.0502360000     0.0516200000     1.0903860000
| 21>  H        3.7920290000    -0.9973110000    -1.6291960000
| 22>  H        3.7975850000     1.3239070000    -1.7213140000
| 23> *
| 24>
| 25>                          ****END OF INPUT****
 Total Charge           Charge          ....    0
 Multiplicity           Mult            ....    1
 Number of Electrons    NEL             ....   48
 Basis Dimension        Dim             ....  118

MULLIKEN ATOMIC CHARGES
-----------------------
   0 C :   -0.424686
   1 C :    0.429394
   2 C :   -0.046052
   3 N :   -0.095929
   4 C :   -0.177488
   5 C :   -0.040428
   6 N :    0.066220
   7 H :    0.016063
   8 H :    0.070881
   9 H :    0.125019
  10 H :    0.077007
Sum of atomic charges:   -0.0000000

LOEWDIN ATOMIC CHARGES
----------------------
   0 C :   -0.045320
   1 C :   -0.038889
   2 C :    0.015283
   3 N :   -0.046655
   4 C :   -0.011856
   5 C :   -0.038673
   6 N :   -0.043811
   7 H :    0.041465
   8 H :    0.051025
   9 H :    0.069206
  10 H :    0.048226

  Mayer bond orders larger than 0.1
B(  0-C ,  1-C ) :   2.2992 B(  0-C ,  7-H ) :   1.0934 B(  1-C ,  2-C ) :   0.9853
B(  1-C ,  7-H ) :  -0.1027 B(  2-C ,  3-N ) :   0.9803 B(  2-C ,  4-C ) :   0.9743
B(  2-C ,  8-H ) :   0.9104 B(  3-N ,  4-C ) :   1.0960 B(  3-N ,  9-H ) :   0.9320
B(  4-C ,  5-C ) :   1.0535 B(  4-C , 10-H ) :   0.9208 B(  5-C ,  6-N ) :   3.0485

FINAL SINGLE POINT ENERGY      -301.709188171595

DIPOLE MOMENT
-------------
                                X             Y             Z
Electronic contribution:      2.47534       1.22302       0.21941
Nuclear contribution   :     -4.08952      -1.70314      -0.65492
                        -----------------------------------------
Total Dipole Moment    :     -1.61418      -0.48012      -0.43551
                        -----------------------------------------
Magnitude (a.u.)       :      1.73947
Magnitude (Debye)      :      4.42139

                             ****ORCA TERMINATED NORMALLY****
TOTAL RUN TIME: 0 days 0 hours 0 minutes 5 seconds 421 msec
