                         Program Version 3.0.3 - RELEASE   -
|  1> ! RI PBE def2-SVP def2-SVP/J NBO PAL2
|  2> % maxcore 2000
|  3> % output
|  4>     # printlevel mini
|  5>     print[ P_Basis ] 0
|  6>     print[ P_SCFInfo ] 1
|  7>     print[ P_SCFIterInfo ] 1
|  8>     print[ P_OrbEn ] 0
|  9>     print[ P_Cartesian ] 0
| 10> end
| 11> *xyz 0 1
| 12>  C        1.1445320000    -0.4910740000     0.1065690000
| 13>  C        2.5828640000    -0.0385200000    -0.0888950000
| 14>  C        3.0873550000     0.8020190000     1.0486000000
| 15>  N        4.2557490000     1.6471060000     0.9042830000
| 16>  C        2.9375840000     2.2806630000     0.9966760000
| 17>  C        2.6676640000     3.0530870000     2.1796170000
| 18>  N        2.4156470000     3.6671450000     3.1188630000
| 19>  H        0.8139260000    -1.1147950000    -0.7259400000
| 20>  H        0.4666200000     0.3627590000     0.1776640000
| 21>  H        1.0374270000    -1.0766260000     1.0229390000
| 22>  H        2.6770040000     0.5306660000    -1.0215360000
| 23>  H        3.2373040000    -0.9114270000    -0.1910970000
| 24>  H        3.0173190000     0.3460440000     2.0332970000
| 25>  H        4.5685030000     1.6673600000    -0.0620150000
| 26>  H        2.4959230000     2.6940920000     0.0944840000
| 27> *
| 28>
| 29>                          ****END OF INPUT****
 Total Charge           Charge          ....    0
 Multiplicity           Mult            ....    1
 Number of Electrons    NEL             ....   52
 Basis Dimension        Dim             ....  138

MULLIKEN ATOMIC CHARGES
-----------------------
   0 C :   -0.028570
   1 C :    0.047648
   2 C :   -0.059097
   3 N :   -0.112189
   4 C :   -0.201944
   5 C :   -0.046115
   6 N :    0.059192
   7 H :    0.032518
   8 H :    0.032011
   9 H :    0.033960
  10 H :   -0.003113
  11 H :    0.034961
  12 H :    0.037973
  13 H :    0.114113
  14 H :    0.058650
Sum of atomic charges:   -0.0000000

LOEWDIN ATOMIC CHARGES
----------------------
   0 C :   -0.063091
   1 C :   -0.048561
   2 C :    0.018250
   3 N :   -0.064671
   4 C :   -0.032725
   5 C :   -0.040068
   6 N :   -0.056129
   7 H :    0.032327
   8 H :    0.030123
   9 H :    0.031722
  10 H :    0.024640
  11 H :    0.036123
  12 H :    0.032050
  13 H :    0.060321
  14 H :    0.039690

  Mayer bond orders larger than 0.1
B(  0-C ,  1-C ) :   1.1072 B(  0-C ,  7-H ) :   0.9573 B(  0-C ,  8-H ) :   0.9666
B(  0-C ,  9-H ) :   0.9674 B(  1-C ,  2-C ) :   1.0624 B(  1-C , 10-H ) :   0.9109
B(  1-C , 11-H ) :   0.9241 B(  2-C ,  3-N ) :   0.9782 B(  2-C ,  4-C ) :   0.9937
B(  2-C , 12-H ) :   0.9281 B(  3-N ,  4-C ) :   1.0991 B(  3-N , 13-H ) :   0.9332
B(  4-C ,  5-C ) :   1.0603 B(  4-C , 14-H ) :   0.9157 B(  5-C ,  6-N ) :   3.0514

FINAL SINGLE POINT ENERGY      -304.180222457235

DIPOLE MOMENT
-------------
                                X             Y             Z
Electronic contribution:      3.05868       7.78222       5.57800
Nuclear contribution   :     -3.19500      -8.90886      -7.22709
                        -----------------------------------------
Total Dipole Moment    :     -0.13632      -1.12664      -1.64909
                        -----------------------------------------
Magnitude (a.u.)       :      2.00185
Magnitude (Debye)      :      5.08829

                             ****ORCA TERMINATED NORMALLY****
TOTAL RUN TIME: 0 days 0 hours 0 minutes 6 seconds 483 msec
