                         Program Version 3.0.3 - RELEASE   -
|  1> ! RI PBE def2-SVP def2-SVP/J NBO PAL2
|  2> % maxcore 2000
|  3> % output
|  4>     # printlevel mini
|  5>     print[ P_Basis ] 0
|  6>     print[ P_SCFInfo ] 1
|  7>     print[ P_SCFIterInfo ] 1
|  8>     print[ P_OrbEn ] 0
|  9>     print[ P_Cartesian ] 0
| 10> end
| 11> *xyz 0 1
| 12>  C        2.1691080000    -1.2892650000     0.4594150000
| 13>  C        2.4658630000     0.1040020000    -0.0691700000
| 14>  C        3.1314840000     0.9963410000     0.9619520000
| 15>  N        3.4081340000     2.3758000000     0.5238720000
| 16>  C        2.2522430000     2.8856740000     1.2762540000
| 17>  C        2.1931180000     1.5579290000     2.0572650000
| 18>  C        2.7868580000     1.6099740000     3.4470710000
| 19>  H        1.6908730000    -1.9119380000    -0.2996060000
| 20>  H        1.5012420000    -1.2524650000     1.3244850000
| 21>  H        3.0874640000    -1.7932780000     0.7731440000
| 22>  H        1.5404070000     0.5811310000    -0.4145090000
| 23>  H        3.1238590000     0.0324280000    -0.9440530000
| 24>  H        4.0262300000     0.4903500000     1.3505670000
| 25>  H        3.3798800000     2.5210890000    -0.4776070000
| 26>  H        1.3553320000     3.0704420000     0.6728190000
| 27>  H        2.4633030000     3.7830150000     1.8672240000
| 28>  H        1.2065440000     1.0879690000     2.0795110000
| 29>  H        3.7713570000     2.0851110000     3.4271530000
| 30>  H        2.9059020000     0.6059470000     3.8641190000
| 31>  H        2.1511190000     2.1815540000     4.1291050000
| 32> *
| 33>
| 34>                          ****END OF INPUT****
 Total Charge           Charge          ....    0
 Multiplicity           Mult            ....    1
 Number of Electrons    NEL             ....   56
 Basis Dimension        Dim             ....  163

MULLIKEN ATOMIC CHARGES
-----------------------
   0 C :   -0.028138
   1 C :    0.046831
   2 C :   -0.014835
   3 N :   -0.228342
   4 C :    0.198659
   5 C :   -0.230158
   6 C :    0.064396
   7 H :    0.024714
   8 H :    0.021923
   9 H :    0.021964
  10 H :   -0.011774
  11 H :    0.012952
  12 H :   -0.011262
  13 H :    0.082995
  14 H :   -0.004354
  15 H :   -0.005988
  16 H :    0.001243
  17 H :    0.020680
  18 H :    0.018551
  19 H :    0.019943
Sum of atomic charges:   -0.0000000

LOEWDIN ATOMIC CHARGES
----------------------
   0 C :   -0.067428
   1 C :   -0.056585
   2 C :    0.017006
   3 N :   -0.104289
   4 C :    0.031790
   5 C :   -0.042960
   6 C :   -0.058472
   7 H :    0.028607
   8 H :    0.025050
   9 H :    0.026752
  10 H :    0.020052
  11 H :    0.024433
  12 H :    0.006068
  13 H :    0.040974
  14 H :    0.002968
  15 H :    0.007715
  16 H :    0.015960
  17 H :    0.030019
  18 H :    0.025824
  19 H :    0.026516

  Mayer bond orders larger than 0.1
B(  0-C ,  1-C ) :   1.1177 B(  0-C ,  7-H ) :   0.9565 B(  0-C ,  8-H ) :   0.9643
B(  0-C ,  9-H ) :   0.9613 B(  1-C ,  2-C ) :   1.0439 B(  1-C , 10-H ) :   0.9114
B(  1-C , 11-H ) :   0.9237 B(  2-C ,  3-N ) :   1.0766 B(  2-C ,  5-C ) :   1.0151
B(  2-C , 12-H ) :   0.9154 B(  3-N ,  4-C ) :   1.0570 B(  3-N , 13-H ) :   0.9451
B(  4-C ,  5-C ) :   1.0520 B(  4-C , 14-H ) :   0.9260 B(  4-C , 15-H ) :   0.9244
B(  5-C ,  6-C ) :   1.0701 B(  5-C , 16-H ) :   0.9202 B(  6-C , 17-H ) :   0.9502
B(  6-C , 18-H ) :   0.9604 B(  6-C , 19-H ) :   0.9559

FINAL SINGLE POINT ENERGY      -290.571391398511

DIPOLE MOMENT
-------------
                                X             Y             Z
Electronic contribution:      1.41289       3.19434      -1.40255
Nuclear contribution   :     -1.79941      -3.39975       1.20974
                        -----------------------------------------
Total Dipole Moment    :     -0.38652      -0.20541      -0.19281
                        -----------------------------------------
Magnitude (a.u.)       :      0.47829
Magnitude (Debye)      :      1.21572

                             ****ORCA TERMINATED NORMALLY****
TOTAL RUN TIME: 0 days 0 hours 0 minutes 8 seconds 605 msec
