                         Program Version 3.0.3 - RELEASE   -
|  1> ! RI PBE def2-SVP def2-SVP/J NBO PAL2
|  2> % maxcore 2000
|  3> % output
|  4>     # printlevel mini
|  5>     print[ P_Basis ] 0
|  6>     print[ P_SCFInfo ] 1
|  7>     print[ P_SCFIterInfo ] 1
|  8>     print[ P_OrbEn ] 0
|  9>     print[ P_Cartesian ] 0
| 10> end
| 11> *xyz 0 1
| 12>  C        1.2154370000     0.6883780000     1.1271610000
| 13>  C        2.3137590000     0.1472800000     0.2271290000
| 14>  C        2.9893310000     1.1152210000    -0.7284530000
| 15>  N        4.0378920000     0.5404760000    -1.5303890000
| 16>  C        2.1944640000     2.1776270000    -1.4281040000
| 17>  C        3.1732320000     2.5625520000    -0.3537420000
| 18>  C        4.4248310000     3.3217840000    -0.6882080000
| 19>  H        0.7888650000    -0.1179050000     1.7280560000
| 20>  H        0.3983650000     1.1317250000     0.5533700000
| 21>  H        1.5893810000     1.4445340000     1.8206750000
| 22>  H        1.9074140000    -0.6758190000    -0.3752130000
| 23>  H        3.0970180000    -0.3009010000     0.8524890000
| 24>  H        3.6618880000    -0.1795350000    -2.1366970000
| 25>  H        4.7365680000     0.1001080000    -0.9418580000
| 26>  H        1.1347990000     2.2675090000    -1.2233740000
| 27>  H        2.4826860000     2.3888050000    -2.4512240000
| 28>  H        2.7160270000     2.8461070000     0.5888740000
| 29>  H        4.8577100000     2.9571240000    -1.6199270000
| 30>  H        5.1781570000     3.2139280000     0.0980060000
| 31>  H        4.2123780000     4.3890110000    -0.7978720000
| 32> *
| 33>
| 34>                          ****END OF INPUT****
 Total Charge           Charge          ....    0
 Multiplicity           Mult            ....    1
 Number of Electrons    NEL             ....   56
 Basis Dimension        Dim             ....  163

MULLIKEN ATOMIC CHARGES
-----------------------
   0 C :   -0.041563
   1 C :    0.091218
   2 C :   -0.212822
   3 N :   -0.126097
   4 C :    0.035983
   5 C :   -0.144640
   6 C :    0.077966
   7 H :    0.017014
   8 H :    0.022181
   9 H :    0.028140
  10 H :   -0.006986
  11 H :   -0.003846
  12 H :    0.088815
  13 H :    0.085648
  14 H :    0.022367
  15 H :    0.015174
  16 H :    0.006413
  17 H :    0.012261
  18 H :    0.016124
  19 H :    0.016650
Sum of atomic charges:   -0.0000000

LOEWDIN ATOMIC CHARGES
----------------------
   0 C :   -0.068670
   1 C :   -0.047324
   2 C :   -0.031961
   3 N :   -0.070839
   4 C :   -0.045588
   5 C :   -0.044125
   6 C :   -0.060582
   7 H :    0.029849
   8 H :    0.025014
   9 H :    0.025056
  10 H :    0.019876
  11 H :    0.020540
  12 H :    0.052166
  13 H :    0.050885
  14 H :    0.020352
  15 H :    0.026129
  16 H :    0.020799
  17 H :    0.025851
  18 H :    0.025511
  19 H :    0.027062

  Mayer bond orders larger than 0.1
B(  0-C ,  1-C ) :   1.1105 B(  0-C ,  7-H ) :   0.9513 B(  0-C ,  8-H ) :   0.9624
B(  0-C ,  9-H ) :   0.9572 B(  1-C ,  2-C ) :   1.0312 B(  1-C , 10-H ) :   0.9205
B(  1-C , 11-H ) :   0.9235 B(  2-C ,  3-N ) :   1.1537 B(  2-C ,  4-C ) :   0.9781
B(  2-C ,  5-C ) :   0.9141 B(  3-N , 12-H ) :   0.9664 B(  3-N , 13-H ) :   0.9687
B(  4-C ,  5-C ) :   0.9893 B(  4-C , 14-H ) :   0.9371 B(  4-C , 15-H ) :   0.9288
B(  5-C ,  6-C ) :   1.1125 B(  5-C , 16-H ) :   0.9350 B(  6-C , 17-H ) :   0.9353
B(  6-C , 18-H ) :   0.9611 B(  6-C , 19-H ) :   0.9534

FINAL SINGLE POINT ENERGY      -290.576613552787

DIPOLE MOMENT
-------------
                                X             Y             Z
Electronic contribution:      1.01018      -0.58466      -1.96233
Nuclear contribution   :     -1.10978       0.12281       2.17506
                        -----------------------------------------
Total Dipole Moment    :     -0.09960      -0.46185       0.21272
                        -----------------------------------------
Magnitude (a.u.)       :      0.51815
Magnitude (Debye)      :      1.31703

                             ****ORCA TERMINATED NORMALLY****
TOTAL RUN TIME: 0 days 0 hours 0 minutes 8 seconds 279 msec
