                         Program Version 3.0.3 - RELEASE   -
|  1> ! RI PBE def2-SVP def2-SVP/J NBO PAL2
|  2> % maxcore 2000
|  3> % output
|  4>     # printlevel mini
|  5>     print[ P_Basis ] 0
|  6>     print[ P_SCFInfo ] 1
|  7>     print[ P_SCFIterInfo ] 1
|  8>     print[ P_OrbEn ] 0
|  9>     print[ P_Cartesian ] 0
| 10> end
| 11> *xyz 0 1
| 12>  C        1.1145260000     0.4478230000    -0.2899210000
| 13>  C        2.5189500000    -0.0045120000     0.0757450000
| 14>  C        2.9891650000    -1.1784770000    -0.7481220000
| 15>  N        4.3352880000    -1.7153230000    -0.4294340000
| 16>  C        3.8009410000    -3.0975990000    -0.4828600000
| 17>  C        2.3586320000    -2.5772400000    -0.5070020000
| 18>  N        1.4515690000    -3.2099840000    -1.4251760000
| 19>  H        0.8010970000     1.3007720000     0.3154830000
| 20>  H        0.3853590000    -0.3516130000    -0.1314230000
| 21>  H        1.0567630000     0.7462400000    -1.3400530000
| 22>  H        2.5551660000    -0.2813090000     1.1374040000
| 23>  H        3.2235420000     0.8252820000    -0.0525980000
| 24>  H        2.9470870000    -0.9173890000    -1.8160720000
| 25>  H        4.5853500000    -1.4713830000     0.5223040000
| 26>  H        4.0874250000    -3.7543180000     0.3415280000
| 27>  H        4.0797490000    -3.5864650000    -1.4228840000
| 28>  H        1.9158930000    -2.6133720000     0.4948020000
| 29>  H        1.7853640000    -3.1280130000    -2.3782870000
| 30>  H        0.5280340000    -2.7986900000    -1.3867250000
| 31> *
| 32>
| 33>                          ****END OF INPUT****
 Total Charge           Charge          ....    0
 Multiplicity           Mult            ....    1
 Number of Electrons    NEL             ....   56
 Basis Dimension        Dim             ....  158

MULLIKEN ATOMIC CHARGES
-----------------------
   0 C :   -0.029184
   1 C :    0.031996
   2 C :    0.024333
   3 N :   -0.245883
   4 C :    0.193291
   5 C :   -0.147675
   6 N :   -0.127322
   7 H :    0.024595
   8 H :    0.018268
   9 H :    0.021591
  10 H :   -0.007349
  11 H :    0.022213
  12 H :   -0.029577
  13 H :    0.084562
  14 H :    0.010754
  15 H :   -0.005063
  16 H :   -0.013343
  17 H :    0.083974
  18 H :    0.089821
Sum of atomic charges:   -0.0000000

LOEWDIN ATOMIC CHARGES
----------------------
   0 C :   -0.065498
   1 C :   -0.054323
   2 C :   -0.004105
   3 N :   -0.117502
   4 C :    0.027125
   5 C :   -0.016977
   6 N :   -0.088319
   7 H :    0.029374
   8 H :    0.022028
   9 H :    0.026565
  10 H :    0.016982
  11 H :    0.028598
  12 H :    0.007390
  13 H :    0.044461
  14 H :    0.012840
  15 H :    0.012860
  16 H :    0.017807
  17 H :    0.048971
  18 H :    0.051723

  Mayer bond orders larger than 0.1
B(  0-C ,  1-C ) :   1.1154 B(  0-C ,  7-H ) :   0.9572 B(  0-C ,  8-H ) :   0.9653
B(  0-C ,  9-H ) :   0.9639 B(  1-C ,  2-C ) :   1.0796 B(  1-C , 10-H ) :   0.9091
B(  1-C , 11-H ) :   0.9275 B(  2-C ,  3-N ) :   1.0765 B(  2-C ,  5-C ) :   0.9881
B(  2-C , 12-H ) :   0.8779 B(  3-N ,  4-C ) :   1.0544 B(  3-N , 13-H ) :   0.9354
B(  4-C ,  5-C ) :   1.0703 B(  4-C , 14-H ) :   0.9333 B(  4-C , 15-H ) :   0.9153
B(  5-C ,  6-N ) :   1.1403 B(  5-C , 16-H ) :   0.8711 B(  6-N , 17-H ) :   0.9575
B(  6-N , 18-H ) :   0.9692

FINAL SINGLE POINT ENERGY      -306.586310409933

DIPOLE MOMENT
-------------
                                X             Y             Z
Electronic contribution:      2.79972      -2.81197      -0.63050
Nuclear contribution   :     -3.30710       3.17509       0.83555
                        -----------------------------------------
Total Dipole Moment    :     -0.50738       0.36312       0.20506
                        -----------------------------------------
Magnitude (a.u.)       :      0.65677
Magnitude (Debye)      :      1.66937

                             ****ORCA TERMINATED NORMALLY****
TOTAL RUN TIME: 0 days 0 hours 0 minutes 8 seconds 516 msec
