                         Program Version 3.0.3 - RELEASE   -
|  1> ! RI PBE def2-SVP def2-SVP/J NBO PAL2
|  2> % maxcore 2000
|  3> % output
|  4>     # printlevel mini
|  5>     print[ P_Basis ] 0
|  6>     print[ P_SCFInfo ] 1
|  7>     print[ P_SCFIterInfo ] 1
|  8>     print[ P_OrbEn ] 0
|  9>     print[ P_Cartesian ] 0
| 10> end
| 11> *xyz 0 1
| 12>  C        2.9321490000    -0.7506790000    -1.4090750000
| 13>  C        2.4725730000    -0.1134440000    -0.1076990000
| 14>  C        2.9564750000    -0.7466990000     1.1810690000
| 15>  N        2.5820130000    -0.0631870000     2.3910230000
| 16>  C        3.0131400000    -2.2439910000     1.3362300000
| 17>  C        4.2872020000    -1.4673250000     1.2728640000
| 18>  N        5.1280380000    -1.3963100000     2.4307440000
| 19>  H        2.4906090000    -0.2311600000    -2.2622360000
| 20>  H        2.6331100000    -1.7992740000    -1.4775870000
| 21>  H        4.0170150000    -0.7021810000    -1.5261930000
| 22>  H        1.3745000000    -0.1000600000    -0.0836880000
| 23>  H        2.7834370000     0.9396960000    -0.0990810000
| 24>  H        1.5817420000    -0.1197370000     2.5428680000
| 25>  H        2.8234890000     0.9201290000     2.3366210000
| 26>  H        2.7448680000    -2.8744630000     0.4974990000
| 27>  H        2.7295870000    -2.6337220000     2.3073310000
| 28>  H        4.8499410000    -1.5638110000     0.3511680000
| 29>  H        4.5474970000    -1.1513750000     3.2271630000
| 30>  H        5.7969160000    -0.6418180000     2.3228900000
| 31> *
| 32>
| 33>                          ****END OF INPUT****
 Total Charge           Charge          ....    0
 Multiplicity           Mult            ....    1
 Number of Electrons    NEL             ....   56
 Basis Dimension        Dim             ....  158

MULLIKEN ATOMIC CHARGES
-----------------------
   0 C :   -0.042061
   1 C :    0.091318
   2 C :   -0.217924
   3 N :   -0.136459
   4 C :    0.025488
   5 C :   -0.060303
   6 N :   -0.107893
   7 H :    0.016132
   8 H :    0.020442
   9 H :    0.029925
  10 H :   -0.001037
  11 H :   -0.005286
  12 H :    0.093837
  13 H :    0.082387
  14 H :    0.025773
  15 H :    0.017452
  16 H :    0.011664
  17 H :    0.073619
  18 H :    0.082928
Sum of atomic charges:   -0.0000000

LOEWDIN ATOMIC CHARGES
----------------------
   0 C :   -0.068896
   1 C :   -0.049809
   2 C :   -0.056488
   3 N :   -0.069786
   4 C :   -0.051301
   5 C :   -0.007701
   6 N :   -0.084304
   7 H :    0.029604
   8 H :    0.025326
   9 H :    0.025647
  10 H :    0.020176
  11 H :    0.019918
  12 H :    0.053767
  13 H :    0.049049
  14 H :    0.022454
  15 H :    0.027312
  16 H :    0.018476
  17 H :    0.043562
  18 H :    0.052994

  Mayer bond orders larger than 0.1
B(  0-C ,  1-C ) :   1.1175 B(  0-C ,  7-H ) :   0.9501 B(  0-C ,  8-H ) :   0.9605
B(  0-C ,  9-H ) :   0.9588 B(  1-C ,  2-C ) :   1.0255 B(  1-C , 10-H ) :   0.9185
B(  1-C , 11-H ) :   0.9208 B(  2-C ,  3-N ) :   1.1457 B(  2-C ,  4-C ) :   0.9575
B(  2-C ,  5-C ) :   0.8494 B(  3-N , 12-H ) :   0.9677 B(  3-N , 13-H ) :   0.9688
B(  4-C ,  5-C ) :   0.9928 B(  4-C , 14-H ) :   0.9366 B(  4-C , 15-H ) :   0.9270
B(  5-C ,  6-N ) :   1.1845 B(  5-C , 16-H ) :   0.9401 B(  6-N , 17-H ) :   0.9395
B(  6-N , 18-H ) :   0.9667

FINAL SINGLE POINT ENERGY      -306.592154834724

DIPOLE MOMENT
-------------
                                X             Y             Z
Electronic contribution:      1.18282      -0.49737       3.67821
Nuclear contribution   :     -1.62239       1.27089      -3.93300
                        -----------------------------------------
Total Dipole Moment    :     -0.43957       0.77352      -0.25479
                        -----------------------------------------
Magnitude (a.u.)       :      0.92546
Magnitude (Debye)      :      2.35233

                             ****ORCA TERMINATED NORMALLY****
TOTAL RUN TIME: 0 days 0 hours 0 minutes 7 seconds 921 msec
