                         Program Version 3.0.3 - RELEASE   -
|  1> ! RI PBE def2-SVP def2-SVP/J NBO PAL2
|  2> % maxcore 2000
|  3> % output
|  4>     # printlevel mini
|  5>     print[ P_Basis ] 0
|  6>     print[ P_SCFInfo ] 1
|  7>     print[ P_SCFIterInfo ] 1
|  8>     print[ P_OrbEn ] 0
|  9>     print[ P_Cartesian ] 0
| 10> end
| 11> *xyz 0 1
| 12>  C        2.0959170000     0.7844980000     1.2391200000
| 13>  C        2.3071230000     0.0148000000     0.1816880000
| 14>  C        3.0817960000     0.3931460000    -1.0537920000
| 15>  N        4.2398620000    -0.5056500000    -1.2347110000
| 16>  C        5.4392420000     0.2582300000    -0.8750900000
| 17>  C        5.0032450000     1.6951870000    -0.8987380000
| 18>  C        3.6847200000     1.7726730000    -1.0083880000
| 19>  H        1.5302250000     0.4256400000     2.0912720000
| 20>  H        2.4864420000     1.7949020000     1.2982480000
| 21>  H        1.9158890000    -0.9998150000     0.1662890000
| 22>  H        2.4036490000     0.2756290000    -1.9096200000
| 23>  H        4.3013820000    -0.7515930000    -2.2127710000
| 24>  H        6.2573510000     0.0423640000    -1.5688090000
| 25>  H        5.7969950000    -0.0171060000     0.1264630000
| 26>  H        5.6834400000     2.5316010000    -0.7907870000
| 27>  H        3.0982130000     2.6826950000    -1.0128450000
| 28> *
| 29>
| 30>                          ****END OF INPUT****
 Total Charge           Charge          ....    0
 Multiplicity           Mult            ....    1
 Number of Electrons    NEL             ....   52
 Basis Dimension        Dim             ....  143

MULLIKEN ATOMIC CHARGES
-----------------------
   0 C :   -0.024289
   1 C :   -0.017223
   2 C :    0.064904
   3 N :   -0.241621
   4 C :    0.179223
   5 C :   -0.106759
   6 C :   -0.043760
   7 H :    0.020108
   8 H :    0.017168
   9 H :    0.000878
  10 H :    0.016618
  11 H :    0.097682
  12 H :    0.018704
  13 H :    0.022227
  14 H :   -0.003140
  15 H :   -0.000719
Sum of atomic charges:    0.0000000

LOEWDIN ATOMIC CHARGES
----------------------
   0 C :   -0.067276
   1 C :   -0.027387
   2 C :    0.004680
   3 N :   -0.092770
   4 C :    0.016962
   5 C :   -0.043290
   6 C :   -0.041681
   7 H :    0.024825
   8 H :    0.020312
   9 H :    0.025769
  10 H :    0.029132
  11 H :    0.054021
  12 H :    0.023411
  13 H :    0.025306
  14 H :    0.023594
  15 H :    0.024393

  Mayer bond orders larger than 0.1
B(  0-C ,  1-C ) :   2.0233 B(  0-C ,  7-H ) :   0.9413 B(  0-C ,  8-H ) :   0.9223
B(  1-C ,  2-C ) :   0.9893 B(  1-C ,  9-H ) :   0.9545 B(  2-C ,  3-N ) :   1.0647
B(  2-C ,  6-C ) :   0.9913 B(  2-C , 10-H ) :   0.8909 B(  3-N ,  4-C ) :   1.0523
B(  3-N , 11-H ) :   0.9482 B(  4-C ,  5-C ) :   1.0055 B(  4-C , 12-H ) :   0.9407
B(  4-C , 13-H ) :   0.9098 B(  5-C ,  6-C ) :   1.8603 B(  5-C , 14-H ) :   0.9850
B(  6-C , 15-H ) :   0.9878

FINAL SINGLE POINT ENERGY      -288.150037656235

DIPOLE MOMENT
-------------
                                X             Y             Z
Electronic contribution:      0.05139      -0.20605      -1.28240
Nuclear contribution   :      0.10590       0.45871       0.86948
                        -----------------------------------------
Total Dipole Moment    :      0.15729       0.25266      -0.41292
                        -----------------------------------------
Magnitude (a.u.)       :      0.50900
Magnitude (Debye)      :      1.29378

                             ****ORCA TERMINATED NORMALLY****
TOTAL RUN TIME: 0 days 0 hours 0 minutes 7 seconds 15 msec
