                         Program Version 3.0.3 - RELEASE   -
|  1> ! RI PBE def2-SVP def2-SVP/J NBO PAL2
|  2> % maxcore 2000
|  3> % output
|  4>     # printlevel mini
|  5>     print[ P_Basis ] 0
|  6>     print[ P_SCFInfo ] 1
|  7>     print[ P_SCFIterInfo ] 1
|  8>     print[ P_OrbEn ] 0
|  9>     print[ P_Cartesian ] 0
| 10> end
| 11> *xyz 0 1
| 12>  C        0.8542950000     0.0744750000    -0.4838350000
| 13>  C        2.0099870000     0.0094100000    -0.1662380000
| 14>  C        3.4298990000    -0.0507330000     0.1855840000
| 15>  N        3.7685220000    -1.2355600000     0.9737680000
| 16>  C        4.7278020000    -0.8766270000     2.0124080000
| 17>  C        4.6028270000     0.6102660000     2.0850850000
| 18>  C        3.8794200000     1.0762170000     1.0800630000
| 19>  H       -0.1745150000     0.1239260000    -0.7514790000
| 20>  H        3.9934550000     0.0045350000    -0.7638320000
| 21>  H        4.0642020000    -2.0096590000     0.3998440000
| 22>  H        5.7652870000    -1.1626890000     1.7717300000
| 23>  H        4.4794710000    -1.3605090000     2.9652120000
| 24>  H        5.0644330000     1.2048250000     2.8630220000
| 25>  H        3.6319050000     2.1087030000     0.8752770000
| 26> *
| 27>
| 28>                          ****END OF INPUT****
 Total Charge           Charge          ....    0
 Multiplicity           Mult            ....    1
 Number of Electrons    NEL             ....   50
 Basis Dimension        Dim             ....  133

MULLIKEN ATOMIC CHARGES
-----------------------
   0 C :   -0.512809
   1 C :    0.426190
   2 C :    0.122879
   3 N :   -0.263316
   4 C :    0.203701
   5 C :   -0.106897
   6 C :   -0.033815
   7 H :   -0.002565
   8 H :    0.026910
   9 H :    0.099268
  10 H :    0.009739
  11 H :    0.020466
  12 H :    0.004905
  13 H :    0.005344
Sum of atomic charges:   -0.0000000

LOEWDIN ATOMIC CHARGES
----------------------
   0 C :   -0.084298
   1 C :   -0.020311
   2 C :    0.006104
   3 N :   -0.088056
   4 C :    0.022553
   5 C :   -0.031866
   6 C :   -0.021438
   7 H :    0.033572
   8 H :    0.032220
   9 H :    0.056313
  10 H :    0.014586
  11 H :    0.022046
  12 H :    0.028283
  13 H :    0.030292

  Mayer bond orders larger than 0.1
B(  0-C ,  1-C ) :   2.3437 B(  0-C ,  7-H ) :   1.1031 B(  1-C ,  2-C ) :   0.9491
B(  1-C ,  7-H ) :  -0.1136 B(  2-C ,  3-N ) :   1.0604 B(  2-C ,  6-C ) :   0.9805
B(  2-C ,  8-H ) :   0.8634 B(  3-N ,  4-C ) :   1.0368 B(  3-N ,  9-H ) :   0.9416
B(  4-C ,  5-C ) :   1.0255 B(  4-C , 10-H ) :   0.9112 B(  4-C , 11-H ) :   0.9252
B(  5-C ,  6-C ) :   1.8761 B(  5-C , 12-H ) :   0.9851 B(  6-C , 13-H ) :   0.9952

FINAL SINGLE POINT ENERGY      -286.905051555528

DIPOLE MOMENT
-------------
                                X             Y             Z
Electronic contribution:     -2.41131       0.45390      -1.49785
Nuclear contribution   :      3.01918      -0.44580       1.42865
                        -----------------------------------------
Total Dipole Moment    :      0.60788       0.00809      -0.06920
                        -----------------------------------------
Magnitude (a.u.)       :      0.61185
Magnitude (Debye)      :      1.55521

                             ****ORCA TERMINATED NORMALLY****
TOTAL RUN TIME: 0 days 0 hours 0 minutes 7 seconds 113 msec
