                         Program Version 3.0.3 - RELEASE   -
|  1> ! RI PBE def2-SVP def2-SVP/J NBO PAL2
|  2> % maxcore 2000
|  3> % output
|  4>     # printlevel mini
|  5>     print[ P_Basis ] 0
|  6>     print[ P_SCFInfo ] 1
|  7>     print[ P_SCFIterInfo ] 1
|  8>     print[ P_OrbEn ] 0
|  9>     print[ P_Cartesian ] 0
| 10> end
| 11> *xyz 0 1
| 12>  C        0.8536420000    -0.3085720000    -0.3375550000
| 13>  C        2.2976870000    -0.0064400000     0.0292260000
| 14>  C        2.8417590000    -0.6444790000     1.3038710000
| 15>  N        4.2326690000    -0.2842140000     1.5527040000
| 16>  C        2.0573080000    -0.4639500000     2.6250090000
| 17>  C        2.3800500000    -1.9272450000     2.9793200000
| 18>  C        2.7024430000    -2.1734750000     1.4939370000
| 19>  H        0.5784970000     0.2006760000    -1.2641550000
| 20>  H        0.1584410000     0.0268980000     0.4355270000
| 21>  H        0.6881430000    -1.3771320000    -0.4934010000
| 22>  H        2.4252270000     1.0800260000     0.1232080000
| 23>  H        2.9507840000    -0.3129870000    -0.7984210000
| 24>  H        4.3222500000     0.7237390000     1.6279740000
| 25>  H        4.8113310000    -0.5722670000     0.7705070000
| 26>  H        0.9898820000    -0.3164600000     2.4515620000
| 27>  H        2.4206570000     0.3173420000     3.2956540000
| 28>  H        1.5803020000    -2.5221360000     3.4222940000
| 29>  H        3.2709380000    -2.0026520000     3.6014300000
| 30>  H        1.8430560000    -2.5772660000     0.9557530000
| 31>  H        3.5854140000    -2.7691150000     1.2535650000
| 32> *
| 33>
| 34>                          ****END OF INPUT****
 Total Charge           Charge          ....    0
 Multiplicity           Mult            ....    1
 Number of Electrons    NEL             ....   56
 Basis Dimension        Dim             ....  163

MULLIKEN ATOMIC CHARGES
-----------------------
   0 C :   -0.033913
   1 C :    0.069881
   2 C :   -0.354775
   3 N :   -0.138602
   4 C :    0.095222
   5 C :    0.010938
   6 C :    0.105501
   7 H :    0.014328
   8 H :    0.024835
   9 H :    0.023656
  10 H :   -0.000088
  11 H :   -0.005823
  12 H :    0.082366
  13 H :    0.083160
  14 H :    0.000526
  15 H :    0.000348
  16 H :    0.003764
  17 H :    0.021835
  18 H :   -0.001464
  19 H :   -0.001696
Sum of atomic charges:   -0.0000000

LOEWDIN ATOMIC CHARGES
----------------------
   0 C :   -0.070813
   1 C :   -0.060395
   2 C :   -0.020478
   3 N :   -0.082468
   4 C :   -0.030112
   5 C :   -0.030456
   6 C :   -0.028791
   7 H :    0.028535
   8 H :    0.023897
   9 H :    0.023717
  10 H :    0.020762
  11 H :    0.019981
  12 H :    0.046956
  13 H :    0.047103
  14 H :    0.019605
  15 H :    0.016045
  16 H :    0.014839
  17 H :    0.027112
  18 H :    0.019495
  19 H :    0.015466

  Mayer bond orders larger than 0.1
B(  0-C ,  1-C ) :   1.1065 B(  0-C ,  7-H ) :   0.9489 B(  0-C ,  8-H ) :   0.9605
B(  0-C ,  9-H ) :   0.9622 B(  1-C ,  2-C ) :   1.0294 B(  1-C , 10-H ) :   0.9238
B(  1-C , 11-H ) :   0.9195 B(  2-C ,  3-N ) :   1.0233 B(  2-C ,  4-C ) :   1.0601
B(  2-C ,  6-C ) :   1.0623 B(  3-N , 12-H ) :   0.9668 B(  3-N , 13-H ) :   0.9654
B(  4-C ,  5-C ) :   1.1334 B(  4-C , 14-H ) :   0.9123 B(  4-C , 15-H ) :   0.9177
B(  5-C ,  6-C ) :   1.1332 B(  5-C , 16-H ) :   0.9304 B(  5-C , 17-H ) :   0.9241
B(  6-C , 18-H ) :   0.9105 B(  6-C , 19-H ) :   0.9189

FINAL SINGLE POINT ENERGY      -290.576581672497

DIPOLE MOMENT
-------------
                                X             Y             Z
Electronic contribution:      2.51711      -0.17033       1.69463
Nuclear contribution   :     -2.55806       0.42726      -2.10456
                        -----------------------------------------
Total Dipole Moment    :     -0.04095       0.25693      -0.40993
                        -----------------------------------------
Magnitude (a.u.)       :      0.48552
Magnitude (Debye)      :      1.23410

                             ****ORCA TERMINATED NORMALLY****
TOTAL RUN TIME: 0 days 0 hours 0 minutes 8 seconds 404 msec
