                         Program Version 3.0.3 - RELEASE   -
|  1> ! RI PBE def2-SVP def2-SVP/J NBO PAL2
|  2> % maxcore 2000
|  3> % output
|  4>     # printlevel mini
|  5>     print[ P_Basis ] 0
|  6>     print[ P_SCFInfo ] 1
|  7>     print[ P_SCFIterInfo ] 1
|  8>     print[ P_OrbEn ] 0
|  9>     print[ P_Cartesian ] 0
| 10> end
| 11> *xyz 0 1
| 12>  C        2.1405780000     1.7578320000     0.0833910000
| 13>  C        2.4364770000     0.2700330000     0.0030050000
| 14>  C        3.2174340000    -0.1343130000    -1.2452100000
| 15>  N        3.3820890000    -1.5875570000    -1.3300920000
| 16>  C        4.7277360000    -1.9155350000    -1.7889170000
| 17>  C        5.4715170000    -0.6362290000    -1.5805930000
| 18>  C        4.6366190000     0.3498250000    -1.2867510000
| 19>  H        1.5388770000     1.9926690000     0.9640190000
| 20>  H        1.5861810000     2.1009810000    -0.7953800000
| 21>  H        3.0561550000     2.3514790000     0.1475250000
| 22>  H        1.4975310000    -0.2937930000     0.0068140000
| 23>  H        2.9984870000    -0.0642360000     0.8804150000
| 24>  H        2.6755490000     0.2753540000    -2.1193250000
| 25>  H        2.6634330000    -2.0245970000    -1.8860760000
| 26>  H        4.7710470000    -2.2168840000    -2.8492890000
| 27>  H        5.1566370000    -2.7445430000    -1.2110760000
| 28>  H        6.5468140000    -0.5542450000    -1.6783170000
| 29>  H        4.9142470000     1.3809780000    -1.1098400000
| 30> *
| 31>
| 32>                          ****END OF INPUT****
 Total Charge           Charge          ....    0
 Multiplicity           Mult            ....    1
 Number of Electrons    NEL             ....   54
 Basis Dimension        Dim             ....  153

MULLIKEN ATOMIC CHARGES
-----------------------
   0 C :   -0.030858
   1 C :    0.049475
   2 C :    0.042916
   3 N :   -0.260909
   4 C :    0.198945
   5 C :   -0.114433
   6 C :   -0.043327
   7 H :    0.021707
   8 H :    0.015775
   9 H :    0.019569
  10 H :   -0.001304
  11 H :    0.001165
  12 H :   -0.001993
  13 H :    0.094540
  14 H :    0.003024
  15 H :    0.015320
  16 H :   -0.001861
  17 H :   -0.007753
Sum of atomic charges:    0.0000000

LOEWDIN ATOMIC CHARGES
----------------------
   0 C :   -0.070616
   1 C :   -0.048407
   2 C :    0.010834
   3 N :   -0.097241
   4 C :    0.019922
   5 C :   -0.039013
   6 C :   -0.034251
   7 H :    0.028662
   8 H :    0.022991
   9 H :    0.022924
  10 H :    0.022868
  11 H :    0.022740
  12 H :    0.008730
  13 H :    0.052548
  14 H :    0.011638
  15 H :    0.018483
  16 H :    0.024266
  17 H :    0.022922

  Mayer bond orders larger than 0.1
B(  0-C ,  1-C ) :   1.1008 B(  0-C ,  7-H ) :   0.9584 B(  0-C ,  8-H ) :   0.9632
B(  0-C ,  9-H ) :   0.9641 B(  1-C ,  2-C ) :   1.0428 B(  1-C , 10-H ) :   0.9273
B(  1-C , 11-H ) :   0.9264 B(  2-C ,  3-N ) :   1.0372 B(  2-C ,  6-C ) :   0.9843
B(  2-C , 12-H ) :   0.8928 B(  3-N ,  4-C ) :   1.0479 B(  3-N , 13-H ) :   0.9411
B(  4-C ,  5-C ) :   1.0219 B(  4-C , 14-H ) :   0.9088 B(  4-C , 15-H ) :   0.9242
B(  5-C ,  6-C ) :   1.8773 B(  5-C , 16-H ) :   0.9863 B(  6-C , 17-H ) :   0.9935

FINAL SINGLE POINT ENERGY      -289.377716198087

DIPOLE MOMENT
-------------
                                X             Y             Z
Electronic contribution:      2.78281      -2.88063      -1.75161
Nuclear contribution   :     -2.81621       2.91688       1.37498
                        -----------------------------------------
Total Dipole Moment    :     -0.03340       0.03625      -0.37663
                        -----------------------------------------
Magnitude (a.u.)       :      0.37984
Magnitude (Debye)      :      0.96547

                             ****ORCA TERMINATED NORMALLY****
TOTAL RUN TIME: 0 days 0 hours 0 minutes 7 seconds 440 msec
