                         Program Version 3.0.3 - RELEASE   -
|  1> ! RI PBE def2-SVP def2-SVP/J NBO PAL2
|  2> % maxcore 2000
|  3> % output
|  4>     # printlevel mini
|  5>     print[ P_Basis ] 0
|  6>     print[ P_SCFInfo ] 1
|  7>     print[ P_SCFIterInfo ] 1
|  8>     print[ P_OrbEn ] 0
|  9>     print[ P_Cartesian ] 0
| 10> end
| 11> *xyz 0 1
| 12>  C        1.1186860000     0.0327850000     0.4713880000
| 13>  C        2.2322500000     0.0676140000    -0.2532020000
| 14>  C        3.0147400000     1.2672540000    -0.5245120000
| 15>  N        4.1712520000     1.2136080000    -1.0693580000
| 16>  C        4.6657670000     2.5839430000    -1.1213640000
| 17>  C        3.4433230000     3.4747280000    -0.8463090000
| 18>  N        2.5669550000     2.5301710000    -0.1611910000
| 19>  H        0.5887590000    -0.8967390000     0.6394300000
| 20>  H        0.7093850000     0.9193700000     0.9436120000
| 21>  H        2.6473230000    -0.8347390000    -0.6878890000
| 22>  H        5.1419590000     2.7914380000    -2.0816040000
| 23>  H        5.4305410000     2.7111210000    -0.3452180000
| 24>  H        2.9910970000     3.8320570000    -1.7803220000
| 25>  H        3.6726250000     4.3386080000    -0.2203310000
| 26>  H        1.5738480000     2.6914840000    -0.2236400000
| 27> *
| 28>
| 29>                          ****END OF INPUT****
 Total Charge           Charge          ....    0
 Multiplicity           Mult            ....    1
 Number of Electrons    NEL             ....   52
 Basis Dimension        Dim             ....  138

MULLIKEN ATOMIC CHARGES
-----------------------
   0 C :   -0.030131
   1 C :    0.052432
   2 C :   -0.047488
   3 N :   -0.201380
   4 C :    0.082242
   5 C :    0.089035
   6 N :   -0.186599
   7 H :    0.034050
   8 H :    0.020839
   9 H :   -0.002539
  10 H :    0.019464
  11 H :    0.029627
  12 H :    0.011854
  13 H :    0.015962
  14 H :    0.112632
Sum of atomic charges:    0.0000000

LOEWDIN ATOMIC CHARGES
----------------------
   0 C :   -0.042897
   1 C :   -0.030302
   2 C :   -0.004981
   3 N :   -0.140492
   4 C :    0.004325
   5 C :    0.013644
   6 N :   -0.041620
   7 H :    0.030338
   8 H :    0.021612
   9 H :    0.040572
  10 H :    0.024194
  11 H :    0.027492
  12 H :    0.012597
  13 H :    0.020660
  14 H :    0.064856

  Mayer bond orders larger than 0.1
B(  0-C ,  1-C ) :   1.9008 B(  0-C ,  7-H ) :   0.9363 B(  0-C ,  8-H ) :   0.9443
B(  1-C ,  2-C ) :   1.0881 B(  1-C ,  9-H ) :   0.9450 B(  2-C ,  3-N ) :   1.8115
B(  2-C ,  6-N ) :   1.1520 B(  3-N ,  4-C ) :   1.0602 B(  3-N ,  6-N ) :   0.1043
B(  4-C ,  5-C ) :   1.0782 B(  4-C , 10-H ) :   0.9430 B(  4-C , 11-H ) :   0.9237
B(  5-C ,  6-N ) :   1.0302 B(  5-C , 12-H ) :   0.9353 B(  5-C , 13-H ) :   0.9385
B(  6-N , 14-H ) :   0.9176

FINAL SINGLE POINT ENERGY      -304.207713491137

DIPOLE MOMENT
-------------
                                X             Y             Z
Electronic contribution:      0.65776      -1.63636      -0.19456
Nuclear contribution   :     -1.38059       2.31169       0.24870
                        -----------------------------------------
Total Dipole Moment    :     -0.72283       0.67533       0.05414
                        -----------------------------------------
Magnitude (a.u.)       :      0.99070
Magnitude (Debye)      :      2.51816

                             ****ORCA TERMINATED NORMALLY****
TOTAL RUN TIME: 0 days 0 hours 0 minutes 7 seconds 476 msec
