                         Program Version 3.0.3 - RELEASE   -
|  1> ! RI PBE def2-SVP def2-SVP/J NBO PAL2
|  2> % maxcore 2000
|  3> % output
|  4>     # printlevel mini
|  5>     print[ P_Basis ] 0
|  6>     print[ P_SCFInfo ] 1
|  7>     print[ P_SCFIterInfo ] 1
|  8>     print[ P_OrbEn ] 0
|  9>     print[ P_Cartesian ] 0
| 10> end
| 11> *xyz 0 1
| 12>  C        1.0121590000     0.0360170000     0.0654330000
| 13>  C        2.2075070000    -0.0422180000    -0.0036250000
| 14>  C        3.6332150000    -0.0907370000    -0.0897310000
| 15>  N        4.3157380000    -1.1711650000    -0.0430670000
| 16>  C        5.7170670000    -0.7725310000    -0.1647400000
| 17>  C        5.7472830000     0.7746870000    -0.2957020000
| 18>  N        4.3330020000     1.0745820000    -0.2308170000
| 19>  H       -0.0496080000     0.0823930000     0.1287080000
| 20>  H        6.1606990000    -1.2645340000    -1.0348040000
| 21>  H        6.2708960000    -1.1187850000     0.7123470000
| 22>  H        6.1871620000     1.1051300000    -1.2418830000
| 23>  H        6.2991650000     1.2520980000     0.5200370000
| 24>  H        3.9188960000     1.9851630000    -0.2806460000
| 25> *
| 26>
| 27>                          ****END OF INPUT****
 Total Charge           Charge          ....    0
 Multiplicity           Mult            ....    1
 Number of Electrons    NEL             ....   50
 Basis Dimension        Dim             ....  128

MULLIKEN ATOMIC CHARGES
-----------------------
   0 C :   -0.474606
   1 C :    0.487266
   2 C :   -0.034907
   3 N :   -0.200851
   4 C :    0.073583
   5 C :    0.118743
   6 N :   -0.182022
   7 H :    0.012668
   8 H :    0.028725
   9 H :    0.028681
  10 H :    0.018445
  11 H :    0.022263
  12 H :    0.102010
Sum of atomic charges:   -0.0000000

LOEWDIN ATOMIC CHARGES
----------------------
   0 C :   -0.038578
   1 C :   -0.015365
   2 C :   -0.014334
   3 N :   -0.144537
   4 C :    0.008645
   5 C :    0.018542
   6 N :   -0.014964
   7 H :    0.039124
   8 H :    0.027288
   9 H :    0.027057
  10 H :    0.017245
  11 H :    0.018270
  12 H :    0.071605

  Mayer bond orders larger than 0.1
B(  0-C ,  1-C ) :   2.2699 B(  0-C ,  7-H ) :   1.0929 B(  1-C ,  2-C ) :   0.8915
B(  1-C ,  7-H ) :  -0.1041 B(  2-C ,  3-N ) :   1.8072 B(  2-C ,  6-N ) :   1.2056
B(  3-N ,  4-C ) :   1.0592 B(  3-N ,  6-N ) :   0.1459 B(  4-C ,  5-C ) :   1.0653
B(  4-C ,  8-H ) :   0.9361 B(  4-C ,  9-H ) :   0.9367 B(  5-C ,  6-N ) :   1.0009
B(  5-C , 10-H ) :   0.9412 B(  5-C , 11-H ) :   0.9412 B(  6-N , 12-H ) :   0.9341

FINAL SINGLE POINT ENERGY      -302.955334500391

DIPOLE MOMENT
-------------
                                X             Y             Z
Electronic contribution:     -4.64044      -0.75281       0.35812
Nuclear contribution   :      4.87231       1.94070      -0.47013
                        -----------------------------------------
Total Dipole Moment    :      0.23188       1.18789      -0.11200
                        -----------------------------------------
Magnitude (a.u.)       :      1.21548
Magnitude (Debye)      :      3.08950

                             ****ORCA TERMINATED NORMALLY****
TOTAL RUN TIME: 0 days 0 hours 0 minutes 6 seconds 501 msec
