                         Program Version 3.0.3 - RELEASE   -
|  1> ! RI PBE def2-SVP def2-SVP/J NBO PAL2
|  2> % maxcore 2000
|  3> % output
|  4>     # printlevel mini
|  5>     print[ P_Basis ] 0
|  6>     print[ P_SCFInfo ] 1
|  7>     print[ P_SCFIterInfo ] 1
|  8>     print[ P_OrbEn ] 0
|  9>     print[ P_Cartesian ] 0
| 10> end
| 11> *xyz 0 1
| 12>  C        2.7966120000     0.3766760000     1.5309550000
| 13>  C        3.1300770000     0.0500050000     0.0885630000
| 14>  C        3.3693990000    -1.4021350000    -0.1606720000
| 15>  N        3.3396070000    -2.3088850000     0.7338200000
| 16>  C        3.6846270000    -3.5618810000     0.0669650000
| 17>  C        3.5701840000    -3.2733970000    -1.4393710000
| 18>  N        3.7065560000    -1.8220890000    -1.4403930000
| 19>  H        2.6299550000     1.4491040000     1.6512550000
| 20>  H        3.6065380000     0.0725810000     2.1946300000
| 21>  H        1.9000550000    -0.1537990000     1.8535780000
| 22>  H        4.0236130000     0.5955310000    -0.2362010000
| 23>  H        2.3239980000     0.3853050000    -0.5764550000
| 24>  H        3.0326500000    -4.3733390000     0.3955290000
| 25>  H        4.7106410000    -3.8376150000     0.3393730000
| 26>  H        2.5934560000    -3.5845460000    -1.8326680000
| 27>  H        4.3504940000    -3.7549220000    -2.0311830000
| 28>  H        3.3180380000    -1.3078850000    -2.2154280000
| 29> *
| 30>
| 31>                          ****END OF INPUT****
 Total Charge           Charge          ....    0
 Multiplicity           Mult            ....    1
 Number of Electrons    NEL             ....   54
 Basis Dimension        Dim             ....  148

MULLIKEN ATOMIC CHARGES
-----------------------
   0 C :   -0.000652
   1 C :    0.031948
   2 C :   -0.088691
   3 N :   -0.219403
   4 C :    0.098360
   5 C :    0.086115
   6 N :   -0.183873
   7 H :    0.010804
   8 H :    0.035265
   9 H :    0.028221
  10 H :    0.029336
  11 H :    0.015813
  12 H :    0.015809
  13 H :    0.014356
  14 H :    0.008203
  15 H :    0.016304
  16 H :    0.102088
Sum of atomic charges:   -0.0000000

LOEWDIN ATOMIC CHARGES
----------------------
   0 C :   -0.058601
   1 C :   -0.056277
   2 C :    0.001875
   3 N :   -0.161254
   4 C :    0.007235
   5 C :    0.011783
   6 N :   -0.043207
   7 H :    0.024436
   8 H :    0.033186
   9 H :    0.031138
  10 H :    0.039410
  11 H :    0.033026
  12 H :    0.021902
  13 H :    0.022117
  14 H :    0.010447
  15 H :    0.019872
  16 H :    0.062913

  Mayer bond orders larger than 0.1
B(  0-C ,  1-C ) :   1.1458 B(  0-C ,  7-H ) :   0.9522 B(  0-C ,  8-H ) :   0.9627
B(  0-C ,  9-H ) :   0.9633 B(  1-C ,  2-C ) :   1.0339 B(  1-C , 10-H ) :   0.9132
B(  1-C , 11-H ) :   0.9101 B(  2-C ,  3-N ) :   1.8729 B(  2-C ,  6-N ) :   1.1474
B(  3-N ,  4-C ) :   1.0546 B(  3-N ,  6-N ) :   0.1052 B(  4-C ,  5-C ) :   1.0782
B(  4-C , 12-H ) :   0.9453 B(  4-C , 13-H ) :   0.9241 B(  5-C ,  6-N ) :   1.0293
B(  5-C , 14-H ) :   0.9359 B(  5-C , 15-H ) :   0.9397 B(  6-N , 16-H ) :   0.9306

FINAL SINGLE POINT ENERGY      -305.429560316329

DIPOLE MOMENT
-------------
                                X             Y             Z
Electronic contribution:      0.93900      -2.13511      -1.45084
Nuclear contribution   :     -1.08386       2.27975       0.45874
                        -----------------------------------------
Total Dipole Moment    :     -0.14486       0.14464      -0.99210
                        -----------------------------------------
Magnitude (a.u.)       :      1.01300
Magnitude (Debye)      :      2.57483

                             ****ORCA TERMINATED NORMALLY****
TOTAL RUN TIME: 0 days 0 hours 0 minutes 7 seconds 527 msec
