                         Program Version 3.0.3 - RELEASE   -
|  1> ! RI PBE def2-SVP def2-SVP/J NBO PAL2
|  2> % maxcore 2000
|  3> % output
|  4>     # printlevel mini
|  5>     print[ P_Basis ] 0
|  6>     print[ P_SCFInfo ] 1
|  7>     print[ P_SCFIterInfo ] 1
|  8>     print[ P_OrbEn ] 0
|  9>     print[ P_Cartesian ] 0
| 10> end
| 11> *xyz 0 1
| 12>  C        2.6849460000    -1.2988540000     0.4282220000
| 13>  C        2.3453150000    -0.1227730000    -0.0957790000
| 14>  C        2.9479410000     0.5251020000    -1.2383540000
| 15>  N        2.5681650000     1.6944560000    -1.7134900000
| 16>  C        3.3754860000     1.9477960000    -2.7785200000
| 17>  C        4.2624280000     0.9223940000    -2.9609610000
| 18>  N        3.9784360000     0.0243110000    -1.9734540000
| 19>  H        2.1645730000    -1.6945230000     1.2907160000
| 20>  H        3.4854380000    -1.9134370000     0.0284300000
| 21>  H        1.5372970000     0.4556810000     0.3395820000
| 22>  H        3.2809730000     2.8513450000    -3.3607920000
| 23>  H        5.0451520000     0.7580630000    -3.6830220000
| 24>  H        4.4477400000    -0.8500510000    -1.8187080000
| 25> *
| 26>
| 27>                          ****END OF INPUT****
 Total Charge           Charge          ....    0
 Multiplicity           Mult            ....    1
 Number of Electrons    NEL             ....   50
 Basis Dimension        Dim             ....  128

MULLIKEN ATOMIC CHARGES
-----------------------
   0 C :   -0.056002
   1 C :    0.069355
   2 C :   -0.046893
   3 N :   -0.127953
   4 C :    0.010908
   5 C :    0.034307
   6 N :   -0.032540
   7 H :    0.032295
   8 H :    0.004456
   9 H :    0.000258
  10 H :   -0.005714
  11 H :    0.002913
  12 H :    0.114608
Sum of atomic charges:   -0.0000000

LOEWDIN ATOMIC CHARGES
----------------------
   0 C :   -0.067291
   1 C :   -0.032584
   2 C :   -0.026021
   3 N :   -0.104126
   4 C :   -0.048139
   5 C :   -0.039184
   6 N :    0.102579
   7 H :    0.030425
   8 H :    0.013880
   9 H :    0.044101
  10 H :    0.019234
  11 H :    0.023145
  12 H :    0.083981

  Mayer bond orders larger than 0.1
B(  0-C ,  1-C ) :   1.8694 B(  0-C ,  7-H ) :   0.9340 B(  0-C ,  8-H ) :   0.9545
B(  1-C ,  2-C ) :   1.1268 B(  1-C ,  9-H ) :   0.9371 B(  2-C ,  3-N ) :   1.5779
B(  2-C ,  6-N ) :   1.2323 B(  3-N ,  4-C ) :   1.4148 B(  4-C ,  5-C ) :   1.4622
B(  4-C , 10-H ) :   0.9910 B(  5-C ,  6-N ) :   1.2138 B(  5-C , 11-H ) :   0.9776
B(  6-N , 12-H ) :   0.9240

FINAL SINGLE POINT ENERGY      -303.031205362937

DIPOLE MOMENT
-------------
                                X             Y             Z
Electronic contribution:      0.05132       2.25045      -1.75598
Nuclear contribution   :      0.82220      -3.19873       1.53436
                        -----------------------------------------
Total Dipole Moment    :      0.87352      -0.94828      -0.22162
                        -----------------------------------------
Magnitude (a.u.)       :      1.30820
Magnitude (Debye)      :      3.32517

                             ****ORCA TERMINATED NORMALLY****
TOTAL RUN TIME: 0 days 0 hours 0 minutes 6 seconds 766 msec
