                         Program Version 3.0.3 - RELEASE   -
|  1> ! RI PBE def2-SVP def2-SVP/J NBO PAL2
|  2> % maxcore 2000
|  3> % output
|  4>     # printlevel mini
|  5>     print[ P_Basis ] 0
|  6>     print[ P_SCFInfo ] 1
|  7>     print[ P_SCFIterInfo ] 1
|  8>     print[ P_OrbEn ] 0
|  9>     print[ P_Cartesian ] 0
| 10> end
| 11> *xyz 0 1
| 12>  C        1.0056800000    -0.0712790000    -0.0739490000
| 13>  C        2.2066610000    -0.0234680000    -0.0769480000
| 14>  C        3.6197080000     0.0008010000    -0.0802870000
| 15>  N        4.3935570000     1.0664100000    -0.0849960000
| 16>  C        5.6672890000     0.5920070000    -0.0866500000
| 17>  C        5.6752340000    -0.7775400000    -0.0829270000
| 18>  N        4.3633030000    -1.1416280000    -0.0788850000
| 19>  H       -0.0584280000    -0.0956530000    -0.0712400000
| 20>  H        6.5165310000     1.2576200000    -0.0904400000
| 21>  H        6.4744050000    -1.5000170000    -0.0828070000
| 22>  H        3.9958600000    -2.0772520000    -0.0754680000
| 23> *
| 24>
| 25>                          ****END OF INPUT****
 Total Charge           Charge          ....    0
 Multiplicity           Mult            ....    1
 Number of Electrons    NEL             ....   48
 Basis Dimension        Dim             ....  118

MULLIKEN ATOMIC CHARGES
-----------------------
   0 C :   -0.499552
   1 C :    0.478638
   2 C :   -0.022178
   3 N :   -0.117894
   4 C :    0.018788
   5 C :    0.039193
   6 N :   -0.026550
   7 H :    0.011046
   8 H :   -0.004085
   9 H :    0.005273
  10 H :    0.117320
Sum of atomic charges:   -0.0000000

LOEWDIN ATOMIC CHARGES
----------------------
   0 C :   -0.048295
   1 C :   -0.030424
   2 C :   -0.037591
   3 N :   -0.089581
   4 C :   -0.043940
   5 C :   -0.038186
   6 N :    0.112517
   7 H :    0.038095
   8 H :    0.021374
   9 H :    0.025454
  10 H :    0.090576

  Mayer bond orders larger than 0.1
B(  0-C ,  1-C ) :   2.2114 B(  0-C ,  7-H ) :   1.0947 B(  1-C ,  2-C ) :   0.8907
B(  1-C ,  7-H ) :  -0.1063 B(  2-C ,  3-N ) :   1.5999 B(  2-C ,  6-N ) :   1.2417
B(  3-N ,  4-C ) :   1.4154 B(  4-C ,  5-C ) :   1.4514 B(  4-C ,  8-H ) :   0.9900
B(  5-C ,  6-N ) :   1.2184 B(  5-C ,  9-H ) :   0.9767 B(  6-N , 10-H ) :   0.9295

FINAL SINGLE POINT ENERGY      -301.782397243968

DIPOLE MOMENT
-------------
                                X             Y             Z
Electronic contribution:     -1.16572       0.55139       0.00112
Nuclear contribution   :      1.29965      -1.98667       0.00261
                        -----------------------------------------
Total Dipole Moment    :      0.13393      -1.43528       0.00374
                        -----------------------------------------
Magnitude (a.u.)       :      1.44152
Magnitude (Debye)      :      3.66405

                             ****ORCA TERMINATED NORMALLY****
TOTAL RUN TIME: 0 days 0 hours 0 minutes 5 seconds 662 msec
