                         Program Version 3.0.3 - RELEASE   -
|  1> ! RI PBE def2-SVP def2-SVP/J NBO PAL2
|  2> % maxcore 2000
|  3> % output
|  4>     # printlevel mini
|  5>     print[ P_Basis ] 0
|  6>     print[ P_SCFInfo ] 1
|  7>     print[ P_SCFIterInfo ] 1
|  8>     print[ P_OrbEn ] 0
|  9>     print[ P_Cartesian ] 0
| 10> end
| 11> *xyz 0 1
| 12>  C        1.0439080000    -0.2284250000     0.0702370000
| 13>  C        2.5472560000     0.0354780000     0.0276740000
| 14>  C        3.0450670000     0.3449590000    -1.3400040000
| 15>  N        3.1104210000     1.5363730000    -1.8825290000
| 16>  C        3.5731020000     1.3464100000    -3.1557360000
| 17>  C        3.7930290000     0.0215480000    -3.3916670000
| 18>  N        3.4501180000    -0.6063600000    -2.2225100000
| 19>  H        0.7126150000    -0.4239620000     1.0926120000
| 20>  H        0.7729260000    -1.0918440000    -0.5423910000
| 21>  H        0.4960100000     0.6359020000    -0.3088020000
| 22>  H        3.0899390000    -0.8249830000     0.4332460000
| 23>  H        2.7893000000     0.8910350000     0.6610310000
| 24>  H        3.7275990000     2.1738580000    -3.8309980000
| 25>  H        4.1575960000    -0.5157830000    -4.2512320000
| 26>  H        3.5001150000    -1.5941160000    -2.0458330000
| 27> *
| 28>
| 29>                          ****END OF INPUT****
 Total Charge           Charge          ....    0
 Multiplicity           Mult            ....    1
 Number of Electrons    NEL             ....   52
 Basis Dimension        Dim             ....  138

MULLIKEN ATOMIC CHARGES
-----------------------
   0 C :   -0.018645
   1 C :    0.081101
   2 C :   -0.099272
   3 N :   -0.142814
   4 C :    0.003732
   5 C :    0.023047
   6 N :   -0.044071
   7 H :    0.024405
   8 H :    0.010630
   9 H :    0.039309
  10 H :   -0.000308
  11 H :    0.027923
  12 H :   -0.010269
  13 H :   -0.005828
  14 H :    0.111060
Sum of atomic charges:   -0.0000000

LOEWDIN ATOMIC CHARGES
----------------------
   0 C :   -0.059594
   1 C :   -0.051818
   2 C :   -0.019933
   3 N :   -0.122462
   4 C :   -0.053176
   5 C :   -0.057122
   6 N :    0.092313
   7 H :    0.026762
   8 H :    0.021143
   9 H :    0.033676
  10 H :    0.027412
  11 H :    0.044580
  12 H :    0.016751
  13 H :    0.019676
  14 H :    0.081793

  Mayer bond orders larger than 0.1
B(  0-C ,  1-C ) :   1.1214 B(  0-C ,  7-H ) :   0.9623 B(  0-C ,  8-H ) :   0.9655
B(  0-C ,  9-H ) :   0.9651 B(  1-C ,  2-C ) :   1.0710 B(  1-C , 10-H ) :   0.9101
B(  1-C , 11-H ) :   0.9036 B(  2-C ,  3-N ) :   1.6358 B(  2-C ,  6-N ) :   1.2389
B(  3-N ,  4-C ) :   1.3858 B(  4-C ,  5-C ) :   1.5005 B(  4-C , 12-H ) :   0.9914
B(  5-C ,  6-N ) :   1.1904 B(  5-C , 13-H ) :   0.9781 B(  6-N , 14-H ) :   0.9307

FINAL SINGLE POINT ENERGY      -304.248783215132

DIPOLE MOMENT
-------------
                                X             Y             Z
Electronic contribution:      3.86062       1.72633      -4.21705
Nuclear contribution   :     -3.75923      -3.08526       4.23252
                        -----------------------------------------
Total Dipole Moment    :      0.10139      -1.35893       0.01547
                        -----------------------------------------
Magnitude (a.u.)       :      1.36279
Magnitude (Debye)      :      3.46395

                             ****ORCA TERMINATED NORMALLY****
TOTAL RUN TIME: 0 days 0 hours 0 minutes 6 seconds 847 msec
