                         Program Version 3.0.3 - RELEASE   -
|  1> ! RI PBE def2-SVP def2-SVP/J NBO PAL2
|  2> % maxcore 2000
|  3> % output
|  4>     # printlevel mini
|  5>     print[ P_Basis ] 0
|  6>     print[ P_SCFInfo ] 1
|  7>     print[ P_SCFIterInfo ] 1
|  8>     print[ P_OrbEn ] 0
|  9>     print[ P_Cartesian ] 0
| 10> end
| 11> *xyz 0 1
| 12>  C        2.7947170000    -0.4020460000     1.6033510000
| 13>  C        2.5375120000     0.0277110000     0.1676860000
| 14>  C        3.0421900000    -0.8858820000    -0.9467370000
| 15>  N        2.7355540000    -0.3676270000    -2.2703570000
| 16>  C        4.5147580000    -1.3503790000    -0.8866980000
| 17>  N        4.0875580000    -2.7389680000    -1.1126700000
| 18>  C        2.6813830000    -2.3863370000    -0.8675810000
| 19>  H        2.3863340000     0.3334250000     2.3003400000
| 20>  H        3.8620780000    -0.4934400000     1.8175490000
| 21>  H        2.3253220000    -1.3614300000     1.8330280000
| 22>  H        2.9812440000     1.0183730000     0.0046760000
| 23>  H        1.4576190000     0.1578430000     0.0200980000
| 24>  H        3.1499250000     0.5510500000    -2.3888930000
| 25>  H        1.7330480000    -0.2495960000    -2.3741410000
| 26>  H        4.9877910000    -1.1695770000     0.0849600000
| 27>  H        5.1573120000    -0.9492410000    -1.6761070000
| 28>  H        4.4762510000    -3.4149980000    -0.4701170000
| 29>  H        2.2978700000    -2.6895130000     0.1130200000
| 30>  H        1.9938540000    -2.7367690000    -1.6431150000
| 31> *
| 32>
| 33>                          ****END OF INPUT****
 Total Charge           Charge          ....    0
 Multiplicity           Mult            ....    1
 Number of Electrons    NEL             ....   56
 Basis Dimension        Dim             ....  158

MULLIKEN ATOMIC CHARGES
-----------------------
   0 C :   -0.025081
   1 C :    0.055918
   2 C :   -0.443880
   3 N :   -0.122505
   4 C :    0.279640
   5 N :   -0.281492
   6 C :    0.281940
   7 H :    0.021509
   8 H :    0.019854
   9 H :    0.017036
  10 H :   -0.005333
  11 H :    0.000309
  12 H :    0.083223
  13 H :    0.082621
  14 H :   -0.015121
  15 H :   -0.010217
  16 H :    0.089630
  17 H :   -0.019348
  18 H :   -0.008703
Sum of atomic charges:    0.0000000

LOEWDIN ATOMIC CHARGES
----------------------
   0 C :   -0.070923
   1 C :   -0.058360
   2 C :   -0.030114
   3 N :   -0.078191
   4 C :    0.031810
   5 N :   -0.105849
   6 C :    0.032340
   7 H :    0.030337
   8 H :    0.022195
   9 H :    0.021965
  10 H :    0.020437
  11 H :    0.021212
  12 H :    0.047952
  13 H :    0.047885
  14 H :    0.001150
  15 H :    0.010365
  16 H :    0.044742
  17 H :    0.000598
  18 H :    0.010451

  Mayer bond orders larger than 0.1
B(  0-C ,  1-C ) :   1.1013 B(  0-C ,  7-H ) :   0.9503 B(  0-C ,  8-H ) :   0.9610
B(  0-C ,  9-H ) :   0.9581 B(  1-C ,  2-C ) :   1.0062 B(  1-C , 10-H ) :   0.9208
B(  1-C , 11-H ) :   0.9246 B(  2-C ,  3-N ) :   1.0286 B(  2-C ,  4-C ) :   1.0348
B(  2-C ,  6-C ) :   1.0343 B(  3-N , 12-H ) :   0.9656 B(  3-N , 13-H ) :   0.9674
B(  4-C ,  5-N ) :   1.0784 B(  4-C , 14-H ) :   0.9215 B(  4-C , 15-H ) :   0.9038
B(  5-N ,  6-C ) :   1.0791 B(  5-N , 16-H ) :   0.9441 B(  6-C , 17-H ) :   0.9198
B(  6-C , 18-H ) :   0.9053

FINAL SINGLE POINT ENERGY      -306.582066443823

DIPOLE MOMENT
-------------
                                X             Y             Z
Electronic contribution:      1.12906      -2.07532      -3.90663
Nuclear contribution   :     -1.39663       2.55518       4.60737
                        -----------------------------------------
Total Dipole Moment    :     -0.26757       0.47986       0.70074
                        -----------------------------------------
Magnitude (a.u.)       :      0.89045
Magnitude (Debye)      :      2.26335

                             ****ORCA TERMINATED NORMALLY****
TOTAL RUN TIME: 0 days 0 hours 0 minutes 7 seconds 954 msec
