                         Program Version 3.0.3 - RELEASE   -
|  1> ! RI PBE def2-SVP def2-SVP/J NBO PAL2
|  2> % maxcore 2000
|  3> % output
|  4>     # printlevel mini
|  5>     print[ P_Basis ] 0
|  6>     print[ P_SCFInfo ] 1
|  7>     print[ P_SCFIterInfo ] 1
|  8>     print[ P_OrbEn ] 0
|  9>     print[ P_Cartesian ] 0
| 10> end
| 11> *xyz 0 1
| 12>  C        1.2481030000     0.2442220000    -0.7525690000
| 13>  C        2.2684020000    -0.0109100000     0.0681200000
| 14>  C        2.9978550000     0.9893370000     0.8052010000
| 15>  N        4.0005390000     0.6724780000     1.5457460000
| 16>  N        4.5708940000     1.8081420000     2.0461710000
| 17>  C        3.6128020000     2.9119580000     1.9598960000
| 18>  C        2.7688730000     2.4800080000     0.7648680000
| 19>  H        0.7385950000    -0.5527450000    -1.2793340000
| 20>  H        0.8916250000     1.2537390000    -0.9260660000
| 21>  H        2.6098440000    -1.0306430000     0.2201070000
| 22>  H        4.9951570000     1.6369680000     2.9454030000
| 23>  H        4.1230910000     3.8649510000     1.8178200000
| 24>  H        2.9946710000     2.9739460000     2.8662460000
| 25>  H        3.1514900000     2.8907930000    -0.1769760000
| 26>  H        1.7193710000     2.7627670000     0.8508690000
| 27> *
| 28>
| 29>                          ****END OF INPUT****
 Total Charge           Charge          ....    0
 Multiplicity           Mult            ....    1
 Number of Electrons    NEL             ....   52
 Basis Dimension        Dim             ....  138

MULLIKEN ATOMIC CHARGES
-----------------------
   0 C :   -0.053954
   1 C :    0.045816
   2 C :   -0.171139
   3 N :   -0.091838
   4 N :   -0.129052
   5 C :    0.124670
   6 C :    0.032483
   7 H :    0.025945
   8 H :    0.014287
   9 H :   -0.010946
  10 H :    0.117411
  11 H :    0.016195
  12 H :    0.018203
  13 H :    0.031374
  14 H :    0.030546
Sum of atomic charges:   -0.0000000

LOEWDIN ATOMIC CHARGES
----------------------
   0 C :   -0.068048
   1 C :   -0.036369
   2 C :   -0.067689
   3 N :   -0.042942
   4 N :   -0.003960
   5 C :    0.015208
   6 C :   -0.051260
   7 H :    0.025627
   8 H :    0.019056
   9 H :    0.034991
  10 H :    0.061115
  11 H :    0.024790
  12 H :    0.016027
  13 H :    0.038204
  14 H :    0.035250

  Mayer bond orders larger than 0.1
B(  0-C ,  1-C ) :   1.8524 B(  0-C ,  3-N ) :   0.1046 B(  0-C ,  7-H ) :   0.9403
B(  0-C ,  8-H ) :   0.9423 B(  1-C ,  2-C ) :   1.1611 B(  1-C ,  9-H ) :   0.9505
B(  2-C ,  3-N ) :   1.7629 B(  2-C ,  4-N ) :   0.1007 B(  2-C ,  6-C ) :   1.0302
B(  3-N ,  4-N ) :   1.1010 B(  4-N ,  5-C ) :   0.9877 B(  4-N , 10-H ) :   0.9371
B(  5-C ,  6-C ) :   1.1102 B(  5-C , 11-H ) :   0.9327 B(  5-C , 12-H ) :   0.9341
B(  6-C , 13-H ) :   0.8907 B(  6-C , 14-H ) :   0.9223

FINAL SINGLE POINT ENERGY      -304.188511475494

DIPOLE MOMENT
-------------
                                X             Y             Z
Electronic contribution:      3.01619      -2.16802       1.54365
Nuclear contribution   :     -3.21188       2.94409      -1.15675
                        -----------------------------------------
Total Dipole Moment    :     -0.19568       0.77607       0.38690
                        -----------------------------------------
Magnitude (a.u.)       :      0.88897
Magnitude (Debye)      :      2.25958

                             ****ORCA TERMINATED NORMALLY****
TOTAL RUN TIME: 0 days 0 hours 0 minutes 7 seconds 274 msec
