                         Program Version 3.0.3 - RELEASE   -
|  1> ! RI PBE def2-SVP def2-SVP/J NBO PAL2
|  2> % maxcore 2000
|  3> % output
|  4>     # printlevel mini
|  5>     print[ P_Basis ] 0
|  6>     print[ P_SCFInfo ] 1
|  7>     print[ P_SCFIterInfo ] 1
|  8>     print[ P_OrbEn ] 0
|  9>     print[ P_Cartesian ] 0
| 10> end
| 11> *xyz 0 1
| 12>  C        2.1143490000    -1.2772220000    -0.0214940000
| 13>  C        2.1818880000     0.0387210000     0.1690980000
| 14>  C        2.9503370000     0.6809620000     1.2132670000
| 15>  N        2.9663540000     1.9650630000     1.3347310000
| 16>  N        3.7883080000     2.3210480000     2.4256370000
| 17>  C        4.2590400000     1.2550290000     2.9507590000
| 18>  C        3.7957400000     0.0280870000     2.2553440000
| 19>  H        1.5202060000    -1.6984070000    -0.8229020000
| 20>  H        2.6472620000    -1.9778290000     0.6127150000
| 21>  H        1.6405740000     0.7223640000    -0.4773050000
| 22>  H        4.9199430000     1.2964690000     3.8087100000
| 23>  H        3.2294060000    -0.6415990000     2.9111540000
| 24>  H        4.6206030000    -0.5571880000     1.8353960000
| 25> *
| 26>
| 27>                          ****END OF INPUT****
 Total Charge           Charge          ....    0
 Multiplicity           Mult            ....    1
 Number of Electrons    NEL             ....   50
 Basis Dimension        Dim             ....  128

MULLIKEN ATOMIC CHARGES
-----------------------
   0 C :   -0.031479
   1 C :    0.063446
   2 C :   -0.144456
   3 N :   -0.096876
   4 N :   -0.075223
   5 C :   -0.009279
   6 C :    0.061560
   7 H :    0.039828
   8 H :    0.024399
   9 H :    0.004335
  10 H :    0.018567
  11 H :    0.073322
  12 H :    0.071855
Sum of atomic charges:   -0.0000000

LOEWDIN ATOMIC CHARGES
----------------------
   0 C :   -0.030685
   1 C :   -0.028767
   2 C :   -0.024660
   3 N :   -0.057487
   4 N :   -0.048110
   5 C :   -0.001430
   6 C :   -0.070626
   7 H :    0.032395
   8 H :    0.023471
   9 H :    0.042223
  10 H :    0.025286
  11 H :    0.069231
  12 H :    0.069159

  Mayer bond orders larger than 0.1
B(  0-C ,  1-C ) :   1.8736 B(  0-C ,  3-N ) :   0.1055 B(  0-C ,  7-H ) :   0.9394
B(  0-C ,  8-H ) :   0.9426 B(  1-C ,  2-C ) :   1.1261 B(  1-C ,  9-H ) :   0.9501
B(  2-C ,  3-N ) :   1.7809 B(  2-C ,  6-C ) :   1.0243 B(  3-N ,  4-N ) :   1.0394
B(  4-N ,  5-C ) :   1.8757 B(  5-C ,  6-C ) :   1.0175 B(  5-C , 10-H ) :   0.9701
B(  6-C , 11-H ) :   0.8761 B(  6-C , 12-H ) :   0.8750

FINAL SINGLE POINT ENERGY      -302.971449399112

DIPOLE MOMENT
-------------
                                X             Y             Z
Electronic contribution:      0.57710       4.91898       1.13601
Nuclear contribution   :     -0.33886      -6.60343      -0.95633
                        -----------------------------------------
Total Dipole Moment    :      0.23824      -1.68445       0.17968
                        -----------------------------------------
Magnitude (a.u.)       :      1.71067
Magnitude (Debye)      :      4.34819

                             ****ORCA TERMINATED NORMALLY****
TOTAL RUN TIME: 0 days 0 hours 0 minutes 6 seconds 288 msec
