                         Program Version 3.0.3 - RELEASE   -
|  1> ! RI PBE def2-SVP def2-SVP/J NBO PAL2
|  2> % maxcore 2000
|  3> % output
|  4>     # printlevel mini
|  5>     print[ P_Basis ] 0
|  6>     print[ P_SCFInfo ] 1
|  7>     print[ P_SCFIterInfo ] 1
|  8>     print[ P_OrbEn ] 0
|  9>     print[ P_Cartesian ] 0
| 10> end
| 11> *xyz 0 1
| 12>  C        1.1045920000     0.0103240000     0.2268880000
| 13>  C        2.3052620000    -0.0153480000     0.1326850000
| 14>  C        3.7075800000     0.0514090000     0.0243180000
| 15>  N        4.4600920000    -0.9928620000    -0.0542090000
| 16>  N        5.7308590000    -0.6146960000    -0.1438640000
| 17>  C        5.9386790000     0.8240520000    -0.1394620000
| 18>  C        4.4968010000     1.3450390000    -0.0107370000
| 19>  H        0.0439280000     0.0079590000     0.3095810000
| 20>  H        6.4352130000    -1.3214610000    -0.2199790000
| 21>  H        6.4206220000     1.1591470000    -1.0633790000
| 22>  H        6.5689430000     1.1320110000     0.7006480000
| 23>  H        4.1960350000     1.9696070000    -0.8547830000
| 24>  H        4.3380830000     1.9298190000     0.8981040000
| 25> *
| 26>
| 27>                          ****END OF INPUT****
 Total Charge           Charge          ....    0
 Multiplicity           Mult            ....    1
 Number of Electrons    NEL             ....   50
 Basis Dimension        Dim             ....  128

MULLIKEN ATOMIC CHARGES
-----------------------
   0 C :   -0.483301
   1 C :    0.469637
   2 C :   -0.203456
   3 N :   -0.038208
   4 N :   -0.155755
   5 C :    0.162570
   6 C :   -0.006116
   7 H :   -0.000230
   8 H :    0.118460
   9 H :    0.026268
  10 H :    0.028836
  11 H :    0.041033
  12 H :    0.040261
Sum of atomic charges:    0.0000000

LOEWDIN ATOMIC CHARGES
----------------------
   0 C :   -0.078788
   1 C :   -0.025476
   2 C :   -0.103843
   3 N :   -0.015146
   4 N :    0.019600
   5 C :    0.020632
   6 C :   -0.040343
   7 H :    0.032825
   8 H :    0.066076
   9 H :    0.022421
  10 H :    0.023335
  11 H :    0.039478
  12 H :    0.039230

  Mayer bond orders larger than 0.1
B(  0-C ,  1-C ) :   2.2082 B(  0-C ,  7-H ) :   1.0948 B(  1-C ,  2-C ) :   1.0261
B(  1-C ,  7-H ) :  -0.1051 B(  2-C ,  3-N ) :   1.7387 B(  2-C ,  4-N ) :   0.1550
B(  2-C ,  6-C ) :   1.0489 B(  3-N ,  4-N ) :   1.1555 B(  4-N ,  5-C ) :   0.9574
B(  4-N ,  8-H ) :   0.9519 B(  5-C ,  6-C ) :   1.1029 B(  5-C ,  9-H ) :   0.9373
B(  5-C , 10-H ) :   0.9372 B(  6-C , 11-H ) :   0.9191 B(  6-C , 12-H ) :   0.9185

FINAL SINGLE POINT ENERGY      -302.936676324855

DIPOLE MOMENT
-------------
                                X             Y             Z
Electronic contribution:     -2.42484      -3.43751       0.13360
Nuclear contribution   :      3.44792       4.02683      -0.20476
                        -----------------------------------------
Total Dipole Moment    :      1.02308       0.58932      -0.07116
                        -----------------------------------------
Magnitude (a.u.)       :      1.18281
Magnitude (Debye)      :      3.00647

                             ****ORCA TERMINATED NORMALLY****
TOTAL RUN TIME: 0 days 0 hours 0 minutes 6 seconds 306 msec
