                         Program Version 3.0.3 - RELEASE   -
|  1> ! RI PBE def2-SVP def2-SVP/J NBO PAL2
|  2> % maxcore 2000
|  3> % output
|  4>     # printlevel mini
|  5>     print[ P_Basis ] 0
|  6>     print[ P_SCFInfo ] 1
|  7>     print[ P_SCFIterInfo ] 1
|  8>     print[ P_OrbEn ] 0
|  9>     print[ P_Cartesian ] 0
| 10> end
| 11> *xyz 0 1
| 12>  C        0.9371750000     0.0187090000     0.0535750000
| 13>  C        2.1389510000     0.0064430000     0.0545560000
| 14>  C        3.5505300000    -0.0687230000     0.0567250000
| 15>  N        4.3166900000     0.9690230000     0.0636360000
| 16>  N        5.6603050000     0.5393590000     0.0639230000
| 17>  C        5.6907120000    -0.7392020000     0.0577170000
| 18>  C        4.3353900000    -1.3374340000     0.0524650000
| 19>  H       -0.1271370000     0.0519520000     0.0512510000
| 20>  H        6.6313100000    -1.2773780000     0.0568920000
| 21>  H        4.1325570000    -1.9620370000     0.9289340000
| 22>  H        4.1358080000    -1.9539230000    -0.8304660000
| 23> *
| 24>
| 25>                          ****END OF INPUT****
 Total Charge           Charge          ....    0
 Multiplicity           Mult            ....    1
 Number of Electrons    NEL             ....   48
 Basis Dimension        Dim             ....  118

MULLIKEN ATOMIC CHARGES
-----------------------
   0 C :   -0.437236
   1 C :    0.483771
   2 C :   -0.157687
   3 N :   -0.077086
   4 N :   -0.076749
   5 C :    0.015464
   6 C :    0.042473
   7 H :    0.018883
   8 H :    0.019981
   9 H :    0.084195
  10 H :    0.083991
Sum of atomic charges:   -0.0000000

LOEWDIN ATOMIC CHARGES
----------------------
   0 C :   -0.022808
   1 C :   -0.017560
   2 C :   -0.038472
   3 N :   -0.038929
   4 N :   -0.044147
   5 C :    0.002299
   6 C :   -0.059360
   7 H :    0.041908
   8 H :    0.028064
   9 H :    0.074530
  10 H :    0.074476

  Mayer bond orders larger than 0.1
B(  0-C ,  1-C ) :   2.2360 B(  0-C ,  7-H ) :   1.0905 B(  1-C ,  2-C ) :   0.9719
B(  1-C ,  7-H ) :  -0.1013 B(  2-C ,  3-N ) :   1.7898 B(  2-C ,  6-C ) :   1.0324
B(  3-N ,  4-N ) :   1.0378 B(  4-N ,  5-C ) :   1.8621 B(  5-C ,  6-C ) :   1.0192
B(  5-C ,  8-H ) :   0.9680 B(  6-C ,  9-H ) :   0.8844 B(  6-C , 10-H ) :   0.8844

FINAL SINGLE POINT ENERGY      -301.721230456237

DIPOLE MOMENT
-------------
                                X             Y             Z
Electronic contribution:      0.03171       2.79164       0.01287
Nuclear contribution   :     -0.57882      -4.42617      -0.02198
                        -----------------------------------------
Total Dipole Moment    :     -0.54712      -1.63453      -0.00912
                        -----------------------------------------
Magnitude (a.u.)       :      1.72369
Magnitude (Debye)      :      4.38127

                             ****ORCA TERMINATED NORMALLY****
TOTAL RUN TIME: 0 days 0 hours 0 minutes 5 seconds 602 msec
