                         Program Version 3.0.3 - RELEASE   -
|  1> ! RI PBE def2-SVP def2-SVP/J NBO PAL2
|  2> % maxcore 2000
|  3> % output
|  4>     # printlevel mini
|  5>     print[ P_Basis ] 0
|  6>     print[ P_SCFInfo ] 1
|  7>     print[ P_SCFIterInfo ] 1
|  8>     print[ P_OrbEn ] 0
|  9>     print[ P_Cartesian ] 0
| 10> end
| 11> *xyz 0 1
| 12>  C        2.8295840000    -0.3185360000     1.5298690000
| 13>  C        2.6432590000     0.1168140000     0.0797960000
| 14>  C        2.9550250000     1.5523310000    -0.1558940000
| 15>  N        3.8578670000     1.9299500000    -0.9744470000
| 16>  N        3.8395900000     3.3113160000    -1.0747690000
| 17>  C        3.1699880000     3.8486330000     0.1112630000
| 18>  C        2.2044520000     2.7178400000     0.4425670000
| 19>  H        2.5887390000    -1.3769850000     1.6491650000
| 20>  H        2.1823880000     0.2442180000     2.2070550000
| 21>  H        3.8627390000    -0.1690310000     1.8515980000
| 22>  H        1.6051280000    -0.0755660000    -0.2212360000
| 23>  H        3.2806970000    -0.4754210000    -0.5801800000
| 24>  H        4.7757670000     3.6537890000    -1.2356170000
| 25>  H        2.6813630000     4.7984220000    -0.1088910000
| 26>  H        3.8755370000     3.9975440000     0.9418770000
| 27>  H        1.2421750000     2.8384200000    -0.0723870000
| 28>  H        1.9994120000     2.6163620000     1.5086290000
| 29> *
| 30>
| 31>                          ****END OF INPUT****
 Total Charge           Charge          ....    0
 Multiplicity           Mult            ....    1
 Number of Electrons    NEL             ....   54
 Basis Dimension        Dim             ....  148

MULLIKEN ATOMIC CHARGES
-----------------------
   0 C :   -0.044973
   1 C :    0.103604
   2 C :   -0.246333
   3 N :   -0.091497
   4 N :   -0.145948
   5 C :    0.121572
   6 C :    0.030856
   7 H :    0.024321
   8 H :    0.021234
   9 H :    0.024920
  10 H :    0.009502
  11 H :    0.013638
  12 H :    0.110618
  13 H :    0.011356
  14 H :    0.011716
  15 H :    0.022974
  16 H :    0.022439
Sum of atomic charges:   -0.0000000

LOEWDIN ATOMIC CHARGES
----------------------
   0 C :   -0.064081
   1 C :   -0.045657
   2 C :   -0.062638
   3 N :   -0.056349
   4 N :   -0.028151
   5 C :    0.010889
   6 C :   -0.056270
   7 H :    0.028549
   8 H :    0.022505
   9 H :    0.026677
  10 H :    0.031444
  11 H :    0.036332
  12 H :    0.055895
  13 H :    0.022225
  14 H :    0.012179
  15 H :    0.035953
  16 H :    0.030499

  Mayer bond orders larger than 0.1
B(  0-C ,  1-C ) :   1.1054 B(  0-C ,  7-H ) :   0.9597 B(  0-C ,  8-H ) :   0.9662
B(  0-C ,  9-H ) :   0.9676 B(  1-C ,  2-C ) :   1.0922 B(  1-C , 10-H ) :   0.9102
B(  1-C , 11-H ) :   0.9088 B(  2-C ,  3-N ) :   1.8955 B(  2-C ,  4-N ) :   0.1018
B(  2-C ,  6-C ) :   1.0136 B(  3-N ,  4-N ) :   1.0658 B(  4-N ,  5-C ) :   0.9970
B(  4-N , 12-H ) :   0.9397 B(  5-C ,  6-C ) :   1.1100 B(  5-C , 13-H ) :   0.9341
B(  5-C , 14-H ) :   0.9312 B(  6-C , 15-H ) :   0.8842 B(  6-C , 16-H ) :   0.9332

FINAL SINGLE POINT ENERGY      -305.402260450497

DIPOLE MOMENT
-------------
                                X             Y             Z
Electronic contribution:      2.30658       2.94876      -4.77389
Nuclear contribution   :     -2.49369      -2.58612       5.42776
                        -----------------------------------------
Total Dipole Moment    :     -0.18712       0.36264       0.65387
                        -----------------------------------------
Magnitude (a.u.)       :      0.77076
Magnitude (Debye)      :      1.95911

                             ****ORCA TERMINATED NORMALLY****
TOTAL RUN TIME: 0 days 0 hours 0 minutes 8 seconds 77 msec
