                         Program Version 3.0.3 - RELEASE   -
|  1> ! RI PBE def2-SVP def2-SVP/J NBO PAL2
|  2> % maxcore 2000
|  3> % output
|  4>     # printlevel mini
|  5>     print[ P_Basis ] 0
|  6>     print[ P_SCFInfo ] 1
|  7>     print[ P_SCFIterInfo ] 1
|  8>     print[ P_OrbEn ] 0
|  9>     print[ P_Cartesian ] 0
| 10> end
| 11> *xyz 0 1
| 12>  C        1.1689450000    -0.6126700000    -0.1562330000
| 13>  C        2.4819630000     0.1139670000     0.1201550000
| 14>  C        3.0050640000     0.8543070000    -1.0592390000
| 15>  N        3.1716400000     2.1255760000    -1.0560360000
| 16>  N        3.6807250000     2.5359440000    -2.3171440000
| 17>  C        3.8136090000     1.5058920000    -3.0593090000
| 18>  C        3.3977040000     0.2589100000    -2.3711600000
| 19>  H        0.8162080000    -1.1196030000     0.7439130000
| 20>  H        1.2816320000    -1.3683880000    -0.9375920000
| 21>  H        0.3941020000     0.0887400000    -0.4733400000
| 22>  H        3.2356560000    -0.6123930000     0.4467030000
| 23>  H        2.3574430000     0.8353090000     0.9300830000
| 24>  H        4.1893200000     1.5884860000    -4.0726840000
| 25>  H        4.2076290000    -0.4737670000    -2.2806020000
| 26>  H        2.5700790000    -0.2495310000    -2.8782050000
| 27> *
| 28>
| 29>                          ****END OF INPUT****
 Total Charge           Charge          ....    0
 Multiplicity           Mult            ....    1
 Number of Electrons    NEL             ....   52
 Basis Dimension        Dim             ....  138

MULLIKEN ATOMIC CHARGES
-----------------------
   0 C :   -0.055741
   1 C :    0.091427
   2 C :   -0.194504
   3 N :   -0.093328
   4 N :   -0.080745
   5 C :   -0.004848
   6 C :    0.032570
   7 H :    0.032039
   8 H :    0.028123
   9 H :    0.039785
  10 H :    0.026624
  11 H :    0.025036
  12 H :    0.013901
  13 H :    0.070071
  14 H :    0.069590
Sum of atomic charges:    0.0000000

LOEWDIN ATOMIC CHARGES
----------------------
   0 C :   -0.061335
   1 C :   -0.046043
   2 C :   -0.014014
   3 N :   -0.070148
   4 N :   -0.049878
   5 C :   -0.009704
   6 C :   -0.075525
   7 H :    0.032842
   8 H :    0.023823
   9 H :    0.032560
  10 H :    0.039106
  11 H :    0.041095
  12 H :    0.023514
  13 H :    0.067592
  14 H :    0.066114

  Mayer bond orders larger than 0.1
B(  0-C ,  1-C ) :   1.1065 B(  0-C ,  7-H ) :   0.9597 B(  0-C ,  8-H ) :   0.9669
B(  0-C ,  9-H ) :   0.9674 B(  1-C ,  2-C ) :   1.0748 B(  1-C , 10-H ) :   0.9114
B(  1-C , 11-H ) :   0.9067 B(  2-C ,  3-N ) :   1.8830 B(  2-C ,  6-C ) :   1.0170
B(  3-N ,  4-N ) :   1.0184 B(  4-N ,  5-C ) :   1.8968 B(  5-C ,  6-C ) :   1.0229
B(  5-C , 12-H ) :   0.9675 B(  6-C , 13-H ) :   0.8840 B(  6-C , 14-H ) :   0.8837

FINAL SINGLE POINT ENERGY      -304.189363839420

DIPOLE MOMENT
-------------
                                X             Y             Z
Electronic contribution:      3.96083       6.48332      -2.78262
Nuclear contribution   :     -4.11712      -8.19757       2.48085
                        -----------------------------------------
Total Dipole Moment    :     -0.15629      -1.71424      -0.30177
                        -----------------------------------------
Magnitude (a.u.)       :      1.74761
Magnitude (Debye)      :      4.44206

                             ****ORCA TERMINATED NORMALLY****
TOTAL RUN TIME: 0 days 0 hours 0 minutes 6 seconds 556 msec
