                         Program Version 3.0.3 - RELEASE   -
|  1> ! RI PBE def2-SVP def2-SVP/J NBO PAL2
|  2> % maxcore 2000
|  3> % output
|  4>     # printlevel mini
|  5>     print[ P_Basis ] 0
|  6>     print[ P_SCFInfo ] 1
|  7>     print[ P_SCFIterInfo ] 1
|  8>     print[ P_OrbEn ] 0
|  9>     print[ P_Cartesian ] 0
| 10> end
| 11> *xyz 0 1
| 12>  C        3.0354740000    -1.6031030000     1.2124540000
| 13>  C        2.8854280000    -0.5370560000     0.1395380000
| 14>  C        3.4636470000     0.8210300000     0.5237990000
| 15>  C        4.9468760000     0.8071860000     0.7795550000
| 16>  C        5.6078990000     1.9766270000     1.4610190000
| 17>  C        5.5106610000     0.6703640000     2.1699990000
| 18>  N        6.7080330000    -0.0526600000     2.4836860000
| 19>  H        2.5786280000    -2.5455500000     0.9014560000
| 20>  H        2.5562010000    -1.2940880000     2.1460740000
| 21>  H        4.0869430000    -1.8017220000     1.4328400000
| 22>  H        1.8247640000    -0.4120880000    -0.1025750000
| 23>  H        3.3665100000    -0.8797970000    -0.7842370000
| 24>  H        2.9534240000     1.1955820000     1.4207560000
| 25>  H        3.2388280000     1.5405440000    -0.2726470000
| 26>  H        5.5422000000     0.3356100000    -0.0000440000
| 27>  H        4.9815040000     2.7964720000     1.7933700000
| 28>  H        6.5873720000     2.2830760000     1.1101690000
| 29>  H        4.7729110000     0.6211690000     2.9665880000
| 30>  H        7.4539630000     0.1875420000     1.8434450000
| 31>  H        6.5582360000    -1.0524380000     2.4135550000
| 32> *
| 33>
| 34>                          ****END OF INPUT****
 Total Charge           Charge          ....    0
 Multiplicity           Mult            ....    1
 Number of Electrons    NEL             ....   56
 Basis Dimension        Dim             ....  163

MULLIKEN ATOMIC CHARGES
-----------------------
   0 C :   -0.020028
   1 C :   -0.024680
   2 C :    0.078929
   3 C :   -0.129055
   4 C :    0.013369
   5 C :   -0.087369
   6 N :   -0.116049
   7 H :    0.016111
   8 H :    0.015805
   9 H :    0.018412
  10 H :    0.010267
  11 H :    0.002823
  12 H :   -0.010896
  13 H :    0.007246
  14 H :   -0.006269
  15 H :    0.025039
  16 H :    0.019582
  17 H :    0.017700
  18 H :    0.077533
  19 H :    0.091529
Sum of atomic charges:    0.0000000

LOEWDIN ATOMIC CHARGES
----------------------
   0 C :   -0.067373
   1 C :   -0.045871
   2 C :   -0.036823
   3 C :   -0.066417
   4 C :   -0.047757
   5 C :   -0.009963
   6 N :   -0.083443
   7 H :    0.025894
   8 H :    0.024124
   9 H :    0.021692
  10 H :    0.024442
  11 H :    0.021869
  12 H :    0.022497
  13 H :    0.025565
  14 H :    0.017492
  15 H :    0.026640
  16 H :    0.024436
  17 H :    0.019283
  18 H :    0.050927
  19 H :    0.052789

  Mayer bond orders larger than 0.1
B(  0-C ,  1-C ) :   1.1193 B(  0-C ,  7-H ) :   0.9589 B(  0-C ,  8-H ) :   0.9653
B(  0-C ,  9-H ) :   0.9636 B(  1-C ,  2-C ) :   1.1088 B(  1-C , 10-H ) :   0.9321
B(  1-C , 11-H ) :   0.9325 B(  2-C ,  3-C ) :   1.0691 B(  2-C , 12-H ) :   0.9140
B(  2-C , 13-H ) :   0.9170 B(  3-C ,  4-C ) :   0.9713 B(  3-C ,  5-C ) :   0.9046
B(  3-C , 14-H ) :   0.9343 B(  4-C ,  5-C ) :   1.0184 B(  4-C , 15-H ) :   0.9362
B(  4-C , 16-H ) :   0.9370 B(  5-C ,  6-N ) :   1.1656 B(  5-C , 17-H ) :   0.9344
B(  6-N , 18-H ) :   0.9588 B(  6-N , 19-H ) :   0.9720

FINAL SINGLE POINT ENERGY      -290.570518802504

DIPOLE MOMENT
-------------
                                X             Y             Z
Electronic contribution:      3.09457       2.06831       1.02392
Nuclear contribution   :     -3.12955      -2.27130      -1.45035
                        -----------------------------------------
Total Dipole Moment    :     -0.03498      -0.20299      -0.42644
                        -----------------------------------------
Magnitude (a.u.)       :      0.47358
Magnitude (Debye)      :      1.20373

                             ****ORCA TERMINATED NORMALLY****
TOTAL RUN TIME: 0 days 0 hours 0 minutes 8 seconds 777 msec
