                         Program Version 3.0.3 - RELEASE   -
|  1> ! RI PBE def2-SVP def2-SVP/J NBO PAL2
|  2> % maxcore 2000
|  3> % output
|  4>     # printlevel mini
|  5>     print[ P_Basis ] 0
|  6>     print[ P_SCFInfo ] 1
|  7>     print[ P_SCFIterInfo ] 1
|  8>     print[ P_OrbEn ] 0
|  9>     print[ P_Cartesian ] 0
| 10> end
| 11> *xyz 0 1
| 12>  C        0.9534090000     0.1710700000     0.4421140000
| 13>  C        2.4433820000     0.1842590000     0.4018460000
| 14>  C        3.2027070000     1.2190660000     0.7493830000
| 15>  C        4.6720680000     1.2991840000     0.6768800000
| 16>  C        5.5131120000     0.2527260000    -0.0014390000
| 17>  C        5.3751620000     1.5864010000    -0.6430340000
| 18>  N        6.5172540000     2.4353230000    -0.7717860000
| 19>  H        0.5297540000    -0.0140640000    -0.5505970000
| 20>  H        0.5553660000     1.1200450000     0.8074070000
| 21>  H        0.5820870000    -0.6275440000     1.0926080000
| 22>  H        2.9228630000    -0.7330460000     0.0655130000
| 23>  H        2.7066320000     2.1235490000     1.1025020000
| 24>  H        5.1436610000     1.7844400000     1.5277870000
| 25>  H        5.0260440000    -0.5967590000    -0.4627000000
| 26>  H        6.4678390000     0.0158760000     0.4553910000
| 27>  H        4.7118280000     1.6272060000    -1.5018880000
| 28>  H        7.2111210000     2.2273470000    -0.0655470000
| 29>  H        6.2640920000     3.4114200000    -0.6783600000
| 30> *
| 31>
| 32>                          ****END OF INPUT****
 Total Charge           Charge          ....    0
 Multiplicity           Mult            ....    1
 Number of Electrons    NEL             ....   54
 Basis Dimension        Dim             ....  153

MULLIKEN ATOMIC CHARGES
-----------------------
   0 C :    0.047445
   1 C :   -0.113891
   2 C :    0.011788
   3 C :   -0.051446
   4 C :    0.011972
   5 C :   -0.080948
   6 N :   -0.111743
   7 H :    0.027423
   8 H :    0.014695
   9 H :    0.029005
  10 H :   -0.014017
  11 H :   -0.019927
  12 H :   -0.003356
  13 H :    0.032682
  14 H :    0.022394
  15 H :    0.023727
  16 H :    0.078821
  17 H :    0.095376
Sum of atomic charges:   -0.0000000

LOEWDIN ATOMIC CHARGES
----------------------
   0 C :   -0.064182
   1 C :   -0.055687
   2 C :   -0.045974
   3 C :   -0.065205
   4 C :   -0.041672
   5 C :    0.003691
   6 N :   -0.077578
   7 H :    0.033982
   8 H :    0.028786
   9 H :    0.034548
  10 H :    0.018432
  11 H :    0.022355
  12 H :    0.023140
  13 H :    0.027384
  14 H :    0.026804
  15 H :    0.022562
  16 H :    0.051796
  17 H :    0.056818

  Mayer bond orders larger than 0.1
B(  0-C ,  1-C ) :   1.0841 B(  0-C ,  7-H ) :   0.9472 B(  0-C ,  8-H ) :   0.9611
B(  0-C ,  9-H ) :   0.9470 B(  1-C ,  2-C ) :   1.9032 B(  1-C , 10-H ) :   0.9392
B(  2-C ,  3-C ) :   1.0737 B(  2-C , 11-H ) :   0.9528 B(  3-C ,  4-C ) :   0.9823
B(  3-C ,  5-C ) :   0.8791 B(  3-C , 12-H ) :   0.9158 B(  4-C ,  5-C ) :   1.0185
B(  4-C , 13-H ) :   0.9291 B(  4-C , 14-H ) :   0.9326 B(  5-C ,  6-N ) :   1.1635
B(  5-C , 15-H ) :   0.9365 B(  6-N , 16-H ) :   0.9598 B(  6-N , 17-H ) :   0.9685

FINAL SINGLE POINT ENERGY      -289.354301528473

DIPOLE MOMENT
-------------
                                X             Y             Z
Electronic contribution:      2.96963       1.24170      -0.23321
Nuclear contribution   :     -2.94567      -1.03527       0.55878
                        -----------------------------------------
Total Dipole Moment    :      0.02396       0.20643       0.32557
                        -----------------------------------------
Magnitude (a.u.)       :      0.38624
Magnitude (Debye)      :      0.98175

                             ****ORCA TERMINATED NORMALLY****
TOTAL RUN TIME: 0 days 0 hours 0 minutes 7 seconds 751 msec
