                         Program Version 3.0.3 - RELEASE   -
|  1> ! RI PBE def2-SVP def2-SVP/J NBO PAL2
|  2> % maxcore 2000
|  3> % output
|  4>     # printlevel mini
|  5>     print[ P_Basis ] 0
|  6>     print[ P_SCFInfo ] 1
|  7>     print[ P_SCFIterInfo ] 1
|  8>     print[ P_OrbEn ] 0
|  9>     print[ P_Cartesian ] 0
| 10> end
| 11> *xyz 0 1
| 12>  C        4.4964600000     0.4713200000     1.7499890000
| 13>  C        3.7494840000     0.1455550000     0.4931330000
| 14>  C        2.8396370000     0.9697420000    -0.0189660000
| 15>  C        4.1002210000    -1.1617990000    -0.1171820000
| 16>  C        3.3500130000    -2.4158820000     0.2856070000
| 17>  C        3.2363390000    -1.8929200000    -1.1039270000
| 18>  N        3.7686270000    -2.6598480000    -2.1928890000
| 19>  H        4.3374530000    -0.3038950000     2.5063240000
| 20>  H        4.1908540000     1.4323190000     2.1657780000
| 21>  H        5.5745400000     0.5061790000     1.5603450000
| 22>  H        2.5941190000     1.9062970000     0.4694010000
| 23>  H        2.3118300000     0.7419880000    -0.9374250000
| 24>  H        5.1695810000    -1.3174720000    -0.2482100000
| 25>  H        2.4983870000    -2.3002400000     0.9449810000
| 26>  H        3.9233840000    -3.3233030000     0.4422490000
| 27>  H        2.2888760000    -1.4242780000    -1.3481710000
| 28>  H        4.4998390000    -3.2825700000    -1.8742370000
| 29>  H        4.1719540000    -2.0548820000    -2.8982010000
| 30> *
| 31>
| 32>                          ****END OF INPUT****
 Total Charge           Charge          ....    0
 Multiplicity           Mult            ....    1
 Number of Electrons    NEL             ....   54
 Basis Dimension        Dim             ....  153

MULLIKEN ATOMIC CHARGES
-----------------------
   0 C :    0.065968
   1 C :   -0.100157
   2 C :   -0.044400
   3 C :   -0.074988
   4 C :    0.021986
   5 C :   -0.085326
   6 N :   -0.119526
   7 H :    0.030582
   8 H :    0.008311
   9 H :    0.028715
  10 H :    0.003151
  11 H :    0.008896
  12 H :    0.010533
  13 H :    0.034308
  14 H :    0.021140
  15 H :    0.020803
  16 H :    0.077089
  17 H :    0.092915
Sum of atomic charges:   -0.0000000

LOEWDIN ATOMIC CHARGES
----------------------
   0 C :   -0.056099
   1 C :   -0.026912
   2 C :   -0.081052
   3 C :   -0.061576
   4 C :   -0.035845
   5 C :   -0.000627
   6 N :   -0.083604
   7 H :    0.035891
   8 H :    0.028641
   9 H :    0.035545
  10 H :    0.018928
  11 H :    0.018303
  12 H :    0.025746
  13 H :    0.029959
  14 H :    0.023676
  15 H :    0.022346
  16 H :    0.050639
  17 H :    0.056042

  Mayer bond orders larger than 0.1
B(  0-C ,  1-C ) :   1.0737 B(  0-C ,  7-H ) :   0.9473 B(  0-C ,  8-H ) :   0.9455
B(  0-C ,  9-H ) :   0.9449 B(  1-C ,  2-C ) :   1.9875 B(  1-C ,  3-C ) :   1.0326
B(  2-C , 10-H ) :   0.9269 B(  2-C , 11-H ) :   0.9291 B(  3-C ,  4-C ) :   0.9667
B(  3-C ,  5-C ) :   0.8977 B(  3-C , 12-H ) :   0.9239 B(  4-C ,  5-C ) :   1.0202
B(  4-C , 13-H ) :   0.9379 B(  4-C , 14-H ) :   0.9361 B(  5-C ,  6-N ) :   1.1496
B(  5-C , 15-H ) :   0.9335 B(  6-N , 16-H ) :   0.9604 B(  6-N , 17-H ) :   0.9711

FINAL SINGLE POINT ENERGY      -289.351855275951

DIPOLE MOMENT
-------------
                                X             Y             Z
Electronic contribution:     -0.63245      -1.05981      -2.12129
Nuclear contribution   :      1.15972       1.07386       2.25784
                        -----------------------------------------
Total Dipole Moment    :      0.52728       0.01405       0.13656
                        -----------------------------------------
Magnitude (a.u.)       :      0.54485
Magnitude (Debye)      :      1.38490

                             ****ORCA TERMINATED NORMALLY****
TOTAL RUN TIME: 0 days 0 hours 0 minutes 7 seconds 950 msec
