                         Program Version 3.0.3 - RELEASE   -
|  1> ! RI PBE def2-SVP def2-SVP/J NBO PAL2
|  2> % maxcore 2000
|  3> % output
|  4>     # printlevel mini
|  5>     print[ P_Basis ] 0
|  6>     print[ P_SCFInfo ] 1
|  7>     print[ P_SCFIterInfo ] 1
|  8>     print[ P_OrbEn ] 0
|  9>     print[ P_Cartesian ] 0
| 10> end
| 11> *xyz 0 1
| 12>  C        1.0517290000    -0.0882360000    -0.0096070000
| 13>  C        2.5690180000     0.0591860000     0.0280830000
| 14>  C        3.2295340000    -1.2972870000     0.2326770000
| 15>  C        3.0441560000     0.8085040000    -1.2005010000
| 16>  C        4.4696410000     0.8085750000    -1.6840660000
| 17>  C        3.4113940000     0.1508720000    -2.5038960000
| 18>  N        3.0728740000     0.6934750000    -3.7895350000
| 19>  H        0.6764180000    -0.5632450000     0.9006270000
| 20>  H        0.7452480000    -0.7058960000    -0.8595490000
| 21>  H        0.5594070000     0.8827950000    -0.1087080000
| 22>  H        2.8231230000     0.6799880000     0.8983810000
| 23>  H        2.9753070000    -1.9934550000    -0.5714410000
| 24>  H        2.8852420000    -1.7444030000     1.1683330000
| 25>  H        4.3178700000    -1.2244340000     0.2865050000
| 26>  H        2.5407330000     1.7646650000    -1.3290760000
| 27>  H        5.1980980000     0.1801050000    -1.1868880000
| 28>  H        4.8747520000     1.7464290000    -2.0487890000
| 29>  H        3.4340300000    -0.9343380000    -2.5052200000
| 30>  H        3.3174030000     1.6741750000    -3.8402590000
| 31>  H        2.0769220000     0.6228350000    -3.9611800000
| 32> *
| 33>
| 34>                          ****END OF INPUT****
 Total Charge           Charge          ....    0
 Multiplicity           Mult            ....    1
 Number of Electrons    NEL             ....   56
 Basis Dimension        Dim             ....  163

MULLIKEN ATOMIC CHARGES
-----------------------
   0 C :    0.030098
   1 C :   -0.044346
   2 C :   -0.011339
   3 C :   -0.086862
   4 C :    0.014635
   5 C :   -0.101419
   6 N :   -0.118197
   7 H :    0.011294
   8 H :    0.010167
   9 H :    0.009004
  10 H :    0.002962
  11 H :    0.025504
  12 H :    0.012038
  13 H :    0.023057
  14 H :   -0.007217
  15 H :    0.027429
  16 H :    0.015873
  17 H :    0.022364
  18 H :    0.075197
  19 H :    0.089758
Sum of atomic charges:   -0.0000000

LOEWDIN ATOMIC CHARGES
----------------------
   0 C :   -0.056296
   1 C :   -0.040560
   2 C :   -0.061678
   3 C :   -0.058934
   4 C :   -0.048580
   5 C :   -0.009454
   6 N :   -0.086049
   7 H :    0.023198
   8 H :    0.022832
   9 H :    0.022588
  10 H :    0.025934
  11 H :    0.024475
  12 H :    0.027530
  13 H :    0.025102
  14 H :    0.018531
  15 H :    0.024664
  16 H :    0.023866
  17 H :    0.019469
  18 H :    0.049689
  19 H :    0.053673

  Mayer bond orders larger than 0.1
B(  0-C ,  1-C ) :   1.0870 B(  0-C ,  7-H ) :   0.9582 B(  0-C ,  8-H ) :   0.9625
B(  0-C ,  9-H ) :   0.9589 B(  1-C ,  2-C ) :   1.0980 B(  1-C ,  3-C ) :   1.0267
B(  1-C , 10-H ) :   0.8975 B(  2-C , 11-H ) :   0.9535 B(  2-C , 12-H ) :   0.9540
B(  2-C , 13-H ) :   0.9544 B(  3-C ,  4-C ) :   0.9807 B(  3-C ,  5-C ) :   0.9063
B(  3-C , 14-H ) :   0.9331 B(  4-C ,  5-C ) :   1.0074 B(  4-C , 15-H ) :   0.9337
B(  4-C , 16-H ) :   0.9331 B(  5-C ,  6-N ) :   1.1575 B(  5-C , 17-H ) :   0.9376
B(  6-N , 18-H ) :   0.9608 B(  6-N , 19-H ) :   0.9720

FINAL SINGLE POINT ENERGY      -290.569154474254

DIPOLE MOMENT
-------------
                                X             Y             Z
Electronic contribution:      1.59332       1.81206      -3.13102
Nuclear contribution   :     -1.89022      -1.53019       3.38896
                        -----------------------------------------
Total Dipole Moment    :     -0.29690       0.28187       0.25795
                        -----------------------------------------
Magnitude (a.u.)       :      0.48387
Magnitude (Debye)      :      1.22991

                             ****ORCA TERMINATED NORMALLY****
TOTAL RUN TIME: 0 days 0 hours 0 minutes 8 seconds 871 msec
