                         Program Version 3.0.3 - RELEASE   -
|  1> ! RI PBE def2-SVP def2-SVP/J NBO PAL2
|  2> % maxcore 2000
|  3> % output
|  4>     # printlevel mini
|  5>     print[ P_Basis ] 0
|  6>     print[ P_SCFInfo ] 1
|  7>     print[ P_SCFIterInfo ] 1
|  8>     print[ P_OrbEn ] 0
|  9>     print[ P_Cartesian ] 0
| 10> end
| 11> *xyz 0 1
| 12>  C        0.9156240000     0.0339120000     0.1890850000
| 13>  C        2.4161410000     0.0463920000    -0.0494820000
| 14>  C        3.1049150000    -1.2270200000     0.4161180000
| 15>  C        4.6043720000    -1.2203730000     0.1836590000
| 16>  C        5.4186430000    -0.3836720000     1.1926010000
| 17>  C        5.7873710000    -1.7195430000     1.8568960000
| 18>  N        5.3211900000    -2.4230880000     0.6511450000
| 19>  H        0.4464230000     0.9575680000    -0.1575260000
| 20>  H        0.6856750000    -0.0762360000     1.2526280000
| 21>  H        0.4394760000    -0.7980200000    -0.3375000000
| 22>  H        2.8610500000     0.9076260000     0.4618270000
| 23>  H        2.6178170000     0.1920500000    -1.1169080000
| 24>  H        2.6728880000    -2.0854110000    -0.1154150000
| 25>  H        2.9026340000    -1.3888230000     1.4832600000
| 26>  H        4.8019740000    -0.9979290000    -0.8722170000
| 27>  H        4.8595180000     0.3324540000     1.7956810000
| 28>  H        6.2741420000     0.1183500000     0.7413920000
| 29>  H        5.1972900000    -1.9198310000     2.7596430000
| 30>  H        6.8425250000    -1.8826980000     2.0923570000
| 31>  H        4.7352130000    -3.2328080000     0.8149760000
| 32> *
| 33>
| 34>                          ****END OF INPUT****
 Total Charge           Charge          ....    0
 Multiplicity           Mult            ....    1
 Number of Electrons    NEL             ....   56
 Basis Dimension        Dim             ....  163

MULLIKEN ATOMIC CHARGES
-----------------------
   0 C :    0.001112
   1 C :   -0.054080
   2 C :    0.058699
   3 C :   -0.065660
   4 C :   -0.019988
   5 C :    0.128151
   6 N :   -0.231961
   7 H :    0.017019
   8 H :    0.016316
   9 H :    0.017205
  10 H :    0.006669
  11 H :    0.014551
  12 H :    0.006162
  13 H :   -0.015815
  14 H :   -0.003681
  15 H :    0.016632
  16 H :    0.017654
  17 H :    0.000935
  18 H :    0.005235
  19 H :    0.084847
Sum of atomic charges:    0.0000000

LOEWDIN ATOMIC CHARGES
----------------------
   0 C :   -0.065389
   1 C :   -0.046195
   2 C :   -0.053413
   3 C :    0.015298
   4 C :   -0.039882
   5 C :    0.028249
   6 N :   -0.108111
   7 H :    0.026329
   8 H :    0.024135
   9 H :    0.024514
  10 H :    0.022130
  11 H :    0.024370
  12 H :    0.022821
  13 H :    0.018850
  14 H :    0.008012
  15 H :    0.017836
  16 H :    0.027696
  17 H :    0.002869
  18 H :    0.009560
  19 H :    0.040322

  Mayer bond orders larger than 0.1
B(  0-C ,  1-C ) :   1.1138 B(  0-C ,  7-H ) :   0.9597 B(  0-C ,  8-H ) :   0.9661
B(  0-C ,  9-H ) :   0.9662 B(  1-C ,  2-C ) :   1.0937 B(  1-C , 10-H ) :   0.9352
B(  1-C , 11-H ) :   0.9350 B(  2-C ,  3-C ) :   1.0353 B(  2-C , 12-H ) :   0.9196
B(  2-C , 13-H ) :   0.9138 B(  3-C ,  4-C ) :   1.0799 B(  3-C ,  6-N ) :   1.0837
B(  3-C , 14-H ) :   0.9147 B(  4-C ,  5-C ) :   1.1128 B(  4-C , 15-H ) :   0.9394
B(  4-C , 16-H ) :   0.9155 B(  5-C ,  6-N ) :   1.0589 B(  5-C , 17-H ) :   0.9319
B(  5-C , 18-H ) :   0.9345 B(  6-N , 19-H ) :   0.9486

FINAL SINGLE POINT ENERGY      -290.568234208293

DIPOLE MOMENT
-------------
                                X             Y             Z
Electronic contribution:      4.70515      -2.60033      -0.20386
Nuclear contribution   :     -5.10424       2.72940       0.44899
                        -----------------------------------------
Total Dipole Moment    :     -0.39909       0.12907       0.24513
                        -----------------------------------------
Magnitude (a.u.)       :      0.48581
Magnitude (Debye)      :      1.23484

                             ****ORCA TERMINATED NORMALLY****
TOTAL RUN TIME: 0 days 0 hours 0 minutes 7 seconds 822 msec
