                         Program Version 3.0.3 - RELEASE   -
|  1> ! RI PBE def2-SVP def2-SVP/J NBO PAL2
|  2> % maxcore 2000
|  3> % output
|  4>     # printlevel mini
|  5>     print[ P_Basis ] 0
|  6>     print[ P_SCFInfo ] 1
|  7>     print[ P_SCFIterInfo ] 1
|  8>     print[ P_OrbEn ] 0
|  9>     print[ P_Cartesian ] 0
| 10> end
| 11> *xyz 0 1
| 12>  C        1.9106880000     2.3360210000     2.0015760000
| 13>  C        2.4476720000     1.5449870000     1.0827000000
| 14>  C        3.2763230000     0.3379240000     1.3649170000
| 15>  C        4.6935670000     0.4567130000     0.8109600000
| 16>  C        5.6275180000     1.3617030000     1.6367820000
| 17>  C        6.2150800000     0.0631140000     2.2124250000
| 18>  N        5.5762230000    -0.6833660000     1.1161840000
| 19>  H        1.3270070000     3.2081300000     1.7302780000
| 20>  H        2.0301700000     2.1344410000     3.0620250000
| 21>  H        2.3013000000     1.7865160000     0.0307710000
| 22>  H        2.8081090000    -0.5417610000     0.9024310000
| 23>  H        3.3161920000     0.1540520000     2.4443950000
| 24>  H        4.6420230000     0.6811200000    -0.2609180000
| 25>  H        5.1433900000     2.0472230000     2.3322320000
| 26>  H        6.3384420000     1.9137570000     1.0226430000
| 27>  H        5.8265390000    -0.1710320000     3.2112340000
| 28>  H        7.3045890000    -0.0219380000     2.2372830000
| 29>  H        5.1029710000    -1.5392150000     1.3797030000
| 30> *
| 31>
| 32>                          ****END OF INPUT****
 Total Charge           Charge          ....    0
 Multiplicity           Mult            ....    1
 Number of Electrons    NEL             ....   54
 Basis Dimension        Dim             ....  153

MULLIKEN ATOMIC CHARGES
-----------------------
   0 C :   -0.034501
   1 C :   -0.085329
   2 C :    0.133177
   3 C :   -0.088155
   4 C :   -0.007798
   5 C :    0.112276
   6 N :   -0.230161
   7 H :    0.024080
   8 H :    0.018442
   9 H :    0.006215
  10 H :    0.018955
  11 H :   -0.012473
  12 H :    0.004846
  13 H :    0.018242
  14 H :    0.020418
  15 H :    0.000436
  16 H :    0.014387
  17 H :    0.086943
Sum of atomic charges:   -0.0000000

LOEWDIN ATOMIC CHARGES
----------------------
   0 C :   -0.067786
   1 C :   -0.026071
   2 C :   -0.052308
   3 C :    0.017965
   4 C :   -0.038101
   5 C :    0.026172
   6 N :   -0.105108
   7 H :    0.024599
   8 H :    0.020808
   9 H :    0.025899
  10 H :    0.033967
  11 H :    0.025371
  12 H :    0.008905
  13 H :    0.020866
  14 H :    0.029149
  15 H :    0.002974
  16 H :    0.011647
  17 H :    0.041052

  Mayer bond orders larger than 0.1
B(  0-C ,  1-C ) :   2.0064 B(  0-C ,  7-H ) :   0.9428 B(  0-C ,  8-H ) :   0.9469
B(  1-C ,  2-C ) :   1.0620 B(  1-C ,  9-H ) :   0.9539 B(  2-C ,  3-C ) :   1.0202
B(  2-C , 10-H ) :   0.8975 B(  2-C , 11-H ) :   0.9120 B(  3-C ,  4-C ) :   1.0787
B(  3-C ,  6-N ) :   1.0795 B(  3-C , 12-H ) :   0.9206 B(  4-C ,  5-C ) :   1.1154
B(  4-C , 13-H ) :   0.9404 B(  4-C , 14-H ) :   0.9148 B(  5-C ,  6-N ) :   1.0584
B(  5-C , 15-H ) :   0.9296 B(  5-C , 16-H ) :   0.9370 B(  6-N , 17-H ) :   0.9478

FINAL SINGLE POINT ENERGY      -289.344413229496

DIPOLE MOMENT
-------------
                                X             Y             Z
Electronic contribution:      0.54011      -1.25749      -1.48440
Nuclear contribution   :     -0.77661       1.24741       1.75273
                        -----------------------------------------
Total Dipole Moment    :     -0.23650      -0.01007       0.26833
                        -----------------------------------------
Magnitude (a.u.)       :      0.35782
Magnitude (Debye)      :      0.90950

                             ****ORCA TERMINATED NORMALLY****
TOTAL RUN TIME: 0 days 0 hours 0 minutes 7 seconds 817 msec
