                         Program Version 3.0.3 - RELEASE   -
|  1> ! RI PBE def2-SVP def2-SVP/J NBO PAL2
|  2> % maxcore 2000
|  3> % output
|  4>     # printlevel mini
|  5>     print[ P_Basis ] 0
|  6>     print[ P_SCFInfo ] 1
|  7>     print[ P_SCFIterInfo ] 1
|  8>     print[ P_OrbEn ] 0
|  9>     print[ P_Cartesian ] 0
| 10> end
| 11> *xyz 0 1
| 12>  C        4.5544930000    -1.7008540000    -1.4831110000
| 13>  C        4.0862470000    -0.9083570000    -0.7117220000
| 14>  C        3.5436180000     0.0285760000     0.2566520000
| 15>  C        4.3818390000     0.1001790000     1.5359590000
| 16>  C        3.6368390000     0.7721980000     2.7047160000
| 17>  C        3.3683020000    -0.6534450000     3.2160270000
| 18>  N        4.4308270000    -1.1371380000     2.3232300000
| 19>  H        4.9667860000    -2.3959300000    -2.1755770000
| 20>  H        2.5170040000    -0.2645800000     0.5063440000
| 21>  H        3.4855240000     1.0273350000    -0.1911160000
| 22>  H        5.3714350000     0.4975200000     1.2888540000
| 23>  H        2.7735440000     1.3871200000     2.4487030000
| 24>  H        4.3027380000     1.3353520000     3.3575510000
| 25>  H        2.3600290000    -1.0083600000     2.9671020000
| 26>  H        3.5487880000    -0.8444210000     4.2769610000
| 27>  H        4.2574850000    -1.9938050000     1.8114280000
| 28> *
| 29>
| 30>                          ****END OF INPUT****
 Total Charge           Charge          ....    0
 Multiplicity           Mult            ....    1
 Number of Electrons    NEL             ....   52
 Basis Dimension        Dim             ....  143

MULLIKEN ATOMIC CHARGES
-----------------------
   0 C :   -0.489713
   1 C :    0.329944
   2 C :    0.142131
   3 C :   -0.075133
   4 C :   -0.012225
   5 C :    0.118636
   6 N :   -0.234513
   7 H :   -0.000900
   8 H :    0.017351
   9 H :    0.036378
  10 H :    0.011101
  11 H :    0.016829
  12 H :    0.028841
  13 H :    0.000818
  14 H :    0.014694
  15 H :    0.095761
Sum of atomic charges:    0.0000000

LOEWDIN ATOMIC CHARGES
----------------------
   0 C :   -0.089129
   1 C :   -0.025313
   2 C :   -0.058340
   3 C :    0.026868
   4 C :   -0.039643
   5 C :    0.028999
   6 N :   -0.100535
   7 H :    0.034667
   8 H :    0.045626
   9 H :    0.050964
  10 H :    0.013423
  11 H :    0.020115
  12 H :    0.031830
  13 H :    0.002420
  14 H :    0.012450
  15 H :    0.045597

  Mayer bond orders larger than 0.1
B(  0-C ,  1-C ) :   2.3276 B(  0-C ,  7-H ) :   1.1027 B(  1-C ,  2-C ) :   1.0644
B(  1-C ,  7-H ) :  -0.1118 B(  2-C ,  3-C ) :   1.0078 B(  2-C ,  8-H ) :   0.8787
B(  2-C ,  9-H ) :   0.8811 B(  3-C ,  4-C ) :   1.0722 B(  3-C ,  6-N ) :   1.0803
B(  3-C , 10-H ) :   0.9176 B(  4-C ,  5-C ) :   1.1126 B(  4-C , 11-H ) :   0.9374
B(  4-C , 12-H ) :   0.9161 B(  5-C ,  6-N ) :   1.0493 B(  5-C , 13-H ) :   0.9296
B(  5-C , 14-H ) :   0.9392 B(  6-N , 15-H ) :   0.9427

FINAL SINGLE POINT ENERGY      -288.102142915945

DIPOLE MOMENT
-------------
                                X             Y             Z
Electronic contribution:      1.68817      -1.83175      -3.36695
Nuclear contribution   :     -2.12724       2.00939       3.36457
                        -----------------------------------------
Total Dipole Moment    :     -0.43907       0.17764      -0.00237
                        -----------------------------------------
Magnitude (a.u.)       :      0.47365
Magnitude (Debye)      :      1.20391

                             ****ORCA TERMINATED NORMALLY****
TOTAL RUN TIME: 0 days 0 hours 0 minutes 6 seconds 919 msec
