                         Program Version 3.0.3 - RELEASE   -
|  1> ! RI PBE def2-SVP def2-SVP/J NBO PAL2
|  2> % maxcore 2000
|  3> % output
|  4>     # printlevel mini
|  5>     print[ P_Basis ] 0
|  6>     print[ P_SCFInfo ] 1
|  7>     print[ P_SCFIterInfo ] 1
|  8>     print[ P_OrbEn ] 0
|  9>     print[ P_Cartesian ] 0
| 10> end
| 11> *xyz 0 1
| 12>  C        1.0015960000    -0.2888320000    -0.7408250000
| 13>  C        2.4881120000    -0.2422910000    -0.6469500000
| 14>  C        3.2806690000    -1.3045020000    -0.5693570000
| 15>  C        4.7645920000    -1.2858110000    -0.4983490000
| 16>  C        5.5273870000     0.0018290000    -0.1475430000
| 17>  C        6.3121270000    -0.8637950000     0.8490420000
| 18>  N        5.3662580000    -1.9954030000     0.6731920000
| 19>  H        0.5365270000     0.2658960000     0.0803960000
| 20>  H        0.6303260000    -1.3150510000    -0.7135660000
| 21>  H        0.6512340000     0.1758780000    -1.6681320000
| 22>  H        2.9395300000     0.7484920000    -0.6559980000
| 23>  H        2.8348250000    -2.2999010000    -0.5715690000
| 24>  H        5.1657330000    -1.7456720000    -1.4118200000
| 25>  H        4.8941610000     0.7379660000     0.3518940000
| 26>  H        6.0843070000     0.4908380000    -0.9481570000
| 27>  H        6.3990590000    -0.4866340000     1.8701230000
| 28>  H        7.3112870000    -1.1373490000     0.4981660000
| 29>  H        4.6938690000    -1.9973690000     1.4329630000
| 30> *
| 31>
| 32>                          ****END OF INPUT****
 Total Charge           Charge          ....    0
 Multiplicity           Mult            ....    1
 Number of Electrons    NEL             ....   54
 Basis Dimension        Dim             ....  153

MULLIKEN ATOMIC CHARGES
-----------------------
   0 C :    0.043821
   1 C :   -0.111482
   2 C :   -0.036197
   3 C :    0.038954
   4 C :    0.011778
   5 C :    0.096402
   6 N :   -0.257817
   7 H :    0.033154
   8 H :    0.018105
   9 H :    0.032871
  10 H :   -0.002212
  11 H :   -0.003271
  12 H :    0.012230
  13 H :   -0.000714
  14 H :    0.012629
  15 H :    0.010711
  16 H :    0.014192
  17 H :    0.086845
Sum of atomic charges:   -0.0000000

LOEWDIN ATOMIC CHARGES
----------------------
   0 C :   -0.063468
   1 C :   -0.041947
   2 C :   -0.058660
   3 C :    0.017666
   4 C :   -0.046794
   5 C :    0.027357
   6 N :   -0.122303
   7 H :    0.036619
   8 H :    0.030374
   9 H :    0.037525
  10 H :    0.021151
  11 H :    0.025772
  12 H :    0.026139
  13 H :    0.021125
  14 H :    0.017972
  15 H :    0.011678
  16 H :    0.015394
  17 H :    0.044399

  Mayer bond orders larger than 0.1
B(  0-C ,  1-C ) :   1.0816 B(  0-C ,  7-H ) :   0.9482 B(  0-C ,  8-H ) :   0.9628
B(  0-C ,  9-H ) :   0.9459 B(  1-C ,  2-C ) :   1.9200 B(  1-C , 10-H ) :   0.9439
B(  2-C ,  3-C ) :   1.0325 B(  2-C , 11-H ) :   0.9523 B(  3-C ,  4-C ) :   1.1116
B(  3-C ,  6-N ) :   1.0538 B(  3-C , 12-H ) :   0.8728 B(  4-C ,  5-C ) :   1.1295
B(  4-C , 13-H ) :   0.8852 B(  4-C , 14-H ) :   0.9296 B(  5-C ,  6-N ) :   1.0662
B(  5-C , 15-H ) :   0.9418 B(  5-C , 16-H ) :   0.9323 B(  6-N , 17-H ) :   0.9379

FINAL SINGLE POINT ENERGY      -289.345968764915

DIPOLE MOMENT
-------------
                                X             Y             Z
Electronic contribution:      2.39771      -2.05953       0.28066
Nuclear contribution   :     -2.77284       2.58965      -0.20200
                        -----------------------------------------
Total Dipole Moment    :     -0.37513       0.53012       0.07866
                        -----------------------------------------
Magnitude (a.u.)       :      0.65417
Magnitude (Debye)      :      1.66277

                             ****ORCA TERMINATED NORMALLY****
TOTAL RUN TIME: 0 days 0 hours 0 minutes 7 seconds 538 msec
