                         Program Version 3.0.3 - RELEASE   -
|  1> ! RI PBE def2-SVP def2-SVP/J NBO PAL2
|  2> % maxcore 2000
|  3> % output
|  4>     # printlevel mini
|  5>     print[ P_Basis ] 0
|  6>     print[ P_SCFInfo ] 1
|  7>     print[ P_SCFIterInfo ] 1
|  8>     print[ P_OrbEn ] 0
|  9>     print[ P_Cartesian ] 0
| 10> end
| 11> *xyz 0 1
| 12>  C        4.1799340000     1.4540080000     0.9606790000
| 13>  C        3.6113070000     0.2273240000     0.3190740000
| 14>  C        2.6362820000     0.2859930000    -0.5818390000
| 15>  C        4.2355860000    -1.0575040000     0.7882160000
| 16>  C        3.6633050000    -1.5624590000     2.1406510000
| 17>  C        2.9003440000    -2.6023430000     1.3066770000
| 18>  N        3.7992190000    -2.3163180000     0.1796470000
| 19>  H        3.6628570000     2.3568410000     0.6344700000
| 20>  H        5.2428960000     1.5586350000     0.7197150000
| 21>  H        4.1119160000     1.3939660000     2.0519810000
| 22>  H        2.2099160000     1.2347180000    -0.8875920000
| 23>  H        2.2224690000    -0.6025550000    -1.0456920000
| 24>  H        5.3261350000    -0.9311040000     0.7726550000
| 25>  H        3.0693310000    -0.8519920000     2.7141950000
| 26>  H        4.4266680000    -2.0049270000     2.7801080000
| 27>  H        1.8555790000    -2.3148840000     1.1393270000
| 28>  H        2.9300150000    -3.6379350000     1.6555090000
| 29>  H        3.3777410000    -2.2457640000    -0.7370810000
| 30> *
| 31>
| 32>                          ****END OF INPUT****
 Total Charge           Charge          ....    0
 Multiplicity           Mult            ....    1
 Number of Electrons    NEL             ....   54
 Basis Dimension        Dim             ....  153

MULLIKEN ATOMIC CHARGES
-----------------------
   0 C :    0.066660
   1 C :   -0.125276
   2 C :   -0.041193
   3 C :   -0.013585
   4 C :   -0.010062
   5 C :    0.111222
   6 N :   -0.226448
   7 H :    0.009946
   8 H :    0.031940
   9 H :    0.030819
  10 H :    0.007884
  11 H :   -0.005021
  12 H :    0.008856
  13 H :    0.023675
  14 H :    0.022611
  15 H :    0.008321
  16 H :    0.011885
  17 H :    0.087766
Sum of atomic charges:    0.0000000

LOEWDIN ATOMIC CHARGES
----------------------
   0 C :   -0.054929
   1 C :   -0.039751
   2 C :   -0.086616
   3 C :    0.017894
   4 C :   -0.027629
   5 C :    0.028923
   6 N :   -0.096675
   7 H :    0.031045
   8 H :    0.037627
   9 H :    0.035298
  10 H :    0.021458
  11 H :    0.011961
  12 H :    0.016729
  13 H :    0.021057
  14 H :    0.028177
  15 H :    0.006088
  16 H :    0.010363
  17 H :    0.038981

  Mayer bond orders larger than 0.1
B(  0-C ,  1-C ) :   1.0785 B(  0-C ,  7-H ) :   0.9436 B(  0-C ,  8-H ) :   0.9417
B(  0-C ,  9-H ) :   0.9466 B(  1-C ,  2-C ) :   1.9873 B(  1-C ,  3-C ) :   0.9678
B(  2-C , 10-H ) :   0.9279 B(  2-C , 11-H ) :   0.9210 B(  3-C ,  4-C ) :   1.0726
B(  3-C ,  6-N ) :   1.1145 B(  3-C , 12-H ) :   0.9044 B(  4-C ,  5-C ) :   1.1124
B(  4-C , 13-H ) :   0.9388 B(  4-C , 14-H ) :   0.9175 B(  5-C ,  6-N ) :   1.0618
B(  5-C , 15-H ) :   0.9295 B(  5-C , 16-H ) :   0.9376 B(  6-N , 17-H ) :   0.9517

FINAL SINGLE POINT ENERGY      -289.349536538910

DIPOLE MOMENT
-------------
                                X             Y             Z
Electronic contribution:      0.60274      -2.25995      -1.39945
Nuclear contribution   :     -0.78678       2.56621       1.57871
                        -----------------------------------------
Total Dipole Moment    :     -0.18404       0.30626       0.17927
                        -----------------------------------------
Magnitude (a.u.)       :      0.39975
Magnitude (Debye)      :      1.01609

                             ****ORCA TERMINATED NORMALLY****
TOTAL RUN TIME: 0 days 0 hours 0 minutes 8 seconds 71 msec
