                         Program Version 3.0.3 - RELEASE   -
|  1> ! RI PBE def2-SVP def2-SVP/J NBO PAL2
|  2> % maxcore 2000
|  3> % output
|  4>     # printlevel mini
|  5>     print[ P_Basis ] 0
|  6>     print[ P_SCFInfo ] 1
|  7>     print[ P_SCFIterInfo ] 1
|  8>     print[ P_OrbEn ] 0
|  9>     print[ P_Cartesian ] 0
| 10> end
| 11> *xyz 0 1
| 12>  C        1.1123510000    -0.1009900000     0.0998120000
| 13>  C        2.6348780000    -0.1391350000     0.0410850000
| 14>  C        3.2072100000    -0.6861300000     1.3420740000
| 15>  C        3.0944120000    -0.8847590000    -1.2119700000
| 16>  C        4.6106230000    -1.1163680000    -1.3725530000
| 17>  C        4.3322220000    -2.5938920000    -1.0536270000
| 18>  N        2.8938400000    -2.3480530000    -1.2406510000
| 19>  H        0.7636120000     0.4889340000     0.9510260000
| 20>  H        0.6956300000    -1.1076190000     0.2100880000
| 21>  H        0.6894390000     0.3332540000    -0.8095150000
| 22>  H        2.9939580000     0.8923400000    -0.0799260000
| 23>  H        2.8802870000    -1.7150840000     1.5199460000
| 24>  H        2.8631240000    -0.0889230000     2.1899300000
| 25>  H        4.2988570000    -0.6730480000     1.3530690000
| 26>  H        2.6227130000    -0.3945100000    -2.0727390000
| 27>  H        5.2623420000    -0.5777510000    -0.6843040000
| 28>  H        4.9610060000    -0.9529050000    -2.3914220000
| 29>  H        4.6217260000    -2.8734360000    -0.0336670000
| 30>  H        4.7485790000    -3.3318590000    -1.7451600000
| 31>  H        2.2831810000    -2.7237780000    -0.5263950000
| 32> *
| 33>
| 34>                          ****END OF INPUT****
 Total Charge           Charge          ....    0
 Multiplicity           Mult            ....    1
 Number of Electrons    NEL             ....   56
 Basis Dimension        Dim             ....  163

MULLIKEN ATOMIC CHARGES
-----------------------
   0 C :    0.035474
   1 C :   -0.094537
   2 C :    0.013426
   3 C :   -0.023828
   4 C :   -0.011601
   5 C :    0.132974
   6 N :   -0.245512
   7 H :    0.016532
   8 H :    0.004639
   9 H :    0.016499
  10 H :    0.005475
  11 H :    0.001982
  12 H :    0.017578
  13 H :    0.019584
  14 H :   -0.003850
  15 H :    0.015029
  16 H :    0.010697
  17 H :   -0.004853
  18 H :    0.006638
  19 H :    0.087655
Sum of atomic charges:   -0.0000000

LOEWDIN ATOMIC CHARGES
----------------------
   0 C :   -0.056820
   1 C :   -0.057967
   2 C :   -0.063679
   3 C :    0.020391
   4 C :   -0.039484
   5 C :    0.028539
   6 N :   -0.107430
   7 H :    0.025451
   8 H :    0.021105
   9 H :    0.026147
  10 H :    0.028066
  11 H :    0.019533
  12 H :    0.028290
  13 H :    0.024864
  14 H :    0.009294
  15 H :    0.018063
  16 H :    0.026895
  17 H :    0.001704
  18 H :    0.009537
  19 H :    0.037502

  Mayer bond orders larger than 0.1
B(  0-C ,  1-C ) :   1.0856 B(  0-C ,  7-H ) :   0.9602 B(  0-C ,  8-H ) :   0.9573
B(  0-C ,  9-H ) :   0.9586 B(  1-C ,  2-C ) :   1.0847 B(  1-C ,  3-C ) :   0.9994
B(  1-C , 10-H ) :   0.8946 B(  2-C , 11-H ) :   0.9466 B(  2-C , 12-H ) :   0.9554
B(  2-C , 13-H ) :   0.9550 B(  3-C ,  4-C ) :   1.0790 B(  3-C ,  6-N ) :   1.0934
B(  3-C , 14-H ) :   0.9157 B(  4-C ,  5-C ) :   1.1260 B(  4-C , 15-H ) :   0.9350
B(  4-C , 16-H ) :   0.9107 B(  5-C ,  6-N ) :   1.0699 B(  5-C , 17-H ) :   0.9243
B(  5-C , 18-H ) :   0.9311 B(  6-N , 19-H ) :   0.9480

FINAL SINGLE POINT ENERGY      -290.567423655201

DIPOLE MOMENT
-------------
                                X             Y             Z
Electronic contribution:      0.82450      -1.61893      -3.16299
Nuclear contribution   :     -0.72583       1.83263       3.59065
                        -----------------------------------------
Total Dipole Moment    :      0.09866       0.21370       0.42767
                        -----------------------------------------
Magnitude (a.u.)       :      0.48816
Magnitude (Debye)      :      1.24081

                             ****ORCA TERMINATED NORMALLY****
TOTAL RUN TIME: 0 days 0 hours 0 minutes 9 seconds 37 msec
