                         Program Version 3.0.3 - RELEASE   -
|  1> ! RI PBE def2-SVP def2-SVP/J NBO PAL2
|  2> % maxcore 2000
|  3> % output
|  4>     # printlevel mini
|  5>     print[ P_Basis ] 0
|  6>     print[ P_SCFInfo ] 1
|  7>     print[ P_SCFIterInfo ] 1
|  8>     print[ P_OrbEn ] 0
|  9>     print[ P_Cartesian ] 0
| 10> end
| 11> *xyz 0 1
| 12>  C        1.2679210000    -0.7324700000     0.6295370000
| 13>  C        2.5292290000    -0.4746140000    -0.1812040000
| 14>  C        2.1608670000    -0.0693620000    -1.6053120000
| 15>  C        3.4519530000     0.5679680000     0.4423650000
| 16>  C        4.8419030000     0.6148480000    -0.1402100000
| 17>  C        3.3084250000     0.9988350000     1.8498610000
| 18>  N        2.8112190000     1.8421880000     0.7640630000
| 19>  H        0.6080560000    -1.4172650000     0.0916340000
| 20>  H        0.7213700000     0.1995030000     0.7965470000
| 21>  H        1.4881990000    -1.1833680000     1.5993590000
| 22>  H        3.1010740000    -1.4109420000    -0.2263040000
| 23>  H        1.6161410000     0.8784210000    -1.5935460000
| 24>  H        1.5201080000    -0.8237020000    -2.0680760000
| 25>  H        3.0386240000     0.0512990000    -2.2436530000
| 26>  H        4.8252050000     0.8723970000    -1.2023800000
| 27>  H        5.3401840000    -0.3536140000    -0.0407850000
| 28>  H        5.4542550000     1.3592570000     0.3752420000
| 29>  H        4.2113890000     1.3014350000     2.3726210000
| 30>  H        2.5391540000     0.5800940000     2.4877650000
| 31>  H        3.4472450000     2.6134820000     0.5918760000
| 32> *
| 33>
| 34>                          ****END OF INPUT****
 Total Charge           Charge          ....    0
 Multiplicity           Mult            ....    1
 Number of Electrons    NEL             ....   56
 Basis Dimension        Dim             ....  163

MULLIKEN ATOMIC CHARGES
-----------------------
   0 C :    0.010825
   1 C :   -0.030421
   2 C :    0.009401
   3 C :   -0.278626
   4 C :    0.110055
   5 C :    0.076529
   6 N :   -0.179059
   7 H :    0.011250
   8 H :    0.032076
   9 H :    0.013960
  10 H :   -0.001927
  11 H :    0.022284
  12 H :    0.016365
  13 H :    0.009337
  14 H :    0.020478
  15 H :    0.024186
  16 H :   -0.002423
  17 H :    0.016537
  18 H :    0.021891
  19 H :    0.097286
Sum of atomic charges:    0.0000000

LOEWDIN ATOMIC CHARGES
----------------------
   0 C :   -0.060678
   1 C :   -0.038932
   2 C :   -0.058558
   3 C :   -0.028009
   4 C :   -0.058618
   5 C :    0.002880
   6 N :   -0.096843
   7 H :    0.025522
   8 H :    0.030074
   9 H :    0.022680
  10 H :    0.024170
  11 H :    0.028215
  12 H :    0.024403
  13 H :    0.020442
  14 H :    0.027349
  15 H :    0.033052
  16 H :    0.024411
  17 H :    0.011485
  18 H :    0.016962
  19 H :    0.049994

  Mayer bond orders larger than 0.1
B(  0-C ,  1-C ) :   1.1080 B(  0-C ,  7-H ) :   0.9532 B(  0-C ,  8-H ) :   0.9491
B(  0-C ,  9-H ) :   0.9476 B(  1-C ,  2-C ) :   1.0847 B(  1-C ,  3-C ) :   0.9877
B(  1-C , 10-H ) :   0.9066 B(  2-C , 11-H ) :   0.9575 B(  2-C , 12-H ) :   0.9584
B(  2-C , 13-H ) :   0.9561 B(  3-C ,  4-C ) :   1.0905 B(  3-C ,  5-C ) :   1.0572
B(  3-C ,  6-N ) :   0.9539 B(  4-C , 14-H ) :   0.9478 B(  4-C , 15-H ) :   0.9466
B(  4-C , 16-H ) :   0.9308 B(  5-C ,  6-N ) :   1.0099 B(  5-C , 17-H ) :   0.9381
B(  5-C , 18-H ) :   0.9150 B(  6-N , 19-H ) :   0.9431

FINAL SINGLE POINT ENERGY      -290.569436495406

DIPOLE MOMENT
-------------
                                X             Y             Z
Electronic contribution:      0.50489       2.25734       2.04001
Nuclear contribution   :      0.08742      -2.33075      -2.01732
                        -----------------------------------------
Total Dipole Moment    :      0.59231      -0.07341       0.02269
                        -----------------------------------------
Magnitude (a.u.)       :      0.59728
Magnitude (Debye)      :      1.51816

                             ****ORCA TERMINATED NORMALLY****
TOTAL RUN TIME: 0 days 0 hours 0 minutes 9 seconds 15 msec
