                         Program Version 3.0.3 - RELEASE   -
|  1> ! RI PBE def2-SVP def2-SVP/J NBO PAL2
|  2> % maxcore 2000
|  3> % output
|  4>     # printlevel mini
|  5>     print[ P_Basis ] 0
|  6>     print[ P_SCFInfo ] 1
|  7>     print[ P_SCFIterInfo ] 1
|  8>     print[ P_OrbEn ] 0
|  9>     print[ P_Cartesian ] 0
| 10> end
| 11> *xyz 0 1
| 12>  C        1.0532560000    -0.1279930000     0.2299110000
| 13>  C        2.4902470000    -0.0404370000     0.0499420000
| 14>  C        3.6818710000     0.0364220000    -0.1049140000
| 15>  C        5.1237730000     0.1013410000    -0.2915270000
| 16>  C        5.8461100000     1.1222200000     0.6238330000
| 17>  C        6.2181070000    -0.0804800000     1.5017760000
| 18>  N        5.8972280000    -0.9725520000     0.3743680000
| 19>  H        0.7229810000    -1.1697800000     0.2475150000
| 20>  H        0.5263740000     0.3748780000    -0.5850280000
| 21>  H        0.7428370000     0.3381440000     1.1684700000
| 22>  H        5.3464320000     0.1861790000    -1.3599980000
| 23>  H        5.2282510000     1.9004750000     1.0660140000
| 24>  H        6.7083190000     1.5661840000     0.1270780000
| 25>  H        5.5471790000    -0.1852590000     2.3627320000
| 26>  H        7.2521620000    -0.1490940000     1.8481690000
| 27>  H        5.3531830000    -1.7935490000     0.6075680000
| 28> *
| 29>
| 30>                          ****END OF INPUT****
 Total Charge           Charge          ....    0
 Multiplicity           Mult            ....    1
 Number of Electrons    NEL             ....   52
 Basis Dimension        Dim             ....  143

MULLIKEN ATOMIC CHARGES
-----------------------
   0 C :    0.058645
   1 C :   -0.258336
   2 C :    0.045842
   3 C :   -0.089392
   4 C :    0.006316
   5 C :    0.126426
   6 N :   -0.219487
   7 H :    0.044547
   8 H :    0.049587
   9 H :    0.044210
  10 H :    0.032134
  11 H :    0.025698
  12 H :    0.019761
  13 H :    0.009217
  14 H :    0.010927
  15 H :    0.093905
Sum of atomic charges:    0.0000000

LOEWDIN ATOMIC CHARGES
----------------------
   0 C :   -0.067869
   1 C :   -0.067958
   2 C :   -0.079610
   3 C :    0.008104
   4 C :   -0.023944
   5 C :    0.028037
   6 N :   -0.096319
   7 H :    0.050056
   8 H :    0.051388
   9 H :    0.049358
  10 H :    0.029554
  11 H :    0.024634
  12 H :    0.029522
  13 H :    0.008195
  14 H :    0.010656
  15 H :    0.046196

  Mayer bond orders larger than 0.1
B(  0-C ,  1-C ) :   1.1368 B(  0-C ,  7-H ) :   0.9306 B(  0-C ,  8-H ) :   0.9345
B(  0-C ,  9-H ) :   0.9309 B(  1-C ,  2-C ) :   2.5440 B(  2-C ,  3-C ) :   0.9142
B(  3-C ,  4-C ) :   1.0812 B(  3-C ,  6-N ) :   1.0875 B(  3-C , 10-H ) :   0.8940
B(  4-C ,  5-C ) :   1.1044 B(  4-C , 11-H ) :   0.9445 B(  4-C , 12-H ) :   0.9135
B(  5-C ,  6-N ) :   1.0457 B(  5-C , 13-H ) :   0.9323 B(  5-C , 14-H ) :   0.9399
B(  6-N , 15-H ) :   0.9470

FINAL SINGLE POINT ENERGY      -288.112264965244

DIPOLE MOMENT
-------------
                                X             Y             Z
Electronic contribution:      1.05937      -0.93077      -1.75574
Nuclear contribution   :     -1.57867       1.03247       2.04639
                        -----------------------------------------
Total Dipole Moment    :     -0.51930       0.10170       0.29065
                        -----------------------------------------
Magnitude (a.u.)       :      0.60373
Magnitude (Debye)      :      1.53456

                             ****ORCA TERMINATED NORMALLY****
TOTAL RUN TIME: 0 days 0 hours 0 minutes 6 seconds 919 msec
