                         Program Version 3.0.3 - RELEASE   -
|  1> ! RI PBE def2-SVP def2-SVP/J NBO PAL2
|  2> % maxcore 2000
|  3> % output
|  4>     # printlevel mini
|  5>     print[ P_Basis ] 0
|  6>     print[ P_SCFInfo ] 1
|  7>     print[ P_SCFIterInfo ] 1
|  8>     print[ P_OrbEn ] 0
|  9>     print[ P_Cartesian ] 0
| 10> end
| 11> *xyz 0 1
| 12>  C        1.0584910000    -0.0698050000    -0.0380890000
| 13>  C        2.5124990000     0.3717860000    -0.0336530000
| 14>  C        3.4788260000    -0.8042320000     0.0182440000
| 15>  C        4.9383820000    -0.4224740000     0.0873920000
| 16>  C        5.4779850000     0.3671610000    -1.0745450000
| 17>  C        5.5442730000    -0.2441220000     1.4229390000
| 18>  N        5.8739390000    -1.4182320000     0.6123920000
| 19>  H        0.3803590000     0.7854600000    -0.0803250000
| 20>  H        0.8160290000    -0.6415160000     0.8622840000
| 21>  H        0.8426580000    -0.7073700000    -0.9001220000
| 22>  H        2.6988410000     1.0275970000     0.8241120000
| 23>  H        2.7119040000     0.9722940000    -0.9267860000
| 24>  H        3.3203110000    -1.4404590000    -0.8627560000
| 25>  H        3.2385310000    -1.4227510000     0.8926280000
| 26>  H        5.0123290000     1.3535670000    -1.1404080000
| 27>  H        5.2957130000    -0.1590820000    -2.0164530000
| 28>  H        6.5550710000     0.5000410000    -0.9668120000
| 29>  H        4.9076200000    -0.3763040000     2.2932940000
| 30>  H        6.3589370000     0.4597890000     1.5604630000
| 31>  H        5.3649210000    -2.2266370000     0.9559110000
| 32> *
| 33>
| 34>                          ****END OF INPUT****
 Total Charge           Charge          ....    0
 Multiplicity           Mult            ....    1
 Number of Electrons    NEL             ....   56
 Basis Dimension        Dim             ....  163

MULLIKEN ATOMIC CHARGES
-----------------------
   0 C :   -0.001615
   1 C :   -0.057358
   2 C :    0.093546
   3 C :   -0.309078
   4 C :    0.124553
   5 C :    0.067390
   6 N :   -0.170971
   7 H :    0.022029
   8 H :    0.016038
   9 H :    0.017701
  10 H :    0.010745
  11 H :    0.020366
  12 H :    0.008300
  13 H :   -0.023595
  14 H :    0.016639
  15 H :    0.012419
  16 H :    0.012750
  17 H :    0.019622
  18 H :    0.024160
  19 H :    0.096359
Sum of atomic charges:   -0.0000000

LOEWDIN ATOMIC CHARGES
----------------------
   0 C :   -0.065894
   1 C :   -0.046811
   2 C :   -0.037616
   3 C :   -0.032860
   4 C :   -0.052655
   5 C :    0.000118
   6 N :   -0.099584
   7 H :    0.027917
   8 H :    0.023821
   9 H :    0.025001
  10 H :    0.023853
  11 H :    0.024645
  12 H :    0.024902
  13 H :    0.019252
  14 H :    0.025954
  15 H :    0.028301
  16 H :    0.033486
  17 H :    0.012251
  18 H :    0.017803
  19 H :    0.048115

  Mayer bond orders larger than 0.1
B(  0-C ,  1-C ) :   1.1161 B(  0-C ,  7-H ) :   0.9592 B(  0-C ,  8-H ) :   0.9647
B(  0-C ,  9-H ) :   0.9640 B(  1-C ,  2-C ) :   1.0940 B(  1-C , 10-H ) :   0.9381
B(  1-C , 11-H ) :   0.9324 B(  2-C ,  3-C ) :   1.0551 B(  2-C , 12-H ) :   0.9226
B(  2-C , 13-H ) :   0.8973 B(  3-C ,  4-C ) :   1.0590 B(  3-C ,  5-C ) :   1.0341
B(  3-C ,  6-N ) :   0.9828 B(  4-C , 14-H ) :   0.9522 B(  4-C , 15-H ) :   0.9510
B(  4-C , 16-H ) :   0.9338 B(  5-C ,  6-N ) :   1.0024 B(  5-C , 17-H ) :   0.9375
B(  5-C , 18-H ) :   0.9360 B(  6-N , 19-H ) :   0.9432

FINAL SINGLE POINT ENERGY      -290.570167384622

DIPOLE MOMENT
-------------
                                X             Y             Z
Electronic contribution:      4.81070      -1.98069       1.37128
Nuclear contribution   :     -5.41785       2.09403      -1.21384
                        -----------------------------------------
Total Dipole Moment    :     -0.60715       0.11333       0.15744
                        -----------------------------------------
Magnitude (a.u.)       :      0.63739
Magnitude (Debye)      :      1.62012

                             ****ORCA TERMINATED NORMALLY****
TOTAL RUN TIME: 0 days 0 hours 0 minutes 8 seconds 767 msec
