                         Program Version 3.0.3 - RELEASE   -
|  1> ! RI PBE def2-SVP def2-SVP/J NBO PAL2
|  2> % maxcore 2000
|  3> % output
|  4>     # printlevel mini
|  5>     print[ P_Basis ] 0
|  6>     print[ P_SCFInfo ] 1
|  7>     print[ P_SCFIterInfo ] 1
|  8>     print[ P_OrbEn ] 0
|  9>     print[ P_Cartesian ] 0
| 10> end
| 11> *xyz 0 1
| 12>  C        3.2279620000    -0.0706000000    -1.8066800000
| 13>  C        2.9099630000     0.3167610000    -0.3715570000
| 14>  C        3.3455960000    -0.7143450000     0.6639840000
| 15>  C        4.8340290000    -0.8914240000     0.7724220000
| 16>  C        5.4430910000    -2.1040460000     1.3659770000
| 17>  N        5.4842660000    -1.8814740000    -0.0647830000
| 18>  C        6.7741770000    -1.5216390000    -0.6052210000
| 19>  H        2.8727390000     0.6891670000    -2.5071320000
| 20>  H        2.7535680000    -1.0194860000    -2.0704830000
| 21>  H        4.3014620000    -0.1940500000    -1.9623810000
| 22>  H        1.8313980000     0.4777770000    -0.2710500000
| 23>  H        3.3793990000     1.2797940000    -0.1367770000
| 24>  H        2.9000020000    -1.6876460000     0.4317880000
| 25>  H        2.9638350000    -0.4179680000     1.6479960000
| 26>  H        5.3961180000     0.0311210000     0.9322600000
| 27>  H        4.8094360000    -2.9195380000     1.7010530000
| 28>  H        6.3685620000    -1.9817340000     1.9245040000
| 29>  H        7.3483760000    -2.4281440000    -0.8116070000
| 30>  H        7.3657540000    -0.8858360000     0.0734690000
| 31>  H        6.6401740000    -0.9840020000    -1.5474710000
| 32> *
| 33>
| 34>                          ****END OF INPUT****
 Total Charge           Charge          ....    0
 Multiplicity           Mult            ....    1
 Number of Electrons    NEL             ....   56
 Basis Dimension        Dim             ....  163

MULLIKEN ATOMIC CHARGES
-----------------------
   0 C :   -0.019301
   1 C :   -0.053827
   2 C :    0.124902
   3 C :   -0.100868
   4 C :    0.077196
   5 N :   -0.282373
   6 C :    0.085910
   7 H :    0.018476
   8 H :    0.020292
   9 H :    0.021809
  10 H :    0.013166
  11 H :    0.003552
  12 H :   -0.005942
  13 H :    0.004815
  14 H :    0.001132
  15 H :    0.022904
  16 H :    0.018728
  17 H :    0.024683
  18 H :   -0.003192
  19 H :    0.027939
Sum of atomic charges:   -0.0000000

LOEWDIN ATOMIC CHARGES
----------------------
   0 C :   -0.067828
   1 C :   -0.047033
   2 C :   -0.039845
   3 C :   -0.002037
   4 C :    0.003108
   5 N :   -0.111310
   6 C :   -0.001149
   7 H :    0.025047
   8 H :    0.027068
   9 H :    0.025003
  10 H :    0.024751
  11 H :    0.020792
  12 H :    0.028402
  13 H :    0.028128
  14 H :    0.009101
  15 H :    0.018876
  16 H :    0.012122
  17 H :    0.024162
  18 H :    0.001204
  19 H :    0.021439

  Mayer bond orders larger than 0.1
B(  0-C ,  1-C ) :   1.1192 B(  0-C ,  7-H ) :   0.9595 B(  0-C ,  8-H ) :   0.9627
B(  0-C ,  9-H ) :   0.9655 B(  1-C ,  2-C ) :   1.1091 B(  1-C , 10-H ) :   0.9354
B(  1-C , 11-H ) :   0.9344 B(  2-C ,  3-C ) :   1.0566 B(  2-C , 12-H ) :   0.9087
B(  2-C , 13-H ) :   0.9206 B(  3-C ,  4-C ) :   1.0403 B(  3-C ,  5-N ) :   0.9210
B(  3-C , 14-H ) :   0.9252 B(  4-C ,  5-N ) :   0.9794 B(  4-C , 15-H ) :   0.9359
B(  4-C , 16-H ) :   0.9311 B(  5-N ,  6-C ) :   1.0309 B(  6-C , 17-H ) :   0.9674
B(  6-C , 18-H ) :   0.9364 B(  6-C , 19-H ) :   0.9663

FINAL SINGLE POINT ENERGY      -290.561184112529

DIPOLE MOMENT
-------------
                                X             Y             Z
Electronic contribution:      0.84302      -2.18132       2.25994
Nuclear contribution   :     -0.65259       2.42420      -2.03011
                        -----------------------------------------
Total Dipole Moment    :      0.19043       0.24288       0.22983
                        -----------------------------------------
Magnitude (a.u.)       :      0.38481
Magnitude (Debye)      :      0.97812

                             ****ORCA TERMINATED NORMALLY****
TOTAL RUN TIME: 0 days 0 hours 0 minutes 8 seconds 627 msec
