                         Program Version 3.0.3 - RELEASE   -
|  1> ! RI PBE def2-SVP def2-SVP/J NBO PAL2
|  2> % maxcore 2000
|  3> % output
|  4>     # printlevel mini
|  5>     print[ P_Basis ] 0
|  6>     print[ P_SCFInfo ] 1
|  7>     print[ P_SCFIterInfo ] 1
|  8>     print[ P_OrbEn ] 0
|  9>     print[ P_Cartesian ] 0
| 10> end
| 11> *xyz 0 1
| 12>  C        0.9270870000    -0.0996960000    -0.2861470000
| 13>  C        2.4051560000    -0.1134810000    -0.4693200000
| 14>  C        3.2032340000     0.9357160000    -0.3170490000
| 15>  C        4.6716760000     0.9131420000    -0.4935200000
| 16>  C        5.3605480000     0.0818090000    -1.5058790000
| 17>  N        5.2257590000     1.5113170000    -1.6974630000
| 18>  C        6.4313410000     2.2878850000    -1.5250840000
| 19>  H        0.6193590000    -0.8094460000     0.4884850000
| 20>  H        0.4143260000    -0.3996420000    -1.2057270000
| 21>  H        0.5677330000     0.8915670000    -0.0034790000
| 22>  H        2.8502770000    -1.0664580000    -0.7512510000
| 23>  H        2.7744420000     1.8953090000    -0.0300090000
| 24>  H        5.2454910000     1.1016270000     0.4164110000
| 25>  H        4.7849540000    -0.5405140000    -2.1826740000
| 26>  H        6.3449830000    -0.3037730000    -1.2486930000
| 27>  H        6.9900250000     2.3046810000    -2.4640070000
| 28>  H        7.0924370000     1.8918610000    -0.7368360000
| 29>  H        6.1685650000     3.3167950000    -1.2678580000
| 30> *
| 31>
| 32>                          ****END OF INPUT****
 Total Charge           Charge          ....    0
 Multiplicity           Mult            ....    1
 Number of Electrons    NEL             ....   54
 Basis Dimension        Dim             ....  153

MULLIKEN ATOMIC CHARGES
-----------------------
   0 C :    0.040354
   1 C :   -0.108405
   2 C :    0.034974
   3 C :   -0.021041
   4 C :    0.068420
   5 N :   -0.288732
   6 C :    0.086884
   7 H :    0.032749
   8 H :    0.035192
   9 H :    0.018627
  10 H :   -0.005089
  11 H :   -0.010521
  12 H :    0.019710
  13 H :    0.032334
  14 H :    0.016489
  15 H :    0.028202
  16 H :   -0.006422
  17 H :    0.026275
Sum of atomic charges:   -0.0000000

LOEWDIN ATOMIC CHARGES
----------------------
   0 C :   -0.064665
   1 C :   -0.034425
   2 C :   -0.046327
   3 C :   -0.003352
   4 C :    0.006196
   5 N :   -0.105056
   6 C :   -0.001872
   7 H :    0.036830
   8 H :    0.037800
   9 H :    0.030686
  10 H :    0.021813
  11 H :    0.023904
  12 H :    0.015884
  13 H :    0.020633
  14 H :    0.012307
  15 H :    0.024577
  16 H :    0.000500
  17 H :    0.024568

  Mayer bond orders larger than 0.1
B(  0-C ,  1-C ) :   1.0851 B(  0-C ,  7-H ) :   0.9468 B(  0-C ,  8-H ) :   0.9473
B(  0-C ,  9-H ) :   0.9609 B(  1-C ,  2-C ) :   1.9276 B(  1-C , 10-H ) :   0.9506
B(  2-C ,  3-C ) :   1.0311 B(  2-C , 11-H ) :   0.9480 B(  3-C ,  4-C ) :   1.0649
B(  3-C ,  5-N ) :   0.8924 B(  3-C , 12-H ) :   0.9065 B(  4-C ,  5-N ) :   0.9781
B(  4-C , 13-H ) :   0.9348 B(  4-C , 14-H ) :   0.9274 B(  5-N ,  6-C ) :   1.0229
B(  6-C , 15-H ) :   0.9703 B(  6-C , 16-H ) :   0.9340 B(  6-C , 17-H ) :   0.9703

FINAL SINGLE POINT ENERGY      -289.340409621711

DIPOLE MOMENT
-------------
                                X             Y             Z
Electronic contribution:      0.80540       0.29306      -0.62038
Nuclear contribution   :     -0.66270      -0.47111       0.91758
                        -----------------------------------------
Total Dipole Moment    :      0.14270      -0.17805       0.29720
                        -----------------------------------------
Magnitude (a.u.)       :      0.37469
Magnitude (Debye)      :      0.95240

                             ****ORCA TERMINATED NORMALLY****
TOTAL RUN TIME: 0 days 0 hours 0 minutes 7 seconds 679 msec
