                         Program Version 3.0.3 - RELEASE   -
|  1> ! RI PBE def2-SVP def2-SVP/J NBO PAL2
|  2> % maxcore 2000
|  3> % output
|  4>     # printlevel mini
|  5>     print[ P_Basis ] 0
|  6>     print[ P_SCFInfo ] 1
|  7>     print[ P_SCFIterInfo ] 1
|  8>     print[ P_OrbEn ] 0
|  9>     print[ P_Cartesian ] 0
| 10> end
| 11> *xyz 0 1
| 12>  C        1.0283120000     0.0654200000     0.4350880000
| 13>  C        2.5032320000     0.0219710000     0.0502830000
| 14>  C        3.1467720000     1.3911750000     0.2065860000
| 15>  C        3.1955020000    -1.0597950000     0.8503750000
| 16>  C        4.6065650000    -1.0275740000     1.3002750000
| 17>  N        3.5233360000    -0.7979880000     2.2349090000
| 18>  C        3.2587740000    -1.8607310000     3.1764740000
| 19>  H        0.4821340000     0.7906870000    -0.1730670000
| 20>  H        0.9210200000     0.3550850000     1.4841600000
| 21>  H        0.5506520000    -0.9095960000     0.3038140000
| 22>  H        2.5739690000    -0.2747760000    -1.0044150000
| 23>  H        3.1923250000     1.6732750000     1.2612140000
| 24>  H        2.5644910000     2.1478700000    -0.3244450000
| 25>  H        4.1613140000     1.4129740000    -0.1973450000
| 26>  H        2.8096260000    -2.0613450000     0.6486310000
| 27>  H        5.2389170000    -0.1716860000     1.0908100000
| 28>  H        5.1297130000    -1.9800840000     1.3586390000
| 29>  H        3.9139310000    -1.7518300000     4.0443250000
| 30>  H        3.4173270000    -2.8639130000     2.7483300000
| 31>  H        2.2239770000    -1.7948290000     3.5209560000
| 32> *
| 33>
| 34>                          ****END OF INPUT****
 Total Charge           Charge          ....    0
 Multiplicity           Mult            ....    1
 Number of Electrons    NEL             ....   56
 Basis Dimension        Dim             ....  163

MULLIKEN ATOMIC CHARGES
-----------------------
   0 C :    0.005134
   1 C :   -0.035565
   2 C :    0.010921
   3 C :   -0.052986
   4 C :    0.086859
   5 N :   -0.295028
   6 C :    0.095340
   7 H :    0.016710
   8 H :    0.022383
   9 H :    0.007629
  10 H :    0.004937
  11 H :    0.030052
  12 H :    0.009646
  13 H :    0.012539
  14 H :    0.000390
  15 H :    0.025314
  16 H :    0.014489
  17 H :    0.025859
  18 H :   -0.007653
  19 H :    0.023031
Sum of atomic charges:   -0.0000000

LOEWDIN ATOMIC CHARGES
----------------------
   0 C :   -0.057091
   1 C :   -0.047059
   2 C :   -0.059395
   3 C :    0.003598
   4 C :    0.003236
   5 N :   -0.107807
   6 C :    0.001051
   7 H :    0.024137
   8 H :    0.027349
   9 H :    0.021986
  10 H :    0.026934
  11 H :    0.027787
  12 H :    0.025367
  13 H :    0.023048
  14 H :    0.008720
  15 H :    0.018376
  16 H :    0.011664
  17 H :    0.023827
  18 H :    0.000730
  19 H :    0.023542

  Mayer bond orders larger than 0.1
B(  0-C ,  1-C ) :   1.0853 B(  0-C ,  7-H ) :   0.9598 B(  0-C ,  8-H ) :   0.9636
B(  0-C ,  9-H ) :   0.9592 B(  1-C ,  2-C ) :   1.0988 B(  1-C ,  3-C ) :   1.0149
B(  1-C , 10-H ) :   0.9053 B(  2-C , 11-H ) :   0.9541 B(  2-C , 12-H ) :   0.9549
B(  2-C , 13-H ) :   0.9504 B(  3-C ,  4-C ) :   1.0573 B(  3-C ,  5-N ) :   0.9153
B(  3-C , 14-H ) :   0.9278 B(  4-C ,  5-N ) :   0.9754 B(  4-C , 15-H ) :   0.9250
B(  4-C , 16-H ) :   0.9292 B(  5-N ,  6-C ) :   1.0306 B(  6-C , 17-H ) :   0.9697
B(  6-C , 18-H ) :   0.9361 B(  6-C , 19-H ) :   0.9702

FINAL SINGLE POINT ENERGY      -290.562042856909

DIPOLE MOMENT
-------------
                                X             Y             Z
Electronic contribution:      2.01332      -0.96070       0.58307
Nuclear contribution   :     -1.99579       0.60064      -0.71527
                        -----------------------------------------
Total Dipole Moment    :      0.01753      -0.36005      -0.13220
                        -----------------------------------------
Magnitude (a.u.)       :      0.38396
Magnitude (Debye)      :      0.97594

                             ****ORCA TERMINATED NORMALLY****
TOTAL RUN TIME: 0 days 0 hours 0 minutes 8 seconds 855 msec
