                         Program Version 3.0.3 - RELEASE   -
|  1> ! RI PBE def2-SVP def2-SVP/J NBO PAL2
|  2> % maxcore 2000
|  3> % output
|  4>     # printlevel mini
|  5>     print[ P_Basis ] 0
|  6>     print[ P_SCFInfo ] 1
|  7>     print[ P_SCFIterInfo ] 1
|  8>     print[ P_OrbEn ] 0
|  9>     print[ P_Cartesian ] 0
| 10> end
| 11> *xyz 0 1
| 12>  C        0.9655400000    -0.0306180000     0.1158590000
| 13>  C        2.4152630000    -0.0387090000     0.0862730000
| 14>  C        3.6175770000    -0.0376210000     0.0513990000
| 15>  C        5.0524470000    -0.0538600000     0.0364520000
| 16>  C        5.8364970000    -0.8186590000    -0.9742860000
| 17>  N        5.7508590000     0.6175920000    -1.0520320000
| 18>  C        6.9372650000     1.3491580000    -0.6710220000
| 19>  H        0.5685730000     0.8011510000    -0.4717590000
| 20>  H        0.5954720000     0.0757440000     1.1387440000
| 21>  H        0.5563310000    -0.9573120000    -0.2946500000
| 22>  H        5.5200220000     0.0212060000     1.0177320000
| 23>  H        5.3106850000    -1.3689700000    -1.7462590000
| 24>  H        6.7711020000    -1.2599410000    -0.6333990000
| 25>  H        7.5945580000     1.4421030000    -1.5386580000
| 26>  H        7.5035950000     0.8647880000     0.1410330000
| 27>  H        6.6558240000     2.3528470000    -0.3457150000
| 28> *
| 29>
| 30>                          ****END OF INPUT****
 Total Charge           Charge          ....    0
 Multiplicity           Mult            ....    1
 Number of Electrons    NEL             ....   52
 Basis Dimension        Dim             ....  143

MULLIKEN ATOMIC CHARGES
-----------------------
   0 C :    0.055945
   1 C :   -0.233569
   2 C :    0.097919
   3 C :   -0.134956
   4 C :    0.104781
   5 N :   -0.268091
   6 C :    0.081707
   7 H :    0.050086
   8 H :    0.045151
   9 H :    0.045909
  10 H :    0.035397
  11 H :    0.035622
  12 H :    0.022142
  13 H :    0.032538
  14 H :   -0.003120
  15 H :    0.032538
Sum of atomic charges:    0.0000000

LOEWDIN ATOMIC CHARGES
----------------------
   0 C :   -0.067402
   1 C :   -0.057139
   2 C :   -0.062753
   3 C :   -0.012508
   4 C :    0.021032
   5 N :   -0.094373
   6 C :    0.000264
   7 H :    0.051923
   8 H :    0.049998
   9 H :    0.049473
  10 H :    0.026704
  11 H :    0.025335
  12 H :    0.013365
  13 H :    0.026730
  14 H :    0.001738
  15 H :    0.027612

  Mayer bond orders larger than 0.1
B(  0-C ,  1-C ) :   1.1282 B(  0-C ,  7-H ) :   0.9314 B(  0-C ,  8-H ) :   0.9354
B(  0-C ,  9-H ) :   0.9325 B(  1-C ,  2-C ) :   2.5243 B(  2-C ,  3-C ) :   0.9686
B(  3-C ,  4-C ) :   1.0247 B(  3-C ,  5-N ) :   0.9325 B(  3-C , 10-H ) :   0.9163
B(  4-C ,  5-N ) :   0.9706 B(  4-C , 11-H ) :   0.9394 B(  4-C , 12-H ) :   0.9286
B(  5-N ,  6-C ) :   1.0239 B(  6-C , 13-H ) :   0.9692 B(  6-C , 14-H ) :   0.9354
B(  6-C , 15-H ) :   0.9701

FINAL SINGLE POINT ENERGY      -288.103793488776

DIPOLE MOMENT
-------------
                                X             Y             Z
Electronic contribution:     -1.15143      -0.66283      -0.15494
Nuclear contribution   :      1.26027       0.51413       0.42904
                        -----------------------------------------
Total Dipole Moment    :      0.10884      -0.14870       0.27410
                        -----------------------------------------
Magnitude (a.u.)       :      0.33029
Magnitude (Debye)      :      0.83952

                             ****ORCA TERMINATED NORMALLY****
TOTAL RUN TIME: 0 days 0 hours 0 minutes 6 seconds 758 msec
