                         Program Version 3.0.3 - RELEASE   -
|  1> ! RI PBE def2-SVP def2-SVP/J NBO PAL2
|  2> % maxcore 2000
|  3> % output
|  4>     # printlevel mini
|  5>     print[ P_Basis ] 0
|  6>     print[ P_SCFInfo ] 1
|  7>     print[ P_SCFIterInfo ] 1
|  8>     print[ P_OrbEn ] 0
|  9>     print[ P_Cartesian ] 0
| 10> end
| 11> *xyz 0 1
| 12>  C        1.0772720000    -0.1606250000    -0.2242090000
| 13>  C        2.5841950000    -0.3124820000    -0.1057080000
| 14>  C        3.1917500000     0.5835410000     0.9638110000
| 15>  C        4.6915340000     0.4516010000     1.0737510000
| 16>  C        5.5852370000     1.0039760000    -0.0535730000
| 17>  N        6.5275170000     1.4806510000     0.9706810000
| 18>  C        5.4699610000     1.4109760000     1.9911990000
| 19>  H        0.6663820000    -0.8161520000    -0.9954600000
| 20>  H        0.8036030000     0.8665630000    -0.4815080000
| 21>  H        0.5808180000    -0.4057890000     0.7190350000
| 22>  H        3.0521800000    -0.0897770000    -1.0717040000
| 23>  H        2.8335200000    -1.3564430000     0.1165480000
| 24>  H        2.7347230000     0.3504310000     1.9340970000
| 25>  H        2.9354630000     1.6293670000     0.7507150000
| 26>  H        4.9677960000    -0.5838100000     1.2940740000
| 27>  H        5.0736250000     1.8081710000    -0.6032440000
| 28>  H        6.0085530000     0.2985100000    -0.7738000000
| 29>  H        6.9244760000     2.3972550000     0.8102160000
| 30>  H        4.9206660000     2.3529450000     2.1348270000
| 31>  H        5.7957180000     1.0402800000     2.9671400000
| 32> *
| 33>
| 34>                          ****END OF INPUT****
 Total Charge           Charge          ....    0
 Multiplicity           Mult            ....    1
 Number of Electrons    NEL             ....   56
 Basis Dimension        Dim             ....  163

MULLIKEN ATOMIC CHARGES
-----------------------
   0 C :    0.004402
   1 C :   -0.057840
   2 C :    0.070275
   3 C :   -0.255488
   4 C :    0.163780
   5 N :   -0.280301
   6 C :    0.198397
   7 H :    0.019093
   8 H :    0.014671
   9 H :    0.014848
  10 H :    0.009426
  11 H :    0.010460
  12 H :    0.004523
  13 H :   -0.009212
  14 H :    0.014339
  15 H :   -0.012718
  16 H :    0.011744
  17 H :    0.091020
  18 H :   -0.016662
  19 H :    0.005244
Sum of atomic charges:    0.0000000

LOEWDIN ATOMIC CHARGES
----------------------
   0 C :   -0.065351
   1 C :   -0.046300
   2 C :   -0.041704
   3 C :   -0.042709
   4 C :    0.026241
   5 N :   -0.114799
   6 C :    0.031068
   7 H :    0.026430
   8 H :    0.024026
   9 H :    0.023928
  10 H :    0.022711
  11 H :    0.023307
  12 H :    0.024513
  13 H :    0.017391
  14 H :    0.027374
  15 H :    0.001082
  16 H :    0.008794
  17 H :    0.044395
  18 H :    0.001282
  19 H :    0.008323

  Mayer bond orders larger than 0.1
B(  0-C ,  1-C ) :   1.1174 B(  0-C ,  7-H ) :   0.9612 B(  0-C ,  8-H ) :   0.9650
B(  0-C ,  9-H ) :   0.9646 B(  1-C ,  2-C ) :   1.0924 B(  1-C , 10-H ) :   0.9388
B(  1-C , 11-H ) :   0.9384 B(  2-C ,  3-C ) :   1.0606 B(  2-C , 12-H ) :   0.9250
B(  2-C , 13-H ) :   0.9174 B(  3-C ,  4-C ) :   1.0668 B(  3-C ,  6-C ) :   1.0618
B(  3-C , 14-H ) :   0.8971 B(  4-C ,  5-N ) :   1.0509 B(  4-C , 15-H ) :   0.9210
B(  4-C , 16-H ) :   0.9363 B(  5-N ,  6-C ) :   1.0485 B(  5-N , 17-H ) :   0.9426
B(  6-C , 18-H ) :   0.9213 B(  6-C , 19-H ) :   0.9340

FINAL SINGLE POINT ENERGY      -290.566960108607

DIPOLE MOMENT
-------------
                                X             Y             Z
Electronic contribution:      5.75456       1.10192       1.42865
Nuclear contribution   :     -6.10142      -0.84326      -1.51705
                        -----------------------------------------
Total Dipole Moment    :     -0.34686       0.25866      -0.08840
                        -----------------------------------------
Magnitude (a.u.)       :      0.44163
Magnitude (Debye)      :      1.12252

                             ****ORCA TERMINATED NORMALLY****
TOTAL RUN TIME: 0 days 0 hours 0 minutes 8 seconds 534 msec
