                         Program Version 3.0.3 - RELEASE   -
|  1> ! RI PBE def2-SVP def2-SVP/J NBO PAL2
|  2> % maxcore 2000
|  3> % output
|  4>     # printlevel mini
|  5>     print[ P_Basis ] 0
|  6>     print[ P_SCFInfo ] 1
|  7>     print[ P_SCFIterInfo ] 1
|  8>     print[ P_OrbEn ] 0
|  9>     print[ P_Cartesian ] 0
| 10> end
| 11> *xyz 0 1
| 12>  C        2.4908220000    -2.6229280000    -2.0243760000
| 13>  C        2.9883400000    -1.4036710000    -2.1778580000
| 14>  C        3.1962110000    -0.4146700000    -1.0787020000
| 15>  C        4.6477790000    -0.0049450000    -0.9304320000
| 16>  C        5.0569400000     0.8824600000     0.2582090000
| 17>  N        6.2818070000     0.0794910000     0.3930800000
| 18>  C        5.6631200000    -1.0167250000    -0.3705200000
| 19>  H        2.3716270000    -3.2983980000    -2.8636290000
| 20>  H        2.1789310000    -2.9880560000    -1.0503700000
| 21>  H        3.2899390000    -1.0797380000    -3.1732730000
| 22>  H        2.8295450000    -0.8302710000    -0.1339870000
| 23>  H        2.5996810000     0.4846730000    -1.2822480000
| 24>  H        5.0196470000     0.4223840000    -1.8657920000
| 25>  H        4.3520050000     0.7740950000     1.0953660000
| 26>  H        5.2220280000     1.9473770000     0.0720200000
| 27>  H        6.5571050000    -0.1458690000     1.3400570000
| 28>  H        5.1651570000    -1.7754910000     0.2501800000
| 29>  H        6.3297360000    -1.5216300000    -1.0741470000
| 30> *
| 31>
| 32>                          ****END OF INPUT****
 Total Charge           Charge          ....    0
 Multiplicity           Mult            ....    1
 Number of Electrons    NEL             ....   54
 Basis Dimension        Dim             ....  153

MULLIKEN ATOMIC CHARGES
-----------------------
   0 C :   -0.032583
   1 C :   -0.087424
   2 C :    0.153655
   3 C :   -0.272526
   4 C :    0.175115
   5 N :   -0.277758
   6 C :    0.178823
   7 H :    0.026378
   8 H :    0.014227
   9 H :    0.001176
  10 H :   -0.009422
  11 H :    0.020321
  12 H :    0.014568
  13 H :   -0.011218
  14 H :    0.014131
  15 H :    0.092348
  16 H :   -0.011980
  17 H :    0.012171
Sum of atomic charges:    0.0000000

LOEWDIN ATOMIC CHARGES
----------------------
   0 C :   -0.067300
   1 C :   -0.027667
   2 C :   -0.039812
   3 C :   -0.038896
   4 C :    0.027696
   5 N :   -0.114100
   6 C :    0.030136
   7 H :    0.024983
   8 H :    0.020537
   9 H :    0.024968
  10 H :    0.023819
  11 H :    0.037357
  12 H :    0.027028
  13 H :    0.002460
  14 H :    0.010243
  15 H :    0.044960
  16 H :    0.002686
  17 H :    0.010903

  Mayer bond orders larger than 0.1
B(  0-C ,  1-C ) :   2.0145 B(  0-C ,  7-H ) :   0.9433 B(  0-C ,  8-H ) :   0.9474
B(  1-C ,  2-C ) :   1.0619 B(  1-C ,  9-H ) :   0.9541 B(  2-C ,  3-C ) :   1.0445
B(  2-C , 10-H ) :   0.9144 B(  2-C , 11-H ) :   0.9015 B(  3-C ,  4-C ) :   1.0628
B(  3-C ,  6-C ) :   1.0629 B(  3-C , 12-H ) :   0.9040 B(  4-C ,  5-N ) :   1.0529
B(  4-C , 13-H ) :   0.9198 B(  4-C , 14-H ) :   0.9359 B(  5-N ,  6-C ) :   1.0503
B(  5-N , 15-H ) :   0.9427 B(  6-C , 16-H ) :   0.9229 B(  6-C , 17-H ) :   0.9363

FINAL SINGLE POINT ENERGY      -289.342667343554

DIPOLE MOMENT
-------------
                                X             Y             Z
Electronic contribution:      1.55864       0.86579      -0.03633
Nuclear contribution   :     -1.84736      -0.92876       0.27037
                        -----------------------------------------
Total Dipole Moment    :     -0.28872      -0.06296       0.23404
                        -----------------------------------------
Magnitude (a.u.)       :      0.37697
Magnitude (Debye)      :      0.95817

                             ****ORCA TERMINATED NORMALLY****
TOTAL RUN TIME: 0 days 0 hours 0 minutes 7 seconds 620 msec
