                         Program Version 3.0.3 - RELEASE   -
|  1> ! RI PBE def2-SVP def2-SVP/J NBO PAL2
|  2> % maxcore 2000
|  3> % output
|  4>     # printlevel mini
|  5>     print[ P_Basis ] 0
|  6>     print[ P_SCFInfo ] 1
|  7>     print[ P_SCFIterInfo ] 1
|  8>     print[ P_OrbEn ] 0
|  9>     print[ P_Cartesian ] 0
| 10> end
| 11> *xyz 0 1
| 12>  C        1.1516330000     0.5428060000    -0.5022080000
| 13>  C        2.3213740000     0.3375920000    -0.3258130000
| 14>  C        3.7371430000     0.0684550000    -0.1322950000
| 15>  C        4.2809520000    -0.9598350000    -1.1071490000
| 16>  C        5.7108690000    -1.4853100000    -0.8943790000
| 17>  N        5.2330430000    -2.8269740000    -1.2591820000
| 18>  C        3.8461550000    -2.4283150000    -0.9678990000
| 19>  H        0.1149640000     0.7283360000    -0.6549350000
| 20>  H        3.8987560000    -0.2782310000     0.8950240000
| 21>  H        4.2972220000     1.0053060000    -0.2344390000
| 22>  H        4.1417780000    -0.6147790000    -2.1333550000
| 23>  H        6.0194940000    -1.3856610000     0.1568500000
| 24>  H        6.5040050000    -1.0884930000    -1.5337660000
| 25>  H        5.5981090000    -3.5906740000    -0.7054360000
| 26>  H        3.5174020000    -2.6502740000     0.0575180000
| 27>  H        3.0995110000    -2.8099590000    -1.6678360000
| 28> *
| 29>
| 30>                          ****END OF INPUT****
 Total Charge           Charge          ....    0
 Multiplicity           Mult            ....    1
 Number of Electrons    NEL             ....   52
 Basis Dimension        Dim             ....  143

MULLIKEN ATOMIC CHARGES
-----------------------
   0 C :   -0.493334
   1 C :    0.327314
   2 C :    0.166019
   3 C :   -0.286662
   4 C :    0.200697
   5 N :   -0.285105
   6 C :    0.193207
   7 H :   -0.002704
   8 H :    0.021420
   9 H :    0.035498
  10 H :    0.028470
  11 H :   -0.017265
  12 H :    0.013400
  13 H :    0.094325
  14 H :   -0.013266
  15 H :    0.017986
Sum of atomic charges:   -0.0000000

LOEWDIN ATOMIC CHARGES
----------------------
   0 C :   -0.089720
   1 C :   -0.021578
   2 C :   -0.044934
   3 C :   -0.033308
   4 C :    0.031630
   5 N :   -0.113246
   6 C :    0.034817
   7 H :    0.033899
   8 H :    0.043323
   9 H :    0.050906
  10 H :    0.032997
  11 H :    0.001401
  12 H :    0.010915
  13 H :    0.045927
  14 H :    0.003336
  15 H :    0.013637

  Mayer bond orders larger than 0.1
B(  0-C ,  1-C ) :   2.3384 B(  0-C ,  7-H ) :   1.1030 B(  1-C ,  2-C ) :   1.0678
B(  1-C ,  7-H ) :  -0.1119 B(  2-C ,  3-C ) :   1.0386 B(  2-C ,  8-H ) :   0.8840
B(  2-C ,  9-H ) :   0.8868 B(  3-C ,  4-C ) :   1.0552 B(  3-C ,  6-C ) :   1.0604
B(  3-C , 10-H ) :   0.9043 B(  4-C ,  5-N ) :   1.0531 B(  4-C , 11-H ) :   0.9171
B(  4-C , 12-H ) :   0.9355 B(  5-N ,  6-C ) :   1.0503 B(  5-N , 13-H ) :   0.9438
B(  6-C , 14-H ) :   0.9225 B(  6-C , 15-H ) :   0.9380

FINAL SINGLE POINT ENERGY      -288.099656086321

DIPOLE MOMENT
-------------
                                X             Y             Z
Electronic contribution:     -2.42045       1.36137      -0.39243
Nuclear contribution   :      2.63251      -1.38071       0.81124
                        -----------------------------------------
Total Dipole Moment    :      0.21206      -0.01934       0.41881
                        -----------------------------------------
Magnitude (a.u.)       :      0.46984
Magnitude (Debye)      :      1.19423

                             ****ORCA TERMINATED NORMALLY****
TOTAL RUN TIME: 0 days 0 hours 0 minutes 7 seconds 127 msec
