                         Program Version 3.0.3 - RELEASE   -
|  1> ! RI PBE def2-SVP def2-SVP/J NBO PAL2
|  2> % maxcore 2000
|  3> % output
|  4>     # printlevel mini
|  5>     print[ P_Basis ] 0
|  6>     print[ P_SCFInfo ] 1
|  7>     print[ P_SCFIterInfo ] 1
|  8>     print[ P_OrbEn ] 0
|  9>     print[ P_Cartesian ] 0
| 10> end
| 11> *xyz 0 1
| 12>  C        0.8988420000     0.6586760000     0.3702930000
| 13>  C        2.3782710000     0.5090630000     0.2817940000
| 14>  C        3.1921070000     0.3099980000     1.3133890000
| 15>  C        4.6624400000     0.1622370000     1.2209600000
| 16>  C        5.5683400000     1.0198160000     2.1326750000
| 17>  N        6.4427260000    -0.1474340000     2.3169440000
| 18>  C        5.3473220000    -1.0392800000     1.9099020000
| 19>  H        0.5746120000     1.6247540000    -0.0301130000
| 20>  H        0.5506660000     0.5838630000     1.4023790000
| 21>  H        0.3878960000    -0.1097580000    -0.2189020000
| 22>  H        2.8131360000     0.5703850000    -0.7154200000
| 23>  H        2.7638390000     0.2476540000     2.3149140000
| 24>  H        4.9920320000     0.2393010000     0.1823960000
| 25>  H        5.0324930000     1.3301700000     3.0409610000
| 26>  H        6.0485800000     1.8956010000     1.6881200000
| 27>  H        6.7988320000    -0.2870050000     3.2534300000
| 28>  H        4.7377790000    -1.4150450000     2.7440030000
| 29>  H        5.6430770000    -1.8821660000     1.2795760000
| 30> *
| 31>
| 32>                          ****END OF INPUT****
 Total Charge           Charge          ....    0
 Multiplicity           Mult            ....    1
 Number of Electrons    NEL             ....   54
 Basis Dimension        Dim             ....  153

MULLIKEN ATOMIC CHARGES
-----------------------
   0 C :    0.043143
   1 C :   -0.114254
   2 C :    0.045232
   3 C :   -0.220926
   4 C :    0.192362
   5 N :   -0.278901
   6 C :    0.184317
   7 H :    0.030687
   8 H :    0.015815
   9 H :    0.034295
  10 H :   -0.007906
  11 H :   -0.023733
  12 H :    0.011342
  13 H :   -0.013206
  14 H :    0.009831
  15 H :    0.091429
  16 H :   -0.012448
  17 H :    0.012920
Sum of atomic charges:   -0.0000000

LOEWDIN ATOMIC CHARGES
----------------------
   0 C :   -0.064571
   1 C :   -0.041875
   2 C :   -0.048980
   3 C :   -0.042561
   4 C :    0.035884
   5 N :   -0.115946
   6 C :    0.034808
   7 H :    0.036259
   8 H :    0.029725
   9 H :    0.037043
  10 H :    0.021706
  11 H :    0.017209
  12 H :    0.032050
  13 H :    0.001877
  14 H :    0.010047
  15 H :    0.044760
  16 H :    0.002231
  17 H :    0.010335

  Mayer bond orders larger than 0.1
B(  0-C ,  1-C ) :   1.0782 B(  0-C ,  7-H ) :   0.9472 B(  0-C ,  8-H ) :   0.9615
B(  0-C ,  9-H ) :   0.9471 B(  1-C ,  2-C ) :   1.9002 B(  1-C , 10-H ) :   0.9601
B(  2-C ,  3-C ) :   1.0308 B(  2-C , 11-H ) :   0.9445 B(  3-C ,  4-C ) :   1.0372
B(  3-C ,  6-C ) :   1.0397 B(  3-C , 12-H ) :   0.9059 B(  4-C ,  5-N ) :   1.0507
B(  4-C , 13-H ) :   0.9245 B(  4-C , 14-H ) :   0.9354 B(  5-N ,  6-C ) :   1.0497
B(  5-N , 15-H ) :   0.9423 B(  6-C , 16-H ) :   0.9229 B(  6-C , 17-H ) :   0.9361

FINAL SINGLE POINT ENERGY      -289.349263753176

DIPOLE MOMENT
-------------
                                X             Y             Z
Electronic contribution:      3.77029      -0.45797       0.48707
Nuclear contribution   :     -4.16942       0.47527      -0.24635
                        -----------------------------------------
Total Dipole Moment    :     -0.39913       0.01730       0.24072
                        -----------------------------------------
Magnitude (a.u.)       :      0.46642
Magnitude (Debye)      :      1.18556

                             ****ORCA TERMINATED NORMALLY****
TOTAL RUN TIME: 0 days 0 hours 0 minutes 7 seconds 770 msec
