                         Program Version 3.0.3 - RELEASE   -
|  1> ! RI PBE def2-SVP def2-SVP/J NBO PAL2
|  2> % maxcore 2000
|  3> % output
|  4>     # printlevel mini
|  5>     print[ P_Basis ] 0
|  6>     print[ P_SCFInfo ] 1
|  7>     print[ P_SCFIterInfo ] 1
|  8>     print[ P_OrbEn ] 0
|  9>     print[ P_Cartesian ] 0
| 10> end
| 11> *xyz 0 1
| 12>  C        4.4756520000     1.1523410000    -1.1131100000
| 13>  C        3.5902870000     0.3018530000    -0.2557470000
| 14>  C        2.6624970000    -0.4974220000    -0.7734310000
| 15>  C        3.8445150000     0.4130500000     1.2092950000
| 16>  C        3.5994270000     1.7659180000     1.9173830000
| 17>  N        3.1301060000     1.0166190000     3.0920330000
| 18>  C        2.8825050000    -0.1697610000     2.2551120000
| 19>  H        5.5291500000     0.8969770000    -0.9576050000
| 20>  H        4.3695520000     2.2113380000    -0.8551940000
| 21>  H        4.2456360000     1.0332270000    -2.1724390000
| 22>  H        2.5126240000    -0.5628390000    -1.8455260000
| 23>  H        2.0272730000    -1.1169200000    -0.1511790000
| 24>  H        4.8679630000     0.0861390000     1.4243870000
| 25>  H        2.8140180000     2.3399980000     1.4061500000
| 26>  H        4.4593590000     2.4160250000     2.0989290000
| 27>  H        2.3153660000     1.3996940000     3.5535140000
| 28>  H        1.8574870000    -0.2322730000     1.8676740000
| 29>  H        3.1488620000    -1.1232750000     2.7180450000
| 30> *
| 31>
| 32>                          ****END OF INPUT****
 Total Charge           Charge          ....    0
 Multiplicity           Mult            ....    1
 Number of Electrons    NEL             ....   54
 Basis Dimension        Dim             ....  153

MULLIKEN ATOMIC CHARGES
-----------------------
   0 C :    0.052654
   1 C :   -0.113978
   2 C :   -0.046038
   3 C :   -0.185086
   4 C :    0.151105
   5 N :   -0.278941
   6 C :    0.188540
   7 H :    0.030863
   8 H :    0.033153
   9 H :    0.019515
  10 H :    0.005521
  11 H :    0.008507
  12 H :    0.026536
  13 H :   -0.001686
  14 H :    0.013310
  15 H :    0.093773
  16 H :   -0.004926
  17 H :    0.007177
Sum of atomic charges:    0.0000000

LOEWDIN ATOMIC CHARGES
----------------------
   0 C :   -0.057120
   1 C :   -0.031430
   2 C :   -0.082055
   3 C :   -0.036863
   4 C :    0.031940
   5 N :   -0.112690
   6 C :    0.033292
   7 H :    0.036893
   8 H :    0.035715
   9 H :    0.031771
  10 H :    0.019840
  11 H :    0.017567
  12 H :    0.037803
  13 H :    0.004459
  14 H :    0.009518
  15 H :    0.046141
  16 H :    0.004678
  17 H :    0.010541

  Mayer bond orders larger than 0.1
B(  0-C ,  1-C ) :   1.0782 B(  0-C ,  7-H ) :   0.9450 B(  0-C ,  8-H ) :   0.9446
B(  0-C ,  9-H ) :   0.9487 B(  1-C ,  2-C ) :   1.9913 B(  1-C ,  3-C ) :   1.0071
B(  2-C , 10-H ) :   0.9293 B(  2-C , 11-H ) :   0.9288 B(  3-C ,  4-C ) :   1.0587
B(  3-C ,  6-C ) :   1.0793 B(  3-C , 12-H ) :   0.8763 B(  4-C ,  5-N ) :   1.0546
B(  4-C , 13-H ) :   0.9245 B(  4-C , 14-H ) :   0.9345 B(  5-N ,  6-C ) :   1.0437
B(  5-N , 15-H ) :   0.9429 B(  6-C , 16-H ) :   0.9182 B(  6-C , 17-H ) :   0.9329

FINAL SINGLE POINT ENERGY      -289.347420179584

DIPOLE MOMENT
-------------
                                X             Y             Z
Electronic contribution:     -0.36045      -0.60610       2.62921
Nuclear contribution   :      0.18539       0.81312      -2.83111
                        -----------------------------------------
Total Dipole Moment    :     -0.17506       0.20703      -0.20190
                        -----------------------------------------
Magnitude (a.u.)       :      0.33803
Magnitude (Debye)      :      0.85922

                             ****ORCA TERMINATED NORMALLY****
TOTAL RUN TIME: 0 days 0 hours 0 minutes 7 seconds 708 msec
