                         Program Version 3.0.3 - RELEASE   -
|  1> ! RI PBE def2-SVP def2-SVP/J NBO PAL2
|  2> % maxcore 2000
|  3> % output
|  4>     # printlevel mini
|  5>     print[ P_Basis ] 0
|  6>     print[ P_SCFInfo ] 1
|  7>     print[ P_SCFIterInfo ] 1
|  8>     print[ P_OrbEn ] 0
|  9>     print[ P_Cartesian ] 0
| 10> end
| 11> *xyz 0 1
| 12>  C        0.9038740000     0.0849450000    -0.0576330000
| 13>  C        2.4275530000     0.0555220000    -0.0123930000
| 14>  C        2.9612250000     1.2752770000     0.7274660000
| 15>  C        2.9044130000    -1.2781100000     0.5426580000
| 16>  C        4.3979740000    -1.5808090000     0.7612990000
| 17>  N        4.0314350000    -2.3346690000     1.9711930000
| 18>  C        2.7370970000    -1.6364820000     2.0331320000
| 19>  H        0.5378830000     1.0098450000    -0.5105330000
| 20>  H        0.4839730000     0.0235750000     0.9514850000
| 21>  H        0.5054740000    -0.7533600000    -0.6350800000
| 22>  H        2.7937270000     0.1113350000    -1.0468340000
| 23>  H        2.6013300000     1.3071860000     1.7597490000
| 24>  H        2.6230260000     2.1920240000     0.2378060000
| 25>  H        4.0527940000     1.3003670000     0.7523230000
| 26>  H        2.4692250000    -2.0800450000    -0.0609280000
| 27>  H        4.9806310000    -0.6721820000     0.9620290000
| 28>  H        4.9135460000    -2.1655730000    -0.0058320000
| 29>  H        4.6379190000    -2.1998930000     2.7696750000
| 30>  H        2.7429820000    -0.7457160000     2.6753960000
| 31>  H        1.8894080000    -2.2672470000     2.3141240000
| 32> *
| 33>
| 34>                          ****END OF INPUT****
 Total Charge           Charge          ....    0
 Multiplicity           Mult            ....    1
 Number of Electrons    NEL             ....   56
 Basis Dimension        Dim             ....  163

MULLIKEN ATOMIC CHARGES
-----------------------
   0 C :    0.021496
   1 C :   -0.058546
   2 C :    0.002236
   3 C :   -0.223720
   4 C :    0.177516
   5 N :   -0.274635
   6 C :    0.160202
   7 H :    0.014413
   8 H :    0.013612
   9 H :    0.014643
  10 H :    0.006337
  11 H :    0.012519
  12 H :    0.011931
  13 H :    0.020600
  14 H :    0.013841
  15 H :   -0.009925
  16 H :    0.008604
  17 H :    0.089788
  18 H :   -0.008502
  19 H :    0.007590
Sum of atomic charges:   -0.0000000

LOEWDIN ATOMIC CHARGES
----------------------
   0 C :   -0.055827
   1 C :   -0.047552
   2 C :   -0.063132
   3 C :   -0.038500
   4 C :    0.027037
   5 N :   -0.112465
   6 C :    0.025475
   7 H :    0.024581
   8 H :    0.024068
   9 H :    0.024840
  10 H :    0.027479
  11 H :    0.020703
  12 H :    0.026945
  13 H :    0.021631
  14 H :    0.029138
  15 H :    0.001825
  16 H :    0.008955
  17 H :    0.044712
  18 H :    0.001929
  19 H :    0.008156

  Mayer bond orders larger than 0.1
B(  0-C ,  1-C ) :   1.0819 B(  0-C ,  7-H ) :   0.9610 B(  0-C ,  8-H ) :   0.9625
B(  0-C ,  9-H ) :   0.9599 B(  1-C ,  2-C ) :   1.0834 B(  1-C ,  3-C ) :   1.0291
B(  1-C , 10-H ) :   0.9025 B(  2-C , 11-H ) :   0.9549 B(  2-C , 12-H ) :   0.9538
B(  2-C , 13-H ) :   0.9568 B(  3-C ,  4-C ) :   1.0634 B(  3-C ,  6-C ) :   1.0669
B(  3-C , 14-H ) :   0.8980 B(  4-C ,  5-N ) :   1.0487 B(  4-C , 15-H ) :   0.9194
B(  4-C , 16-H ) :   0.9336 B(  5-N ,  6-C ) :   1.0535 B(  5-N , 17-H ) :   0.9394
B(  6-C , 18-H ) :   0.9208 B(  6-C , 19-H ) :   0.9339

FINAL SINGLE POINT ENERGY      -290.565151479709

DIPOLE MOMENT
-------------
                                X             Y             Z
Electronic contribution:      2.40340      -4.08346       1.04318
Nuclear contribution   :     -2.37497       4.53962      -1.01424
                        -----------------------------------------
Total Dipole Moment    :      0.02842       0.45616       0.02894
                        -----------------------------------------
Magnitude (a.u.)       :      0.45796
Magnitude (Debye)      :      1.16403

                             ****ORCA TERMINATED NORMALLY****
TOTAL RUN TIME: 0 days 0 hours 0 minutes 8 seconds 623 msec
