                         Program Version 3.0.3 - RELEASE   -
|  1> ! RI PBE def2-SVP def2-SVP/J NBO PAL2
|  2> % maxcore 2000
|  3> % output
|  4>     # printlevel mini
|  5>     print[ P_Basis ] 0
|  6>     print[ P_SCFInfo ] 1
|  7>     print[ P_SCFIterInfo ] 1
|  8>     print[ P_OrbEn ] 0
|  9>     print[ P_Cartesian ] 0
| 10> end
| 11> *xyz 0 1
| 12>  C        0.9665740000    -0.0964010000    -0.0390450000
| 13>  C        2.4172010000    -0.0873750000    -0.0119030000
| 14>  C        3.6205260000    -0.0798250000     0.0070590000
| 15>  C        5.0632920000    -0.0712720000     0.0443190000
| 16>  C        5.7979670000     0.9436140000     0.9506600000
| 17>  N        6.7752790000    -0.1075510000     1.2691880000
| 18>  C        5.8125240000    -1.1439360000     0.8684890000
| 19>  H        0.5910650000     0.0131600000    -1.0596410000
| 20>  H        0.5573090000     0.7225320000     0.5581550000
| 21>  H        0.5722560000    -1.0328200000     0.3639940000
| 22>  H        5.4737390000    -0.0285740000    -0.9676380000
| 23>  H        5.1621570000     1.2426910000     1.7932100000
| 24>  H        6.2121070000     1.8347160000     0.4730020000
| 25>  H        7.0794170000    -0.1433730000     2.2331590000
| 26>  H        5.1813830000    -1.5171150000     1.6845700000
| 27>  H        6.2387850000    -1.9888890000     0.3225140000
| 28> *
| 29>
| 30>                          ****END OF INPUT****
 Total Charge           Charge          ....    0
 Multiplicity           Mult            ....    1
 Number of Electrons    NEL             ....   52
 Basis Dimension        Dim             ....  143

MULLIKEN ATOMIC CHARGES
-----------------------
   0 C :    0.055747
   1 C :   -0.250543
   2 C :    0.060221
   3 C :   -0.278235
   4 C :    0.199467
   5 N :   -0.282956
   6 C :    0.197090
   7 H :    0.044681
   8 H :    0.046387
   9 H :    0.044860
  10 H :    0.041086
  11 H :   -0.001709
  12 H :    0.014821
  13 H :    0.094777
  14 H :   -0.001400
  15 H :    0.015705
Sum of atomic charges:   -0.0000000

LOEWDIN ATOMIC CHARGES
----------------------
   0 C :   -0.067957
   1 C :   -0.068572
   2 C :   -0.067864
   3 C :   -0.051043
   4 C :    0.043925
   5 N :   -0.114972
   6 C :    0.043622
   7 H :    0.049145
   8 H :    0.049875
   9 H :    0.049722
  10 H :    0.047456
  11 H :    0.007452
  12 H :    0.011954
  13 H :    0.047597
  14 H :    0.007603
  15 H :    0.012060

  Mayer bond orders larger than 0.1
B(  0-C ,  1-C ) :   1.1352 B(  0-C ,  7-H ) :   0.9346 B(  0-C ,  8-H ) :   0.9323
B(  0-C ,  9-H ) :   0.9319 B(  1-C ,  2-C ) :   2.5154 B(  2-C ,  3-C ) :   0.9624
B(  3-C ,  4-C ) :   1.0535 B(  3-C ,  6-C ) :   1.0555 B(  3-C , 10-H ) :   0.8616
B(  4-C ,  5-N ) :   1.0496 B(  4-C , 11-H ) :   0.9268 B(  4-C , 12-H ) :   0.9338
B(  5-N ,  6-C ) :   1.0490 B(  5-N , 13-H ) :   0.9432 B(  6-C , 14-H ) :   0.9261
B(  6-C , 15-H ) :   0.9341

FINAL SINGLE POINT ENERGY      -288.112142268120

DIPOLE MOMENT
-------------
                                X             Y             Z
Electronic contribution:      1.77324       0.04228      -0.74611
Nuclear contribution   :     -2.18684      -0.05779       1.07144
                        -----------------------------------------
Total Dipole Moment    :     -0.41360      -0.01552       0.32533
                        -----------------------------------------
Magnitude (a.u.)       :      0.52645
Magnitude (Debye)      :      1.33813

                             ****ORCA TERMINATED NORMALLY****
TOTAL RUN TIME: 0 days 0 hours 0 minutes 6 seconds 750 msec
