                         Program Version 3.0.3 - RELEASE   -
|  1> ! RI PBE def2-SVP def2-SVP/J NBO PAL2
|  2> % maxcore 2000
|  3> % output
|  4>     # printlevel mini
|  5>     print[ P_Basis ] 0
|  6>     print[ P_SCFInfo ] 1
|  7>     print[ P_SCFIterInfo ] 1
|  8>     print[ P_OrbEn ] 0
|  9>     print[ P_Cartesian ] 0
| 10> end
| 11> *xyz 0 1
| 12>  C        3.4867150000    -0.7242500000     1.6721550000
| 13>  C        3.0155450000    -0.3341740000     0.2806600000
| 14>  C        3.4350070000     1.0685510000    -0.1469320000
| 15>  C        4.9226170000     1.2480990000    -0.2715920000
| 16>  N        5.4867330000     2.5857260000    -0.4440860000
| 17>  C        5.7280050000     1.8606890000     0.8036880000
| 18>  C        7.1441920000     1.4597630000     1.0836030000
| 19>  H        3.1371850000    -1.7236250000     1.9413510000
| 20>  H        3.1084340000    -0.0269000000     2.4255460000
| 21>  H        4.5768620000    -0.7241270000     1.7414130000
| 22>  H        1.9240380000    -0.4028700000     0.2330070000
| 23>  H        3.3944070000    -1.0570780000    -0.4509790000
| 24>  H        3.0457450000     1.8048850000     0.5685980000
| 25>  H        2.9715960000     1.2996620000    -1.1136890000
| 26>  H        5.4162860000     0.5016010000    -0.8933470000
| 27>  H        4.7588810000     3.2818570000    -0.3150510000
| 28>  H        5.1604620000     2.1903970000     1.6726110000
| 29>  H        7.6373930000     1.1466070000     0.1615180000
| 30>  H        7.1850460000     0.6329910000     1.7984720000
| 31>  H        7.7124510000     2.2956870000     1.5001660000
| 32> *
| 33>
| 34>                          ****END OF INPUT****
 Total Charge           Charge          ....    0
 Multiplicity           Mult            ....    1
 Number of Electrons    NEL             ....   56
 Basis Dimension        Dim             ....  163

MULLIKEN ATOMIC CHARGES
-----------------------
   0 C :   -0.026938
   1 C :   -0.053779
   2 C :    0.096074
   3 C :   -0.098664
   4 N :   -0.156439
   5 C :   -0.120031
   6 C :    0.086948
   7 H :    0.017996
   8 H :    0.014720
   9 H :    0.033305
  10 H :    0.017770
  11 H :    0.017249
  12 H :   -0.017183
  13 H :    0.012648
  14 H :    0.007204
  15 H :    0.097678
  16 H :    0.010584
  17 H :    0.015060
  18 H :    0.022575
  19 H :    0.023223
Sum of atomic charges:    0.0000000

LOEWDIN ATOMIC CHARGES
----------------------
   0 C :   -0.069883
   1 C :   -0.046180
   2 C :   -0.047428
   3 C :   -0.009410
   4 N :   -0.100071
   5 C :   -0.010601
   6 C :   -0.065987
   7 H :    0.027052
   8 H :    0.023985
   9 H :    0.026225
  10 H :    0.026371
  11 H :    0.025360
  12 H :    0.020335
  13 H :    0.028581
  14 H :    0.017747
  15 H :    0.049704
  16 H :    0.011497
  17 H :    0.032956
  18 H :    0.028445
  19 H :    0.031303

  Mayer bond orders larger than 0.1
B(  0-C ,  1-C ) :   1.1202 B(  0-C ,  7-H ) :   0.9581 B(  0-C ,  8-H ) :   0.9628
B(  0-C ,  9-H ) :   0.9654 B(  1-C ,  2-C ) :   1.0986 B(  1-C , 10-H ) :   0.9324
B(  1-C , 11-H ) :   0.9367 B(  2-C ,  3-C ) :   1.0622 B(  2-C , 12-H ) :   0.9054
B(  2-C , 13-H ) :   0.9158 B(  3-C ,  4-N ) :   0.9848 B(  3-C ,  5-C ) :   0.9964
B(  3-C , 14-H ) :   0.9268 B(  4-N ,  5-C ) :   1.0024 B(  4-N , 15-H ) :   0.9439
B(  5-C ,  6-C ) :   1.0848 B(  5-C , 16-H ) :   0.9313 B(  6-C , 17-H ) :   0.9422
B(  6-C , 18-H ) :   0.9588 B(  6-C , 19-H ) :   0.9484

FINAL SINGLE POINT ENERGY      -290.571596474765

DIPOLE MOMENT
-------------
                                X             Y             Z
Electronic contribution:      1.06659       3.54151      -2.87889
Nuclear contribution   :     -1.53212      -3.70189       3.25367
                        -----------------------------------------
Total Dipole Moment    :     -0.46553      -0.16038       0.37478
                        -----------------------------------------
Magnitude (a.u.)       :      0.61879
Magnitude (Debye)      :      1.57284

                             ****ORCA TERMINATED NORMALLY****
TOTAL RUN TIME: 0 days 0 hours 0 minutes 7 seconds 934 msec
