                         Program Version 3.0.3 - RELEASE   -
|  1> ! RI PBE def2-SVP def2-SVP/J NBO PAL2
|  2> % maxcore 2000
|  3> % output
|  4>     # printlevel mini
|  5>     print[ P_Basis ] 0
|  6>     print[ P_SCFInfo ] 1
|  7>     print[ P_SCFIterInfo ] 1
|  8>     print[ P_OrbEn ] 0
|  9>     print[ P_Cartesian ] 0
| 10> end
| 11> *xyz 0 1
| 12>  C        0.9984780000     0.7945160000    -0.1851800000
| 13>  C        2.4858610000     0.8573130000    -0.1136490000
| 14>  C        3.2246880000     0.3077280000     0.8439490000
| 15>  C        4.6954110000     0.3647500000     0.9538870000
| 16>  N        5.5064570000     1.2608070000     0.1407460000
| 17>  C        5.3777160000     1.5305510000     1.5707550000
| 18>  C        6.6152970000     1.3869470000     2.4017200000
| 19>  H        0.6687360000     0.3194160000    -1.1146050000
| 20>  H        0.5577720000     1.7966680000    -0.1736780000
| 21>  H        0.5820900000     0.2312370000     0.6521160000
| 22>  H        2.9785770000     1.3898950000    -0.9261250000
| 23>  H        2.7255390000    -0.2544500000     1.6325860000
| 24>  H        5.1676430000    -0.6031260000     1.1173810000
| 25>  H        4.9101990000     1.8871840000    -0.3893880000
| 26>  H        4.7146660000     2.3475260000     1.8483010000
| 27>  H        7.2107540000     0.5420180000     2.0508910000
| 28>  H        6.3655740000     1.2258230000     3.4538500000
| 29>  H        7.2355220000     2.2848760000     2.3342520000
| 30> *
| 31>
| 32>                          ****END OF INPUT****
 Total Charge           Charge          ....    0
 Multiplicity           Mult            ....    1
 Number of Electrons    NEL             ....   54
 Basis Dimension        Dim             ....  153

MULLIKEN ATOMIC CHARGES
-----------------------
   0 C :    0.042463
   1 C :   -0.131280
   2 C :    0.019364
   3 C :   -0.015310
   4 N :   -0.159110
   5 C :   -0.126269
   6 C :    0.093958
   7 H :    0.032561
   8 H :    0.030863
   9 H :    0.020958
  10 H :   -0.005804
  11 H :   -0.006722
  12 H :    0.019288
  13 H :    0.102169
  14 H :    0.018055
  15 H :    0.014984
  16 H :    0.023712
  17 H :    0.026121
Sum of atomic charges:   -0.0000000

LOEWDIN ATOMIC CHARGES
----------------------
   0 C :   -0.062715
   1 C :   -0.052749
   2 C :   -0.053630
   3 C :   -0.007701
   4 N :   -0.093736
   5 C :    0.001197
   6 C :   -0.064901
   7 H :    0.036837
   8 H :    0.036026
   9 H :    0.031179
  10 H :    0.017191
  11 H :    0.027306
  12 H :    0.026231
  13 H :    0.049186
  14 H :    0.014684
  15 H :    0.032915
  16 H :    0.030502
  17 H :    0.032178

  Mayer bond orders larger than 0.1
B(  0-C ,  1-C ) :   1.0879 B(  0-C ,  7-H ) :   0.9477 B(  0-C ,  8-H ) :   0.9470
B(  0-C ,  9-H ) :   0.9620 B(  1-C ,  2-C ) :   1.8932 B(  1-C , 10-H ) :   0.9404
B(  2-C ,  3-C ) :   1.0392 B(  2-C , 11-H ) :   0.9467 B(  3-C ,  4-N ) :   1.0147
B(  3-C ,  5-C ) :   0.9883 B(  3-C , 12-H ) :   0.9102 B(  4-N ,  5-C ) :   0.9914
B(  4-N , 13-H ) :   0.9405 B(  5-C ,  6-C ) :   1.0745 B(  5-C , 14-H ) :   0.9386
B(  6-C , 15-H ) :   0.9416 B(  6-C , 16-H ) :   0.9585 B(  6-C , 17-H ) :   0.9507

FINAL SINGLE POINT ENERGY      -289.353823047405

DIPOLE MOMENT
-------------
                                X             Y             Z
Electronic contribution:      1.66361      -0.51714      -1.28149
Nuclear contribution   :     -2.19879       0.71984       1.52141
                        -----------------------------------------
Total Dipole Moment    :     -0.53518       0.20270       0.23992
                        -----------------------------------------
Magnitude (a.u.)       :      0.62054
Magnitude (Debye)      :      1.57728

                             ****ORCA TERMINATED NORMALLY****
TOTAL RUN TIME: 0 days 0 hours 0 minutes 7 seconds 670 msec
