                         Program Version 3.0.3 - RELEASE   -
|  1> ! RI PBE def2-SVP def2-SVP/J NBO PAL2
|  2> % maxcore 2000
|  3> % output
|  4>     # printlevel mini
|  5>     print[ P_Basis ] 0
|  6>     print[ P_SCFInfo ] 1
|  7>     print[ P_SCFIterInfo ] 1
|  8>     print[ P_OrbEn ] 0
|  9>     print[ P_Cartesian ] 0
| 10> end
| 11> *xyz 0 1
| 12>  C        0.9509640000    -0.2253250000     0.1637940000
| 13>  C        2.4496430000     0.0464520000     0.1050700000
| 14>  C        2.8513370000     1.0622530000     1.1648320000
| 15>  C        3.2072080000    -1.2634080000     0.1655820000
| 16>  N        4.6612790000    -1.3260800000     0.2830450000
| 17>  C        3.8302570000    -1.8044350000     1.3901730000
| 18>  C        3.8815330000    -3.2736760000     1.6824360000
| 19>  H        0.3781530000     0.6976840000     0.0445130000
| 20>  H        0.6754240000    -0.6688600000     1.1252650000
| 21>  H        0.6403020000    -0.9161240000    -0.6240530000
| 22>  H        2.6708810000     0.4858080000    -0.8777000000
| 23>  H        2.5455770000     0.7390130000     2.1633740000
| 24>  H        2.3662900000     2.0210860000     0.9689860000
| 25>  H        3.9289440000     1.2488420000     1.1844210000
| 26>  H        2.8251290000    -1.9988370000    -0.5415070000
| 27>  H        5.0355300000    -0.4074160000     0.4974930000
| 28>  H        3.7871490000    -1.1635010000     2.2676410000
| 29>  H        3.9356100000    -3.8425950000     0.7523480000
| 30>  H        2.9946850000    -3.5953500000     2.2353990000
| 31>  H        4.7626950000    -3.5231490000     2.2796970000
| 32> *
| 33>
| 34>                          ****END OF INPUT****
 Total Charge           Charge          ....    0
 Multiplicity           Mult            ....    1
 Number of Electrons    NEL             ....   56
 Basis Dimension        Dim             ....  163

MULLIKEN ATOMIC CHARGES
-----------------------
   0 C :    0.025059
   1 C :   -0.048466
   2 C :    0.000854
   3 C :   -0.045882
   4 N :   -0.157111
   5 C :   -0.147283
   6 C :    0.102165
   7 H :    0.013057
   8 H :    0.015419
   9 H :    0.017927
  10 H :    0.009559
  11 H :    0.021743
  12 H :    0.018910
  13 H :    0.007456
  14 H :    0.005377
  15 H :    0.095790
  16 H :    0.013176
  17 H :    0.012203
  18 H :    0.019521
  19 H :    0.020526
Sum of atomic charges:   -0.0000000

LOEWDIN ATOMIC CHARGES
----------------------
   0 C :   -0.053493
   1 C :   -0.052404
   2 C :   -0.060766
   3 C :   -0.003883
   4 N :   -0.100644
   5 C :   -0.011122
   6 C :   -0.063507
   7 H :    0.024789
   8 H :    0.024943
   9 H :    0.025636
  10 H :    0.029001
  11 H :    0.024967
  12 H :    0.030915
  13 H :    0.018461
  14 H :    0.018179
  15 H :    0.045701
  16 H :    0.012306
  17 H :    0.032012
  18 H :    0.028809
  19 H :    0.030102

  Mayer bond orders larger than 0.1
B(  0-C ,  1-C ) :   1.0804 B(  0-C ,  7-H ) :   0.9563 B(  0-C ,  8-H ) :   0.9635
B(  0-C ,  9-H ) :   0.9587 B(  1-C ,  2-C ) :   1.0888 B(  1-C ,  3-C ) :   1.0153
B(  1-C , 10-H ) :   0.8993 B(  2-C , 11-H ) :   0.9527 B(  2-C , 12-H ) :   0.9510
B(  2-C , 13-H ) :   0.9504 B(  3-C ,  4-N ) :   0.9787 B(  3-C ,  5-C ) :   1.0056
B(  3-C , 14-H ) :   0.9245 B(  4-N ,  5-C ) :   1.0048 B(  4-N , 15-H ) :   0.9460
B(  5-C ,  6-C ) :   1.0783 B(  5-C , 16-H ) :   0.9307 B(  6-C , 17-H ) :   0.9418
B(  6-C , 18-H ) :   0.9595 B(  6-C , 19-H ) :   0.9507

FINAL SINGLE POINT ENERGY      -290.570941170665

DIPOLE MOMENT
-------------
                                X             Y             Z
Electronic contribution:      3.23448      -1.02161      -1.64523
Nuclear contribution   :     -3.62625       1.45010       1.95327
                        -----------------------------------------
Total Dipole Moment    :     -0.39177       0.42849       0.30804
                        -----------------------------------------
Magnitude (a.u.)       :      0.65725
Magnitude (Debye)      :      1.67059

                             ****ORCA TERMINATED NORMALLY****
TOTAL RUN TIME: 0 days 0 hours 0 minutes 7 seconds 913 msec
