                         Program Version 3.0.3 - RELEASE   -
|  1> ! RI PBE def2-SVP def2-SVP/J NBO PAL2
|  2> % maxcore 2000
|  3> % output
|  4>     # printlevel mini
|  5>     print[ P_Basis ] 0
|  6>     print[ P_SCFInfo ] 1
|  7>     print[ P_SCFIterInfo ] 1
|  8>     print[ P_OrbEn ] 0
|  9>     print[ P_Cartesian ] 0
| 10> end
| 11> *xyz 0 1
| 12>  C        1.0740590000    -0.0327190000    -0.0165030000
| 13>  C        2.5240550000    -0.0212370000    -0.0435530000
| 14>  C        3.7278790000    -0.0091780000    -0.0624470000
| 15>  C        5.1616740000    -0.0189520000    -0.0857910000
| 16>  N        5.8742040000    -0.5550230000    -1.2573130000
| 17>  C        5.9046910000     0.8788870000    -1.0084050000
| 18>  C        7.2265210000     1.4712280000    -0.6286410000
| 19>  H        0.6753940000    -0.8509660000    -0.6217780000
| 20>  H        0.6629410000     0.9035030000    -0.4027100000
| 21>  H        0.7067930000    -0.1639470000     1.0044820000
| 22>  H        5.6379410000    -0.2730460000     0.8573440000
| 23>  H        5.1966110000    -0.7757910000    -1.9796420000
| 24>  H        5.2741250000     1.4988040000    -1.6410890000
| 25>  H        7.7819700000     0.7822430000     0.0102340000
| 26>  H        7.0932890000     2.4151730000    -0.0941570000
| 27>  H        7.8316730000     1.6656110000    -1.5180500000
| 28> *
| 29>
| 30>                          ****END OF INPUT****
 Total Charge           Charge          ....    0
 Multiplicity           Mult            ....    1
 Number of Electrons    NEL             ....   52
 Basis Dimension        Dim             ....  143

MULLIKEN ATOMIC CHARGES
-----------------------
   0 C :    0.058188
   1 C :   -0.216253
   2 C :    0.031936
   3 C :   -0.087463
   4 N :   -0.145118
   5 C :   -0.112577
   6 C :    0.087789
   7 H :    0.048332
   8 H :    0.046615
   9 H :    0.048197
  10 H :    0.035794
  11 H :    0.105918
  12 H :    0.026262
  13 H :    0.017628
  14 H :    0.027911
  15 H :    0.026843
Sum of atomic charges:   -0.0000000

LOEWDIN ATOMIC CHARGES
----------------------
   0 C :   -0.067260
   1 C :   -0.061760
   2 C :   -0.078146
   3 C :   -0.011796
   4 N :   -0.087130
   5 C :    0.006655
   6 C :   -0.063159
   7 H :    0.050676
   8 H :    0.049626
   9 H :    0.052242
  10 H :    0.034639
  11 H :    0.056525
  12 H :    0.019557
  13 H :    0.033550
  14 H :    0.032496
  15 H :    0.033286

  Mayer bond orders larger than 0.1
B(  0-C ,  1-C ) :   1.1299 B(  0-C ,  7-H ) :   0.9315 B(  0-C ,  8-H ) :   0.9328
B(  0-C ,  9-H ) :   0.9335 B(  1-C ,  2-C ) :   2.4949 B(  2-C ,  3-C ) :   0.9820
B(  3-C ,  4-N ) :   0.9879 B(  3-C ,  5-C ) :   0.9754 B(  3-C , 10-H ) :   0.9091
B(  4-N ,  5-C ) :   0.9896 B(  4-N , 11-H ) :   0.9406 B(  5-C ,  6-C ) :   1.0820
B(  5-C , 12-H ) :   0.9380 B(  6-C , 13-H ) :   0.9418 B(  6-C , 14-H ) :   0.9570
B(  6-C , 15-H ) :   0.9490

FINAL SINGLE POINT ENERGY      -288.117389055134

DIPOLE MOMENT
-------------
                                X             Y             Z
Electronic contribution:     -0.65227      -2.30301       0.08297
Nuclear contribution   :      0.07751       2.68262      -0.19646
                        -----------------------------------------
Total Dipole Moment    :     -0.57476       0.37961      -0.11350
                        -----------------------------------------
Magnitude (a.u.)       :      0.69810
Magnitude (Debye)      :      1.77442

                             ****ORCA TERMINATED NORMALLY****
TOTAL RUN TIME: 0 days 0 hours 0 minutes 7 seconds 67 msec
