                         Program Version 3.0.3 - RELEASE   -
|  1> ! RI PBE def2-SVP def2-SVP/J NBO PAL2
|  2> % maxcore 2000
|  3> % output
|  4>     # printlevel mini
|  5>     print[ P_Basis ] 0
|  6>     print[ P_SCFInfo ] 1
|  7>     print[ P_SCFIterInfo ] 1
|  8>     print[ P_OrbEn ] 0
|  9>     print[ P_Cartesian ] 0
| 10> end
| 11> *xyz 0 1
| 12>  C        0.8152260000    -0.0788940000    -0.1744520000
| 13>  C        2.3353010000    -0.0655280000    -0.0918620000
| 14>  C        2.7950150000     1.0233340000     0.8725350000
| 15>  C        2.9751810000    -1.4068510000     0.2623890000
| 16>  N        4.4027240000    -1.4992360000     0.0911640000
| 17>  C        2.4562860000    -2.2082330000     1.4170330000
| 18>  C        2.2643660000    -2.7027780000     0.0120030000
| 19>  H        0.4457860000     0.9188070000    -0.4239100000
| 20>  H        0.3604920000    -0.3609980000     0.7797320000
| 21>  H        0.4502050000    -0.7639880000    -0.9413810000
| 22>  H        2.7124320000     0.1914320000    -1.0923660000
| 23>  H        2.4362180000     0.8170900000     1.8853500000
| 24>  H        2.4074560000     2.0001610000     0.5727470000
| 25>  H        3.8837750000     1.1045770000     0.9122170000
| 26>  H        4.8869150000    -0.8381490000     0.6860130000
| 27>  H        4.6617090000    -1.2940870000    -0.8672490000
| 28>  H        1.5834210000    -1.8476040000     1.9478220000
| 29>  H        3.1920650000    -2.7100060000     2.0320710000
| 30>  H        1.2620430000    -2.6887090000    -0.3943160000
| 31>  H        2.8826030000    -3.5295200000    -0.3125400000
| 32> *
| 33>
| 34>                          ****END OF INPUT****
 Total Charge           Charge          ....    0
 Multiplicity           Mult            ....    1
 Number of Electrons    NEL             ....   56
 Basis Dimension        Dim             ....  163

MULLIKEN ATOMIC CHARGES
-----------------------
   0 C :    0.007407
   1 C :   -0.024205
   2 C :    0.033617
   3 C :   -0.219387
   4 N :   -0.123223
   5 C :   -0.008458
   6 C :    0.018469
   7 H :    0.010315
   8 H :    0.012780
   9 H :    0.024042
  10 H :   -0.015506
  11 H :    0.008295
  12 H :    0.012915
  13 H :   -0.002873
  14 H :    0.087312
  15 H :    0.085067
  16 H :    0.028089
  17 H :    0.024569
  18 H :    0.019178
  19 H :    0.021599
Sum of atomic charges:   -0.0000000

LOEWDIN ATOMIC CHARGES
----------------------
   0 C :   -0.057941
   1 C :   -0.047250
   2 C :   -0.059532
   3 C :   -0.027208
   4 N :   -0.072893
   5 C :   -0.046000
   6 C :   -0.042356
   7 H :    0.026860
   8 H :    0.023376
   9 H :    0.024928
  10 H :    0.019983
  11 H :    0.024759
  12 H :    0.024712
  13 H :    0.014810
  14 H :    0.048138
  15 H :    0.050664
  16 H :    0.020181
  17 H :    0.027139
  18 H :    0.020859
  19 H :    0.026772

  Mayer bond orders larger than 0.1
B(  0-C ,  1-C ) :   1.0822 B(  0-C ,  7-H ) :   0.9504 B(  0-C ,  8-H ) :   0.9573
B(  0-C ,  9-H ) :   0.9531 B(  1-C ,  2-C ) :   1.0819 B(  1-C ,  3-C ) :   0.9744
B(  1-C , 10-H ) :   0.8944 B(  2-C , 11-H ) :   0.9581 B(  2-C , 12-H ) :   0.9581
B(  2-C , 13-H ) :   0.9509 B(  3-C ,  4-N ) :   1.1508 B(  3-C ,  5-C ) :   0.9716
B(  3-C ,  6-C ) :   0.9981 B(  4-N , 14-H ) :   0.9714 B(  4-N , 15-H ) :   0.9660
B(  5-C ,  6-C ) :   1.0419 B(  5-C , 16-H ) :   0.9441 B(  5-C , 17-H ) :   0.9315
B(  6-C , 18-H ) :   0.9319 B(  6-C , 19-H ) :   0.9307

FINAL SINGLE POINT ENERGY      -290.573406820710

DIPOLE MOMENT
-------------
                                X             Y             Z
Electronic contribution:      2.33498      -2.81905      -0.51148
Nuclear contribution   :     -2.34761       3.28434       0.34323
                        -----------------------------------------
Total Dipole Moment    :     -0.01263       0.46529      -0.16825
                        -----------------------------------------
Magnitude (a.u.)       :      0.49494
Magnitude (Debye)      :      1.25803

                             ****ORCA TERMINATED NORMALLY****
TOTAL RUN TIME: 0 days 0 hours 0 minutes 8 seconds 712 msec
