                         Program Version 3.0.3 - RELEASE   -
|  1> ! RI PBE def2-SVP def2-SVP/J NBO PAL2
|  2> % maxcore 2000
|  3> % output
|  4>     # printlevel mini
|  5>     print[ P_Basis ] 0
|  6>     print[ P_SCFInfo ] 1
|  7>     print[ P_SCFIterInfo ] 1
|  8>     print[ P_OrbEn ] 0
|  9>     print[ P_Cartesian ] 0
| 10> end
| 11> *xyz 0 1
| 12>  C        1.5766890000    -0.4995960000     0.6198220000
| 13>  C        1.7475630000    -1.2337250000    -0.7007530000
| 14>  C        2.7651960000    -0.6048030000    -1.6464130000
| 15>  C        4.1944100000    -0.5872040000    -1.1411120000
| 16>  N        4.7920550000    -1.8375820000    -0.7551320000
| 17>  C        5.1410960000     0.3828680000    -1.7800380000
| 18>  C        4.6798790000     0.6040110000    -0.3694900000
| 19>  H        2.5045340000    -0.4816880000     1.1958560000
| 20>  H        0.8098270000    -0.9731780000     1.2373930000
| 21>  H        1.2752430000     0.5391170000     0.4561210000
| 22>  H        2.0282560000    -2.2760280000    -0.5085930000
| 23>  H        0.7824870000    -1.2821790000    -1.2157380000
| 24>  H        2.7444590000    -1.1510160000    -2.5986050000
| 25>  H        2.4589810000     0.4220670000    -1.8782060000
| 26>  H        4.7664600000    -2.4997300000    -1.5225400000
| 27>  H        4.2946170000    -2.2550640000     0.0224280000
| 28>  H        4.7552070000     1.0362960000    -2.5535900000
| 29>  H        6.1600640000     0.0472520000    -1.9226550000
| 30>  H        3.9814400000     1.4099150000    -0.1803630000
| 31>  H        5.3938480000     0.4172780000     0.4225180000
| 32> *
| 33>
| 34>                          ****END OF INPUT****
 Total Charge           Charge          ....    0
 Multiplicity           Mult            ....    1
 Number of Electrons    NEL             ....   56
 Basis Dimension        Dim             ....  163

MULLIKEN ATOMIC CHARGES
-----------------------
   0 C :   -0.034186
   1 C :   -0.031180
   2 C :    0.133772
   3 C :   -0.269742
   4 N :   -0.127787
   5 C :    0.007294
   6 C :    0.006440
   7 H :    0.030179
   8 H :    0.020816
   9 H :    0.017888
  10 H :   -0.011576
  11 H :    0.008634
  12 H :   -0.004528
  13 H :   -0.022838
  14 H :    0.090409
  15 H :    0.089230
  16 H :    0.021909
  17 H :    0.025264
  18 H :    0.022899
  19 H :    0.027105
Sum of atomic charges:   -0.0000000

LOEWDIN ATOMIC CHARGES
----------------------
   0 C :   -0.070694
   1 C :   -0.049995
   2 C :   -0.041087
   3 C :   -0.035038
   4 N :   -0.074865
   5 C :   -0.044401
   6 C :   -0.046028
   7 H :    0.024634
   8 H :    0.026719
   9 H :    0.024984
  10 H :    0.012746
  11 H :    0.025236
  12 H :    0.021939
  13 H :    0.023175
  14 H :    0.052896
  15 H :    0.049660
  16 H :    0.022627
  17 H :    0.027791
  18 H :    0.022009
  19 H :    0.027692

  Mayer bond orders larger than 0.1
B(  0-C ,  1-C ) :   1.1191 B(  0-C ,  7-H ) :   0.9641 B(  0-C ,  8-H ) :   0.9593
B(  0-C ,  9-H ) :   0.9609 B(  1-C ,  2-C ) :   1.1101 B(  1-C , 10-H ) :   0.9216
B(  1-C , 11-H ) :   0.9315 B(  2-C ,  3-C ) :   1.0310 B(  2-C , 12-H ) :   0.9148
B(  2-C , 13-H ) :   0.8887 B(  3-C ,  4-N ) :   1.1450 B(  3-C ,  5-C ) :   0.9707
B(  3-C ,  6-C ) :   0.9773 B(  4-N , 14-H ) :   0.9670 B(  4-N , 15-H ) :   0.9697
B(  5-C ,  6-C ) :   1.0571 B(  5-C , 16-H ) :   0.9420 B(  5-C , 17-H ) :   0.9317
B(  6-C , 18-H ) :   0.9386 B(  6-C , 19-H ) :   0.9344

FINAL SINGLE POINT ENERGY      -290.574756893595

DIPOLE MOMENT
-------------
                                X             Y             Z
Electronic contribution:      3.37482      -0.51255      -1.44643
Nuclear contribution   :     -3.78252       0.28369       1.34744
                        -----------------------------------------
Total Dipole Moment    :     -0.40770      -0.22886      -0.09899
                        -----------------------------------------
Magnitude (a.u.)       :      0.47791
Magnitude (Debye)      :      1.21474

                             ****ORCA TERMINATED NORMALLY****
TOTAL RUN TIME: 0 days 0 hours 0 minutes 8 seconds 290 msec
