                         Program Version 3.0.3 - RELEASE   -
|  1> ! RI PBE def2-SVP def2-SVP/J NBO PAL2
|  2> % maxcore 2000
|  3> % output
|  4>     # printlevel mini
|  5>     print[ P_Basis ] 0
|  6>     print[ P_SCFInfo ] 1
|  7>     print[ P_SCFIterInfo ] 1
|  8>     print[ P_OrbEn ] 0
|  9>     print[ P_Cartesian ] 0
| 10> end
| 11> *xyz 0 1
| 12>  C        0.8573330000     0.0695470000     0.2285030000
| 13>  C        2.3658650000     0.1855970000     0.0920310000
| 14>  C        2.9609940000    -0.8530400000    -0.8455920000
| 15>  C        4.4729410000    -0.7448040000    -0.9832550000
| 16>  C        5.0600310000    -1.7854690000    -1.8935100000
| 17>  C        5.2493550000    -1.5045100000    -3.3289090000
| 18>  N        6.4030830000    -1.6227470000    -2.4375960000
| 19>  H        0.4562440000     0.8247150000     0.9083320000
| 20>  H        0.5709790000    -0.9120610000     0.6165390000
| 21>  H        0.3626550000     0.1972370000    -0.7385450000
| 22>  H        2.8331860000     0.0894730000     1.0790500000
| 23>  H        2.6261950000     1.1878100000    -0.2682580000
| 24>  H        2.4992180000    -0.7592900000    -1.8357690000
| 25>  H        2.7017660000    -1.8560630000    -0.4849060000
| 26>  H        4.9343950000    -0.8300330000     0.0088020000
| 27>  H        4.7381400000     0.2503140000    -1.3638860000
| 28>  H        4.8418810000    -2.8129250000    -1.6090750000
| 29>  H        4.9675200000    -0.5172760000    -3.6845940000
| 30>  H        5.1546880000    -2.2963100000    -4.0641280000
| 31>  H        6.7564510000    -0.6995760000    -2.2056430000
| 32> *
| 33>
| 34>                          ****END OF INPUT****
 Total Charge           Charge          ....    0
 Multiplicity           Mult            ....    1
 Number of Electrons    NEL             ....   56
 Basis Dimension        Dim             ....  163

MULLIKEN ATOMIC CHARGES
-----------------------
   0 C :    0.001746
   1 C :   -0.039164
   2 C :   -0.034203
   3 C :    0.100059
   4 C :   -0.119450
   5 C :    0.032213
   6 N :   -0.186994
   7 H :    0.019845
   8 H :    0.016062
   9 H :    0.015367
  10 H :    0.008724
  11 H :    0.005616
  12 H :    0.003874
  13 H :    0.007691
  14 H :    0.009696
  15 H :   -0.021263
  16 H :    0.019127
  17 H :    0.022187
  18 H :    0.036817
  19 H :    0.102050
Sum of atomic charges:   -0.0000000

LOEWDIN ATOMIC CHARGES
----------------------
   0 C :   -0.065332
   1 C :   -0.046749
   2 C :   -0.040129
   3 C :   -0.044747
   4 C :   -0.009397
   5 C :   -0.003354
   6 N :   -0.104276
   7 H :    0.026589
   8 H :    0.024372
   9 H :    0.024165
  10 H :    0.022651
  11 H :    0.021529
  12 H :    0.022126
  13 H :    0.022977
  14 H :    0.026826
  15 H :    0.019853
  16 H :    0.020188
  17 H :    0.012408
  18 H :    0.020673
  19 H :    0.049627

  Mayer bond orders larger than 0.1
B(  0-C ,  1-C ) :   1.1169 B(  0-C ,  7-H ) :   0.9610 B(  0-C ,  8-H ) :   0.9655
B(  0-C ,  9-H ) :   0.9643 B(  1-C ,  2-C ) :   1.0858 B(  1-C , 10-H ) :   0.9369
B(  1-C , 11-H ) :   0.9379 B(  2-C ,  3-C ) :   1.0855 B(  2-C , 12-H ) :   0.9359
B(  2-C , 13-H ) :   0.9369 B(  3-C ,  4-C ) :   1.0609 B(  3-C , 14-H ) :   0.9197
B(  3-C , 15-H ) :   0.9047 B(  4-C ,  5-C ) :   1.0540 B(  4-C ,  6-N ) :   0.9909
B(  4-C , 16-H ) :   0.9303 B(  5-C ,  6-N ) :   1.0191 B(  5-C , 17-H ) :   0.9394
B(  5-C , 18-H ) :   0.9418 B(  6-N , 19-H ) :   0.9481

FINAL SINGLE POINT ENERGY      -290.565333522962

DIPOLE MOMENT
-------------
                                X             Y             Z
Electronic contribution:      6.14360      -2.51293      -2.88945
Nuclear contribution   :     -6.61186       3.01095       3.02654
                        -----------------------------------------
Total Dipole Moment    :     -0.46826       0.49802       0.13709
                        -----------------------------------------
Magnitude (a.u.)       :      0.69720
Magnitude (Debye)      :      1.77214

                             ****ORCA TERMINATED NORMALLY****
TOTAL RUN TIME: 0 days 0 hours 0 minutes 8 seconds 494 msec
