                         Program Version 3.0.3 - RELEASE   -
|  1> ! RI PBE def2-SVP def2-SVP/J NBO PAL2
|  2> % maxcore 2000
|  3> % output
|  4>     # printlevel mini
|  5>     print[ P_Basis ] 0
|  6>     print[ P_SCFInfo ] 1
|  7>     print[ P_SCFIterInfo ] 1
|  8>     print[ P_OrbEn ] 0
|  9>     print[ P_Cartesian ] 0
| 10> end
| 11> *xyz 0 1
| 12>  C        1.3770770000    -0.4122710000    -0.7880340000
| 13>  C        2.4401320000    -0.0465190000    -0.0856930000
| 14>  C        3.1532630000    -0.9021890000     0.9071580000
| 15>  C        4.6151660000    -1.1484910000     0.5314040000
| 16>  C        5.3535930000    -1.9556770000     1.5599240000
| 17>  C        6.8006160000    -1.7711790000     1.7660030000
| 18>  N        5.8466890000    -1.3225360000     2.7801670000
| 19>  H        0.9077570000     0.2572060000    -1.4996070000
| 20>  H        0.9340750000    -1.3970240000    -0.6725860000
| 21>  H        2.8508780000     0.9513960000    -0.2364280000
| 22>  H        2.6332310000    -1.8598800000     1.0109010000
| 23>  H        3.1208520000    -0.4206200000     1.8926760000
| 24>  H        5.1285080000    -0.1881810000     0.3935170000
| 25>  H        4.6557500000    -1.6606970000    -0.4363900000
| 26>  H        4.9439440000    -2.9478660000     1.7388670000
| 27>  H        7.3002030000    -1.0235620000     1.1566660000
| 28>  H        7.4246010000    -2.6076880000     2.0613040000
| 29>  H        5.7263760000    -0.3160030000     2.7173710000
| 30> *
| 31>
| 32>                          ****END OF INPUT****
 Total Charge           Charge          ....    0
 Multiplicity           Mult            ....    1
 Number of Electrons    NEL             ....   54
 Basis Dimension        Dim             ....  153

MULLIKEN ATOMIC CHARGES
-----------------------
   0 C :   -0.037977
   1 C :   -0.072270
   2 C :    0.052320
   3 C :    0.054530
   4 C :   -0.100737
   5 C :    0.033110
   6 N :   -0.195946
   7 H :    0.025567
   8 H :    0.016779
   9 H :    0.002391
  10 H :    0.006618
  11 H :    0.020933
  12 H :   -0.014506
  13 H :    0.022872
  14 H :    0.022433
  15 H :    0.027028
  16 H :    0.035083
  17 H :    0.101772
Sum of atomic charges:    0.0000000

LOEWDIN ATOMIC CHARGES
----------------------
   0 C :   -0.067131
   1 C :   -0.028411
   2 C :   -0.040895
   3 C :   -0.042427
   4 C :   -0.007831
   5 C :   -0.001389
   6 N :   -0.106078
   7 H :    0.024642
   8 H :    0.021571
   9 H :    0.023946
  10 H :    0.029755
  11 H :    0.034101
  12 H :    0.021683
  13 H :    0.033374
  14 H :    0.021682
  15 H :    0.013863
  16 H :    0.020995
  17 H :    0.048550

  Mayer bond orders larger than 0.1
B(  0-C ,  1-C ) :   2.0165 B(  0-C ,  7-H ) :   0.9448 B(  0-C ,  8-H ) :   0.9472
B(  1-C ,  2-C ) :   1.0627 B(  1-C ,  9-H ) :   0.9505 B(  2-C ,  3-C ) :   1.0682
B(  2-C , 10-H ) :   0.9276 B(  2-C , 11-H ) :   0.9157 B(  3-C ,  4-C ) :   1.0740
B(  3-C , 12-H ) :   0.9073 B(  3-C , 13-H ) :   0.9232 B(  4-C ,  5-C ) :   1.0517
B(  4-C ,  6-N ) :   0.9855 B(  4-C , 14-H ) :   0.9275 B(  5-C ,  6-N ) :   1.0111
B(  5-C , 15-H ) :   0.9406 B(  5-C , 16-H ) :   0.9389 B(  6-N , 17-H ) :   0.9484

FINAL SINGLE POINT ENERGY      -289.340626303795

DIPOLE MOMENT
-------------
                                X             Y             Z
Electronic contribution:      1.12770      -0.34543       1.83782
Nuclear contribution   :     -1.05520       0.60304      -2.33598
                        -----------------------------------------
Total Dipole Moment    :      0.07250       0.25761      -0.49815
                        -----------------------------------------
Magnitude (a.u.)       :      0.56548
Magnitude (Debye)      :      1.43735

                             ****ORCA TERMINATED NORMALLY****
TOTAL RUN TIME: 0 days 0 hours 0 minutes 7 seconds 723 msec
