                         Program Version 3.0.3 - RELEASE   -
|  1> ! RI PBE def2-SVP def2-SVP/J NBO PAL2
|  2> % maxcore 2000
|  3> % output
|  4>     # printlevel mini
|  5>     print[ P_Basis ] 0
|  6>     print[ P_SCFInfo ] 1
|  7>     print[ P_SCFIterInfo ] 1
|  8>     print[ P_OrbEn ] 0
|  9>     print[ P_Cartesian ] 0
| 10> end
| 11> *xyz 0 1
| 12>  C        1.2030220000    -0.0259750000     0.4203340000
| 13>  C        2.4655580000    -0.1074670000    -0.0082140000
| 14>  C        2.9596560000    -1.2973520000    -0.6214560000
| 15>  C        3.4135630000    -2.2796230000    -1.1464910000
| 16>  C        3.4488540000     1.0085210000     0.1026030000
| 17>  C        3.3674790000     1.9973010000     1.1897770000
| 18>  N        4.4356150000     0.9998330000     1.1843030000
| 19>  H        0.5266350000    -0.8669100000     0.3308060000
| 20>  H        0.8210370000     0.8869220000     0.8597420000
| 21>  H        3.8082790000    -3.1528460000    -1.6096760000
| 22>  H        3.8746530000     1.3167860000    -0.8489150000
| 23>  H        2.5690170000     1.8940980000     1.9166630000
| 24>  H        3.6913080000     3.0166940000     1.0106940000
| 25>  H        4.2114430000     0.2556200000     1.8382400000
| 26> *
| 27>
| 28>                          ****END OF INPUT****
 Total Charge           Charge          ....    0
 Multiplicity           Mult            ....    1
 Number of Electrons    NEL             ....   50
 Basis Dimension        Dim             ....  133

MULLIKEN ATOMIC CHARGES
-----------------------
   0 C :    0.016596
   1 C :   -0.133503
   2 C :    0.452822
   3 C :   -0.449700
   4 C :   -0.022257
   5 C :    0.025495
   6 N :   -0.176256
   7 H :    0.031123
   8 H :    0.022864
   9 H :    0.007841
  10 H :    0.039321
  11 H :    0.036363
  12 H :    0.038443
  13 H :    0.110849
Sum of atomic charges:    0.0000000

LOEWDIN ATOMIC CHARGES
----------------------
   0 C :   -0.020442
   1 C :   -0.061160
   2 C :   -0.009250
   3 C :   -0.056716
   4 C :    0.008823
   5 C :    0.003683
   6 N :   -0.089721
   7 H :    0.032118
   8 H :    0.025542
   9 H :    0.037952
  10 H :    0.031619
  11 H :    0.017027
  12 H :    0.024475
  13 H :    0.056051

  Mayer bond orders larger than 0.1
B(  0-C ,  1-C ) :   1.9113 B(  0-C ,  3-C ) :   0.1248 B(  0-C ,  7-H ) :   0.9348
B(  0-C ,  8-H ) :   0.9271 B(  1-C ,  2-C ) :   0.9710 B(  1-C ,  4-C ) :   1.0276
B(  2-C ,  3-C ) :   2.2673 B(  2-C ,  9-H ) :  -0.1025 B(  3-C ,  9-H ) :   1.0925
B(  4-C ,  5-C ) :   1.0568 B(  4-C ,  6-N ) :   0.9994 B(  4-C , 10-H ) :   0.9174
B(  5-C ,  6-N ) :   0.9994 B(  5-C , 11-H ) :   0.9431 B(  5-C , 12-H ) :   0.9316
B(  6-N , 13-H ) :   0.9437

FINAL SINGLE POINT ENERGY      -286.879737189802

DIPOLE MOMENT
-------------
                                X             Y             Z
Electronic contribution:      1.19348      -2.58031      -1.77238
Nuclear contribution   :     -1.74184       2.51927       1.92204
                        -----------------------------------------
Total Dipole Moment    :     -0.54835      -0.06104       0.14967
                        -----------------------------------------
Magnitude (a.u.)       :      0.57168
Magnitude (Debye)      :      1.45309

                             ****ORCA TERMINATED NORMALLY****
TOTAL RUN TIME: 0 days 0 hours 0 minutes 6 seconds 386 msec
