                         Program Version 3.0.3 - RELEASE   -
|  1> ! RI PBE def2-SVP def2-SVP/J NBO PAL2
|  2> % maxcore 2000
|  3> % output
|  4>     # printlevel mini
|  5>     print[ P_Basis ] 0
|  6>     print[ P_SCFInfo ] 1
|  7>     print[ P_SCFIterInfo ] 1
|  8>     print[ P_OrbEn ] 0
|  9>     print[ P_Cartesian ] 0
| 10> end
| 11> *xyz 0 1
| 12>  C        1.8757020000     0.5290880000    -0.8406300000
| 13>  C        3.0416730000     0.0596650000    -0.3969840000
| 14>  C        3.3903940000    -0.0747520000     1.0010430000
| 15>  C        4.5636080000    -0.5460970000     1.4325550000
| 16>  C        4.9858790000    -0.6869620000     2.8361140000
| 17>  C        5.4938620000     0.4880260000     3.5913230000
| 18>  N        4.2244810000    -0.1343010000     3.9430930000
| 19>  H        1.6619690000     0.6077880000    -1.8992970000
| 20>  H        1.0976370000     0.8487100000    -0.1547090000
| 21>  H        3.7982820000    -0.2510360000    -1.1146630000
| 22>  H        2.6258910000     0.2247610000     1.7161910000
| 23>  H        5.2952990000    -0.8729360000     0.6953270000
| 24>  H        5.4460240000    -1.6449920000     3.0693060000
| 25>  H        5.4779180000     1.4442060000     3.0782170000
| 26>  H        6.2913140000     0.3594930000     4.3154750000
| 27>  H        3.4552660000     0.4293490000     3.5978400000
| 28> *
| 29>
| 30>                          ****END OF INPUT****
 Total Charge           Charge          ....    0
 Multiplicity           Mult            ....    1
 Number of Electrons    NEL             ....   52
 Basis Dimension        Dim             ....  143

MULLIKEN ATOMIC CHARGES
-----------------------
   0 C :   -0.033806
   1 C :   -0.007552
   2 C :   -0.012790
   3 C :    0.013466
   4 C :   -0.061789
   5 C :    0.048585
   6 N :   -0.185009
   7 H :    0.026171
   8 H :    0.018445
   9 H :   -0.006876
  10 H :   -0.017775
  11 H :    0.000419
  12 H :    0.034156
  13 H :    0.035201
  14 H :    0.041677
  15 H :    0.107475
Sum of atomic charges:   -0.0000000

LOEWDIN ATOMIC CHARGES
----------------------
   0 C :   -0.054847
   1 C :   -0.031492
   2 C :   -0.048406
   3 C :   -0.032964
   4 C :   -0.009493
   5 C :    0.015432
   6 N :   -0.091101
   7 H :    0.026137
   8 H :    0.022792
   9 H :    0.029842
  10 H :    0.021775
  11 H :    0.031142
  12 H :    0.031161
  13 H :    0.017374
  14 H :    0.022114
  15 H :    0.050536

  Mayer bond orders larger than 0.1
B(  0-C ,  1-C ) :   1.8851 B(  0-C ,  3-C ) :   0.1310 B(  0-C ,  7-H ) :   0.9434
B(  0-C ,  8-H ) :   0.9464 B(  1-C ,  2-C ) :   1.1435 B(  1-C ,  9-H ) :   0.9615
B(  2-C ,  3-C ) :   1.7506 B(  2-C , 10-H ) :   0.9471 B(  3-C ,  4-C ) :   1.0428
B(  3-C , 11-H ) :   0.9542 B(  4-C ,  5-C ) :   1.0227 B(  4-C ,  6-N ) :   1.0260
B(  4-C , 12-H ) :   0.9151 B(  5-C ,  6-N ) :   0.9991 B(  5-C , 13-H ) :   0.9436
B(  5-C , 14-H ) :   0.9432 B(  6-N , 15-H ) :   0.9477

FINAL SINGLE POINT ENERGY      -288.131188399380

DIPOLE MOMENT
-------------
                                X             Y             Z
Electronic contribution:      0.51519      -1.11001       1.34018
Nuclear contribution   :     -0.30759       1.38474      -1.72374
                        -----------------------------------------
Total Dipole Moment    :      0.20760       0.27474      -0.38355
                        -----------------------------------------
Magnitude (a.u.)       :      0.51545
Magnitude (Debye)      :      1.31018

                             ****ORCA TERMINATED NORMALLY****
TOTAL RUN TIME: 0 days 0 hours 0 minutes 7 seconds 174 msec
