                         Program Version 3.0.3 - RELEASE   -
|  1> ! RI PBE def2-SVP def2-SVP/J NBO PAL2
|  2> % maxcore 2000
|  3> % output
|  4>     # printlevel mini
|  5>     print[ P_Basis ] 0
|  6>     print[ P_SCFInfo ] 1
|  7>     print[ P_SCFIterInfo ] 1
|  8>     print[ P_OrbEn ] 0
|  9>     print[ P_Cartesian ] 0
| 10> end
| 11> *xyz 0 1
| 12>  C        1.3047890000    -0.5388630000    -0.3914130000
| 13>  C        2.4093930000    -0.2078270000     0.2698930000
| 14>  C        3.1843270000     1.0262730000     0.0705470000
| 15>  C        2.6098450000     2.1953990000    -0.2166580000
| 16>  C        4.6541790000     0.8680400000     0.2441360000
| 17>  C        5.5266100000     1.9797430000     0.6519900000
| 18>  N        5.2234370000     0.9080800000     1.5998320000
| 19>  H        0.7821880000    -1.4650080000    -0.1838760000
| 20>  H        0.8966450000     0.0972200000    -1.1698020000
| 21>  H        2.8155070000    -0.9055720000     1.0000810000
| 22>  H        1.5312630000     2.2930070000    -0.2615370000
| 23>  H        3.1977040000     3.0843640000    -0.4096640000
| 24>  H        5.0935630000     0.0764080000    -0.3589330000
| 25>  H        5.0754320000     2.9524000000     0.8149900000
| 26>  H        6.5541450000     2.0066350000     0.3064120000
| 27>  H        4.5079720000     1.2324120000     2.2446020000
| 28> *
| 29>
| 30>                          ****END OF INPUT****
 Total Charge           Charge          ....    0
 Multiplicity           Mult            ....    1
 Number of Electrons    NEL             ....   52
 Basis Dimension        Dim             ....  143

MULLIKEN ATOMIC CHARGES
-----------------------
   0 C :   -0.032173
   1 C :   -0.006983
   2 C :   -0.033730
   3 C :   -0.039837
   4 C :   -0.064483
   5 C :    0.049435
   6 N :   -0.193055
   7 H :    0.031241
   8 H :    0.027143
   9 H :    0.014673
  10 H :    0.021043
  11 H :    0.017335
  12 H :    0.036814
  13 H :    0.030807
  14 H :    0.034696
  15 H :    0.107076
Sum of atomic charges:   -0.0000000

LOEWDIN ATOMIC CHARGES
----------------------
   0 C :   -0.039158
   1 C :   -0.027265
   2 C :   -0.046647
   3 C :   -0.046434
   4 C :   -0.001471
   5 C :    0.005995
   6 N :   -0.097510
   7 H :    0.027637
   8 H :    0.024714
   9 H :    0.032915
  10 H :    0.024128
  11 H :    0.022138
  12 H :    0.028335
  13 H :    0.016423
  14 H :    0.023425
  15 H :    0.052773

  Mayer bond orders larger than 0.1
B(  0-C ,  1-C ) :   1.9560 B(  0-C ,  7-H ) :   0.9435 B(  0-C ,  8-H ) :   0.9495
B(  1-C ,  2-C ) :   1.0410 B(  1-C ,  9-H ) :   0.9488 B(  2-C ,  3-C ) :   1.9256
B(  2-C ,  4-C ) :   1.0177 B(  3-C , 10-H ) :   0.9328 B(  3-C , 11-H ) :   0.9304
B(  4-C ,  5-C ) :   1.0622 B(  4-C ,  6-N ) :   0.9745 B(  4-C , 12-H ) :   0.9220
B(  5-C ,  6-N ) :   1.0021 B(  5-C , 13-H ) :   0.9390 B(  5-C , 14-H ) :   0.9323
B(  6-N , 15-H ) :   0.9488

FINAL SINGLE POINT ENERGY      -288.122099719592

DIPOLE MOMENT
-------------
                                X             Y             Z
Electronic contribution:      1.24833      -0.83411       0.80890
Nuclear contribution   :     -1.62339       1.15176      -0.96922
                        -----------------------------------------
Total Dipole Moment    :     -0.37506       0.31765      -0.16032
                        -----------------------------------------
Magnitude (a.u.)       :      0.51699
Magnitude (Debye)      :      1.31408

                             ****ORCA TERMINATED NORMALLY****
TOTAL RUN TIME: 0 days 0 hours 0 minutes 7 seconds 94 msec
