                         Program Version 3.0.3 - RELEASE   -
|  1> ! RI PBE def2-SVP def2-SVP/J NBO PAL2
|  2> % maxcore 2000
|  3> % output
|  4>     # printlevel mini
|  5>     print[ P_Basis ] 0
|  6>     print[ P_SCFInfo ] 1
|  7>     print[ P_SCFIterInfo ] 1
|  8>     print[ P_OrbEn ] 0
|  9>     print[ P_Cartesian ] 0
| 10> end
| 11> *xyz 0 1
| 12>  C        0.8892370000     0.0193540000    -0.1763020000
| 13>  C        2.1696810000     0.0998620000     0.1873960000
| 14>  C        2.9788050000     1.2533560000     0.0527040000
| 15>  C        3.7007160000     2.2163010000    -0.0490420000
| 16>  C        4.5450910000     3.3670010000    -0.1481140000
| 17>  C        4.3611980000     4.3170850000    -1.2764540000
| 18>  N        3.9840280000     4.7080240000     0.0691930000
| 19>  H        0.3321500000    -0.8987260000    -0.0381490000
| 20>  H        0.3699700000     0.8624760000    -0.6159300000
| 21>  H        2.6556580000    -0.7686300000     0.6259630000
| 22>  H        5.5439650000     3.2454280000     0.2593150000
| 23>  H        3.5841640000     4.0815550000    -1.9953310000
| 24>  H        5.2317320000     4.8243830000    -1.6777300000
| 25>  H        2.9791160000     4.6317410000     0.1885810000
| 26> *
| 27>
| 28>                          ****END OF INPUT****
 Total Charge           Charge          ....    0
 Multiplicity           Mult            ....    1
 Number of Electrons    NEL             ....   50
 Basis Dimension        Dim             ....  133

MULLIKEN ATOMIC CHARGES
-----------------------
   0 C :   -0.019686
   1 C :   -0.083748
   2 C :   -0.054479
   3 C :    0.039726
   4 C :   -0.130150
   5 C :    0.063191
   6 N :   -0.168795
   7 H :    0.034265
   8 H :    0.030986
   9 H :    0.032263
  10 H :    0.051847
  11 H :    0.046307
  12 H :    0.043876
  13 H :    0.114400
Sum of atomic charges:   -0.0000000

LOEWDIN ATOMIC CHARGES
----------------------
   0 C :   -0.032987
   1 C :   -0.046787
   2 C :   -0.046079
   3 C :   -0.052751
   4 C :   -0.012395
   5 C :    0.021655
   6 N :   -0.081034
   7 H :    0.028549
   8 H :    0.028233
   9 H :    0.045705
  10 H :    0.040011
  11 H :    0.022722
  12 H :    0.025905
  13 H :    0.059253

  Mayer bond orders larger than 0.1
B(  0-C ,  1-C ) :   1.9053 B(  0-C ,  3-C ) :   0.1226 B(  0-C ,  7-H ) :   0.9425
B(  0-C ,  8-H ) :   0.9535 B(  1-C ,  2-C ) :   1.0615 B(  1-C ,  9-H ) :   0.9451
B(  2-C ,  3-C ) :   2.3713 B(  3-C ,  4-C ) :   1.0028 B(  4-C ,  5-C ) :   1.0172
B(  4-C ,  6-N ) :   0.9914 B(  4-C , 10-H ) :   0.9142 B(  5-C ,  6-N ) :   1.0005
B(  5-C , 11-H ) :   0.9421 B(  5-C , 12-H ) :   0.9356 B(  6-N , 13-H ) :   0.9483

FINAL SINGLE POINT ENERGY      -286.890439190780

DIPOLE MOMENT
-------------
                                X             Y             Z
Electronic contribution:      1.53415       0.09777       1.35218
Nuclear contribution   :     -1.77682      -0.33065      -1.69364
                        -----------------------------------------
Total Dipole Moment    :     -0.24267      -0.23288      -0.34146
                        -----------------------------------------
Magnitude (a.u.)       :      0.47928
Magnitude (Debye)      :      1.21824

                             ****ORCA TERMINATED NORMALLY****
TOTAL RUN TIME: 0 days 0 hours 0 minutes 6 seconds 498 msec
