                         Program Version 3.0.3 - RELEASE   -
|  1> ! RI PBE def2-SVP def2-SVP/J NBO PAL2
|  2> % maxcore 2000
|  3> % output
|  4>     # printlevel mini
|  5>     print[ P_Basis ] 0
|  6>     print[ P_SCFInfo ] 1
|  7>     print[ P_SCFIterInfo ] 1
|  8>     print[ P_OrbEn ] 0
|  9>     print[ P_Cartesian ] 0
| 10> end
| 11> *xyz 0 1
| 12>  C        0.8855980000     0.2656690000     0.1533880000
| 13>  C        2.0788430000     0.1326910000     0.1475810000
| 14>  C        3.5255920000     0.0023400000     0.1461090000
| 15>  C        4.2450730000     1.3493240000     0.2696340000
| 16>  C        5.7376950000     1.1950730000     0.2816910000
| 17>  C        6.5845790000     2.1491470000     1.0180880000
| 18>  N        6.4262120000     0.7778890000     1.5005170000
| 19>  H       -0.1727770000     0.3764470000     0.1560200000
| 20>  H        3.8409800000    -0.4973210000    -0.7764710000
| 21>  H        3.8290120000    -0.6561330000     0.9672180000
| 22>  H        3.9193650000     1.8524500000     1.1865130000
| 23>  H        3.9435680000     1.9925210000    -0.5630870000
| 24>  H        6.1563750000     0.7394100000    -0.6135940000
| 25>  H        6.0847650000     2.9496660000     1.5555400000
| 26>  H        7.5753570000     2.3960610000     0.6528000000
| 27>  H        5.7722730000     0.7605660000     2.2775320000
| 28> *
| 29>
| 30>                          ****END OF INPUT****
 Total Charge           Charge          ....    0
 Multiplicity           Mult            ....    1
 Number of Electrons    NEL             ....   52
 Basis Dimension        Dim             ....  143

MULLIKEN ATOMIC CHARGES
-----------------------
   0 C :   -0.504340
   1 C :    0.358257
   2 C :    0.054601
   3 C :    0.051975
   4 C :   -0.099752
   5 C :    0.047911
   6 N :   -0.199467
   7 H :   -0.002926
   8 H :    0.037853
   9 H :    0.040352
  10 H :   -0.000543
  11 H :    0.032246
  12 H :    0.019270
  13 H :    0.027736
  14 H :    0.033088
  15 H :    0.103740
Sum of atomic charges:   -0.0000000

LOEWDIN ATOMIC CHARGES
----------------------
   0 C :   -0.090079
   1 C :   -0.022773
   2 C :   -0.046652
   3 C :   -0.034416
   4 C :   -0.009210
   5 C :    0.003493
   6 N :   -0.105981
   7 H :    0.033587
   8 H :    0.049884
   9 H :    0.049004
  10 H :    0.027913
  11 H :    0.037419
  12 H :    0.021553
  13 H :    0.014994
  14 H :    0.021517
  15 H :    0.049750

  Mayer bond orders larger than 0.1
B(  0-C ,  1-C ) :   2.3218 B(  0-C ,  7-H ) :   1.1046 B(  1-C ,  2-C ) :   1.0598
B(  1-C ,  7-H ) :  -0.1136 B(  2-C ,  3-C ) :   1.0699 B(  2-C ,  8-H ) :   0.8947
B(  2-C ,  9-H ) :   0.8989 B(  3-C ,  4-C ) :   1.0748 B(  3-C , 10-H ) :   0.9116
B(  3-C , 11-H ) :   0.9231 B(  4-C ,  5-C ) :   1.0574 B(  4-C ,  6-N ) :   0.9869
B(  4-C , 12-H ) :   0.9214 B(  5-C ,  6-N ) :   1.0087 B(  5-C , 13-H ) :   0.9410
B(  5-C , 14-H ) :   0.9381 B(  6-N , 15-H ) :   0.9477

FINAL SINGLE POINT ENERGY      -288.098139396597

DIPOLE MOMENT
-------------
                                X             Y             Z
Electronic contribution:     -2.40424      -1.61539      -0.11071
Nuclear contribution   :      2.20088       2.01653       0.10067
                        -----------------------------------------
Total Dipole Moment    :     -0.20337       0.40114      -0.01004
                        -----------------------------------------
Magnitude (a.u.)       :      0.44986
Magnitude (Debye)      :      1.14344

                             ****ORCA TERMINATED NORMALLY****
TOTAL RUN TIME: 0 days 0 hours 0 minutes 7 seconds 213 msec
