                         Program Version 3.0.3 - RELEASE   -
|  1> ! RI PBE def2-SVP def2-SVP/J NBO PAL2
|  2> % maxcore 2000
|  3> % output
|  4>     # printlevel mini
|  5>     print[ P_Basis ] 0
|  6>     print[ P_SCFInfo ] 1
|  7>     print[ P_SCFIterInfo ] 1
|  8>     print[ P_OrbEn ] 0
|  9>     print[ P_Cartesian ] 0
| 10> end
| 11> *xyz 0 1
| 12>  C        0.9103150000     0.0064660000    -0.0073870000
| 13>  C        2.1064340000    -0.1257490000     0.0064650000
| 14>  C        3.5159830000    -0.2555540000     0.0574610000
| 15>  C        4.2391740000    -0.9163370000    -0.8520370000
| 16>  C        5.7019620000    -1.0986690000    -0.8076720000
| 17>  C        6.4644050000    -1.0288660000     0.4507460000
| 18>  N        6.2633950000    -2.3187670000    -0.2046640000
| 19>  H       -0.1479240000     0.1177640000    -0.0267010000
| 20>  H        4.0120460000     0.2287530000     0.8946460000
| 21>  H        3.7265920000    -1.3659840000    -1.6992370000
| 22>  H        6.2159500000    -0.8275530000    -1.7269130000
| 23>  H        5.9233960000    -0.8280380000     1.3692490000
| 24>  H        7.4849340000    -0.6626010000     0.4360180000
| 25>  H        5.5200480000    -2.8233560000     0.2699380000
| 26> *
| 27>
| 28>                          ****END OF INPUT****
 Total Charge           Charge          ....    0
 Multiplicity           Mult            ....    1
 Number of Electrons    NEL             ....   50
 Basis Dimension        Dim             ....  133

MULLIKEN ATOMIC CHARGES
-----------------------
   0 C :   -0.405407
   1 C :    0.392950
   2 C :   -0.074111
   3 C :    0.010091
   4 C :   -0.055004
   5 C :    0.051800
   6 N :   -0.192430
   7 H :    0.007552
   8 H :    0.029303
   9 H :    0.017798
  10 H :    0.035959
  11 H :    0.033856
  12 H :    0.038555
  13 H :    0.109087
Sum of atomic charges:   -0.0000000

LOEWDIN ATOMIC CHARGES
----------------------
   0 C :   -0.061177
   1 C :   -0.020218
   2 C :   -0.051009
   3 C :   -0.012677
   4 C :   -0.008456
   5 C :    0.006916
   6 N :   -0.093800
   7 H :    0.036497
   8 H :    0.041724
   9 H :    0.036322
  10 H :    0.030604
  11 H :    0.016261
  12 H :    0.025145
  13 H :    0.053868

  Mayer bond orders larger than 0.1
B(  0-C ,  1-C ) :   2.2737 B(  0-C ,  3-C ) :   0.1270 B(  0-C ,  7-H ) :   1.0882
B(  1-C ,  2-C ) :   1.0312 B(  2-C ,  3-C ) :   1.7977 B(  2-C ,  8-H ) :   0.9361
B(  3-C ,  4-C ) :   1.0525 B(  3-C ,  9-H ) :   0.9610 B(  4-C ,  5-C ) :   1.0715
B(  4-C ,  6-N ) :   0.9714 B(  4-C , 10-H ) :   0.9139 B(  5-C ,  6-N ) :   0.9932
B(  5-C , 11-H ) :   0.9368 B(  5-C , 12-H ) :   0.9328 B(  6-N , 13-H ) :   0.9482

FINAL SINGLE POINT ENERGY      -286.882942775186

DIPOLE MOMENT
-------------
                                X             Y             Z
Electronic contribution:     -3.00020       0.38838      -0.54065
Nuclear contribution   :      2.78041      -0.16429       0.75933
                        -----------------------------------------
Total Dipole Moment    :     -0.21979       0.22409       0.21868
                        -----------------------------------------
Magnitude (a.u.)       :      0.38255
Magnitude (Debye)      :      0.97236

                             ****ORCA TERMINATED NORMALLY****
TOTAL RUN TIME: 0 days 0 hours 0 minutes 6 seconds 579 msec
