                         Program Version 3.0.3 - RELEASE   -
|  1> ! RI PBE def2-SVP def2-SVP/J NBO PAL2
|  2> % maxcore 2000
|  3> % output
|  4>     # printlevel mini
|  5>     print[ P_Basis ] 0
|  6>     print[ P_SCFInfo ] 1
|  7>     print[ P_SCFIterInfo ] 1
|  8>     print[ P_OrbEn ] 0
|  9>     print[ P_Cartesian ] 0
| 10> end
| 11> *xyz 0 1
| 12>  C        0.8833970000    -0.0025730000    -0.0190220000
| 13>  C        2.0889590000    -0.0330220000    -0.0144580000
| 14>  C        3.4503320000    -0.0668970000    -0.0097790000
| 15>  C        4.6596370000    -0.1015950000    -0.0085560000
| 16>  C        6.0875270000    -0.1164580000    -0.0004330000
| 17>  C        6.8168770000    -0.8069310000    -1.0971610000
| 18>  N        6.8321030000     0.6408990000    -1.0158680000
| 19>  H       -0.1804620000     0.0240130000    -0.0218840000
| 20>  H        6.5441410000    -0.0907210000     0.9843540000
| 21>  H        6.2171040000    -1.2874670000    -1.8621960000
| 22>  H        7.7585050000    -1.2924530000    -0.8660340000
| 23>  H        6.1792790000     1.0394060000    -1.6830630000
| 24> *
| 25>
| 26>                          ****END OF INPUT****
 Total Charge           Charge          ....    0
 Multiplicity           Mult            ....    1
 Number of Electrons    NEL             ....   48
 Basis Dimension        Dim             ....  123

MULLIKEN ATOMIC CHARGES
-----------------------
   0 C :   -0.419681
   1 C :    0.355420
   2 C :   -0.003957
   3 C :    0.022322
   4 C :   -0.147821
   5 C :    0.064492
   6 N :   -0.163484
   7 H :    0.013663
   8 H :    0.061168
   9 H :    0.049636
  10 H :    0.048952
  11 H :    0.119290
Sum of atomic charges:   -0.0000000

LOEWDIN ATOMIC CHARGES
----------------------
   0 C :   -0.027570
   1 C :   -0.031817
   2 C :   -0.059607
   3 C :   -0.015485
   4 C :   -0.013617
   5 C :    0.026169
   6 N :   -0.076124
   7 H :    0.039977
   8 H :    0.043968
   9 H :    0.024313
  10 H :    0.028130
  11 H :    0.061663

  Mayer bond orders larger than 0.1
B(  0-C ,  1-C ) :   2.1399 B(  0-C ,  3-C ) :   0.2532 B(  0-C ,  7-H ) :   1.0962
B(  1-C ,  2-C ) :   0.9460 B(  1-C ,  7-H ) :  -0.1069 B(  2-C ,  3-C ) :   2.2607
B(  3-C ,  4-C ) :   0.9964 B(  4-C ,  5-C ) :   1.0127 B(  4-C ,  6-N ) :   0.9948
B(  4-C ,  8-H ) :   0.9155 B(  5-C ,  6-N ) :   0.9982 B(  5-C ,  9-H ) :   0.9442
B(  5-C , 10-H ) :   0.9363 B(  6-N , 11-H ) :   0.9466

FINAL SINGLE POINT ENERGY      -285.651933081073

DIPOLE MOMENT
-------------
                                X             Y             Z
Electronic contribution:     -3.84748       0.87394       1.35181
Nuclear contribution   :      3.75595      -1.18552      -1.61696
                        -----------------------------------------
Total Dipole Moment    :     -0.09153      -0.31157      -0.26515
                        -----------------------------------------
Magnitude (a.u.)       :      0.41924
Magnitude (Debye)      :      1.06562

                             ****ORCA TERMINATED NORMALLY****
TOTAL RUN TIME: 0 days 0 hours 0 minutes 5 seconds 666 msec
