                         Program Version 3.0.3 - RELEASE   -
|  1> ! RI PBE def2-SVP def2-SVP/J NBO PAL2
|  2> % maxcore 2000
|  3> % output
|  4>     # printlevel mini
|  5>     print[ P_Basis ] 0
|  6>     print[ P_SCFInfo ] 1
|  7>     print[ P_SCFIterInfo ] 1
|  8>     print[ P_OrbEn ] 0
|  9>     print[ P_Cartesian ] 0
| 10> end
| 11> *xyz 0 1
| 12>  C        0.5986530000    -1.2210100000     0.2552440000
| 13>  C        1.8971740000    -1.1942180000    -0.4753040000
| 14>  C        3.0862270000    -1.4217170000     0.0690040000
| 15>  C        4.3868120000    -1.3955250000    -0.6665450000
| 16>  C        5.1292260000    -2.7062020000    -0.5916160000
| 17>  C        4.9528000000    -3.7231270000    -1.6414750000
| 18>  N        6.2137490000    -2.9883350000    -1.5232220000
| 19>  H        0.0872150000    -0.2553520000     0.1884100000
| 20>  H        0.7396080000    -1.4585680000     1.3114840000
| 21>  H       -0.0805880000    -1.9645660000    -0.1739670000
| 22>  H        1.8488210000    -0.9647090000    -1.5396050000
| 23>  H        3.1402600000    -1.6515200000     1.1331480000
| 24>  H        5.0294350000    -0.6091970000    -0.2477180000
| 25>  H        4.2132020000    -1.1384370000    -1.7177220000
| 26>  H        5.3347440000    -3.0531740000     0.4187510000
| 27>  H        4.2833500000    -3.4801550000    -2.4617210000
| 28>  H        5.0136970000    -4.7791510000    -1.4020750000
| 29>  H        6.2586140000    -2.2606270000    -2.2297810000
| 30> *
| 31>
| 32>                          ****END OF INPUT****
 Total Charge           Charge          ....    0
 Multiplicity           Mult            ....    1
 Number of Electrons    NEL             ....   54
 Basis Dimension        Dim             ....  153

MULLIKEN ATOMIC CHARGES
-----------------------
   0 C :    0.027347
   1 C :   -0.101489
   2 C :   -0.055189
   3 C :    0.144356
   4 C :   -0.128320
   5 C :    0.029385
   6 N :   -0.187369
   7 H :    0.034976
   8 H :    0.020251
   9 H :    0.036279
  10 H :   -0.008562
  11 H :   -0.007734
  12 H :    0.026629
  13 H :   -0.019419
  14 H :    0.022897
  15 H :    0.026263
  16 H :    0.036611
  17 H :    0.103088
Sum of atomic charges:   -0.0000000

LOEWDIN ATOMIC CHARGES
----------------------
   0 C :   -0.067668
   1 C :   -0.045811
   2 C :   -0.044109
   3 C :   -0.045606
   4 C :   -0.006515
   5 C :   -0.002513
   6 N :   -0.102889
   7 H :    0.036754
   8 H :    0.031269
   9 H :    0.037219
  10 H :    0.020436
  11 H :    0.021866
  12 H :    0.037034
  13 H :    0.025298
  14 H :    0.020591
  15 H :    0.013753
  16 H :    0.020908
  17 H :    0.049981

  Mayer bond orders larger than 0.1
B(  0-C ,  1-C ) :   1.0918 B(  0-C ,  7-H ) :   0.9470 B(  0-C ,  8-H ) :   0.9587
B(  0-C ,  9-H ) :   0.9469 B(  1-C ,  2-C ) :   1.9356 B(  1-C , 10-H ) :   0.9500
B(  2-C ,  3-C ) :   1.0501 B(  2-C , 11-H ) :   0.9476 B(  3-C ,  4-C ) :   1.0586
B(  3-C , 12-H ) :   0.9017 B(  3-C , 13-H ) :   0.9037 B(  4-C ,  5-C ) :   1.0518
B(  4-C ,  6-N ) :   0.9859 B(  4-C , 14-H ) :   0.9337 B(  5-C ,  6-N ) :   1.0180
B(  5-C , 15-H ) :   0.9391 B(  5-C , 16-H ) :   0.9434 B(  6-N , 17-H ) :   0.9484

FINAL SINGLE POINT ENERGY      -289.345838692852

DIPOLE MOMENT
-------------
                                X             Y             Z
Electronic contribution:      4.38553      -1.01037      -0.69666
Nuclear contribution   :     -5.00017       1.35363       0.56763
                        -----------------------------------------
Total Dipole Moment    :     -0.61464       0.34326      -0.12903
                        -----------------------------------------
Magnitude (a.u.)       :      0.71572
Magnitude (Debye)      :      1.81921

                             ****ORCA TERMINATED NORMALLY****
TOTAL RUN TIME: 0 days 0 hours 0 minutes 7 seconds 649 msec
