                         Program Version 3.0.3 - RELEASE   -
|  1> ! RI PBE def2-SVP def2-SVP/J NBO PAL2
|  2> % maxcore 2000
|  3> % output
|  4>     # printlevel mini
|  5>     print[ P_Basis ] 0
|  6>     print[ P_SCFInfo ] 1
|  7>     print[ P_SCFIterInfo ] 1
|  8>     print[ P_OrbEn ] 0
|  9>     print[ P_Cartesian ] 0
| 10> end
| 11> *xyz 0 1
| 12>  C        2.4267350000    -1.0292510000     2.1838540000
| 13>  C        2.3315310000     0.2218540000     1.3779520000
| 14>  C        3.3187220000     1.0112430000     0.9428910000
| 15>  C        3.0003620000     2.2447940000     0.1503810000
| 16>  C        4.7463710000     0.7317250000     1.2286120000
| 17>  C        5.7854400000     0.8532160000     0.1763660000
| 18>  N        5.7466480000     1.8023700000     1.2771510000
| 19>  H        1.8045850000    -0.9570620000     3.0816290000
| 20>  H        3.4415770000    -1.2687850000     2.4992240000
| 21>  H        2.0492520000    -1.8846860000     1.6134580000
| 22>  H        1.3179890000     0.5134650000     1.1091080000
| 23>  H        1.9430620000     2.2678820000    -0.1142350000
| 24>  H        3.5747200000     2.2997300000    -0.7799170000
| 25>  H        3.2142400000     3.1571820000     0.7177440000
| 26>  H        4.9241830000    -0.0223050000     1.9858910000
| 27>  H        5.4752930000     1.1823200000    -0.8101140000
| 28>  H        6.6274780000     0.1692480000     0.1824650000
| 29>  H        5.3375990000     2.6765500000     0.9651190000
| 30> *
| 31>
| 32>                          ****END OF INPUT****
 Total Charge           Charge          ....    0
 Multiplicity           Mult            ....    1
 Number of Electrons    NEL             ....   54
 Basis Dimension        Dim             ....  153

MULLIKEN ATOMIC CHARGES
-----------------------
   0 C :    0.061127
   1 C :   -0.154205
   2 C :   -0.000948
   3 C :    0.010872
   4 C :   -0.086014
   5 C :    0.031770
   6 N :   -0.186386
   7 H :    0.029524
   8 H :    0.013829
   9 H :    0.030432
  10 H :   -0.021089
  11 H :    0.018008
  12 H :    0.027605
  13 H :    0.038570
  14 H :    0.015437
  15 H :    0.031123
  16 H :    0.039924
  17 H :    0.100420
Sum of atomic charges:   -0.0000000

LOEWDIN ATOMIC CHARGES
----------------------
   0 C :   -0.066805
   1 C :   -0.056747
   2 C :   -0.055287
   3 C :   -0.060458
   4 C :   -0.000143
   5 C :    0.006626
   6 N :   -0.094569
   7 H :    0.037187
   8 H :    0.027444
   9 H :    0.038100
  10 H :    0.020525
  11 H :    0.035195
  12 H :    0.030186
  13 H :    0.033223
  14 H :    0.023402
  15 H :    0.011910
  16 H :    0.022119
  17 H :    0.048091

  Mayer bond orders larger than 0.1
B(  0-C ,  1-C ) :   1.1074 B(  0-C ,  7-H ) :   0.9416 B(  0-C ,  8-H ) :   0.9494
B(  0-C ,  9-H ) :   0.9415 B(  1-C ,  2-C ) :   1.8746 B(  1-C , 10-H ) :   0.9216
B(  2-C ,  3-C ) :   1.0692 B(  2-C ,  4-C ) :   1.0370 B(  3-C , 11-H ) :   0.9412
B(  3-C , 12-H ) :   0.9428 B(  3-C , 13-H ) :   0.9396 B(  4-C ,  5-C ) :   1.0116
B(  4-C ,  6-N ) :   0.9773 B(  4-C , 14-H ) :   0.9329 B(  5-C ,  6-N ) :   1.0027
B(  5-C , 15-H ) :   0.9431 B(  5-C , 16-H ) :   0.9395 B(  6-N , 17-H ) :   0.9499

FINAL SINGLE POINT ENERGY      -289.349324381402

DIPOLE MOMENT
-------------
                                X             Y             Z
Electronic contribution:      2.65043       1.03346       0.53317
Nuclear contribution   :     -3.10386      -1.06214      -0.94445
                        -----------------------------------------
Total Dipole Moment    :     -0.45342      -0.02868      -0.41128
                        -----------------------------------------
Magnitude (a.u.)       :      0.61284
Magnitude (Debye)      :      1.55771

                             ****ORCA TERMINATED NORMALLY****
TOTAL RUN TIME: 0 days 0 hours 0 minutes 7 seconds 908 msec
