                         Program Version 3.0.3 - RELEASE   -
|  1> ! RI PBE def2-SVP def2-SVP/J NBO PAL2
|  2> % maxcore 2000
|  3> % output
|  4>     # printlevel mini
|  5>     print[ P_Basis ] 0
|  6>     print[ P_SCFInfo ] 1
|  7>     print[ P_SCFIterInfo ] 1
|  8>     print[ P_OrbEn ] 0
|  9>     print[ P_Cartesian ] 0
| 10> end
| 11> *xyz 0 1
| 12>  C        2.3910500000    -2.1910380000    -0.0383500000
| 13>  C        2.9168700000    -0.8576620000    -0.4693230000
| 14>  C        3.2382340000    -0.6023830000    -1.7336870000
| 15>  C        3.0517840000     0.1924500000     0.5984660000
| 16>  C        4.0031360000    -0.1775690000     1.7097450000
| 17>  C        5.4381090000     0.1306850000     1.5849870000
| 18>  N        4.5999970000     0.8677640000     2.5318380000
| 19>  H        1.4263790000    -2.0845630000     0.4692800000
| 20>  H        3.0681240000    -2.6740160000     0.6728630000
| 21>  H        2.2608740000    -2.8614310000    -0.8885020000
| 22>  H        3.1327820000    -1.3545950000    -2.5080120000
| 23>  H        3.6138820000     0.3685890000    -2.0382330000
| 24>  H        2.0634820000     0.3868810000     1.0372990000
| 25>  H        3.3896600000     1.1298330000     0.1440390000
| 26>  H        3.7232410000    -1.0550230000     2.2864580000
| 27>  H        5.7604540000     0.6303470000     0.6760740000
| 28>  H        6.1819780000    -0.5158370000     2.0374310000
| 29>  H        4.3684750000     1.7800580000     2.1513370000
| 30> *
| 31>
| 32>                          ****END OF INPUT****
 Total Charge           Charge          ....    0
 Multiplicity           Mult            ....    1
 Number of Electrons    NEL             ....   54
 Basis Dimension        Dim             ....  153

MULLIKEN ATOMIC CHARGES
-----------------------
   0 C :    0.060402
   1 C :   -0.186096
   2 C :   -0.040513
   3 C :    0.176780
   4 C :   -0.140594
   5 C :    0.041318
   6 N :   -0.192630
   7 H :    0.024419
   8 H :    0.040196
   9 H :    0.017638
  10 H :    0.009096
  11 H :    0.005393
  12 H :    0.021959
  13 H :   -0.031320
  14 H :    0.027339
  15 H :    0.027614
  16 H :    0.034522
  17 H :    0.104477
Sum of atomic charges:   -0.0000000

LOEWDIN ATOMIC CHARGES
----------------------
   0 C :   -0.057960
   1 C :   -0.026955
   2 C :   -0.080667
   3 C :   -0.035476
   4 C :   -0.007275
   5 C :    0.000875
   6 N :   -0.102606
   7 H :    0.035945
   8 H :    0.037151
   9 H :    0.032609
  10 H :    0.019901
  11 H :    0.018110
  12 H :    0.035447
  13 H :    0.024995
  14 H :    0.019838
  15 H :    0.014741
  16 H :    0.021208
  17 H :    0.050119

  Mayer bond orders larger than 0.1
B(  0-C ,  1-C ) :   1.0888 B(  0-C ,  7-H ) :   0.9393 B(  0-C ,  8-H ) :   0.9406
B(  0-C ,  9-H ) :   0.9467 B(  1-C ,  2-C ) :   1.9898 B(  1-C ,  3-C ) :   1.0488
B(  2-C , 10-H ) :   0.9340 B(  2-C , 11-H ) :   0.9347 B(  3-C ,  4-C ) :   1.0584
B(  3-C , 12-H ) :   0.9027 B(  3-C , 13-H ) :   0.8880 B(  4-C ,  5-C ) :   1.0560
B(  4-C ,  6-N ) :   0.9872 B(  4-C , 14-H ) :   0.9290 B(  5-C ,  6-N ) :   1.0156
B(  5-C , 15-H ) :   0.9401 B(  5-C , 16-H ) :   0.9406 B(  6-N , 17-H ) :   0.9477

FINAL SINGLE POINT ENERGY      -289.344994872448

DIPOLE MOMENT
-------------
                                X             Y             Z
Electronic contribution:      1.09805       1.97505       2.06393
Nuclear contribution   :     -1.27469      -2.00628      -2.50578
                        -----------------------------------------
Total Dipole Moment    :     -0.17664      -0.03123      -0.44185
                        -----------------------------------------
Magnitude (a.u.)       :      0.47687
Magnitude (Debye)      :      1.21211

                             ****ORCA TERMINATED NORMALLY****
TOTAL RUN TIME: 0 days 0 hours 0 minutes 7 seconds 899 msec
