                         Program Version 3.0.3 - RELEASE   -
|  1> ! RI PBE def2-SVP def2-SVP/J NBO PAL2
|  2> % maxcore 2000
|  3> % output
|  4>     # printlevel mini
|  5>     print[ P_Basis ] 0
|  6>     print[ P_SCFInfo ] 1
|  7>     print[ P_SCFIterInfo ] 1
|  8>     print[ P_OrbEn ] 0
|  9>     print[ P_Cartesian ] 0
| 10> end
| 11> *xyz 0 1
| 12>  C        0.7275940000     0.0075920000    -0.0625610000
| 13>  C        2.2432200000     0.1160220000    -0.0168950000
| 14>  C        2.8618700000     0.6306710000    -1.2850990000
| 15>  C        2.2241770000     0.9748380000    -2.3951680000
| 16>  C        2.6877840000     0.9677780000     1.1520740000
| 17>  C        2.8910180000     0.3648250000     2.4809270000
| 18>  N        4.0331430000     0.8393780000     1.6991810000
| 19>  H        0.3981530000    -0.6464500000    -0.8726480000
| 20>  H        0.2682030000     0.9879870000    -0.2142190000
| 21>  H        0.3476520000    -0.3980580000     0.8770350000
| 22>  H        2.6560800000    -0.8900010000     0.1595810000
| 23>  H        3.9451380000     0.7355820000    -1.2541720000
| 24>  H        1.1466430000     0.9013580000    -2.4910370000
| 25>  H        2.7653710000     1.3467960000    -3.2573330000
| 26>  H        2.3428130000     1.9987810000     1.1064040000
| 27>  H        2.7348730000    -0.7065680000     2.5719600000
| 28>  H        2.6831320000     0.9328840000     3.3809950000
| 29>  H        4.5085380000     0.0503850000     1.2713860000
| 30> *
| 31>
| 32>                          ****END OF INPUT****
 Total Charge           Charge          ....    0
 Multiplicity           Mult            ....    1
 Number of Electrons    NEL             ....   54
 Basis Dimension        Dim             ....  153

MULLIKEN ATOMIC CHARGES
-----------------------
   0 C :    0.053268
   1 C :   -0.013281
   2 C :   -0.031289
   3 C :   -0.040895
   4 C :   -0.102099
   5 C :    0.044177
   6 N :   -0.185065
   7 H :    0.026882
   8 H :    0.023956
   9 H :    0.010387
  10 H :   -0.011950
  11 H :    0.003235
  12 H :    0.017578
  13 H :    0.021436
  14 H :    0.021481
  15 H :    0.025184
  16 H :    0.032856
  17 H :    0.104140
Sum of atomic charges:   -0.0000000

LOEWDIN ATOMIC CHARGES
----------------------
   0 C :   -0.051859
   1 C :   -0.052037
   2 C :   -0.023842
   3 C :   -0.066932
   4 C :    0.000495
   5 C :   -0.000217
   6 N :   -0.101987
   7 H :    0.028268
   8 H :    0.028308
   9 H :    0.027820
  10 H :    0.031727
  11 H :    0.026502
  12 H :    0.021044
  13 H :    0.026389
  14 H :    0.022865
  15 H :    0.013423
  16 H :    0.020910
  17 H :    0.049123

  Mayer bond orders larger than 0.1
B(  0-C ,  1-C ) :   1.0994 B(  0-C ,  7-H ) :   0.9453 B(  0-C ,  8-H ) :   0.9524
B(  0-C ,  9-H ) :   0.9518 B(  1-C ,  2-C ) :   0.9983 B(  1-C ,  4-C ) :   1.0157
B(  1-C , 10-H ) :   0.8648 B(  2-C ,  3-C ) :   2.0202 B(  2-C , 11-H ) :   0.9550
B(  3-C , 12-H ) :   0.9351 B(  3-C , 13-H ) :   0.9400 B(  4-C ,  5-C ) :   1.0396
B(  4-C ,  6-N ) :   0.9841 B(  4-C , 14-H ) :   0.9324 B(  5-C ,  6-N ) :   1.0183
B(  5-C , 15-H ) :   0.9371 B(  5-C , 16-H ) :   0.9395 B(  6-N , 17-H ) :   0.9441

FINAL SINGLE POINT ENERGY      -289.340561564310

DIPOLE MOMENT
-------------
                                X             Y             Z
Electronic contribution:      3.25868       1.04929       1.18401
Nuclear contribution   :     -3.60996      -1.56881      -1.29615
                        -----------------------------------------
Total Dipole Moment    :     -0.35128      -0.51952      -0.11214
                        -----------------------------------------
Magnitude (a.u.)       :      0.63709
Magnitude (Debye)      :      1.61934

                             ****ORCA TERMINATED NORMALLY****
TOTAL RUN TIME: 0 days 0 hours 0 minutes 7 seconds 536 msec
