                         Program Version 3.0.3 - RELEASE   -
|  1> ! RI PBE def2-SVP def2-SVP/J NBO PAL2
|  2> % maxcore 2000
|  3> % output
|  4>     # printlevel mini
|  5>     print[ P_Basis ] 0
|  6>     print[ P_SCFInfo ] 1
|  7>     print[ P_SCFIterInfo ] 1
|  8>     print[ P_OrbEn ] 0
|  9>     print[ P_Cartesian ] 0
| 10> end
| 11> *xyz 0 1
| 12>  C        1.0068200000    -0.6878750000    -0.5537680000
| 13>  C        2.0806720000     0.3827220000    -0.4212770000
| 14>  C        1.7219050000     1.6151040000    -1.2400400000
| 15>  C        2.3209270000     0.7165960000     1.0512930000
| 16>  C        3.4728180000     1.6492650000     1.3013600000
| 17>  C        3.2580840000     3.0938670000     1.5087190000
| 18>  N        3.6620070000     2.2386750000     2.6226260000
| 19>  H        0.8546730000    -0.9694900000    -1.5986870000
| 20>  H        0.0489270000    -0.3260430000    -0.1661100000
| 21>  H        1.2709600000    -1.5907570000     0.0030970000
| 22>  H        3.0176140000    -0.0283410000    -0.8207430000
| 23>  H        0.7954730000     2.0677120000    -0.8710410000
| 24>  H        1.5664460000     1.3542400000    -2.2899940000
| 25>  H        2.5045680000     2.3747580000    -1.1949820000
| 26>  H        2.5027230000    -0.2185390000     1.5959430000
| 27>  H        1.4065420000     1.1518950000     1.4783050000
| 28>  H        4.4102630000     1.3435460000     0.8400850000
| 29>  H        2.2339860000     3.4539870000     1.4750750000
| 30>  H        4.0040930000     3.8139070000     1.1892540000
| 31>  H        2.8589990000     2.0297740000     3.2078660000
| 32> *
| 33>
| 34>                          ****END OF INPUT****
 Total Charge           Charge          ....    0
 Multiplicity           Mult            ....    1
 Number of Electrons    NEL             ....   56
 Basis Dimension        Dim             ....  163

MULLIKEN ATOMIC CHARGES
-----------------------
   0 C :    0.037802
   1 C :   -0.149296
   2 C :    0.002459
   3 C :    0.124561
   4 C :   -0.137290
   5 C :    0.043678
   6 N :   -0.182798
   7 H :    0.014928
   8 H :    0.007852
   9 H :    0.012043
  10 H :    0.005697
  11 H :    0.008491
  12 H :    0.018524
  13 H :    0.031123
  14 H :    0.008239
  15 H :   -0.025458
  16 H :    0.018149
  17 H :    0.024322
  18 H :    0.034479
  19 H :    0.102495
Sum of atomic charges:    0.0000000

LOEWDIN ATOMIC CHARGES
----------------------
   0 C :   -0.056756
   1 C :   -0.044641
   2 C :   -0.062270
   3 C :   -0.041388
   4 C :   -0.010939
   5 C :   -0.003002
   6 N :   -0.102376
   7 H :    0.025210
   8 H :    0.022898
   9 H :    0.024070
  10 H :    0.023923
  11 H :    0.022725
  12 H :    0.026112
  13 H :    0.026976
  14 H :    0.027195
  15 H :    0.019135
  16 H :    0.020302
  17 H :    0.012375
  18 H :    0.020197
  19 H :    0.050255

  Mayer bond orders larger than 0.1
B(  0-C ,  1-C ) :   1.0835 B(  0-C ,  7-H ) :   0.9594 B(  0-C ,  8-H ) :   0.9602
B(  0-C ,  9-H ) :   0.9575 B(  1-C ,  2-C ) :   1.0792 B(  1-C ,  3-C ) :   1.0556
B(  1-C , 10-H ) :   0.9127 B(  2-C , 11-H ) :   0.9606 B(  2-C , 12-H ) :   0.9590
B(  2-C , 13-H ) :   0.9588 B(  3-C ,  4-C ) :   1.0646 B(  3-C , 14-H ) :   0.9180
B(  3-C , 15-H ) :   0.9000 B(  4-C ,  5-C ) :   1.0452 B(  4-C ,  6-N ) :   0.9911
B(  4-C , 16-H ) :   0.9303 B(  5-C ,  6-N ) :   1.0160 B(  5-C , 17-H ) :   0.9388
B(  5-C , 18-H ) :   0.9405 B(  6-N , 19-H ) :   0.9494

FINAL SINGLE POINT ENERGY      -290.565555698917

DIPOLE MOMENT
-------------
                                X             Y             Z
Electronic contribution:      3.85319       1.94381       4.29971
Nuclear contribution   :     -4.40423      -2.07920      -4.61906
                        -----------------------------------------
Total Dipole Moment    :     -0.55104      -0.13539      -0.31936
                        -----------------------------------------
Magnitude (a.u.)       :      0.65112
Magnitude (Debye)      :      1.65502

                             ****ORCA TERMINATED NORMALLY****
TOTAL RUN TIME: 0 days 0 hours 0 minutes 8 seconds 771 msec
