                         Program Version 3.0.3 - RELEASE   -
|  1> ! RI PBE def2-SVP def2-SVP/J NBO PAL2
|  2> % maxcore 2000
|  3> % output
|  4>     # printlevel mini
|  5>     print[ P_Basis ] 0
|  6>     print[ P_SCFInfo ] 1
|  7>     print[ P_SCFIterInfo ] 1
|  8>     print[ P_OrbEn ] 0
|  9>     print[ P_Cartesian ] 0
| 10> end
| 11> *xyz 0 1
| 12>  C        0.8924550000     0.0877020000     0.1014050000
| 13>  C        2.3836200000    -0.0230000000     0.0368490000
| 14>  C        2.9077300000    -0.9388270000    -1.0232390000
| 15>  C        3.1616450000     0.6444040000     0.8911840000
| 16>  C        4.6432370000     0.6249560000     0.9514250000
| 17>  C        5.4722440000     1.0753410000    -0.1861550000
| 18>  N        5.3688960000     1.8952980000     1.0172620000
| 19>  H        0.4879030000     0.4485480000    -0.8504190000
| 20>  H        0.5689740000     0.7663150000     0.8917790000
| 21>  H        0.4365100000    -0.8919310000     0.2808360000
| 22>  H        2.5235620000    -1.9527820000    -0.8679450000
| 23>  H        3.9953640000    -0.9846590000    -1.0353600000
| 24>  H        2.5591240000    -0.6259240000    -2.0133840000
| 25>  H        2.6759120000     1.2502470000     1.6558930000
| 26>  H        5.0742160000    -0.1252520000     1.6127080000
| 27>  H        4.9514360000     1.4019400000    -1.0803850000
| 28>  H        6.4484670000     0.6340600000    -0.3585980000
| 29>  H        4.7170160000     2.6561720000     0.8500460000
| 30> *
| 31>
| 32>                          ****END OF INPUT****
 Total Charge           Charge          ....    0
 Multiplicity           Mult            ....    1
 Number of Electrons    NEL             ....   54
 Basis Dimension        Dim             ....  153

MULLIKEN ATOMIC CHARGES
-----------------------
   0 C :    0.054366
   1 C :   -0.192745
   2 C :    0.056203
   3 C :   -0.033566
   4 C :   -0.075937
   5 C :    0.048201
   6 N :   -0.192104
   7 H :    0.025135
   8 H :    0.018165
   9 H :    0.026819
  10 H :    0.027413
  11 H :    0.030214
  12 H :    0.022247
  13 H :   -0.009981
  14 H :    0.040286
  15 H :    0.027392
  16 H :    0.026975
  17 H :    0.100918
Sum of atomic charges:   -0.0000000

LOEWDIN ATOMIC CHARGES
----------------------
   0 C :   -0.054877
   1 C :   -0.030442
   2 C :   -0.060153
   3 C :   -0.078304
   4 C :   -0.015188
   5 C :    0.001611
   6 N :   -0.100274
   7 H :    0.034055
   8 H :    0.029887
   9 H :    0.034760
  10 H :    0.038078
  11 H :    0.031591
  12 H :    0.035242
  13 H :    0.022858
  14 H :    0.026739
  15 H :    0.014906
  16 H :    0.019119
  17 H :    0.050394

  Mayer bond orders larger than 0.1
B(  0-C ,  1-C ) :   1.0799 B(  0-C ,  7-H ) :   0.9461 B(  0-C ,  8-H ) :   0.9539
B(  0-C ,  9-H ) :   0.9452 B(  1-C ,  2-C ) :   1.1034 B(  1-C ,  3-C ) :   1.8879
B(  2-C , 10-H ) :   0.9392 B(  2-C , 11-H ) :   0.9423 B(  2-C , 12-H ) :   0.9408
B(  3-C ,  4-C ) :   1.0177 B(  3-C , 13-H ) :   0.9328 B(  4-C ,  5-C ) :   1.0562
B(  4-C ,  6-N ) :   0.9979 B(  4-C , 14-H ) :   0.9162 B(  5-C ,  6-N ) :   1.0040
B(  5-C , 15-H ) :   0.9435 B(  5-C , 16-H ) :   0.9391 B(  6-N , 17-H ) :   0.9542

FINAL SINGLE POINT ENERGY      -289.348228206546

DIPOLE MOMENT
-------------
                                X             Y             Z
Electronic contribution:      3.53971       2.30448       2.74975
Nuclear contribution   :     -4.18248      -2.54648      -3.25364
                        -----------------------------------------
Total Dipole Moment    :     -0.64276      -0.24200      -0.50388
                        -----------------------------------------
Magnitude (a.u.)       :      0.85183
Magnitude (Debye)      :      2.16517

                             ****ORCA TERMINATED NORMALLY****
TOTAL RUN TIME: 0 days 0 hours 0 minutes 7 seconds 343 msec
