                         Program Version 3.0.3 - RELEASE   -
|  1> ! RI PBE def2-SVP def2-SVP/J NBO PAL2
|  2> % maxcore 2000
|  3> % output
|  4>     # printlevel mini
|  5>     print[ P_Basis ] 0
|  6>     print[ P_SCFInfo ] 1
|  7>     print[ P_SCFIterInfo ] 1
|  8>     print[ P_OrbEn ] 0
|  9>     print[ P_Cartesian ] 0
| 10> end
| 11> *xyz 0 1
| 12>  C        1.0778720000     0.1823660000     0.1597020000
| 13>  C        2.5905420000     0.0888900000    -0.0478990000
| 14>  C        2.8816690000    -0.4104280000    -1.4625280000
| 15>  C        3.2070790000     1.4732120000     0.1302200000
| 16>  C        3.1348600000    -0.9411820000     0.9300280000
| 17>  C        4.4904600000    -0.9008030000     1.5067730000
| 18>  N        3.3158570000    -0.6714370000     2.3508200000
| 19>  H        0.6293010000     0.8783720000    -0.5545070000
| 20>  H        0.8388650000     0.5305070000     1.1680150000
| 21>  H        0.6027500000    -0.7927910000     0.0231110000
| 22>  H        2.4644700000     0.2716540000    -2.2086140000
| 23>  H        2.4407540000    -1.3971740000    -1.6290320000
| 24>  H        3.9577730000    -0.4883870000    -1.6380490000
| 25>  H        2.7416470000     2.1746000000    -0.5664360000
| 26>  H        4.2800120000     1.4730100000    -0.0740400000
| 27>  H        3.0473880000     1.8743640000     1.1356120000
| 28>  H        2.7127190000    -1.9297140000     0.7537890000
| 29>  H        5.1261050000    -0.0538360000     1.2721060000
| 30>  H        5.0238510000    -1.8246880000     1.7037910000
| 31>  H        3.2204250000     0.3226550000     2.5319560000
| 32> *
| 33>
| 34>                          ****END OF INPUT****
 Total Charge           Charge          ....    0
 Multiplicity           Mult            ....    1
 Number of Electrons    NEL             ....   56
 Basis Dimension        Dim             ....  163

MULLIKEN ATOMIC CHARGES
-----------------------
   0 C :    0.085088
   1 C :   -0.272523
   2 C :    0.076333
   3 C :    0.025419
   4 C :   -0.035964
   5 C :    0.036315
   6 N :   -0.188751
   7 H :    0.010897
   8 H :    0.009725
   9 H :    0.010530
  10 H :    0.009483
  11 H :    0.009740
  12 H :    0.012661
  13 H :    0.016140
  14 H :    0.023690
  15 H :    0.006095
  16 H :    0.009219
  17 H :    0.026999
  18 H :    0.030067
  19 H :    0.098837
Sum of atomic charges:   -0.0000000

LOEWDIN ATOMIC CHARGES
----------------------
   0 C :   -0.043939
   1 C :   -0.072337
   2 C :   -0.044182
   3 C :   -0.053315
   4 C :    0.001594
   5 C :   -0.003230
   6 N :   -0.101227
   7 H :    0.022745
   8 H :    0.024492
   9 H :    0.025106
  10 H :    0.023652
  11 H :    0.024424
  12 H :    0.024745
  13 H :    0.030841
  14 H :    0.024991
  15 H :    0.018156
  16 H :    0.019602
  17 H :    0.013271
  18 H :    0.019711
  19 H :    0.044902

  Mayer bond orders larger than 0.1
B(  0-C ,  1-C ) :   1.0453 B(  0-C ,  7-H ) :   0.9574 B(  0-C ,  8-H ) :   0.9585
B(  0-C ,  9-H ) :   0.9565 B(  1-C ,  2-C ) :   1.0417 B(  1-C ,  3-C ) :   1.0534
B(  1-C ,  4-C ) :   0.9807 B(  2-C , 10-H ) :   0.9533 B(  2-C , 11-H ) :   0.9543
B(  2-C , 12-H ) :   0.9594 B(  3-C , 13-H ) :   0.9480 B(  3-C , 14-H ) :   0.9525
B(  3-C , 15-H ) :   0.9496 B(  4-C ,  5-C ) :   1.0577 B(  4-C ,  6-N ) :   0.9874
B(  4-C , 16-H ) :   0.9296 B(  5-C ,  6-N ) :   1.0184 B(  5-C , 17-H ) :   0.9339
B(  5-C , 18-H ) :   0.9381 B(  6-N , 19-H ) :   0.9498

FINAL SINGLE POINT ENERGY      -290.564727499156

DIPOLE MOMENT
-------------
                                X             Y             Z
Electronic contribution:      1.28815      -2.30579       3.76042
Nuclear contribution   :     -1.18831       2.74955      -4.27422
                        -----------------------------------------
Total Dipole Moment    :      0.09984       0.44376      -0.51380
                        -----------------------------------------
Magnitude (a.u.)       :      0.68621
Magnitude (Debye)      :      1.74420

                             ****ORCA TERMINATED NORMALLY****
TOTAL RUN TIME: 0 days 0 hours 0 minutes 9 seconds 58 msec
