                         Program Version 3.0.3 - RELEASE   -
|  1> ! RI PBE def2-SVP def2-SVP/J NBO PAL2
|  2> % maxcore 2000
|  3> % output
|  4>     # printlevel mini
|  5>     print[ P_Basis ] 0
|  6>     print[ P_SCFInfo ] 1
|  7>     print[ P_SCFIterInfo ] 1
|  8>     print[ P_OrbEn ] 0
|  9>     print[ P_Cartesian ] 0
| 10> end
| 11> *xyz 0 1
| 12>  C        1.0420050000    -0.2866550000    -0.0295280000
| 13>  C        2.5489130000    -0.0184160000    -0.0896510000
| 14>  C        3.0255900000     0.5371010000     1.1704230000
| 15>  C        3.4033740000     0.9679500000     2.2262740000
| 16>  C        3.3054720000    -1.2784600000    -0.4801210000
| 17>  C        4.7271260000    -1.4750410000    -0.1578560000
| 18>  N        3.6947450000    -2.2651900000     0.5147470000
| 19>  H        0.4928970000     0.6240930000     0.2128320000
| 20>  H        0.8156740000    -1.0371170000     0.7300520000
| 21>  H        0.6903130000    -0.6580570000    -0.9945190000
| 22>  H        2.7339590000     0.7287110000    -0.8725840000
| 23>  H        3.7354270000     1.3663080000     3.1559630000
| 24>  H        2.9246420000    -1.7178470000    -1.3992260000
| 25>  H        5.2224220000    -0.6954930000     0.4121510000
| 26>  H        5.3632750000    -2.0307740000    -0.8379840000
| 27>  H        3.5430640000    -1.8819140000     1.4447250000
| 28> *
| 29>
| 30>                          ****END OF INPUT****
 Total Charge           Charge          ....    0
 Multiplicity           Mult            ....    1
 Number of Electrons    NEL             ....   52
 Basis Dimension        Dim             ....  143

MULLIKEN ATOMIC CHARGES
-----------------------
   0 C :    0.037020
   1 C :    0.063703
   2 C :    0.320901
   3 C :   -0.499427
   4 C :   -0.105301
   5 C :    0.049572
   6 N :   -0.194215
   7 H :    0.033063
   8 H :    0.031529
   9 H :    0.021677
  10 H :    0.041023
  11 H :    0.001238
  12 H :    0.019317
  13 H :    0.035925
  14 H :    0.032569
  15 H :    0.111404
Sum of atomic charges:   -0.0000000

LOEWDIN ATOMIC CHARGES
----------------------
   0 C :   -0.040964
   1 C :   -0.056034
   2 C :   -0.015817
   3 C :   -0.085378
   4 C :    0.000784
   5 C :    0.000391
   6 N :   -0.100366
   7 H :    0.031932
   8 H :    0.032498
   9 H :    0.029081
  10 H :    0.053871
  11 H :    0.037128
  12 H :    0.022078
  13 H :    0.018218
  14 H :    0.020805
  15 H :    0.051772

  Mayer bond orders larger than 0.1
B(  0-C ,  1-C ) :   1.0816 B(  0-C ,  7-H ) :   0.9611 B(  0-C ,  8-H ) :   0.9618
B(  0-C ,  9-H ) :   0.9548 B(  1-C ,  2-C ) :   0.9765 B(  1-C ,  4-C ) :   0.9601
B(  1-C , 10-H ) :   0.8659 B(  2-C ,  3-C ) :   2.3090 B(  2-C , 11-H ) :  -0.1176
B(  3-C , 11-H ) :   1.1074 B(  4-C ,  5-C ) :   1.0565 B(  4-C ,  6-N ) :   0.9861
B(  4-C , 12-H ) :   0.9338 B(  5-C ,  6-N ) :   1.0193 B(  5-C , 13-H ) :   0.9289
B(  5-C , 14-H ) :   0.9400 B(  6-N , 15-H ) :   0.9421

FINAL SINGLE POINT ENERGY      -288.098866710602

DIPOLE MOMENT
-------------
                                X             Y             Z
Electronic contribution:      2.06673       0.63372       1.82415
Nuclear contribution   :     -2.17091      -0.03761      -1.88156
                        -----------------------------------------
Total Dipole Moment    :     -0.10418       0.59611      -0.05740
                        -----------------------------------------
Magnitude (a.u.)       :      0.60786
Magnitude (Debye)      :      1.54506

                             ****ORCA TERMINATED NORMALLY****
TOTAL RUN TIME: 0 days 0 hours 0 minutes 7 seconds 185 msec
