                         Program Version 3.0.3 - RELEASE   -
|  1> ! RI PBE def2-SVP def2-SVP/J NBO PAL2
|  2> % maxcore 2000
|  3> % output
|  4>     # printlevel mini
|  5>     print[ P_Basis ] 0
|  6>     print[ P_SCFInfo ] 1
|  7>     print[ P_SCFIterInfo ] 1
|  8>     print[ P_OrbEn ] 0
|  9>     print[ P_Cartesian ] 0
| 10> end
| 11> *xyz 0 1
| 12>  C        0.9771390000     0.0013710000    -0.0473830000
| 13>  C        2.4271400000     0.0540580000    -0.0552530000
| 14>  C        3.6285310000     0.0993520000    -0.0619310000
| 15>  C        5.0832350000     0.1729530000    -0.0790700000
| 16>  C        5.6118850000     1.3578620000    -0.8519980000
| 17>  C        6.9048540000     1.2509460000    -1.5510560000
| 18>  N        5.6545760000     1.3250520000    -2.3049260000
| 19>  H        0.5534610000     0.8272900000    -0.6242480000
| 20>  H        0.5864990000     0.0684940000     0.9711390000
| 21>  H        0.6151710000    -0.9325980000    -0.4846070000
| 22>  H        5.4935870000    -0.7484690000    -0.5110040000
| 23>  H        5.4573710000     0.2197910000     0.9505350000
| 24>  H        5.3163300000     2.3230750000    -0.4500880000
| 25>  H        7.4257110000     0.2991450000    -1.4960740000
| 26>  H        7.5509030000     2.1168980000    -1.6454900000
| 27>  H        5.3858160000     0.4059700000    -2.6420550000
| 28> *
| 29>
| 30>                          ****END OF INPUT****
 Total Charge           Charge          ....    0
 Multiplicity           Mult            ....    1
 Number of Electrons    NEL             ....   52
 Basis Dimension        Dim             ....  143

MULLIKEN ATOMIC CHARGES
-----------------------
   0 C :    0.054460
   1 C :   -0.221056
   2 C :   -0.092506
   3 C :    0.145391
   4 C :   -0.114631
   5 C :    0.026494
   6 N :   -0.180426
   7 H :    0.050081
   8 H :    0.044248
   9 H :    0.044490
  10 H :    0.007685
  11 H :    0.035945
  12 H :    0.029358
  13 H :    0.026315
  14 H :    0.038301
  15 H :    0.105850
Sum of atomic charges:   -0.0000000

LOEWDIN ATOMIC CHARGES
----------------------
   0 C :   -0.067638
   1 C :   -0.065480
   2 C :   -0.072223
   3 C :   -0.050266
   4 C :    0.000949
   5 C :   -0.002764
   6 N :   -0.098844
   7 H :    0.051513
   8 H :    0.049234
   9 H :    0.049484
  10 H :    0.042209
  11 H :    0.052031
  12 H :    0.024244
  13 H :    0.013342
  14 H :    0.021804
  15 H :    0.052401

  Mayer bond orders larger than 0.1
B(  0-C ,  1-C ) :   1.1356 B(  0-C ,  7-H ) :   0.9320 B(  0-C ,  8-H ) :   0.9337
B(  0-C ,  9-H ) :   0.9331 B(  1-C ,  2-C ) :   2.6109 B(  2-C ,  3-C ) :   1.0486
B(  3-C ,  4-C ) :   1.0558 B(  3-C , 10-H ) :   0.8867 B(  3-C , 11-H ) :   0.8838
B(  4-C ,  5-C ) :   1.0488 B(  4-C ,  6-N ) :   0.9916 B(  4-C , 12-H ) :   0.9343
B(  5-C ,  6-N ) :   1.0144 B(  5-C , 13-H ) :   0.9387 B(  5-C , 14-H ) :   0.9387
B(  6-N , 15-H ) :   0.9468

FINAL SINGLE POINT ENERGY      -288.108693751080

DIPOLE MOMENT
-------------
                                X             Y             Z
Electronic contribution:      0.67761       0.39757      -0.28885
Nuclear contribution   :     -0.69993      -0.88647       0.64309
                        -----------------------------------------
Total Dipole Moment    :     -0.02233      -0.48889       0.35424
                        -----------------------------------------
Magnitude (a.u.)       :      0.60415
Magnitude (Debye)      :      1.53563

                             ****ORCA TERMINATED NORMALLY****
TOTAL RUN TIME: 0 days 0 hours 0 minutes 7 seconds 138 msec
