                         Program Version 3.0.3 - RELEASE   -
|  1> ! RI PBE def2-SVP def2-SVP/J NBO PAL2
|  2> % maxcore 2000
|  3> % output
|  4>     # printlevel mini
|  5>     print[ P_Basis ] 0
|  6>     print[ P_SCFInfo ] 1
|  7>     print[ P_SCFIterInfo ] 1
|  8>     print[ P_OrbEn ] 0
|  9>     print[ P_Cartesian ] 0
| 10> end
| 11> *xyz 0 1
| 12>  C        1.9521200000    -1.3048340000    -0.5762580000
| 13>  C        2.5622670000    -0.0553320000     0.0497350000
| 14>  C        3.0712370000     0.9116930000    -0.9678600000
| 15>  C        4.3305720000     1.3225690000    -1.0680720000
| 16>  C        4.8650360000     2.2584620000    -2.0778560000
| 17>  C        5.3056220000     1.7665270000    -3.4053460000
| 18>  N        4.1261280000     2.6165710000    -3.2770720000
| 19>  H        1.5576960000    -1.9765020000     0.1896540000
| 20>  H        2.6961560000    -1.8534270000    -1.1585860000
| 21>  H        1.1289370000    -1.0471450000    -1.2481480000
| 22>  H        3.3755770000    -0.3340170000     0.7265620000
| 23>  H        1.8003440000     0.4399670000     0.6642530000
| 24>  H        2.3274720000     1.2918340000    -1.6686670000
| 25>  H        5.0590300000     0.9626500000    -0.3421360000
| 26>  H        5.4277580000     3.0913600000    -1.6603580000
| 27>  H        5.1607450000     0.7106790000    -3.6111060000
| 28>  H        6.1558600000     2.2250730000    -3.8990630000
| 29>  H        3.2878330000     2.0501620000    -3.3521570000
| 30> *
| 31>
| 32>                          ****END OF INPUT****
 Total Charge           Charge          ....    0
 Multiplicity           Mult            ....    1
 Number of Electrons    NEL             ....   54
 Basis Dimension        Dim             ....  153

MULLIKEN ATOMIC CHARGES
-----------------------
   0 C :   -0.044667
   1 C :    0.034140
   2 C :   -0.098559
   3 C :    0.011527
   4 C :   -0.064134
   5 C :    0.048050
   6 N :   -0.188309
   7 H :    0.025372
   8 H :    0.028159
   9 H :    0.023679
  10 H :    0.009180
  11 H :    0.025300
  12 H :   -0.006031
  13 H :   -0.005976
  14 H :    0.034795
  15 H :    0.031356
  16 H :    0.034451
  17 H :    0.101668
Sum of atomic charges:   -0.0000000

LOEWDIN ATOMIC CHARGES
----------------------
   0 C :   -0.065328
   1 C :   -0.043973
   2 C :   -0.045273
   3 C :   -0.050930
   4 C :   -0.010950
   5 C :    0.010442
   6 N :   -0.095350
   7 H :    0.028137
   8 H :    0.026687
   9 H :    0.025109
  10 H :    0.028124
  11 H :    0.034407
  12 H :    0.017376
  13 H :    0.027712
  14 H :    0.029747
  15 H :    0.015746
  16 H :    0.019785
  17 H :    0.048534

  Mayer bond orders larger than 0.1
B(  0-C ,  1-C ) :   1.0998 B(  0-C ,  7-H ) :   0.9593 B(  0-C ,  8-H ) :   0.9684
B(  0-C ,  9-H ) :   0.9686 B(  1-C ,  2-C ) :   1.0636 B(  1-C , 10-H ) :   0.9341
B(  1-C , 11-H ) :   0.9195 B(  2-C ,  3-C ) :   1.8824 B(  2-C , 12-H ) :   0.9428
B(  3-C ,  4-C ) :   1.0446 B(  3-C , 13-H ) :   0.9469 B(  4-C ,  5-C ) :   1.0335
B(  4-C ,  6-N ) :   1.0228 B(  4-C , 14-H ) :   0.9164 B(  5-C ,  6-N ) :   1.0008
B(  5-C , 15-H ) :   0.9437 B(  5-C , 16-H ) :   0.9429 B(  6-N , 17-H ) :   0.9468

FINAL SINGLE POINT ENERGY      -289.346120896489

DIPOLE MOMENT
-------------
                                X             Y             Z
Electronic contribution:      2.71030       4.89647      -2.09188
Nuclear contribution   :     -2.75016      -5.51261       2.36493
                        -----------------------------------------
Total Dipole Moment    :     -0.03986      -0.61614       0.27304
                        -----------------------------------------
Magnitude (a.u.)       :      0.67511
Magnitude (Debye)      :      1.71599

                             ****ORCA TERMINATED NORMALLY****
TOTAL RUN TIME: 0 days 0 hours 0 minutes 7 seconds 419 msec
