                         Program Version 3.0.3 - RELEASE   -
|  1> ! RI PBE def2-SVP def2-SVP/J NBO PAL2
|  2> % maxcore 2000
|  3> % output
|  4>     # printlevel mini
|  5>     print[ P_Basis ] 0
|  6>     print[ P_SCFInfo ] 1
|  7>     print[ P_SCFIterInfo ] 1
|  8>     print[ P_OrbEn ] 0
|  9>     print[ P_Cartesian ] 0
| 10> end
| 11> *xyz 0 1
| 12>  C        2.6992020000    -1.3180290000     0.3753760000
| 13>  C        2.7188220000     0.1872010000     0.1272270000
| 14>  C        3.3502210000     0.9778390000     1.2394340000
| 15>  C        2.6647150000     1.8785120000     1.9388690000
| 16>  C        4.7867850000     0.6831700000     1.4882600000
| 17>  C        5.4770910000     1.0347970000     2.7397030000
| 18>  N        5.1718740000    -0.3639490000     2.4500540000
| 19>  H        2.2561390000    -1.8428840000    -0.4738820000
| 20>  H        2.1080120000    -1.5584480000     1.2628410000
| 21>  H        3.7059610000    -1.7129210000     0.5263770000
| 22>  H        1.7018800000     0.5517860000    -0.0392800000
| 23>  H        3.2765640000     0.3854330000    -0.7968790000
| 24>  H        1.6114250000     2.0518770000     1.7457040000
| 25>  H        3.1252100000     2.4783900000     2.7147530000
| 26>  H        5.3899020000     0.6392010000     0.5830840000
| 27>  H        4.9111910000     1.5342760000     3.5181250000
| 28>  H        6.5314670000     1.2876490000     2.7125900000
| 29>  H        4.3470280000    -0.6367110000     2.9766330000
| 30> *
| 31>
| 32>                          ****END OF INPUT****
 Total Charge           Charge          ....    0
 Multiplicity           Mult            ....    1
 Number of Electrons    NEL             ....   54
 Basis Dimension        Dim             ....  153

MULLIKEN ATOMIC CHARGES
-----------------------
   0 C :   -0.040345
   1 C :    0.059735
   2 C :   -0.098551
   3 C :   -0.044831
   4 C :   -0.064505
   5 C :    0.057652
   6 N :   -0.192612
   7 H :    0.024969
   8 H :    0.019981
   9 H :    0.042665
  10 H :   -0.002388
  11 H :    0.019355
  12 H :    0.011530
  13 H :    0.012856
  14 H :    0.024197
  15 H :    0.029461
  16 H :    0.033497
  17 H :    0.107333
Sum of atomic charges:   -0.0000000

LOEWDIN ATOMIC CHARGES
----------------------
   0 C :   -0.063823
   1 C :   -0.033767
   2 C :   -0.038387
   3 C :   -0.068424
   4 C :   -0.002377
   5 C :    0.006302
   6 N :   -0.098666
   7 H :    0.028516
   8 H :    0.024890
   9 H :    0.029673
  10 H :    0.026558
  11 H :    0.033448
  12 H :    0.021446
  13 H :    0.019060
  14 H :    0.025121
  15 H :    0.015984
  16 H :    0.023084
  17 H :    0.051362

  Mayer bond orders larger than 0.1
B(  0-C ,  1-C ) :   1.1025 B(  0-C ,  7-H ) :   0.9596 B(  0-C ,  8-H ) :   0.9651
B(  0-C ,  9-H ) :   0.9632 B(  1-C ,  2-C ) :   1.0648 B(  1-C , 10-H ) :   0.9191
B(  1-C , 11-H ) :   0.9163 B(  2-C ,  3-C ) :   1.9658 B(  2-C ,  4-C ) :   1.0201
B(  3-C , 12-H ) :   0.9272 B(  3-C , 13-H ) :   0.9337 B(  4-C ,  5-C ) :   1.0616
B(  4-C ,  6-N ) :   0.9702 B(  4-C , 14-H ) :   0.9228 B(  5-C ,  6-N ) :   1.0011
B(  5-C , 15-H ) :   0.9360 B(  5-C , 16-H ) :   0.9308 B(  6-N , 17-H ) :   0.9423

FINAL SINGLE POINT ENERGY      -289.344647781814

DIPOLE MOMENT
-------------
                                X             Y             Z
Electronic contribution:      2.59476       1.47636       1.48259
Nuclear contribution   :     -2.98266      -1.21481      -1.48713
                        -----------------------------------------
Total Dipole Moment    :     -0.38789       0.26154      -0.00454
                        -----------------------------------------
Magnitude (a.u.)       :      0.46785
Magnitude (Debye)      :      1.18919

                             ****ORCA TERMINATED NORMALLY****
TOTAL RUN TIME: 0 days 0 hours 0 minutes 7 seconds 997 msec
