                         Program Version 3.0.3 - RELEASE   -
|  1> ! RI PBE def2-SVP def2-SVP/J NBO PAL2
|  2> % maxcore 2000
|  3> % output
|  4>     # printlevel mini
|  5>     print[ P_Basis ] 0
|  6>     print[ P_SCFInfo ] 1
|  7>     print[ P_SCFIterInfo ] 1
|  8>     print[ P_OrbEn ] 0
|  9>     print[ P_Cartesian ] 0
| 10> end
| 11> *xyz 0 1
| 12>  C        3.0117430000    -1.6313650000     0.4519810000
| 13>  C        2.4632840000    -0.2576830000     0.7999810000
| 14>  C        3.2668960000     0.9168740000     0.2420020000
| 15>  C        2.5501520000     2.2339480000     0.5183610000
| 16>  C        4.6683200000     0.9562600000     0.7977470000
| 17>  C        5.8009790000     0.3330520000     0.0890850000
| 18>  N        5.6871650000     1.7881970000     0.1650970000
| 19>  H        2.3651750000    -2.4206970000     0.8422400000
| 20>  H        4.0099070000    -1.7847330000     0.8668100000
| 21>  H        3.0794860000    -1.7662570000    -0.6315970000
| 22>  H        2.4007860000    -0.1499430000     1.8899710000
| 23>  H        1.4345840000    -0.1733910000     0.4328300000
| 24>  H        3.3499830000     0.7868710000    -0.8475610000
| 25>  H        2.4378190000     2.3930980000     1.5951600000
| 26>  H        1.5510610000     2.2386390000     0.0754130000
| 27>  H        3.1032880000     3.0860950000     0.1166250000
| 28>  H        4.7137860000     0.9913330000     1.8859540000
| 29>  H        5.5916440000    -0.1533990000    -0.8591600000
| 30>  H        6.6306970000    -0.0924810000     0.6437130000
| 31>  H        5.3327320000     2.1516830000    -0.7146630000
| 32> *
| 33>
| 34>                          ****END OF INPUT****
 Total Charge           Charge          ....    0
 Multiplicity           Mult            ....    1
 Number of Electrons    NEL             ....   56
 Basis Dimension        Dim             ....  163

MULLIKEN ATOMIC CHARGES
-----------------------
   0 C :   -0.007172
   1 C :   -0.010502
   2 C :   -0.064669
   3 C :    0.055094
   4 C :   -0.115581
   5 C :    0.047830
   6 N :   -0.179086
   7 H :    0.019857
   8 H :    0.025859
   9 H :    0.015380
  10 H :    0.011732
  11 H :    0.003517
  12 H :   -0.023395
  13 H :    0.015782
  14 H :    0.012784
  15 H :    0.012806
  16 H :    0.020572
  17 H :    0.023023
  18 H :    0.031836
  19 H :    0.104335
Sum of atomic charges:   -0.0000000

LOEWDIN ATOMIC CHARGES
----------------------
   0 C :   -0.068456
   1 C :   -0.038580
   2 C :   -0.052281
   3 C :   -0.054739
   4 C :   -0.006779
   5 C :   -0.001992
   6 N :   -0.101699
   7 H :    0.028027
   8 H :    0.025966
   9 H :    0.023896
  10 H :    0.024226
  11 H :    0.023296
  12 H :    0.019704
  13 H :    0.027135
  14 H :    0.024644
  15 H :    0.024767
  16 H :    0.020994
  17 H :    0.012698
  18 H :    0.019775
  19 H :    0.049396

  Mayer bond orders larger than 0.1
B(  0-C ,  1-C ) :   1.1238 B(  0-C ,  7-H ) :   0.9560 B(  0-C ,  8-H ) :   0.9591
B(  0-C ,  9-H ) :   0.9627 B(  1-C ,  2-C ) :   1.0541 B(  1-C , 10-H ) :   0.9343
B(  1-C , 11-H ) :   0.9278 B(  2-C ,  3-C ) :   1.0749 B(  2-C ,  4-C ) :   1.0292
B(  2-C , 12-H ) :   0.8835 B(  3-C , 13-H ) :   0.9578 B(  3-C , 14-H ) :   0.9549
B(  3-C , 15-H ) :   0.9574 B(  4-C ,  5-C ) :   1.0488 B(  4-C ,  6-N ) :   0.9930
B(  4-C , 16-H ) :   0.9296 B(  5-C ,  6-N ) :   1.0120 B(  5-C , 17-H ) :   0.9364
B(  5-C , 18-H ) :   0.9395 B(  6-N , 19-H ) :   0.9449

FINAL SINGLE POINT ENERGY      -290.565403043485

DIPOLE MOMENT
-------------
                                X             Y             Z
Electronic contribution:      3.99603       2.34587      -0.04218
Nuclear contribution   :     -4.47432      -2.68375      -0.25616
                        -----------------------------------------
Total Dipole Moment    :     -0.47828      -0.33788      -0.29834
                        -----------------------------------------
Magnitude (a.u.)       :      0.65721
Magnitude (Debye)      :      1.67050

                             ****ORCA TERMINATED NORMALLY****
TOTAL RUN TIME: 0 days 0 hours 0 minutes 8 seconds 960 msec
