                         Program Version 3.0.3 - RELEASE   -
|  1> ! RI PBE def2-SVP def2-SVP/J NBO PAL2
|  2> % maxcore 2000
|  3> % output
|  4>     # printlevel mini
|  5>     print[ P_Basis ] 0
|  6>     print[ P_SCFInfo ] 1
|  7>     print[ P_SCFIterInfo ] 1
|  8>     print[ P_OrbEn ] 0
|  9>     print[ P_Cartesian ] 0
| 10> end
| 11> *xyz 0 1
| 12>  C        1.0608620000     0.1816530000    -0.1600570000
| 13>  C        2.5429850000     0.0247730000     0.1718410000
| 14>  C        3.0822290000    -1.2694330000    -0.2147980000
| 15>  C        3.5143450000    -2.3455220000    -0.5409220000
| 16>  C        4.0209810000    -3.6227690000    -0.9533390000
| 17>  C        4.0868470000    -4.7405480000     0.0206670000
| 18>  N        3.1119500000    -4.7722310000    -1.0571720000
| 19>  H        0.7042280000     1.1674230000     0.1458390000
| 20>  H        0.4650300000    -0.5732820000     0.3559620000
| 21>  H        0.8889590000     0.0707120000    -1.2319570000
| 22>  H        2.7007630000     0.1738120000     1.2456070000
| 23>  H        3.1195810000     0.8089370000    -0.3306720000
| 24>  H        4.7656060000    -3.5920320000    -1.7430530000
| 25>  H        3.7489130000    -4.5331710000     1.0301310000
| 26>  H        4.8894330000    -5.4653830000    -0.0628860000
| 27>  H        2.1984960000    -4.5010480000    -0.7081020000
| 28> *
| 29>
| 30>                          ****END OF INPUT****
 Total Charge           Charge          ....    0
 Multiplicity           Mult            ....    1
 Number of Electrons    NEL             ....   52
 Basis Dimension        Dim             ....  143

MULLIKEN ATOMIC CHARGES
-----------------------
   0 C :   -0.034738
   1 C :    0.042340
   2 C :   -0.136478
   3 C :   -0.015696
   4 C :   -0.156760
   5 C :    0.058209
   6 N :   -0.170577
   7 H :    0.021507
   8 H :    0.033758
   9 H :    0.037363
  10 H :    0.036829
  11 H :    0.036729
  12 H :    0.052908
  13 H :    0.038251
  14 H :    0.043427
  15 H :    0.112928
Sum of atomic charges:   -0.0000000

LOEWDIN ATOMIC CHARGES
----------------------
   0 C :   -0.054470
   1 C :   -0.051434
   2 C :   -0.050913
   3 C :   -0.079915
   4 C :   -0.015235
   5 C :    0.015653
   6 N :   -0.088127
   7 H :    0.027802
   8 H :    0.029771
   9 H :    0.031198
  10 H :    0.046630
  11 H :    0.049186
  12 H :    0.038093
  13 H :    0.020276
  14 H :    0.024264
  15 H :    0.057222

  Mayer bond orders larger than 0.1
B(  0-C ,  1-C ) :   1.1042 B(  0-C ,  7-H ) :   0.9593 B(  0-C ,  8-H ) :   0.9699
B(  0-C ,  9-H ) :   0.9711 B(  1-C ,  2-C ) :   1.0860 B(  1-C , 10-H ) :   0.9022
B(  1-C , 11-H ) :   0.8995 B(  2-C ,  3-C ) :   2.5005 B(  3-C ,  4-C ) :   0.9845
B(  4-C ,  5-C ) :   1.0260 B(  4-C ,  6-N ) :   1.0012 B(  4-C , 12-H ) :   0.9189
B(  5-C ,  6-N ) :   1.0011 B(  5-C , 13-H ) :   0.9421 B(  5-C , 14-H ) :   0.9380
B(  6-N , 15-H ) :   0.9481

FINAL SINGLE POINT ENERGY      -288.109204832539

DIPOLE MOMENT
-------------
                                X             Y             Z
Electronic contribution:      3.29898      -3.99651      -1.48279
Nuclear contribution   :     -3.45385       4.51013       1.99490
                        -----------------------------------------
Total Dipole Moment    :     -0.15487       0.51362       0.51211
                        -----------------------------------------
Magnitude (a.u.)       :      0.74165
Magnitude (Debye)      :      1.88512

                             ****ORCA TERMINATED NORMALLY****
TOTAL RUN TIME: 0 days 0 hours 0 minutes 6 seconds 970 msec
