                         Program Version 3.0.3 - RELEASE   -
|  1> ! RI PBE def2-SVP def2-SVP/J NBO PAL2
|  2> % maxcore 2000
|  3> % output
|  4>     # printlevel mini
|  5>     print[ P_Basis ] 0
|  6>     print[ P_SCFInfo ] 1
|  7>     print[ P_SCFIterInfo ] 1
|  8>     print[ P_OrbEn ] 0
|  9>     print[ P_Cartesian ] 0
| 10> end
| 11> *xyz 0 1
| 12>  C        3.0525870000     0.8065740000    -0.4314810000
| 13>  C        2.2227800000    -0.4186880000    -0.0803410000
| 14>  C        2.3753440000    -0.8849500000     1.3628150000
| 15>  C        3.7593140000    -1.4099880000     1.7169290000
| 16>  C        3.8547450000    -1.9231240000     3.1450320000
| 17>  C        5.2227860000    -2.4869180000     3.5193090000
| 18>  N        6.3394210000    -1.5563670000     3.5181470000
| 19>  H        2.8662890000     1.1294570000    -1.4584280000
| 20>  H        4.1240410000     0.6136590000    -0.3404260000
| 21>  H        2.8105680000     1.6453750000     0.2281430000
| 22>  H        2.4838030000    -1.2434930000    -0.7540580000
| 23>  H        1.1666280000    -0.1989740000    -0.2685600000
| 24>  H        1.6404620000    -1.6738420000     1.5611720000
| 25>  H        2.1195700000    -0.0581970000     2.0379970000
| 26>  H        4.5021990000    -0.6196920000     1.5625880000
| 27>  H        4.0245230000    -2.2203560000     1.0246240000
| 28>  H        3.1006300000    -2.7057140000     3.2967870000
| 29>  H        3.5982980000    -1.1146220000     3.8424360000
| 30>  H        5.4740590000    -3.3072800000     2.8373980000
| 31>  H        5.1639060000    -2.9333380000     4.5171280000
| 32>  H        6.4871140000    -1.1698170000     2.5945720000
| 33>  H        6.1537230000    -0.7766960000     4.1381260000
| 34> *
| 35>
| 36>                          ****END OF INPUT****
 Total Charge           Charge          ....    0
 Multiplicity           Mult            ....    1
 Number of Electrons    NEL             ....   58
 Basis Dimension        Dim             ....  173

MULLIKEN ATOMIC CHARGES
-----------------------
   0 C :   -0.033686
   1 C :   -0.021274
   2 C :   -0.011945
   3 C :   -0.035943
   4 C :   -0.027831
   5 C :    0.074262
   6 N :   -0.205721
   7 H :    0.018440
   8 H :    0.025937
   9 H :    0.015486
  10 H :    0.010095
  11 H :    0.009234
  12 H :    0.006809
  13 H :    0.001942
  14 H :   -0.011924
  15 H :    0.001309
  16 H :    0.001490
  17 H :   -0.001545
  18 H :    0.007481
  19 H :    0.006637
  20 H :    0.085537
  21 H :    0.085209
Sum of atomic charges:    0.0000000

LOEWDIN ATOMIC CHARGES
----------------------
   0 C :   -0.070004
   1 C :   -0.047874
   2 C :   -0.042828
   3 C :   -0.049009
   4 C :   -0.064152
   5 C :   -0.000225
   6 N :   -0.100321
   7 H :    0.027028
   8 H :    0.022378
   9 H :    0.024289
  10 H :    0.022743
  11 H :    0.024667
  12 H :    0.023472
  13 H :    0.020650
  14 H :    0.010624
  15 H :    0.021651
  16 H :    0.023380
  17 H :    0.017382
  18 H :    0.020403
  19 H :    0.020979
  20 H :    0.045542
  21 H :    0.049226

  Mayer bond orders larger than 0.1
B(  0-C ,  1-C ) :   1.1168 B(  0-C ,  7-H ) :   0.9597 B(  0-C ,  8-H ) :   0.9646
B(  0-C ,  9-H ) :   0.9649 B(  1-C ,  2-C ) :   1.0994 B(  1-C , 10-H ) :   0.9353
B(  1-C , 11-H ) :   0.9337 B(  2-C ,  3-C ) :   1.0900 B(  2-C , 12-H ) :   0.9306
B(  2-C , 13-H ) :   0.9311 B(  3-C ,  4-C ) :   1.0856 B(  3-C , 14-H ) :   0.9182
B(  3-C , 15-H ) :   0.9348 B(  4-C ,  5-C ) :   1.0608 B(  4-C , 16-H ) :   0.9159
B(  4-C , 17-H ) :   0.9280 B(  5-C ,  6-N ) :   1.1319 B(  5-C , 18-H ) :   0.9394
B(  5-C , 19-H ) :   0.9370 B(  6-N , 20-H ) :   0.9803 B(  6-N , 21-H ) :   0.9757

FINAL SINGLE POINT ENERGY      -291.794538150418

DIPOLE MOMENT
-------------
                                X             Y             Z
Electronic contribution:      1.73513      -1.62509       2.30187
Nuclear contribution   :     -2.09516       1.90340      -2.45889
                        -----------------------------------------
Total Dipole Moment    :     -0.36003       0.27831      -0.15702
                        -----------------------------------------
Magnitude (a.u.)       :      0.48139
Magnitude (Debye)      :      1.22359

                             ****ORCA TERMINATED NORMALLY****
TOTAL RUN TIME: 0 days 0 hours 0 minutes 8 seconds 752 msec
