                         Program Version 3.0.3 - RELEASE   -
|  1> ! RI PBE def2-SVP def2-SVP/J NBO PAL2
|  2> % maxcore 2000
|  3> % output
|  4>     # printlevel mini
|  5>     print[ P_Basis ] 0
|  6>     print[ P_SCFInfo ] 1
|  7>     print[ P_SCFIterInfo ] 1
|  8>     print[ P_OrbEn ] 0
|  9>     print[ P_Cartesian ] 0
| 10> end
| 11> *xyz 0 1
| 12>  C        1.0326550000     0.1912520000     0.2291140000
| 13>  C        2.3372440000    -0.0191700000     0.0737630000
| 14>  C        3.1122660000    -1.0559330000     0.8544950000
| 15>  C        3.6883250000    -2.0888900000     0.0078750000
| 16>  C        4.1574950000    -2.9349810000    -0.7003120000
| 17>  C        3.0835480000     0.7674720000    -0.8590920000
| 18>  N        3.7044340000     1.4019210000    -1.5927140000
| 19>  H        0.4582820000    -0.3986780000     0.9335380000
| 20>  H        0.5114620000     0.9502950000    -0.3401100000
| 21>  H        2.4428140000    -1.5087120000     1.5907280000
| 22>  H        3.9147620000    -0.5602660000     1.4127430000
| 23>  H        4.5782150000    -3.6822100000    -1.3310380000
| 24> *
| 25>
| 26>                          ****END OF INPUT****
 Total Charge           Charge          ....    0
 Multiplicity           Mult            ....    1
 Number of Electrons    NEL             ....   48
 Basis Dimension        Dim             ....  123

MULLIKEN ATOMIC CHARGES
-----------------------
   0 C :    0.045267
   1 C :   -0.257293
   2 C :    0.213295
   3 C :    0.301072
   4 C :   -0.453575
   5 C :   -0.104360
   6 N :    0.071957
   7 H :    0.035311
   8 H :    0.045356
   9 H :    0.032615
  10 H :    0.062828
  11 H :    0.007526
Sum of atomic charges:   -0.0000000

LOEWDIN ATOMIC CHARGES
----------------------
   0 C :    0.005542
   1 C :   -0.056476
   2 C :   -0.022695
   3 C :   -0.027494
   4 C :   -0.058918
   5 C :   -0.031257
   6 N :   -0.043890
   7 H :    0.033948
   8 H :    0.041084
   9 H :    0.056355
  10 H :    0.064999
  11 H :    0.038800

  Mayer bond orders larger than 0.1
B(  0-C ,  1-C ) :   1.9606 B(  0-C ,  6-N ) :   0.1115 B(  0-C ,  7-H ) :   0.9272
B(  0-C ,  8-H ) :   0.9363 B(  1-C ,  2-C ) :   1.0259 B(  1-C ,  5-C ) :   1.1023
B(  2-C ,  3-C ) :   1.0621 B(  2-C ,  9-H ) :   0.8711 B(  2-C , 10-H ) :   0.8873
B(  3-C ,  4-C ) :   2.3722 B(  3-C , 11-H ) :  -0.1068 B(  4-C , 11-H ) :   1.0980
B(  5-C ,  6-N ) :   2.9990

FINAL SINGLE POINT ENERGY      -285.703702220020

DIPOLE MOMENT
-------------
                                X             Y             Z
Electronic contribution:      2.09351       1.74662      -2.41421
Nuclear contribution   :     -2.88277      -2.43006       3.39322
                        -----------------------------------------
Total Dipole Moment    :     -0.78926      -0.68345       0.97901
                        -----------------------------------------
Magnitude (a.u.)       :      1.43125
Magnitude (Debye)      :      3.63796

                             ****ORCA TERMINATED NORMALLY****
TOTAL RUN TIME: 0 days 0 hours 0 minutes 5 seconds 830 msec
