                         Program Version 3.0.3 - RELEASE   -
|  1> ! RI PBE def2-SVP def2-SVP/J NBO PAL2
|  2> % maxcore 2000
|  3> % output
|  4>     # printlevel mini
|  5>     print[ P_Basis ] 0
|  6>     print[ P_SCFInfo ] 1
|  7>     print[ P_SCFIterInfo ] 1
|  8>     print[ P_OrbEn ] 0
|  9>     print[ P_Cartesian ] 0
| 10> end
| 11> *xyz 0 1
| 12>  C        1.0728880000    -0.1579100000     0.5283890000
| 13>  C        2.3777940000    -0.0240250000     0.2964780000
| 14>  C        2.9310420000     0.4208400000    -0.9653070000
| 15>  C        4.2354060000     0.5609550000    -1.1996040000
| 16>  C        4.7986930000     1.0464670000    -2.5012670000
| 17>  C        5.7586870000     0.1118700000    -3.0776940000
| 18>  N        6.5197270000    -0.6274790000    -3.5196140000
| 19>  H        0.6989210000    -0.4963400000     1.4866480000
| 20>  H        0.3373230000     0.0662790000    -0.2374440000
| 21>  H        3.0898100000    -0.2581060000     1.0845410000
| 22>  H        2.2189340000     0.6497960000    -1.7567170000
| 23>  H        4.9553990000     0.3253310000    -0.4204210000
| 24>  H        5.3169550000     2.0033440000    -2.3636160000
| 25>  H        3.9997220000     1.2173470000    -3.2276710000
| 26> *
| 27>
| 28>                          ****END OF INPUT****
 Total Charge           Charge          ....    0
 Multiplicity           Mult            ....    1
 Number of Electrons    NEL             ....   50
 Basis Dimension        Dim             ....  133

MULLIKEN ATOMIC CHARGES
-----------------------
   0 C :   -0.028177
   1 C :   -0.007675
   2 C :    0.023230
   3 C :   -0.078580
   4 C :    0.132262
   5 C :   -0.275133
   6 N :    0.043116
   7 H :    0.031613
   8 H :    0.025122
   9 H :    0.001700
  10 H :   -0.007477
  11 H :    0.017498
  12 H :    0.068564
  13 H :    0.053939
Sum of atomic charges:    0.0000000

LOEWDIN ATOMIC CHARGES
----------------------
   0 C :   -0.040891
   1 C :   -0.030209
   2 C :   -0.027835
   3 C :   -0.020465
   4 C :   -0.054395
   5 C :   -0.043515
   6 N :   -0.063084
   7 H :    0.029017
   8 H :    0.025642
   9 H :    0.032836
  10 H :    0.029879
  11 H :    0.032712
  12 H :    0.068256
  13 H :    0.062051

  Mayer bond orders larger than 0.1
B(  0-C ,  1-C ) :   1.8886 B(  0-C ,  3-C ) :   0.1385 B(  0-C ,  7-H ) :   0.9416
B(  0-C ,  8-H ) :   0.9481 B(  1-C ,  2-C ) :   1.1440 B(  1-C ,  9-H ) :   0.9619
B(  2-C ,  3-C ) :   1.7958 B(  2-C , 10-H ) :   0.9562 B(  3-C ,  4-C ) :   1.0401
B(  3-C , 11-H ) :   0.9590 B(  4-C ,  5-C ) :   1.0825 B(  4-C , 12-H ) :   0.8836
B(  4-C , 13-H ) :   0.8929 B(  5-C ,  6-N ) :   3.0594

FINAL SINGLE POINT ENERGY      -286.957295745494

DIPOLE MOMENT
-------------
                                X             Y             Z
Electronic contribution:      5.48712      -1.12069      -3.96838
Nuclear contribution   :     -6.48315       1.99815       4.61316
                        -----------------------------------------
Total Dipole Moment    :     -0.99603       0.87746       0.64478
                        -----------------------------------------
Magnitude (a.u.)       :      1.47572
Magnitude (Debye)      :      3.75098

                             ****ORCA TERMINATED NORMALLY****
TOTAL RUN TIME: 0 days 0 hours 0 minutes 6 seconds 104 msec
