                         Program Version 3.0.3 - RELEASE   -
|  1> ! RI PBE def2-SVP def2-SVP/J NBO PAL2
|  2> % maxcore 2000
|  3> % output
|  4>     # printlevel mini
|  5>     print[ P_Basis ] 0
|  6>     print[ P_SCFInfo ] 1
|  7>     print[ P_SCFIterInfo ] 1
|  8>     print[ P_OrbEn ] 0
|  9>     print[ P_Cartesian ] 0
| 10> end
| 11> *xyz 0 1
| 12>  C        0.9238450000    -0.2378660000     0.8860410000
| 13>  C        2.0559970000    -0.4521550000     0.2240950000
| 14>  C        2.6410950000     0.4672140000    -0.7581820000
| 15>  C        1.9182910000     1.1792320000    -1.6190790000
| 16>  C        4.1511870000     0.5763830000    -0.7528440000
| 17>  C        4.8089410000    -0.7016020000    -0.9924700000
| 18>  N        5.3191140000    -1.7152650000    -1.1757330000
| 19>  H        0.5397390000    -0.9674700000     1.5886230000
| 20>  H        0.3525000000     0.6750910000     0.7560910000
| 21>  H        2.6225540000    -1.3598910000     0.4231310000
| 22>  H        0.8394020000     1.0876080000    -1.6520810000
| 23>  H        2.3819260000     1.8605570000    -2.3232250000
| 24>  H        4.4991480000     0.9497040000     0.2170320000
| 25>  H        4.4842500000     1.2852610000    -1.5139980000
| 26> *
| 27>
| 28>                          ****END OF INPUT****
 Total Charge           Charge          ....    0
 Multiplicity           Mult            ....    1
 Number of Electrons    NEL             ....   50
 Basis Dimension        Dim             ....  133

MULLIKEN ATOMIC CHARGES
-----------------------
   0 C :   -0.029914
   1 C :   -0.012344
   2 C :   -0.106608
   3 C :   -0.033646
   4 C :    0.159922
   5 C :   -0.286249
   6 N :    0.044304
   7 H :    0.037445
   8 H :    0.029778
   9 H :    0.027573
  10 H :    0.033289
  11 H :    0.022108
  12 H :    0.066134
  13 H :    0.048208
Sum of atomic charges:   -0.0000000

LOEWDIN ATOMIC CHARGES
----------------------
   0 C :   -0.031927
   1 C :   -0.029341
   2 C :   -0.027465
   3 C :   -0.039855
   4 C :   -0.043649
   5 C :   -0.042701
   6 N :   -0.063592
   7 H :    0.030562
   8 H :    0.025957
   9 H :    0.037546
  10 H :    0.030076
  11 H :    0.025839
  12 H :    0.066536
  13 H :    0.062017

  Mayer bond orders larger than 0.1
B(  0-C ,  1-C ) :   1.9649 B(  0-C ,  7-H ) :   0.9429 B(  0-C ,  8-H ) :   0.9488
B(  1-C ,  2-C ) :   1.0473 B(  1-C ,  9-H ) :   0.9424 B(  2-C ,  3-C ) :   1.9525
B(  2-C ,  4-C ) :   1.0345 B(  3-C , 10-H ) :   0.9388 B(  3-C , 11-H ) :   0.9341
B(  4-C ,  5-C ) :   1.0892 B(  4-C , 12-H ) :   0.8845 B(  4-C , 13-H ) :   0.8792
B(  5-C ,  6-N ) :   3.0444

FINAL SINGLE POINT ENERGY      -286.949988074632

DIPOLE MOMENT
-------------
                                X             Y             Z
Electronic contribution:      4.88443      -2.86888      -1.24562
Nuclear contribution   :     -5.58610       4.04298       1.53803
                        -----------------------------------------
Total Dipole Moment    :     -0.70168       1.17410       0.29241
                        -----------------------------------------
Magnitude (a.u.)       :      1.39870
Magnitude (Debye)      :      3.55520

                             ****ORCA TERMINATED NORMALLY****
TOTAL RUN TIME: 0 days 0 hours 0 minutes 6 seconds 104 msec
