                         Program Version 3.0.3 - RELEASE   -
|  1> ! RI PBE def2-SVP def2-SVP/J NBO PAL2
|  2> % maxcore 2000
|  3> % output
|  4>     # printlevel mini
|  5>     print[ P_Basis ] 0
|  6>     print[ P_SCFInfo ] 1
|  7>     print[ P_SCFIterInfo ] 1
|  8>     print[ P_OrbEn ] 0
|  9>     print[ P_Cartesian ] 0
| 10> end
| 11> *xyz 0 1
| 12>  C        1.4790070000    -0.4368750000     1.0313580000
| 13>  C        2.3341120000     0.0117920000     0.1278430000
| 14>  C        3.0837700000    -0.8816170000    -0.8308300000
| 15>  C        2.7132530000    -0.5869390000    -2.2644030000
| 16>  C        2.1283290000    -1.4621080000    -3.0648920000
| 17>  C        4.5273440000    -0.7124780000    -0.6443800000
| 18>  N        5.6581080000    -0.5590880000    -0.5036610000
| 19>  H        0.9487500000     0.2421970000     1.6880500000
| 20>  H        1.2767560000    -1.4965760000     1.1496700000
| 21>  H        2.5276640000     1.0763860000     0.0288140000
| 22>  H        2.8434790000    -1.9259250000    -0.6075480000
| 23>  H        2.9466000000     0.4147540000    -2.6148190000
| 24>  H        1.8927100000    -2.4689950000    -2.7354490000
| 25>  H        1.8635190000    -1.2021270000    -4.0826540000
| 26> *
| 27>
| 28>                          ****END OF INPUT****
 Total Charge           Charge          ....    0
 Multiplicity           Mult            ....    1
 Number of Electrons    NEL             ....   50
 Basis Dimension        Dim             ....  133

MULLIKEN ATOMIC CHARGES
-----------------------
   0 C :   -0.021544
   1 C :   -0.015806
   2 C :   -0.013509
   3 C :   -0.021511
   4 C :   -0.013446
   5 C :   -0.194906
   6 N :    0.057709
   7 H :    0.041024
   8 H :    0.027703
   9 H :    0.025836
  10 H :    0.037945
  11 H :    0.022804
  12 H :    0.027928
  13 H :    0.039772
Sum of atomic charges:   -0.0000000

LOEWDIN ATOMIC CHARGES
----------------------
   0 C :   -0.041099
   1 C :   -0.008995
   2 C :   -0.056746
   3 C :   -0.009498
   4 C :   -0.040070
   5 C :   -0.032474
   6 N :   -0.060726
   7 H :    0.033610
   8 H :    0.027227
   9 H :    0.034619
  10 H :    0.059115
  11 H :    0.034151
  12 H :    0.027422
  13 H :    0.033465

  Mayer bond orders larger than 0.1
B(  0-C ,  1-C ) :   2.0210 B(  0-C ,  7-H ) :   0.9438 B(  0-C ,  8-H ) :   0.9487
B(  1-C ,  2-C ) :   1.0206 B(  1-C ,  9-H ) :   0.9507 B(  2-C ,  3-C ) :   1.0167
B(  2-C ,  5-C ) :   1.0064 B(  2-C , 10-H ) :   0.8833 B(  3-C ,  4-C ) :   2.0280
B(  3-C , 11-H ) :   0.9517 B(  4-C , 12-H ) :   0.9453 B(  4-C , 13-H ) :   0.9415
B(  5-C ,  6-N ) :   3.0810

FINAL SINGLE POINT ENERGY      -286.939988534094

DIPOLE MOMENT
-------------
                                X             Y             Z
Electronic contribution:      5.51522       0.51940       0.74426
Nuclear contribution   :     -6.95261      -0.64931      -0.93942
                        -----------------------------------------
Total Dipole Moment    :     -1.43739      -0.12992      -0.19516
                        -----------------------------------------
Magnitude (a.u.)       :      1.45638
Magnitude (Debye)      :      3.70182

                             ****ORCA TERMINATED NORMALLY****
TOTAL RUN TIME: 0 days 0 hours 0 minutes 6 seconds 97 msec
