                         Program Version 3.0.3 - RELEASE   -
|  1> ! RI PBE def2-SVP def2-SVP/J NBO PAL2
|  2> % maxcore 2000
|  3> % output
|  4>     # printlevel mini
|  5>     print[ P_Basis ] 0
|  6>     print[ P_SCFInfo ] 1
|  7>     print[ P_SCFIterInfo ] 1
|  8>     print[ P_OrbEn ] 0
|  9>     print[ P_Cartesian ] 0
| 10> end
| 11> *xyz 0 1
| 12>  C        1.3435570000    -1.0692400000     0.0342090000
| 13>  C        2.1834800000    -0.0508640000     0.0927660000
| 14>  C        2.9523960000     0.4548540000    -1.1098550000
| 15>  C        2.6280350000     1.8486780000    -1.4089840000
| 16>  C        2.3389280000     2.9882250000    -1.6387420000
| 17>  C        4.3962790000     0.2931500000    -0.8969620000
| 18>  N        5.5208310000     0.1438370000    -0.7161140000
| 19>  H        0.8042330000    -1.4000560000     0.9134190000
| 20>  H        1.1618580000    -1.6095230000    -0.8892510000
| 21>  H        2.3610620000     0.4870060000     1.0182640000
| 22>  H        2.6872520000    -0.1622030000    -1.9769370000
| 23>  H        2.0868790000     4.0016360000    -1.8465020000
| 24> *
| 25>
| 26>                          ****END OF INPUT****
 Total Charge           Charge          ....    0
 Multiplicity           Mult            ....    1
 Number of Electrons    NEL             ....   48
 Basis Dimension        Dim             ....  123

MULLIKEN ATOMIC CHARGES
-----------------------
   0 C :   -0.014845
   1 C :   -0.013464
   2 C :    0.029895
   3 C :    0.403161
   4 C :   -0.471465
   5 C :   -0.194897
   6 N :    0.068028
   7 H :    0.045204
   8 H :    0.034231
   9 H :    0.031772
  10 H :    0.070819
  11 H :    0.011561
Sum of atomic charges:   -0.0000000

LOEWDIN ATOMIC CHARGES
----------------------
   0 C :   -0.034360
   1 C :   -0.001562
   2 C :   -0.057626
   3 C :   -0.013029
   4 C :   -0.043691
   5 C :   -0.025443
   6 N :   -0.048128
   7 H :    0.035981
   8 H :    0.029265
   9 H :    0.038879
  10 H :    0.077681
  11 H :    0.042034

  Mayer bond orders larger than 0.1
B(  0-C ,  1-C ) :   2.0106 B(  0-C ,  7-H ) :   0.9438 B(  0-C ,  8-H ) :   0.9468
B(  1-C ,  2-C ) :   1.0263 B(  1-C ,  9-H ) :   0.9534 B(  2-C ,  3-C ) :   0.9862
B(  2-C ,  5-C ) :   1.0033 B(  2-C , 10-H ) :   0.8565 B(  3-C ,  4-C ) :   2.3543
B(  3-C , 11-H ) :  -0.1162 B(  4-C , 11-H ) :   1.1061 B(  5-C ,  6-N ) :   3.0855

FINAL SINGLE POINT ENERGY      -285.690520087373

DIPOLE MOMENT
-------------
                                X             Y             Z
Electronic contribution:      4.30184       1.74756      -1.21215
Nuclear contribution   :     -5.69807      -1.70020       1.09917
                        -----------------------------------------
Total Dipole Moment    :     -1.39623       0.04736      -0.11298
                        -----------------------------------------
Magnitude (a.u.)       :      1.40160
Magnitude (Debye)      :      3.56257

                             ****ORCA TERMINATED NORMALLY****
TOTAL RUN TIME: 0 days 0 hours 0 minutes 5 seconds 616 msec
