                         Program Version 3.0.3 - RELEASE   -
|  1> ! RI PBE def2-SVP def2-SVP/J NBO PAL2
|  2> % maxcore 2000
|  3> % output
|  4>     # printlevel mini
|  5>     print[ P_Basis ] 0
|  6>     print[ P_SCFInfo ] 1
|  7>     print[ P_SCFIterInfo ] 1
|  8>     print[ P_OrbEn ] 0
|  9>     print[ P_Cartesian ] 0
| 10> end
| 11> *xyz 0 1
| 12>  C        1.0167390000     0.1526560000     0.0945970000
| 13>  C        2.3392930000     0.0093220000     0.0240710000
| 14>  C        3.0388630000    -0.3487400000    -1.1561880000
| 15>  C        3.6563530000    -0.6514190000    -2.1437400000
| 16>  C        4.4018830000    -1.0173710000    -3.3378640000
| 17>  C        3.5489440000    -1.2264640000    -4.5055440000
| 18>  N        2.8943020000    -1.3948880000    -5.4338700000
| 19>  H        0.5399580000     0.4282480000     1.0269110000
| 20>  H        0.3833810000    -0.0007090000    -0.7708360000
| 21>  H        2.9489720000     0.1698930000     0.9095510000
| 22>  H        4.9732020000    -1.9364450000    -3.1646340000
| 23>  H        5.1328090000    -0.2390920000    -3.5851530000
| 24> *
| 25>
| 26>                          ****END OF INPUT****
 Total Charge           Charge          ....    0
 Multiplicity           Mult            ....    1
 Number of Electrons    NEL             ....   48
 Basis Dimension        Dim             ....  123

MULLIKEN ATOMIC CHARGES
-----------------------
   0 C :   -0.007001
   1 C :   -0.097953
   2 C :   -0.036104
   3 C :   -0.098868
   4 C :    0.179134
   5 C :   -0.271788
   6 N :    0.051429
   7 H :    0.038226
   8 H :    0.045112
   9 H :    0.036838
  10 H :    0.079669
  11 H :    0.081306
Sum of atomic charges:   -0.0000000

LOEWDIN ATOMIC CHARGES
----------------------
   0 C :   -0.014932
   1 C :   -0.047840
   2 C :   -0.023772
   3 C :   -0.046468
   4 C :   -0.053408
   5 C :   -0.035744
   6 N :   -0.050620
   7 H :    0.031115
   8 H :    0.034381
   9 H :    0.046411
  10 H :    0.080435
  11 H :    0.080442

  Mayer bond orders larger than 0.1
B(  0-C ,  1-C ) :   1.9168 B(  0-C ,  3-C ) :   0.1292 B(  0-C ,  7-H ) :   0.9419
B(  0-C ,  8-H ) :   0.9536 B(  1-C ,  2-C ) :   1.0607 B(  1-C ,  9-H ) :   0.9464
B(  2-C ,  3-C ) :   2.5382 B(  3-C ,  4-C ) :   1.0426 B(  4-C ,  5-C ) :   1.0671
B(  4-C , 10-H ) :   0.8689 B(  4-C , 11-H ) :   0.8715 B(  5-C ,  6-N ) :   3.0676

FINAL SINGLE POINT ENERGY      -285.710791122946

DIPOLE MOMENT
-------------
                                X             Y             Z
Electronic contribution:      1.54353      -1.28584      -4.60530
Nuclear contribution   :     -0.83099       1.50895       5.76987
                        -----------------------------------------
Total Dipole Moment    :      0.71255       0.22311       1.16457
                        -----------------------------------------
Magnitude (a.u.)       :      1.38338
Magnitude (Debye)      :      3.51626

                             ****ORCA TERMINATED NORMALLY****
TOTAL RUN TIME: 0 days 0 hours 0 minutes 5 seconds 109 msec
