                         Program Version 3.0.3 - RELEASE   -
|  1> ! RI PBE def2-SVP def2-SVP/J NBO PAL2
|  2> % maxcore 2000
|  3> % output
|  4>     # printlevel mini
|  5>     print[ P_Basis ] 0
|  6>     print[ P_SCFInfo ] 1
|  7>     print[ P_SCFIterInfo ] 1
|  8>     print[ P_OrbEn ] 0
|  9>     print[ P_Cartesian ] 0
| 10> end
| 11> *xyz 0 1
| 12>  C        1.3140880000    -0.3936360000     0.8699570000
| 13>  C        2.1508710000     0.1792000000     0.0176440000
| 14>  C        2.9574300000    -0.5584180000    -1.0104760000
| 15>  C        4.4232120000    -0.4092950000    -0.7736870000
| 16>  C        5.2707110000     0.1489320000    -1.6388120000
| 17>  C        6.6612590000     0.2815950000    -1.3757670000
| 18>  N        7.7915360000     0.3994860000    -1.1838650000
| 19>  H        0.7567210000     0.1896390000     1.5933870000
| 20>  H        1.1518400000    -1.4672030000     0.8722770000
| 21>  H        2.2923220000     1.2573190000     0.0459160000
| 22>  H        2.7117680000    -0.1938760000    -2.0137080000
| 23>  H        2.6946420000    -1.6216630000    -0.9739710000
| 24>  H        4.8029880000    -0.7718550000     0.1779850000
| 25>  H        4.9270910000     0.5281730000    -2.5966800000
| 26> *
| 27>
| 28>                          ****END OF INPUT****
 Total Charge           Charge          ....    0
 Multiplicity           Mult            ....    1
 Number of Electrons    NEL             ....   50
 Basis Dimension        Dim             ....  133

MULLIKEN ATOMIC CHARGES
-----------------------
   0 C :   -0.027565
   1 C :   -0.098189
   2 C :    0.117794
   3 C :   -0.036051
   4 C :   -0.104920
   5 C :   -0.100732
   6 N :    0.041403
   7 H :    0.034995
   8 H :    0.025610
   9 H :    0.020635
  10 H :    0.023166
  11 H :    0.032433
  12 H :    0.030059
  13 H :    0.041362
Sum of atomic charges:    0.0000000

LOEWDIN ATOMIC CHARGES
----------------------
   0 C :   -0.052849
   1 C :   -0.028170
   2 C :   -0.036942
   3 C :    0.032673
   4 C :   -0.077886
   5 C :   -0.043530
   6 N :   -0.055692
   7 H :    0.030119
   8 H :    0.024820
   9 H :    0.030966
  10 H :    0.040988
  11 H :    0.046473
  12 H :    0.039951
  13 H :    0.049079

  Mayer bond orders larger than 0.1
B(  0-C ,  1-C ) :   2.0080 B(  0-C ,  7-H ) :   0.9444 B(  0-C ,  8-H ) :   0.9493
B(  1-C ,  2-C ) :   1.0456 B(  1-C ,  9-H ) :   0.9562 B(  2-C ,  3-C ) :   1.0459
B(  2-C , 10-H ) :   0.9096 B(  2-C , 11-H ) :   0.9066 B(  3-C ,  4-C ) :   1.8393
B(  3-C ,  6-N ) :   0.1086 B(  3-C , 12-H ) :   0.9569 B(  4-C ,  5-C ) :   1.1121
B(  4-C , 13-H ) :   0.9407 B(  5-C ,  6-N ) :   2.9672

FINAL SINGLE POINT ENERGY      -286.952911301700

DIPOLE MOMENT
-------------
                                X             Y             Z
Electronic contribution:      8.54216       1.30612      -2.04695
Nuclear contribution   :    -10.20187      -1.55854       1.96939
                        -----------------------------------------
Total Dipole Moment    :     -1.65970      -0.25242      -0.07756
                        -----------------------------------------
Magnitude (a.u.)       :      1.68058
Magnitude (Debye)      :      4.27169

                             ****ORCA TERMINATED NORMALLY****
TOTAL RUN TIME: 0 days 0 hours 0 minutes 5 seconds 958 msec
