                         Program Version 3.0.3 - RELEASE   -
|  1> ! RI PBE def2-SVP def2-SVP/J NBO PAL2
|  2> % maxcore 2000
|  3> % output
|  4>     # printlevel mini
|  5>     print[ P_Basis ] 0
|  6>     print[ P_SCFInfo ] 1
|  7>     print[ P_SCFIterInfo ] 1
|  8>     print[ P_OrbEn ] 0
|  9>     print[ P_Cartesian ] 0
| 10> end
| 11> *xyz 0 1
| 12>  C        1.2635360000     0.4800300000    -1.0629010000
| 13>  C        1.9196710000    -0.2247700000    -0.1530010000
| 14>  C        2.8322480000     0.3579360000     0.8729850000
| 15>  C        4.2672200000    -0.0987710000     0.7550620000
| 16>  C        4.7809250000    -0.7539190000    -0.2846890000
| 17>  C        5.1081570000     0.2337320000     1.8646630000
| 18>  N        5.7528900000     0.5207740000     2.7753120000
| 19>  H        0.5957120000     0.0060340000    -1.7726680000
| 20>  H        1.3650470000     1.5590460000    -1.1269310000
| 21>  H        1.7934050000    -1.3051680000    -0.1214430000
| 22>  H        2.4776780000     0.0916650000     1.8761290000
| 23>  H        2.8079570000     1.4521650000     0.8280150000
| 24>  H        4.1616040000    -1.0020490000    -1.1380060000
| 25>  H        5.8230590000    -1.0453970000    -0.3060260000
| 26> *
| 27>
| 28>                          ****END OF INPUT****
 Total Charge           Charge          ....    0
 Multiplicity           Mult            ....    1
 Number of Electrons    NEL             ....   50
 Basis Dimension        Dim             ....  133

MULLIKEN ATOMIC CHARGES
-----------------------
   0 C :   -0.034928
   1 C :   -0.103143
   2 C :    0.167448
   3 C :   -0.256581
   4 C :    0.055512
   5 C :   -0.126880
   6 N :    0.053499
   7 H :    0.033209
   8 H :    0.029298
   9 H :    0.020171
  10 H :    0.045003
  11 H :    0.043777
  12 H :    0.036949
  13 H :    0.036667
Sum of atomic charges:   -0.0000000

LOEWDIN ATOMIC CHARGES
----------------------
   0 C :   -0.052299
   1 C :   -0.028484
   2 C :   -0.023578
   3 C :   -0.066037
   4 C :   -0.000901
   5 C :   -0.035588
   6 N :   -0.053614
   7 H :    0.029085
   8 H :    0.026293
   9 H :    0.030548
  10 H :    0.052966
  11 H :    0.050262
  12 H :    0.032772
  13 H :    0.038575

  Mayer bond orders larger than 0.1
B(  0-C ,  1-C ) :   2.0003 B(  0-C ,  7-H ) :   0.9461 B(  0-C ,  8-H ) :   0.9488
B(  1-C ,  2-C ) :   1.0570 B(  1-C ,  9-H ) :   0.9528 B(  2-C ,  3-C ) :   0.9959
B(  2-C , 10-H ) :   0.8992 B(  2-C , 11-H ) :   0.9083 B(  3-C ,  4-C ) :   1.9523
B(  3-C ,  5-C ) :   1.1109 B(  4-C ,  6-N ) :   0.1079 B(  4-C , 12-H ) :   0.9143
B(  4-C , 13-H ) :   0.9308 B(  5-C ,  6-N ) :   2.9909

FINAL SINGLE POINT ENERGY      -286.950354026061

DIPOLE MOMENT
-------------
                                X             Y             Z
Electronic contribution:      5.36705       0.40136       4.85807
Nuclear contribution   :     -6.26011      -0.71837      -5.94381
                        -----------------------------------------
Total Dipole Moment    :     -0.89306      -0.31701      -1.08574
                        -----------------------------------------
Magnitude (a.u.)       :      1.44114
Magnitude (Debye)      :      3.66309

                             ****ORCA TERMINATED NORMALLY****
TOTAL RUN TIME: 0 days 0 hours 0 minutes 5 seconds 645 msec
