                         Program Version 3.0.3 - RELEASE   -
|  1> ! RI PBE def2-SVP def2-SVP/J NBO PAL2
|  2> % maxcore 2000
|  3> % output
|  4>     # printlevel mini
|  5>     print[ P_Basis ] 0
|  6>     print[ P_SCFInfo ] 1
|  7>     print[ P_SCFIterInfo ] 1
|  8>     print[ P_OrbEn ] 0
|  9>     print[ P_Cartesian ] 0
| 10> end
| 11> *xyz 0 1
| 12>  C        1.6031020000     0.0883590000    -1.2599210000
| 13>  C        2.4238770000     0.1260590000    -0.2232550000
| 14>  C        3.1585430000    -1.0759170000     0.3042990000
| 15>  C        4.5946130000    -0.8779270000     0.3435380000
| 16>  C        5.7854720000    -0.6936880000     0.3734310000
| 17>  C        7.1367260000    -0.4904850000     0.4073790000
| 18>  N        8.2787720000    -0.3183040000     0.4369520000
| 19>  H        1.0821280000     0.9764300000    -1.5969160000
| 20>  H        1.4205010000    -0.8295070000    -1.8097580000
| 21>  H        2.5985270000     1.0583170000     0.3062270000
| 22>  H        2.9329380000    -1.9551460000    -0.3076220000
| 23>  H        2.8186030000    -1.3044010000     1.3228370000
| 24> *
| 25>
| 26>                          ****END OF INPUT****
 Total Charge           Charge          ....    0
 Multiplicity           Mult            ....    1
 Number of Electrons    NEL             ....   48
 Basis Dimension        Dim             ....  123

MULLIKEN ATOMIC CHARGES
-----------------------
   0 C :   -0.026248
   1 C :   -0.088430
   2 C :    0.126476
   3 C :   -0.202171
   4 C :    0.056607
   5 C :   -0.176214
   6 N :    0.098940
   7 H :    0.041012
   8 H :    0.030154
   9 H :    0.029025
  10 H :    0.046345
  11 H :    0.064502
Sum of atomic charges:    0.0000000

LOEWDIN ATOMIC CHARGES
----------------------
   0 C :   -0.045154
   1 C :   -0.020020
   2 C :   -0.041867
   3 C :    0.045840
   4 C :   -0.085768
   5 C :   -0.047908
   6 N :   -0.029694
   7 H :    0.033178
   8 H :    0.027032
   9 H :    0.034720
  10 H :    0.061365
  11 H :    0.068277

  Mayer bond orders larger than 0.1
B(  0-C ,  1-C ) :   2.0208 B(  0-C ,  7-H ) :   0.9457 B(  0-C ,  8-H ) :   0.9493
B(  1-C ,  2-C ) :   1.0361 B(  1-C ,  9-H ) :   0.9572 B(  2-C ,  3-C ) :   1.0703
B(  2-C , 10-H ) :   0.8886 B(  2-C , 11-H ) :   0.8811 B(  3-C ,  4-C ) :   2.3450
B(  3-C ,  6-N ) :   0.1847 B(  4-C ,  5-C ) :   1.0025 B(  4-C ,  6-N ) :   0.1205
B(  5-C ,  6-N ) :   2.8734

FINAL SINGLE POINT ENERGY      -285.714156233106

DIPOLE MOMENT
-------------
                                X             Y             Z
Electronic contribution:      9.66717      -0.45984       2.07112
Nuclear contribution   :    -11.60699       0.21750      -2.12728
                        -----------------------------------------
Total Dipole Moment    :     -1.93981      -0.24234      -0.05616
                        -----------------------------------------
Magnitude (a.u.)       :      1.95570
Magnitude (Debye)      :      4.97099

                             ****ORCA TERMINATED NORMALLY****
TOTAL RUN TIME: 0 days 0 hours 0 minutes 5 seconds 470 msec
