                         Program Version 3.0.3 - RELEASE   -
|  1> ! RI PBE def2-SVP def2-SVP/J NBO PAL2
|  2> % maxcore 2000
|  3> % output
|  4>     # printlevel mini
|  5>     print[ P_Basis ] 0
|  6>     print[ P_SCFInfo ] 1
|  7>     print[ P_SCFIterInfo ] 1
|  8>     print[ P_OrbEn ] 0
|  9>     print[ P_Cartesian ] 0
| 10> end
| 11> *xyz 0 1
| 12>  C        1.3757240000     0.5444340000    -1.1334860000
| 13>  C        2.1729950000     0.1030900000    -0.1702850000
| 14>  C        3.0389940000    -1.1104750000    -0.2609780000
| 15>  C        4.5290670000    -0.7889810000    -0.1525720000
| 16>  C        5.0509190000     0.0666550000    -1.3093240000
| 17>  C        4.9366870000    -0.6061350000    -2.5943700000
| 18>  N        4.8365470000    -1.1555210000    -3.5996160000
| 19>  H        0.7709930000     1.4349740000    -1.0060850000
| 20>  H        1.2946310000     0.0242450000    -2.0831560000
| 21>  H        2.2246660000     0.6572360000     0.7667630000
| 22>  H        2.8435360000    -1.6382830000    -1.1996530000
| 23>  H        2.7814240000    -1.8008250000     0.5500960000
| 24>  H        5.1012870000    -1.7190310000    -0.1067850000
| 25>  H        4.7263200000    -0.2476170000     0.7778310000
| 26>  H        6.1017710000     0.3246010000    -1.1524690000
| 27>  H        4.4905480000     1.0045130000    -1.3703000000
| 28> *
| 29>
| 30>                          ****END OF INPUT****
 Total Charge           Charge          ....    0
 Multiplicity           Mult            ....    1
 Number of Electrons    NEL             ....   52
 Basis Dimension        Dim             ....  143

MULLIKEN ATOMIC CHARGES
-----------------------
   0 C :   -0.026746
   1 C :   -0.106123
   2 C :    0.046709
   3 C :   -0.036139
   4 C :    0.084093
   5 C :   -0.291653
   6 N :    0.041223
   7 H :    0.029111
   8 H :    0.030047
   9 H :    0.002510
  10 H :    0.030667
  11 H :    0.030525
  12 H :    0.033846
  13 H :    0.023277
  14 H :    0.052613
  15 H :    0.056039
Sum of atomic charges:    0.0000000

LOEWDIN ATOMIC CHARGES
----------------------
   0 C :   -0.059225
   1 C :   -0.034825
   2 C :   -0.042875
   3 C :   -0.022943
   4 C :   -0.058199
   5 C :   -0.044757
   6 N :   -0.071530
   7 H :    0.026559
   8 H :    0.027017
   9 H :    0.024502
  10 H :    0.035667
  11 H :    0.040254
  12 H :    0.034173
  13 H :    0.029962
  14 H :    0.058823
  15 H :    0.057394

  Mayer bond orders larger than 0.1
B(  0-C ,  1-C ) :   2.0051 B(  0-C ,  7-H ) :   0.9445 B(  0-C ,  8-H ) :   0.9467
B(  1-C ,  2-C ) :   1.0628 B(  1-C ,  9-H ) :   0.9541 B(  2-C ,  3-C ) :   1.0852
B(  2-C , 10-H ) :   0.9277 B(  2-C , 11-H ) :   0.9116 B(  3-C ,  4-C ) :   1.0854
B(  3-C , 12-H ) :   0.9320 B(  3-C , 13-H ) :   0.9337 B(  4-C ,  5-C ) :   1.1195
B(  4-C , 14-H ) :   0.8865 B(  4-C , 15-H ) :   0.8862 B(  5-C ,  6-N ) :   3.0397

FINAL SINGLE POINT ENERGY      -288.171326138708

DIPOLE MOMENT
-------------
                                X             Y             Z
Electronic contribution:      2.81762      -1.13924      -4.98927
Nuclear contribution   :     -2.75499       1.67812       6.35922
                        -----------------------------------------
Total Dipole Moment    :      0.06262       0.53888       1.36996
                        -----------------------------------------
Magnitude (a.u.)       :      1.47346
Magnitude (Debye)      :      3.74525

                             ****ORCA TERMINATED NORMALLY****
TOTAL RUN TIME: 0 days 0 hours 0 minutes 7 seconds 108 msec
