                         Program Version 3.0.3 - RELEASE   -
|  1> ! RI PBE def2-SVP def2-SVP/J NBO PAL2
|  2> % maxcore 2000
|  3> % output
|  4>     # printlevel mini
|  5>     print[ P_Basis ] 0
|  6>     print[ P_SCFInfo ] 1
|  7>     print[ P_SCFIterInfo ] 1
|  8>     print[ P_OrbEn ] 0
|  9>     print[ P_Cartesian ] 0
| 10> end
| 11> *xyz 0 1
| 12>  C        0.8601950000     0.0044750000    -0.0617930000
| 13>  C        2.0607760000    -0.0294850000     0.0013320000
| 14>  C        3.4761990000    -0.0465330000     0.0391000000
| 15>  C        4.1901320000    -0.6468390000     0.9911810000
| 16>  C        5.6882080000    -0.6748160000     0.9910070000
| 17>  C        6.2546090000    -0.1499180000     2.2279730000
| 18>  N        6.6930160000     0.2590290000     3.2083950000
| 19>  H       -0.2029480000     0.0312450000    -0.1081300000
| 20>  H        3.9861470000     0.4695140000    -0.7719240000
| 21>  H        3.6887820000    -1.1536540000     1.8092120000
| 22>  H        6.0867460000    -0.0994900000     0.1511770000
| 23>  H        6.0483580000    -1.7044370000     0.8760720000
| 24> *
| 25>
| 26>                          ****END OF INPUT****
 Total Charge           Charge          ....    0
 Multiplicity           Mult            ....    1
 Number of Electrons    NEL             ....   48
 Basis Dimension        Dim             ....  123

MULLIKEN ATOMIC CHARGES
-----------------------
   0 C :   -0.387562
   1 C :    0.377969
   2 C :   -0.057330
   3 C :   -0.045259
   4 C :    0.136841
   5 C :   -0.281549
   6 N :    0.048367
   7 H :    0.012718
   8 H :    0.035138
   9 H :    0.034115
  10 H :    0.054299
  11 H :    0.072251
Sum of atomic charges:   -0.0000000

LOEWDIN ATOMIC CHARGES
----------------------
   0 C :   -0.046237
   1 C :   -0.020552
   2 C :   -0.044295
   3 C :    0.006509
   4 C :   -0.052267
   5 C :   -0.043786
   6 N :   -0.057527
   7 H :    0.038935
   8 H :    0.045537
   9 H :    0.040411
  10 H :    0.062671
  11 H :    0.070601

  Mayer bond orders larger than 0.1
B(  0-C ,  1-C ) :   2.2851 B(  0-C ,  3-C ) :   0.1322 B(  0-C ,  7-H ) :   1.0866
B(  1-C ,  2-C ) :   1.0613 B(  2-C ,  3-C ) :   1.8247 B(  2-C ,  8-H ) :   0.9350
B(  3-C ,  4-C ) :   1.0439 B(  3-C ,  9-H ) :   0.9616 B(  4-C ,  5-C ) :   1.0827
B(  4-C , 10-H ) :   0.8898 B(  4-C , 11-H ) :   0.8848 B(  5-C ,  6-N ) :   3.0617

FINAL SINGLE POINT ENERGY      -285.709336678794

DIPOLE MOMENT
-------------
                                X             Y             Z
Electronic contribution:      0.87424       0.88452       1.99906
Nuclear contribution   :     -1.36769      -1.40752      -3.15824
                        -----------------------------------------
Total Dipole Moment    :     -0.49345      -0.52301      -1.15918
                        -----------------------------------------
Magnitude (a.u.)       :      1.36409
Magnitude (Debye)      :      3.46724

                             ****ORCA TERMINATED NORMALLY****
TOTAL RUN TIME: 0 days 0 hours 0 minutes 5 seconds 488 msec
