                         Program Version 3.0.3 - RELEASE   -
|  1> ! RI PBE def2-SVP def2-SVP/J NBO PAL2
|  2> % maxcore 2000
|  3> % output
|  4>     # printlevel mini
|  5>     print[ P_Basis ] 0
|  6>     print[ P_SCFInfo ] 1
|  7>     print[ P_SCFIterInfo ] 1
|  8>     print[ P_OrbEn ] 0
|  9>     print[ P_Cartesian ] 0
| 10> end
| 11> *xyz 0 1
| 12>  C        1.0273420000    -0.0451950000     0.1210370000
| 13>  C        2.2232240000    -0.0280370000     0.0873330000
| 14>  C        3.6870300000    -0.0257480000     0.0437690000
| 15>  C        4.2119610000     0.6252660000    -1.1584320000
| 16>  C        4.6470610000     1.1435160000    -2.1451780000
| 17>  C        4.2494090000     0.5824000000     1.2604770000
| 18>  N        4.6987130000     1.0350640000     2.2147340000
| 19>  H       -0.0370800000    -0.0551920000     0.1517440000
| 20>  H        4.0276390000    -1.0714820000     0.0391260000
| 21>  H        5.0319000000     1.6102090000    -3.0216100000
| 22> *
| 23>
| 24>                          ****END OF INPUT****
 Total Charge           Charge          ....    0
 Multiplicity           Mult            ....    1
 Number of Electrons    NEL             ....   46
 Basis Dimension        Dim             ....  113

MULLIKEN ATOMIC CHARGES
-----------------------
   0 C :   -0.458551
   1 C :    0.393415
   2 C :    0.140318
   3 C :    0.387103
   4 C :   -0.456629
   5 C :   -0.208389
   6 N :    0.074112
   7 H :    0.014693
   8 H :    0.098121
   9 H :    0.015808
Sum of atomic charges:   -0.0000000

LOEWDIN ATOMIC CHARGES
----------------------
   0 C :   -0.028084
   1 C :   -0.009710
   2 C :   -0.054362
   3 C :   -0.010769
   4 C :   -0.028214
   5 C :   -0.018936
   6 N :   -0.035411
   7 H :    0.043594
   8 H :    0.097617
   9 H :    0.044275

  Mayer bond orders larger than 0.1
B(  0-C ,  1-C ) :   2.3764 B(  0-C ,  7-H ) :   1.1082 B(  1-C ,  2-C ) :   0.9817
B(  1-C ,  7-H ) :  -0.1177 B(  2-C ,  3-C ) :   0.9820 B(  2-C ,  5-C ) :   0.9927
B(  2-C ,  8-H ) :   0.8329 B(  3-C ,  4-C ) :   2.3772 B(  3-C ,  9-H ) :  -0.1139
B(  4-C ,  9-H ) :   1.1037 B(  5-C ,  6-N ) :   3.0869

FINAL SINGLE POINT ENERGY      -284.437387715832

DIPOLE MOMENT
-------------
                                X             Y             Z
Electronic contribution:      1.00148       0.32129       1.76579
Nuclear contribution   :     -1.50122      -0.87118      -2.85423
                        -----------------------------------------
Total Dipole Moment    :     -0.49975      -0.54989      -1.08844
                        -----------------------------------------
Magnitude (a.u.)       :      1.31789
Magnitude (Debye)      :      3.34981

                             ****ORCA TERMINATED NORMALLY****
TOTAL RUN TIME: 0 days 0 hours 0 minutes 5 seconds 153 msec
