                         Program Version 3.0.3 - RELEASE   -
|  1> ! RI PBE def2-SVP def2-SVP/J NBO PAL2
|  2> % maxcore 2000
|  3> % output
|  4>     # printlevel mini
|  5>     print[ P_Basis ] 0
|  6>     print[ P_SCFInfo ] 1
|  7>     print[ P_SCFIterInfo ] 1
|  8>     print[ P_OrbEn ] 0
|  9>     print[ P_Cartesian ] 0
| 10> end
| 11> *xyz 0 1
| 12>  C        0.8404530000    -0.0419160000    -0.0316280000
| 13>  C        2.0449920000    -0.0570560000    -0.0379800000
| 14>  C        3.4081480000    -0.0737200000    -0.0449720000
| 15>  C        4.6132050000    -0.0883790000    -0.0511230000
| 16>  C        6.0656630000    -0.0897370000    -0.0516670000
| 17>  C        6.6381970000    -1.3298460000    -0.5706410000
| 18>  N        7.1085170000    -2.2960500000    -0.9749870000
| 19>  H       -0.2240670000    -0.0309980000    -0.0270450000
| 20>  H        6.4438850000     0.0640960000     0.9654490000
| 21>  H        6.4439090000     0.7426870000    -0.6560180000
| 22> *
| 23>
| 24>                          ****END OF INPUT****
 Total Charge           Charge          ....    0
 Multiplicity           Mult            ....    1
 Number of Electrons    NEL             ....   46
 Basis Dimension        Dim             ....  113

MULLIKEN ATOMIC CHARGES
-----------------------
   0 C :   -0.403525
   1 C :    0.352584
   2 C :    0.004732
   3 C :   -0.118178
   4 C :    0.192154
   5 C :   -0.273122
   6 N :    0.056615
   7 H :    0.020510
   8 H :    0.083754
   9 H :    0.084475
Sum of atomic charges:   -0.0000000

LOEWDIN ATOMIC CHARGES
----------------------
   0 C :   -0.008686
   1 C :   -0.030148
   2 C :   -0.036784
   3 C :   -0.005343
   4 C :   -0.050867
   5 C :   -0.035315
   6 N :   -0.043805
   7 H :    0.043253
   8 H :    0.083804
   9 H :    0.083891

  Mayer bond orders larger than 0.1
B(  0-C ,  1-C ) :   2.1548 B(  0-C ,  3-C ) :   0.2611 B(  0-C ,  7-H ) :   1.0944
B(  1-C ,  2-C ) :   0.9471 B(  1-C ,  7-H ) :  -0.1054 B(  2-C ,  3-C ) :   2.4323
B(  3-C ,  4-C ) :   1.0470 B(  4-C ,  5-C ) :   1.0641 B(  4-C ,  8-H ) :   0.8666
B(  4-C ,  9-H ) :   0.8665 B(  5-C ,  6-N ) :   3.0680

FINAL SINGLE POINT ENERGY      -284.470921648548

DIPOLE MOMENT
-------------
                                X             Y             Z
Electronic contribution:      0.16437      -1.20236      -0.50297
Nuclear contribution   :     -0.61148       2.34728       0.98237
                        -----------------------------------------
Total Dipole Moment    :     -0.44711       1.14492       0.47941
                        -----------------------------------------
Magnitude (a.u.)       :      1.31931
Magnitude (Debye)      :      3.35343

                             ****ORCA TERMINATED NORMALLY****
TOTAL RUN TIME: 0 days 0 hours 0 minutes 4 seconds 867 msec
