                         Program Version 3.0.3 - RELEASE   -
|  1> ! RI PBE def2-SVP def2-SVP/J NBO PAL2
|  2> % maxcore 2000
|  3> % output
|  4>     # printlevel mini
|  5>     print[ P_Basis ] 0
|  6>     print[ P_SCFInfo ] 1
|  7>     print[ P_SCFIterInfo ] 1
|  8>     print[ P_OrbEn ] 0
|  9>     print[ P_Cartesian ] 0
| 10> end
| 11> *xyz 0 1
| 12>  C        0.9085030000     0.0804390000    -0.0670820000
| 13>  C        2.1052230000     0.0681360000     0.0102560000
| 14>  C        3.5570200000     0.0728330000     0.1174350000
| 15>  C        4.0508720000     1.1323610000     1.0518880000
| 16>  C        4.8614700000     0.8862830000     2.0792240000
| 17>  C        5.3352340000     1.9105710000     2.9435670000
| 18>  N        5.7337400000     2.7236190000     3.6560950000
| 19>  H       -0.1537660000     0.0856430000    -0.1367580000
| 20>  H        3.9819030000     0.2520470000    -0.8788950000
| 21>  H        3.9119360000    -0.9110740000     0.4382620000
| 22>  H        3.7177800000     2.1474590000     0.8591060000
| 23>  H        5.1985830000    -0.1216070000     2.3021010000
| 24> *
| 25>
| 26>                          ****END OF INPUT****
 Total Charge           Charge          ....    0
 Multiplicity           Mult            ....    1
 Number of Electrons    NEL             ....   48
 Basis Dimension        Dim             ....  123

MULLIKEN ATOMIC CHARGES
-----------------------
   0 C :   -0.445825
   1 C :    0.286866
   2 C :    0.150012
   3 C :   -0.032526
   4 C :   -0.101235
   5 C :   -0.100761
   6 N :    0.043996
   7 H :    0.006871
   8 H :    0.065060
   9 H :    0.042347
  10 H :    0.039492
  11 H :    0.045701
Sum of atomic charges:   -0.0000000

LOEWDIN ATOMIC CHARGES
----------------------
   0 C :   -0.064813
   1 C :   -0.026898
   2 C :   -0.039463
   3 C :    0.039151
   4 C :   -0.071539
   5 C :   -0.041097
   6 N :   -0.051389
   7 H :    0.038289
   8 H :    0.067512
   9 H :    0.055555
  10 H :    0.043880
  11 H :    0.050812

  Mayer bond orders larger than 0.1
B(  0-C ,  1-C ) :   2.3900 B(  0-C ,  7-H ) :   1.1004 B(  1-C ,  2-C ) :   1.0484
B(  1-C ,  7-H ) :  -0.1086 B(  2-C ,  3-C ) :   1.0369 B(  2-C ,  8-H ) :   0.8822
B(  2-C ,  9-H ) :   0.8968 B(  3-C ,  4-C ) :   1.8477 B(  3-C ,  6-N ) :   0.1088
B(  3-C , 10-H ) :   0.9585 B(  4-C ,  5-C ) :   1.1207 B(  4-C , 11-H ) :   0.9410
B(  5-C ,  6-N ) :   2.9673

FINAL SINGLE POINT ENERGY      -285.706994874147

DIPOLE MOMENT
-------------
                                X             Y             Z
Electronic contribution:      1.74364       2.24851       3.03189
Nuclear contribution   :     -2.23553      -3.23387      -4.12806
                        -----------------------------------------
Total Dipole Moment    :     -0.49189      -0.98537      -1.09617
                        -----------------------------------------
Magnitude (a.u.)       :      1.55386
Magnitude (Debye)      :      3.94961

                             ****ORCA TERMINATED NORMALLY****
TOTAL RUN TIME: 0 days 0 hours 0 minutes 5 seconds 541 msec
