                         Program Version 3.0.3 - RELEASE   -
|  1> ! RI PBE def2-SVP def2-SVP/J NBO PAL2
|  2> % maxcore 2000
|  3> % output
|  4>     # printlevel mini
|  5>     print[ P_Basis ] 0
|  6>     print[ P_SCFInfo ] 1
|  7>     print[ P_SCFIterInfo ] 1
|  8>     print[ P_OrbEn ] 0
|  9>     print[ P_Cartesian ] 0
| 10> end
| 11> *xyz 0 1
| 12>  C        0.9456930000    -0.1028510000    -0.0993180000
| 13>  C        2.1415610000    -0.0888040000    -0.0356340000
| 14>  C        3.5974970000    -0.0742400000     0.0306690000
| 15>  C        4.1057100000     0.2191540000     1.3607690000
| 16>  C        4.5366200000     0.4612090000     2.4581300000
| 17>  C        5.0256210000     0.7362630000     3.7051300000
| 18>  N        5.4405120000     0.9684270000     4.7576850000
| 19>  H       -0.1176270000    -0.1147610000    -0.1529400000
| 20>  H        3.9929480000     0.6692020000    -0.6719000000
| 21>  H        3.9928740000    -1.0443000000    -0.2939030000
| 22> *
| 23>
| 24>                          ****END OF INPUT****
 Total Charge           Charge          ....    0
 Multiplicity           Mult            ....    1
 Number of Electrons    NEL             ....   46
 Basis Dimension        Dim             ....  113

MULLIKEN ATOMIC CHARGES
-----------------------
   0 C :   -0.427427
   1 C :    0.284656
   2 C :    0.177979
   3 C :   -0.187576
   4 C :    0.049825
   5 C :   -0.170894
   6 N :    0.103895
   7 H :    0.012202
   8 H :    0.080985
   9 H :    0.076354
Sum of atomic charges:   -0.0000000

LOEWDIN ATOMIC CHARGES
----------------------
   0 C :   -0.046279
   1 C :   -0.024888
   2 C :   -0.041174
   3 C :    0.049306
   4 C :   -0.072521
   5 C :   -0.045467
   6 N :   -0.022461
   7 H :    0.041090
   8 H :    0.081523
   9 H :    0.080872

  Mayer bond orders larger than 0.1
B(  0-C ,  1-C ) :   2.4117 B(  0-C ,  7-H ) :   1.0988 B(  1-C ,  2-C ) :   1.0363
B(  1-C ,  7-H ) :  -0.1071 B(  2-C ,  3-C ) :   1.0517 B(  2-C ,  8-H ) :   0.8683
B(  2-C ,  9-H ) :   0.8663 B(  3-C ,  4-C ) :   2.4048 B(  3-C ,  6-N ) :   0.1866
B(  4-C ,  5-C ) :   1.0078 B(  4-C ,  6-N ) :   0.1177 B(  5-C ,  6-N ) :   2.8747

FINAL SINGLE POINT ENERGY      -284.465222402648

DIPOLE MOMENT
-------------
                                X             Y             Z
Electronic contribution:      2.43949       0.93740       4.25308
Nuclear contribution   :     -2.98867      -1.30542      -5.91768
                        -----------------------------------------
Total Dipole Moment    :     -0.54918      -0.36802      -1.66460
                        -----------------------------------------
Magnitude (a.u.)       :      1.79107
Magnitude (Debye)      :      4.55254

                             ****ORCA TERMINATED NORMALLY****
TOTAL RUN TIME: 0 days 0 hours 0 minutes 4 seconds 903 msec
