                         Program Version 3.0.3 - RELEASE   -
|  1> ! RI PBE def2-SVP def2-SVP/J NBO PAL2
|  2> % maxcore 2000
|  3> % output
|  4>     # printlevel mini
|  5>     print[ P_Basis ] 0
|  6>     print[ P_SCFInfo ] 1
|  7>     print[ P_SCFIterInfo ] 1
|  8>     print[ P_OrbEn ] 0
|  9>     print[ P_Cartesian ] 0
| 10> end
| 11> *xyz 0 1
| 12>  C        4.1081700000     0.8833140000    -2.4755970000
| 13>  C        3.9074390000     0.4177830000    -1.3872540000
| 14>  C        3.6861650000    -0.1184980000    -0.0540790000
| 15>  C        4.3206760000     0.7380970000     1.0426210000
| 16>  C        5.8428530000     0.8278970000     0.9316760000
| 17>  C        6.4890200000    -0.4619390000     1.1217010000
| 18>  N        6.9736950000    -1.4927830000     1.2782870000
| 19>  H        4.2776050000     1.2828410000    -3.4475810000
| 20>  H        4.0850810000    -1.1378000000    -0.0040050000
| 21>  H        2.6100160000    -0.1971330000     0.1274420000
| 22>  H        4.0487540000     0.3245810000     2.0167090000
| 23>  H        3.9171860000     1.7519860000     0.9918030000
| 24>  H        6.2393640000     1.5214220000     1.6778680000
| 25>  H        6.1240840000     1.2124320000    -0.0534940000
| 26> *
| 27>
| 28>                          ****END OF INPUT****
 Total Charge           Charge          ....    0
 Multiplicity           Mult            ....    1
 Number of Electrons    NEL             ....   50
 Basis Dimension        Dim             ....  133

MULLIKEN ATOMIC CHARGES
-----------------------
   0 C :   -0.476932
   1 C :    0.303726
   2 C :    0.066305
   3 C :   -0.026250
   4 C :    0.068260
   5 C :   -0.287102
   6 N :    0.045567
   7 H :    0.003182
   8 H :    0.061220
   9 H :    0.050055
  10 H :    0.033783
  11 H :    0.035462
  12 H :    0.057917
  13 H :    0.064808
Sum of atomic charges:   -0.0000000

LOEWDIN ATOMIC CHARGES
----------------------
   0 C :   -0.083481
   1 C :   -0.026489
   2 C :   -0.046355
   3 C :   -0.014356
   4 C :   -0.056195
   5 C :   -0.046108
   6 N :   -0.068007
   7 H :    0.036822
   8 H :    0.056116
   9 H :    0.055195
  10 H :    0.035103
  11 H :    0.035987
  12 H :    0.060493
  13 H :    0.061274

  Mayer bond orders larger than 0.1
B(  0-C ,  1-C ) :   2.3439 B(  0-C ,  7-H ) :   1.1012 B(  1-C ,  2-C ) :   1.0705
B(  1-C ,  7-H ) :  -0.1100 B(  2-C ,  3-C ) :   1.0851 B(  2-C ,  8-H ) :   0.8948
B(  2-C ,  9-H ) :   0.8957 B(  3-C ,  4-C ) :   1.0948 B(  3-C , 10-H ) :   0.9324
B(  3-C , 11-H ) :   0.9319 B(  4-C ,  5-C ) :   1.1080 B(  4-C , 12-H ) :   0.8915
B(  4-C , 13-H ) :   0.8920 B(  5-C ,  6-N ) :   3.0463

FINAL SINGLE POINT ENERGY      -286.928161199168

DIPOLE MOMENT
-------------
                                X             Y             Z
Electronic contribution:      2.98314      -2.48862      -0.57644
Nuclear contribution   :     -3.75145       3.65475       0.57399
                        -----------------------------------------
Total Dipole Moment    :     -0.76831       1.16612      -0.00245
                        -----------------------------------------
Magnitude (a.u.)       :      1.39648
Magnitude (Debye)      :      3.54956

                             ****ORCA TERMINATED NORMALLY****
TOTAL RUN TIME: 0 days 0 hours 0 minutes 5 seconds 922 msec
