                         Program Version 3.0.3 - RELEASE   -
|  1> ! RI PBE def2-SVP def2-SVP/J NBO PAL2
|  2> % maxcore 2000
|  3> % output
|  4>     # printlevel mini
|  5>     print[ P_Basis ] 0
|  6>     print[ P_SCFInfo ] 1
|  7>     print[ P_SCFIterInfo ] 1
|  8>     print[ P_OrbEn ] 0
|  9>     print[ P_Cartesian ] 0
| 10> end
| 11> *xyz 0 1
| 12>  C        0.7609350000    -0.5074280000    -0.7689490000
| 13>  C        2.2432730000    -0.4663400000    -0.9204630000
| 14>  C        2.9824100000     0.6366260000    -0.9257550000
| 15>  C        4.4695900000     0.6871640000    -1.0600070000
| 16>  C        4.9573300000     1.5574200000    -2.2170840000
| 17>  C        4.5871010000     1.0147580000    -3.5842590000
| 18>  N        5.1260960000     1.8681580000    -4.6343900000
| 19>  H        0.2871340000    -0.9917860000    -1.6289990000
| 20>  H        0.3420710000     0.4961880000    -0.6705450000
| 21>  H        0.4688700000    -1.0853890000     0.1139500000
| 22>  H        2.7454770000    -1.4271750000    -1.0313440000
| 23>  H        2.4807540000     1.5996850000    -0.8168280000
| 24>  H        4.8629150000    -0.3296480000    -1.1691270000
| 25>  H        4.8961110000     1.0856180000    -0.1311990000
| 26>  H        6.0449660000     1.6644680000    -2.1684050000
| 27>  H        4.5427180000     2.5682660000    -2.1066860000
| 28>  H        3.4960810000     0.8804180000    -3.6360910000
| 29>  H        5.0285330000     0.0185770000    -3.7016640000
| 30>  H        4.7088360000     2.7902390000    -4.5818210000
| 31>  H        4.8957080000     1.4974900000    -5.5478240000
| 32> *
| 33>
| 34>                          ****END OF INPUT****
 Total Charge           Charge          ....    0
 Multiplicity           Mult            ....    1
 Number of Electrons    NEL             ....   56
 Basis Dimension        Dim             ....  163

MULLIKEN ATOMIC CHARGES
-----------------------
   0 C :    0.039501
   1 C :   -0.105312
   2 C :   -0.068510
   3 C :    0.083615
   4 C :   -0.057541
   5 C :    0.070320
   6 N :   -0.208341
   7 H :    0.031046
   8 H :    0.014923
   9 H :    0.031249
  10 H :   -0.009136
  11 H :   -0.017854
  12 H :   -0.002577
  13 H :    0.015738
  14 H :    0.018253
  15 H :    0.000433
  16 H :   -0.000086
  17 H :   -0.003739
  18 H :    0.084731
  19 H :    0.083285
Sum of atomic charges:    0.0000000

LOEWDIN ATOMIC CHARGES
----------------------
   0 C :   -0.065863
   1 C :   -0.052314
   2 C :   -0.047175
   3 C :   -0.038641
   4 C :   -0.046909
   5 C :    0.003657
   6 N :   -0.114326
   7 H :    0.034982
   8 H :    0.029273
   9 H :    0.035520
  10 H :    0.020082
  11 H :    0.018633
  12 H :    0.026133
  13 H :    0.034552
  14 H :    0.026525
  15 H :    0.018228
  16 H :    0.000323
  17 H :    0.018321
  18 H :    0.048203
  19 H :    0.050795

  Mayer bond orders larger than 0.1
B(  0-C ,  1-C ) :   1.0855 B(  0-C ,  7-H ) :   0.9484 B(  0-C ,  8-H ) :   0.9608
B(  0-C ,  9-H ) :   0.9476 B(  1-C ,  2-C ) :   1.9135 B(  1-C , 10-H ) :   0.9534
B(  2-C ,  3-C ) :   1.0621 B(  2-C , 11-H ) :   0.9495 B(  3-C ,  4-C ) :   1.0809
B(  3-C , 12-H ) :   0.9255 B(  3-C , 13-H ) :   0.9093 B(  4-C ,  5-C ) :   1.0921
B(  4-C , 14-H ) :   0.9285 B(  4-C , 15-H ) :   0.9336 B(  5-C ,  6-N ) :   1.0849
B(  5-C , 16-H ) :   0.9313 B(  5-C , 17-H ) :   0.9266 B(  6-N , 18-H ) :   0.9685
B(  6-N , 19-H ) :   0.9652

FINAL SINGLE POINT ENERGY      -290.575675126824

DIPOLE MOMENT
-------------
                                X             Y             Z
Electronic contribution:      1.40592       0.38997      -0.04530
Nuclear contribution   :     -1.88627      -0.38957      -0.08021
                        -----------------------------------------
Total Dipole Moment    :     -0.48035       0.00041      -0.12550
                        -----------------------------------------
Magnitude (a.u.)       :      0.49648
Magnitude (Debye)      :      1.26195

                             ****ORCA TERMINATED NORMALLY****
TOTAL RUN TIME: 0 days 0 hours 0 minutes 8 seconds 356 msec
