                         Program Version 3.0.3 - RELEASE   -
|  1> ! RI PBE def2-SVP def2-SVP/J NBO PAL2
|  2> % maxcore 2000
|  3> % output
|  4>     # printlevel mini
|  5>     print[ P_Basis ] 0
|  6>     print[ P_SCFInfo ] 1
|  7>     print[ P_SCFIterInfo ] 1
|  8>     print[ P_OrbEn ] 0
|  9>     print[ P_Cartesian ] 0
| 10> end
| 11> *xyz 0 1
| 12>  C        1.0921140000    -0.1988850000     0.5040230000
| 13>  C        2.5511930000     0.0304890000     0.3703870000
| 14>  C        3.1625410000     1.0663300000    -0.2344280000
| 15>  C        2.4958590000     2.1878350000    -0.8895610000
| 16>  C        3.1259400000     3.2000150000    -1.4805940000
| 17>  C        4.5956250000     1.0766120000    -0.2402070000
| 18>  N        5.7469810000     1.1046220000    -0.2562830000
| 19>  H        0.8200270000    -1.1568980000     0.0491300000
| 20>  H        0.4827150000     0.5796650000     0.0492040000
| 21>  H        0.8196990000    -0.2734520000     1.5618390000
| 22>  H        3.1917050000    -0.7269300000     0.8128430000
| 23>  H        1.4119870000     2.1706140000    -0.8797110000
| 24>  H        4.2087510000     3.2567620000    -1.5135290000
| 25>  H        2.5699030000     4.0021810000    -1.9491940000
| 26> *
| 27>
| 28>                          ****END OF INPUT****
 Total Charge           Charge          ....    0
 Multiplicity           Mult            ....    1
 Number of Electrons    NEL             ....   50
 Basis Dimension        Dim             ....  133

MULLIKEN ATOMIC CHARGES
-----------------------
   0 C :    0.046562
   1 C :   -0.096409
   2 C :   -0.053952
   3 C :    0.002516
   4 C :   -0.006560
   5 C :   -0.158766
   6 N :    0.047320
   7 H :    0.048286
   8 H :    0.033910
   9 H :    0.050218
  10 H :    0.022181
  11 H :   -0.012005
  12 H :    0.046343
  13 H :    0.030354
Sum of atomic charges:    0.0000000

LOEWDIN ATOMIC CHARGES
----------------------
   0 C :   -0.061083
   1 C :    0.018028
   2 C :   -0.083514
   3 C :   -0.027216
   4 C :   -0.026024
   5 C :   -0.029141
   6 N :   -0.060833
   7 H :    0.049629
   8 H :    0.033755
   9 H :    0.049716
  10 H :    0.039827
  11 H :    0.031653
  12 H :    0.034068
  13 H :    0.031136

  Mayer bond orders larger than 0.1
B(  0-C ,  1-C ) :   1.1060 B(  0-C ,  7-H ) :   0.9344 B(  0-C ,  8-H ) :   0.9531
B(  0-C ,  9-H ) :   0.9361 B(  1-C ,  2-C ) :   1.7494 B(  1-C ,  4-C ) :   0.1262
B(  1-C , 10-H ) :   0.9450 B(  2-C ,  3-C ) :   1.1222 B(  2-C ,  5-C ) :   1.0773
B(  3-C ,  4-C ) :   1.9069 B(  3-C , 11-H ) :   0.9520 B(  4-C , 12-H ) :   0.9318
B(  4-C , 13-H ) :   0.9354 B(  5-C ,  6-N ) :   2.9798

FINAL SINGLE POINT ENERGY      -286.962999979439

DIPOLE MOMENT
-------------
                                X             Y             Z
Electronic contribution:      6.71398       0.32508      -0.18840
Nuclear contribution   :     -8.37109      -0.51909       0.30138
                        -----------------------------------------
Total Dipole Moment    :     -1.65711      -0.19400       0.11298
                        -----------------------------------------
Magnitude (a.u.)       :      1.67225
Magnitude (Debye)      :      4.25052

                             ****ORCA TERMINATED NORMALLY****
TOTAL RUN TIME: 0 days 0 hours 0 minutes 6 seconds 60 msec
