                         Program Version 3.0.3 - RELEASE   -
|  1> ! RI PBE def2-SVP def2-SVP/J NBO PAL2
|  2> % maxcore 2000
|  3> % output
|  4>     # printlevel mini
|  5>     print[ P_Basis ] 0
|  6>     print[ P_SCFInfo ] 1
|  7>     print[ P_SCFIterInfo ] 1
|  8>     print[ P_OrbEn ] 0
|  9>     print[ P_Cartesian ] 0
| 10> end
| 11> *xyz 0 1
| 12>  C        0.7073470000    -0.2793430000    -0.2041900000
| 13>  C        2.1637380000    -0.1500340000     0.0894690000
| 14>  C        2.7576890000     0.5817690000     1.0342610000
| 15>  C        2.0276940000     1.4542630000     2.0096180000
| 16>  C        4.2546260000     0.5746310000     1.1703750000
| 17>  C        4.7583530000    -0.0263820000     2.4773250000
| 18>  N        6.2110300000     0.0371430000     2.5297080000
| 19>  H        0.4913650000     0.0112370000    -1.2376310000
| 20>  H        0.0819110000     0.3266420000     0.4508890000
| 21>  H        0.3821700000    -1.3200860000    -0.1013480000
| 22>  H        2.8141430000    -0.7337130000    -0.5606730000
| 23>  H        0.9672450000     1.5508110000     1.7818730000
| 24>  H        2.4633640000     2.4588100000     2.0214340000
| 25>  H        2.1121320000     1.0666250000     3.0299020000
| 26>  H        4.6440410000     1.5978630000     1.1031460000
| 27>  H        4.6903650000     0.0149890000     0.3354540000
| 28>  H        4.3507400000    -1.0451050000     2.5760450000
| 29>  H        4.3717270000     0.5514260000     3.3220490000
| 30>  H        6.6134130000    -0.5316730000     1.7939390000
| 31>  H        6.5545070000    -0.3332620000     3.4068470000
| 32> *
| 33>
| 34>                          ****END OF INPUT****
 Total Charge           Charge          ....    0
 Multiplicity           Mult            ....    1
 Number of Electrons    NEL             ....   56
 Basis Dimension        Dim             ....  163

MULLIKEN ATOMIC CHARGES
-----------------------
   0 C :    0.049664
   1 C :   -0.127817
   2 C :   -0.163832
   3 C :    0.064178
   4 C :    0.053391
   5 C :    0.051511
   6 N :   -0.205944
   7 H :    0.026688
   8 H :    0.012611
   9 H :    0.027087
  10 H :   -0.018800
  11 H :    0.009109
  12 H :    0.021349
  13 H :    0.031657
  14 H :    0.013478
  15 H :   -0.011513
  16 H :   -0.007992
  17 H :    0.004420
  18 H :    0.085616
  19 H :    0.085139
Sum of atomic charges:    0.0000000

LOEWDIN ATOMIC CHARGES
----------------------
   0 C :   -0.068815
   1 C :   -0.063240
   2 C :   -0.044770
   3 C :   -0.059556
   4 C :   -0.038501
   5 C :    0.007891
   6 N :   -0.112929
   7 H :    0.035320
   8 H :    0.026521
   9 H :    0.035725
  10 H :    0.019352
  11 H :    0.026918
  12 H :    0.035085
  13 H :    0.034354
  14 H :    0.029103
  15 H :    0.021429
  16 H :   -0.001100
  17 H :    0.017013
  18 H :    0.048681
  19 H :    0.051517

  Mayer bond orders larger than 0.1
B(  0-C ,  1-C ) :   1.0955 B(  0-C ,  7-H ) :   0.9430 B(  0-C ,  8-H ) :   0.9532
B(  0-C ,  9-H ) :   0.9439 B(  1-C ,  2-C ) :   1.8976 B(  1-C , 10-H ) :   0.9355
B(  2-C ,  3-C ) :   1.0981 B(  2-C ,  4-C ) :   1.0551 B(  3-C , 11-H ) :   0.9413
B(  3-C , 12-H ) :   0.9372 B(  3-C , 13-H ) :   0.9399 B(  4-C ,  5-C ) :   1.0811
B(  4-C , 14-H ) :   0.9074 B(  4-C , 15-H ) :   0.9201 B(  5-C ,  6-N ) :   1.0918
B(  5-C , 16-H ) :   0.9302 B(  5-C , 17-H ) :   0.9313 B(  6-N , 18-H ) :   0.9700
B(  6-N , 19-H ) :   0.9640

FINAL SINGLE POINT ENERGY      -290.578160272686

DIPOLE MOMENT
-------------
                                X             Y             Z
Electronic contribution:      2.23316      -0.12245      -0.37656
Nuclear contribution   :     -2.29820      -0.30531       0.52710
                        -----------------------------------------
Total Dipole Moment    :     -0.06504      -0.42776       0.15055
                        -----------------------------------------
Magnitude (a.u.)       :      0.45812
Magnitude (Debye)      :      1.16444

                             ****ORCA TERMINATED NORMALLY****
TOTAL RUN TIME: 0 days 0 hours 0 minutes 8 seconds 218 msec
