                         Program Version 3.0.3 - RELEASE   -
|  1> ! RI PBE def2-SVP def2-SVP/J NBO PAL2
|  2> % maxcore 2000
|  3> % output
|  4>     # printlevel mini
|  5>     print[ P_Basis ] 0
|  6>     print[ P_SCFInfo ] 1
|  7>     print[ P_SCFIterInfo ] 1
|  8>     print[ P_OrbEn ] 0
|  9>     print[ P_Cartesian ] 0
| 10> end
| 11> *xyz 0 1
| 12>  C        0.0997210000     0.1473570000     0.1288640000
| 13>  C        1.5681300000     0.3981360000     0.2001960000
| 14>  C        2.4963640000    -0.3480190000     0.7992030000
| 15>  C        2.2039580000    -1.6390780000     1.5050870000
| 16>  C        3.9577120000     0.0513160000     0.7884590000
| 17>  C        4.5475530000     0.0581310000     2.2024490000
| 18>  N        4.1804650000     1.3037350000     0.0829000000
| 19>  H       -0.4550910000     0.9849990000     0.5647500000
| 20>  H       -0.2136710000    -0.7581520000     0.6485420000
| 21>  H       -0.2295540000     0.0701140000    -0.9127940000
| 22>  H        1.9133090000     1.2857520000    -0.3218220000
| 23>  H        1.2340510000    -2.0493980000     1.2275620000
| 24>  H        2.2135400000    -1.5219230000     2.5934160000
| 25>  H        2.9619070000    -2.3911920000     1.2631080000
| 26>  H        4.4876410000    -0.7234180000     0.2149610000
| 27>  H        4.4663050000    -0.9119870000     2.6973190000
| 28>  H        5.6074210000     0.3231660000     2.1649580000
| 29>  H        4.0331810000     0.7987590000     2.8228460000
| 30>  H        5.1751130000     1.4712380000    -0.0055330000
| 31>  H        3.8041360000     2.0749620000     0.6247400000
| 32> *
| 33>
| 34>                          ****END OF INPUT****
 Total Charge           Charge          ....    0
 Multiplicity           Mult            ....    1
 Number of Electrons    NEL             ....   56
 Basis Dimension        Dim             ....  163

MULLIKEN ATOMIC CHARGES
-----------------------
   0 C :    0.063458
   1 C :   -0.131727
   2 C :   -0.142055
   3 C :    0.048644
   4 C :    0.008240
   5 C :   -0.003292
   6 N :   -0.164699
   7 H :    0.024449
   8 H :    0.004886
   9 H :    0.026382
  10 H :   -0.017461
  11 H :    0.009619
  12 H :    0.036329
  13 H :    0.019040
  14 H :    0.009790
  15 H :    0.013795
  16 H :    0.008573
  17 H :    0.014454
  18 H :    0.083359
  19 H :    0.088217
Sum of atomic charges:   -0.0000000

LOEWDIN ATOMIC CHARGES
----------------------
   0 C :   -0.066383
   1 C :   -0.060253
   2 C :   -0.055145
   3 C :   -0.060555
   4 C :    0.002195
   5 C :   -0.076414
   6 N :   -0.084104
   7 H :    0.035278
   8 H :    0.023181
   9 H :    0.035409
  10 H :    0.018248
  11 H :    0.028291
  12 H :    0.034849
  13 H :    0.030576
  14 H :    0.027962
  15 H :    0.023417
  16 H :    0.020009
  17 H :    0.023021
  18 H :    0.051600
  19 H :    0.048819

  Mayer bond orders larger than 0.1
B(  0-C ,  1-C ) :   1.0856 B(  0-C ,  7-H ) :   0.9433 B(  0-C ,  8-H ) :   0.9510
B(  0-C ,  9-H ) :   0.9446 B(  1-C ,  2-C ) :   1.9298 B(  1-C , 10-H ) :   0.9088
B(  2-C ,  3-C ) :   1.0992 B(  2-C ,  4-C ) :   0.9906 B(  3-C , 11-H ) :   0.9354
B(  3-C , 12-H ) :   0.9391 B(  3-C , 13-H ) :   0.9419 B(  4-C ,  5-C ) :   1.0613
B(  4-C ,  6-N ) :   1.1267 B(  4-C , 14-H ) :   0.8857 B(  5-C , 15-H ) :   0.9393
B(  5-C , 16-H ) :   0.9584 B(  5-C , 17-H ) :   0.9574 B(  6-N , 18-H ) :   0.9651
B(  6-N , 19-H ) :   0.9600

FINAL SINGLE POINT ENERGY      -290.580416414963

DIPOLE MOMENT
-------------
                                X             Y             Z
Electronic contribution:      0.93843       1.42687      -2.22047
Nuclear contribution   :     -0.66564      -1.36772       2.60450
                        -----------------------------------------
Total Dipole Moment    :      0.27279       0.05915       0.38403
                        -----------------------------------------
Magnitude (a.u.)       :      0.47475
Magnitude (Debye)      :      1.20673

                             ****ORCA TERMINATED NORMALLY****
TOTAL RUN TIME: 0 days 0 hours 0 minutes 8 seconds 703 msec
