                         Program Version 3.0.3 - RELEASE   -
|  1> ! RI PBE def2-SVP def2-SVP/J NBO PAL2
|  2> % maxcore 2000
|  3> % output
|  4>     # printlevel mini
|  5>     print[ P_Basis ] 0
|  6>     print[ P_SCFInfo ] 1
|  7>     print[ P_SCFIterInfo ] 1
|  8>     print[ P_OrbEn ] 0
|  9>     print[ P_Cartesian ] 0
| 10> end
| 11> *xyz 0 1
| 12>  C        0.9170770000    -0.2989090000    -0.0504280000
| 13>  C        2.3948020000    -0.2000050000     0.1063150000
| 14>  C        3.0779500000     0.5328220000     0.9842600000
| 15>  C        2.4921130000     1.4377410000     2.0184310000
| 16>  C        4.5886330000     0.4619820000     0.9834450000
| 17>  C        5.2155570000     1.7543170000     0.7298250000
| 18>  N        5.6976690000     2.7792530000     0.5324260000
| 19>  H        0.6175010000     0.0113180000    -1.0564450000
| 20>  H        0.3678330000     0.3113980000     0.6654440000
| 21>  H        0.5861350000    -1.3356230000     0.0668320000
| 22>  H        2.9713510000    -0.8054550000    -0.5911020000
| 23>  H        1.4045520000     1.4585260000     1.9901380000
| 24>  H        2.8547940000     2.4616960000     1.8838610000
| 25>  H        2.7988990000     1.1257390000     3.0227520000
| 26>  H        4.9418190000    -0.2448850000     0.2289890000
| 27>  H        4.9538030000     0.1078840000     1.9553750000
| 28> *
| 29>
| 30>                          ****END OF INPUT****
 Total Charge           Charge          ....    0
 Multiplicity           Mult            ....    1
 Number of Electrons    NEL             ....   52
 Basis Dimension        Dim             ....  143

MULLIKEN ATOMIC CHARGES
-----------------------
   0 C :    0.052540
   1 C :   -0.118507
   2 C :   -0.173121
   3 C :    0.065264
   4 C :    0.137883
   5 C :   -0.282809
   6 N :    0.038074
   7 H :    0.036462
   8 H :    0.019974
   9 H :    0.033307
  10 H :   -0.009418
  11 H :    0.021661
  12 H :    0.050788
  13 H :    0.026165
  14 H :    0.047038
  15 H :    0.054701
Sum of atomic charges:    0.0000000

LOEWDIN ATOMIC CHARGES
----------------------
   0 C :   -0.063715
   1 C :   -0.044700
   2 C :   -0.042751
   3 C :   -0.058358
   4 C :   -0.046853
   5 C :   -0.043780
   6 N :   -0.070195
   7 H :    0.041293
   8 H :    0.029850
   9 H :    0.039703
  10 H :    0.024025
  11 H :    0.032032
  12 H :    0.045097
  13 H :    0.038336
  14 H :    0.059214
  15 H :    0.060803

  Mayer bond orders larger than 0.1
B(  0-C ,  1-C ) :   1.1020 B(  0-C ,  7-H ) :   0.9415 B(  0-C ,  8-H ) :   0.9555
B(  0-C ,  9-H ) :   0.9424 B(  1-C ,  2-C ) :   1.8988 B(  1-C , 10-H ) :   0.9361
B(  2-C ,  3-C ) :   1.0976 B(  2-C ,  4-C ) :   1.0493 B(  3-C , 11-H ) :   0.9454
B(  3-C , 12-H ) :   0.9327 B(  3-C , 13-H ) :   0.9371 B(  4-C ,  5-C ) :   1.0842
B(  4-C , 14-H ) :   0.8851 B(  4-C , 15-H ) :   0.8892 B(  5-C ,  6-N ) :   3.0494

FINAL SINGLE POINT ENERGY      -288.178440159070

DIPOLE MOMENT
-------------
                                X             Y             Z
Electronic contribution:      7.85885       3.52913      -0.91637
Nuclear contribution   :     -8.74294      -4.75238       1.18105
                        -----------------------------------------
Total Dipole Moment    :     -0.88410      -1.22325       0.26468
                        -----------------------------------------
Magnitude (a.u.)       :      1.53233
Magnitude (Debye)      :      3.89487

                             ****ORCA TERMINATED NORMALLY****
TOTAL RUN TIME: 0 days 0 hours 0 minutes 6 seconds 265 msec
