                         Program Version 3.0.3 - RELEASE   -
|  1> ! RI PBE def2-SVP def2-SVP/J NBO PAL2
|  2> % maxcore 2000
|  3> % output
|  4>     # printlevel mini
|  5>     print[ P_Basis ] 0
|  6>     print[ P_SCFInfo ] 1
|  7>     print[ P_SCFIterInfo ] 1
|  8>     print[ P_OrbEn ] 0
|  9>     print[ P_Cartesian ] 0
| 10> end
| 11> *xyz 0 1
| 12>  C        0.9406890000    -0.0240890000    -0.0740720000
| 13>  C        2.4210650000     0.0772510000    -0.0116510000
| 14>  C        3.0831340000     1.0792870000     0.5963020000
| 15>  C        2.4213210000     2.1560900000     1.2487980000
| 16>  C        1.8555370000     3.0627770000     1.7980580000
| 17>  C        4.5145610000     1.0888200000     0.6031810000
| 18>  N        5.6659780000     1.0953300000     0.6080380000
| 19>  H        0.6247460000    -0.9148430000    -0.6145920000
| 20>  H        0.5111940000     0.8535600000    -0.5664900000
| 21>  H        0.5102820000    -0.0550860000     0.9314130000
| 22>  H        3.0184280000    -0.6974330000    -0.4808720000
| 23>  H        1.3610460000     3.8692950000     2.2866490000
| 24> *
| 25>
| 26>                          ****END OF INPUT****
 Total Charge           Charge          ....    0
 Multiplicity           Mult            ....    1
 Number of Electrons    NEL             ....   48
 Basis Dimension        Dim             ....  123

MULLIKEN ATOMIC CHARGES
-----------------------
   0 C :    0.059089
   1 C :   -0.053609
   2 C :   -0.159176
   3 C :    0.466818
   4 C :   -0.469579
   5 C :   -0.109826
   6 N :    0.076686
   7 H :    0.037858
   8 H :    0.059342
   9 H :    0.057611
  10 H :    0.018320
  11 H :    0.016466
Sum of atomic charges:    0.0000000

LOEWDIN ATOMIC CHARGES
----------------------
   0 C :   -0.062768
   1 C :    0.040266
   2 C :   -0.097891
   3 C :   -0.005558
   4 C :   -0.032588
   5 C :   -0.024997
   6 N :   -0.048816
   7 H :    0.039568
   8 H :    0.054296
   9 H :    0.053939
  10 H :    0.041964
  11 H :    0.042585

  Mayer bond orders larger than 0.1
B(  0-C ,  1-C ) :   1.0992 B(  0-C ,  7-H ) :   0.9522 B(  0-C ,  8-H ) :   0.9339
B(  0-C ,  9-H ) :   0.9343 B(  1-C ,  2-C ) :   1.7712 B(  1-C ,  4-C ) :   0.1143
B(  1-C ,  6-N ) :   0.1007 B(  1-C , 10-H ) :   0.9435 B(  2-C ,  3-C ) :   0.9756
B(  2-C ,  5-C ) :   1.1066 B(  3-C ,  4-C ) :   2.2156 B(  3-C , 11-H ) :  -0.1070
B(  4-C , 11-H ) :   1.0964 B(  5-C ,  6-N ) :   3.0105

FINAL SINGLE POINT ENERGY      -285.712911010788

DIPOLE MOMENT
-------------
                                X             Y             Z
Electronic contribution:      6.42995       2.48269       1.50938
Nuclear contribution   :     -8.15231      -2.68315      -1.63244
                        -----------------------------------------
Total Dipole Moment    :     -1.72236      -0.20046      -0.12307
                        -----------------------------------------
Magnitude (a.u.)       :      1.73835
Magnitude (Debye)      :      4.41853

                             ****ORCA TERMINATED NORMALLY****
TOTAL RUN TIME: 0 days 0 hours 0 minutes 5 seconds 618 msec
