                         Program Version 3.0.3 - RELEASE   -
|  1> ! RI PBE def2-SVP def2-SVP/J NBO PAL2
|  2> % maxcore 2000
|  3> % output
|  4>     # printlevel mini
|  5>     print[ P_Basis ] 0
|  6>     print[ P_SCFInfo ] 1
|  7>     print[ P_SCFIterInfo ] 1
|  8>     print[ P_OrbEn ] 0
|  9>     print[ P_Cartesian ] 0
| 10> end
| 11> *xyz 0 1
| 12>  C        0.5806170000     1.4033590000     1.3120820000
| 13>  C        1.9484950000     0.8780820000     1.0560500000
| 14>  C        3.0824560000     1.4629370000     1.4493320000
| 15>  C        4.4041300000     0.9358810000     1.1878080000
| 16>  C        5.5414230000     1.5124930000     1.5835560000
| 17>  C        6.9029070000     0.9661010000     1.3227310000
| 18>  N        7.7364840000     1.9691740000     0.6720510000
| 19>  H       -0.0196260000     0.6847510000     1.8802830000
| 20>  H        0.0434250000     1.5822340000     0.3745100000
| 21>  H        0.6097940000     2.3402250000     1.8716980000
| 22>  H        2.0153310000    -0.0582920000     0.5034270000
| 23>  H        3.0309730000     2.3987950000     2.0042270000
| 24>  H        4.4537670000     0.0003460000     0.6311990000
| 25>  H        5.5080320000     2.4554170000     2.1263400000
| 26>  H        6.8115690000     0.0201140000     0.7667100000
| 27>  H        7.3797200000     0.7227320000     2.2806460000
| 28>  H        7.3741540000     2.1786060000    -0.2500800000
| 29>  H        8.6830400000     1.6298450000     0.5567320000
| 30> *
| 31>
| 32>                          ****END OF INPUT****
 Total Charge           Charge          ....    0
 Multiplicity           Mult            ....    1
 Number of Electrons    NEL             ....   54
 Basis Dimension        Dim             ....  153

MULLIKEN ATOMIC CHARGES
-----------------------
   0 C :    0.037580
   1 C :   -0.113505
   2 C :    0.024248
   3 C :    0.021102
   4 C :   -0.103013
   5 C :    0.151405
   6 N :   -0.226781
   7 H :    0.038477
   8 H :    0.035797
   9 H :    0.018152
  10 H :   -0.006993
  11 H :   -0.023214
  12 H :   -0.025724
  13 H :   -0.005394
  14 H :   -0.015704
  15 H :    0.015558
  16 H :    0.089177
  17 H :    0.088832
Sum of atomic charges:   -0.0000000

LOEWDIN ATOMIC CHARGES
----------------------
   0 C :   -0.067235
   1 C :   -0.035268
   2 C :   -0.045050
   3 C :   -0.042532
   4 C :   -0.039589
   5 C :    0.004965
   6 N :   -0.112116
   7 H :    0.038438
   8 H :    0.038285
   9 H :    0.031279
  10 H :    0.021933
  11 H :    0.024879
  12 H :    0.022657
  13 H :    0.024270
  14 H :    0.001951
  15 H :    0.030822
  16 H :    0.050851
  17 H :    0.051459

  Mayer bond orders larger than 0.1
B(  0-C ,  1-C ) :   1.0918 B(  0-C ,  7-H ) :   0.9440 B(  0-C ,  8-H ) :   0.9426
B(  0-C ,  9-H ) :   0.9565 B(  1-C ,  2-C ) :   1.7925 B(  1-C ,  4-C ) :   0.1299
B(  1-C , 10-H ) :   0.9550 B(  2-C ,  3-C ) :   1.1382 B(  2-C , 11-H ) :   0.9600
B(  3-C ,  4-C ) :   1.7604 B(  3-C , 12-H ) :   0.9575 B(  4-C ,  5-C ) :   1.0634
B(  4-C , 13-H ) :   0.9618 B(  5-C ,  6-N ) :   1.0667 B(  5-C , 14-H ) :   0.9203
B(  5-C , 15-H ) :   0.9079 B(  6-N , 16-H ) :   0.9724 B(  6-N , 17-H ) :   0.9636

FINAL SINGLE POINT ENERGY      -289.366350101024

DIPOLE MOMENT
-------------
                                X             Y             Z
Electronic contribution:      1.99352       0.11600       0.17689
Nuclear contribution   :     -2.00485      -0.46094      -0.50284
                        -----------------------------------------
Total Dipole Moment    :     -0.01132      -0.34493      -0.32595
                        -----------------------------------------
Magnitude (a.u.)       :      0.47471
Magnitude (Debye)      :      1.20662

                             ****ORCA TERMINATED NORMALLY****
TOTAL RUN TIME: 0 days 0 hours 0 minutes 7 seconds 729 msec
