                         Program Version 3.0.3 - RELEASE   -
|  1> ! RI PBE def2-SVP def2-SVP/J NBO PAL2
|  2> % maxcore 2000
|  3> % output
|  4>     # printlevel mini
|  5>     print[ P_Basis ] 0
|  6>     print[ P_SCFInfo ] 1
|  7>     print[ P_SCFIterInfo ] 1
|  8>     print[ P_OrbEn ] 0
|  9>     print[ P_Cartesian ] 0
| 10> end
| 11> *xyz 0 1
| 12>  C        0.8638970000     0.0507670000     0.1430820000
| 13>  C        2.3459850000     0.0910710000     0.2028790000
| 14>  C        3.1355160000    -0.9516600000     0.4823940000
| 15>  C        4.5701460000    -0.8588070000     0.5279630000
| 16>  C        5.3814640000    -1.8922040000     0.8064190000
| 17>  C        6.7918660000    -1.7677640000     0.8435190000
| 18>  N        7.9421180000    -1.6866570000     0.8785240000
| 19>  H        0.5061890000     0.3582750000    -0.8449970000
| 20>  H        0.4267430000     0.7528610000     0.8605960000
| 21>  H        0.4763160000    -0.9466200000     0.3558370000
| 22>  H        2.8166820000     1.0521490000     0.0012960000
| 23>  H        2.6905160000    -1.9233180000     0.6875810000
| 24>  H        5.0121240000     0.1127310000     0.3225910000
| 25>  H        4.9793370000    -2.8782140000     1.0170150000
| 26> *
| 27>
| 28>                          ****END OF INPUT****
 Total Charge           Charge          ....    0
 Multiplicity           Mult            ....    1
 Number of Electrons    NEL             ....   50
 Basis Dimension        Dim             ....  133

MULLIKEN ATOMIC CHARGES
-----------------------
   0 C :    0.047908
   1 C :   -0.100006
   2 C :    0.021651
   3 C :    0.034672
   4 C :   -0.125892
   5 C :   -0.096269
   6 N :    0.037757
   7 H :    0.044197
   8 H :    0.047108
   9 H :    0.026478
  10 H :    0.010810
  11 H :   -0.005052
  12 H :    0.017288
  13 H :    0.039350
Sum of atomic charges:   -0.0000000

LOEWDIN ATOMIC CHARGES
----------------------
   0 C :   -0.060728
   1 C :   -0.000863
   2 C :   -0.047289
   3 C :    0.019505
   4 C :   -0.078201
   5 C :   -0.045731
   6 N :   -0.062293
   7 H :    0.045251
   8 H :    0.045974
   9 H :    0.034479
  10 H :    0.029361
  11 H :    0.030688
  12 H :    0.040977
  13 H :    0.048869

  Mayer bond orders larger than 0.1
B(  0-C ,  1-C ) :   1.0889 B(  0-C ,  7-H ) :   0.9398 B(  0-C ,  8-H ) :   0.9396
B(  0-C ,  9-H ) :   0.9611 B(  1-C ,  2-C ) :   1.7563 B(  1-C ,  4-C ) :   0.1227
B(  1-C , 10-H ) :   0.9561 B(  2-C ,  3-C ) :   1.1569 B(  2-C , 11-H ) :   0.9663
B(  3-C ,  4-C ) :   1.7029 B(  3-C , 12-H ) :   0.9694 B(  4-C ,  5-C ) :   1.1164
B(  4-C , 13-H ) :   0.9511 B(  5-C ,  6-N ) :   2.9519

FINAL SINGLE POINT ENERGY      -286.970628375461

DIPOLE MOMENT
-------------
                                X             Y             Z
Electronic contribution:     10.63935      -2.84938       1.16327
Nuclear contribution   :    -12.72022       3.16466      -1.33122
                        -----------------------------------------
Total Dipole Moment    :     -2.08087       0.31528      -0.16796
                        -----------------------------------------
Magnitude (a.u.)       :      2.11131
Magnitude (Debye)      :      5.36653

                             ****ORCA TERMINATED NORMALLY****
TOTAL RUN TIME: 0 days 0 hours 0 minutes 5 seconds 492 msec
