                         Program Version 3.0.3 - RELEASE   -
|  1> ! RI PBE def2-SVP def2-SVP/J NBO PAL2
|  2> % maxcore 2000
|  3> % output
|  4>     # printlevel mini
|  5>     print[ P_Basis ] 0
|  6>     print[ P_SCFInfo ] 1
|  7>     print[ P_SCFIterInfo ] 1
|  8>     print[ P_OrbEn ] 0
|  9>     print[ P_Cartesian ] 0
| 10> end
| 11> *xyz 0 1
| 12>  C        1.1988980000     2.0531200000    -1.6230470000
| 13>  C        2.6774580000     1.8969570000    -1.5459860000
| 14>  C        3.3056050000     1.0369790000    -0.7415190000
| 15>  C        4.7464350000     0.8328630000    -0.6394790000
| 16>  C        5.2341100000    -0.1007110000     0.1821440000
| 17>  C        5.6447680000     1.6948640000    -1.4839720000
| 18>  N        7.0550570000     1.4884860000    -1.2125660000
| 19>  H        0.8322730000     1.8545960000    -2.6357990000
| 20>  H        0.8953810000     3.0767590000    -1.3788560000
| 21>  H        0.6884000000     1.3739200000    -0.9374780000
| 22>  H        3.2595150000     2.5383070000    -2.2039180000
| 23>  H        2.7022580000     0.4013050000    -0.0950540000
| 24>  H        4.5687650000    -0.7089420000     0.7848060000
| 25>  H        6.2973950000    -0.2908470000     0.2482180000
| 26>  H        5.3233370000     2.7410820000    -1.3582340000
| 27>  H        5.4626170000     1.4511740000    -2.5374250000
| 28>  H        7.2911620000     1.8391650000    -0.2920630000
| 29>  H        7.6177850000     1.9995230000    -1.8794830000
| 30> *
| 31>
| 32>                          ****END OF INPUT****
 Total Charge           Charge          ....    0
 Multiplicity           Mult            ....    1
 Number of Electrons    NEL             ....   54
 Basis Dimension        Dim             ....  153

MULLIKEN ATOMIC CHARGES
-----------------------
   0 C :    0.052281
   1 C :   -0.124687
   2 C :    0.021269
   3 C :   -0.122474
   4 C :   -0.043673
   5 C :    0.128013
   6 N :   -0.194902
   7 H :    0.030399
   8 H :    0.030166
   9 H :    0.020176
  10 H :   -0.001471
  11 H :   -0.032735
  12 H :    0.007543
  13 H :    0.014315
  14 H :    0.007917
  15 H :    0.022571
  16 H :    0.093435
  17 H :    0.091857
Sum of atomic charges:   -0.0000000

LOEWDIN ATOMIC CHARGES
----------------------
   0 C :   -0.062788
   1 C :   -0.042391
   2 C :   -0.040618
   3 C :   -0.043475
   4 C :   -0.059443
   5 C :    0.008582
   6 N :   -0.098822
   7 H :    0.036690
   8 H :    0.036415
   9 H :    0.030901
  10 H :    0.019720
  11 H :    0.024901
  12 H :    0.019597
  13 H :    0.019251
  14 H :    0.009515
  15 H :    0.033574
  16 H :    0.052962
  17 H :    0.055428

  Mayer bond orders larger than 0.1
B(  0-C ,  1-C ) :   1.0864 B(  0-C ,  7-H ) :   0.9445 B(  0-C ,  8-H ) :   0.9445
B(  0-C ,  9-H ) :   0.9609 B(  1-C ,  2-C ) :   1.8074 B(  1-C ,  4-C ) :   0.1302
B(  1-C , 10-H ) :   0.9375 B(  2-C ,  3-C ) :   1.1200 B(  2-C , 11-H ) :   0.9542
B(  3-C ,  4-C ) :   1.8925 B(  3-C ,  5-C ) :   1.0292 B(  4-C , 12-H ) :   0.9334
B(  4-C , 13-H ) :   0.9152 B(  5-C ,  6-N ) :   1.1262 B(  5-C , 14-H ) :   0.9042
B(  5-C , 15-H ) :   0.8994 B(  6-N , 16-H ) :   0.9632 B(  6-N , 17-H ) :   0.9616

FINAL SINGLE POINT ENERGY      -289.363922059158

DIPOLE MOMENT
-------------
                                X             Y             Z
Electronic contribution:      2.20485      -1.20940       0.79212
Nuclear contribution   :     -2.22807       1.85528      -0.94199
                        -----------------------------------------
Total Dipole Moment    :     -0.02323       0.64588      -0.14987
                        -----------------------------------------
Magnitude (a.u.)       :      0.66344
Magnitude (Debye)      :      1.68634

                             ****ORCA TERMINATED NORMALLY****
TOTAL RUN TIME: 0 days 0 hours 0 minutes 8 seconds 181 msec
