                         Program Version 3.0.3 - RELEASE   -
|  1> ! RI PBE def2-SVP def2-SVP/J NBO PAL2
|  2> % maxcore 2000
|  3> % output
|  4>     # printlevel mini
|  5>     print[ P_Basis ] 0
|  6>     print[ P_SCFInfo ] 1
|  7>     print[ P_SCFIterInfo ] 1
|  8>     print[ P_OrbEn ] 0
|  9>     print[ P_Cartesian ] 0
| 10> end
| 11> *xyz 0 1
| 12>  C        0.7813090000    -0.1839330000    -0.1652500000
| 13>  C        2.2521220000    -0.3893820000    -0.1438620000
| 14>  C        3.0952990000     0.0608680000    -1.0730050000
| 15>  C        4.5392700000    -0.1387130000    -1.0549980000
| 16>  C        5.3642650000     0.3253670000    -2.0027360000
| 17>  C        5.0937130000    -0.8746240000     0.0445240000
| 18>  N        5.5182900000    -1.4676550000     0.9354060000
| 19>  H        0.4512620000     0.3488120000     0.7322890000
| 20>  H        0.2556520000    -1.1441150000    -0.1650930000
| 21>  H        0.4619860000     0.3841520000    -1.0405830000
| 22>  H        2.6560280000    -0.9497270000     0.6973950000
| 23>  H        2.7180490000     0.6232540000    -1.9236220000
| 24>  H        4.9714620000     0.8841990000    -2.8438260000
| 25>  H        6.4318730000     0.1581860000    -1.9568390000
| 26> *
| 27>
| 28>                          ****END OF INPUT****
 Total Charge           Charge          ....    0
 Multiplicity           Mult            ....    1
 Number of Electrons    NEL             ....   50
 Basis Dimension        Dim             ....  133

MULLIKEN ATOMIC CHARGES
-----------------------
   0 C :    0.043578
   1 C :   -0.085030
   2 C :    0.039482
   3 C :   -0.109366
   4 C :    0.006726
   5 C :   -0.145568
   6 N :    0.054784
   7 H :    0.044553
   8 H :    0.044268
   9 H :    0.027824
  10 H :    0.028011
  11 H :   -0.024897
  12 H :    0.030257
  13 H :    0.045376
Sum of atomic charges:   -0.0000000

LOEWDIN ATOMIC CHARGES
----------------------
   0 C :   -0.060974
   1 C :   -0.006307
   2 C :   -0.040260
   3 C :   -0.065799
   4 C :   -0.005043
   5 C :   -0.026412
   6 N :   -0.053812
   7 H :    0.044795
   8 H :    0.044900
   9 H :    0.033348
  10 H :    0.034967
  11 H :    0.031387
  12 H :    0.031431
  13 H :    0.037780

  Mayer bond orders larger than 0.1
B(  0-C ,  1-C ) :   1.0910 B(  0-C ,  7-H ) :   0.9406 B(  0-C ,  8-H ) :   0.9395
B(  0-C ,  9-H ) :   0.9627 B(  1-C ,  2-C ) :   1.7925 B(  1-C ,  4-C ) :   0.1308
B(  1-C , 10-H ) :   0.9329 B(  2-C ,  3-C ) :   1.1227 B(  2-C , 11-H ) :   0.9599
B(  3-C ,  4-C ) :   1.8515 B(  3-C ,  5-C ) :   1.0590 B(  4-C , 12-H ) :   0.9316
B(  4-C , 13-H ) :   0.9386 B(  5-C ,  6-N ) :   2.9861

FINAL SINGLE POINT ENERGY      -286.964203565685

DIPOLE MOMENT
-------------
                                X             Y             Z
Electronic contribution:      6.89146      -2.07137       1.92736
Nuclear contribution   :     -7.77317       2.72462      -2.82962
                        -----------------------------------------
Total Dipole Moment    :     -0.88172       0.65325      -0.90226
                        -----------------------------------------
Magnitude (a.u.)       :      1.42065
Magnitude (Debye)      :      3.61100

                             ****ORCA TERMINATED NORMALLY****
TOTAL RUN TIME: 0 days 0 hours 0 minutes 6 seconds 251 msec
