                         Program Version 3.0.3 - RELEASE   -
|  1> ! RI PBE def2-SVP def2-SVP/J NBO PAL2
|  2> % maxcore 2000
|  3> % output
|  4>     # printlevel mini
|  5>     print[ P_Basis ] 0
|  6>     print[ P_SCFInfo ] 1
|  7>     print[ P_SCFIterInfo ] 1
|  8>     print[ P_OrbEn ] 0
|  9>     print[ P_Cartesian ] 0
| 10> end
| 11> *xyz 0 1
| 12>  C        0.7896130000    -0.7240180000     1.0245320000
| 13>  C        2.2579280000    -0.8596850000     0.8054670000
| 14>  C        3.1992330000    -0.2575110000     1.5221200000
| 15>  C        4.6741950000    -0.3858920000     1.3072760000
| 16>  C        5.3060880000     0.9682160000     0.9995600000
| 17>  C        5.3302100000    -1.0410000000     2.5259020000
| 18>  N        6.7474320000    -1.2813970000     2.3004790000
| 19>  H        0.2916790000    -0.3238570000     0.1353340000
| 20>  H        0.5711050000    -0.0604660000     1.8636530000
| 21>  H        0.3285610000    -1.6956630000     1.2296880000
| 22>  H        2.5662820000    -1.5068170000    -0.0156310000
| 23>  H        2.8956210000     0.3962750000     2.3420560000
| 24>  H        4.8344180000    -1.0520760000     0.4484870000
| 25>  H        5.0955040000     1.6798150000     1.8044610000
| 26>  H        4.9059300000     1.3850350000     0.0729560000
| 27>  H        6.3892160000     0.8733570000     0.9113150000
| 28>  H        4.7624170000    -1.9492160000     2.7782540000
| 29>  H        5.2350800000    -0.3622780000     3.3813360000
| 30>  H        6.8741250000    -2.0163410000     1.6147780000
| 31>  H        7.1975630000    -1.5930710000     3.1511790000
| 32> *
| 33>
| 34>                          ****END OF INPUT****
 Total Charge           Charge          ....    0
 Multiplicity           Mult            ....    1
 Number of Electrons    NEL             ....   56
 Basis Dimension        Dim             ....  163

MULLIKEN ATOMIC CHARGES
-----------------------
   0 C :    0.039616
   1 C :   -0.111620
   2 C :   -0.018131
   3 C :   -0.086123
   4 C :    0.031310
   5 C :    0.082339
   6 N :   -0.197263
   7 H :    0.031549
   8 H :    0.019263
   9 H :    0.029730
  10 H :   -0.010624
  11 H :   -0.018511
  12 H :   -0.008992
  13 H :    0.007476
  14 H :    0.012555
  15 H :    0.025624
  16 H :   -0.004725
  17 H :   -0.001224
  18 H :    0.087713
  19 H :    0.090037
Sum of atomic charges:    0.0000000

LOEWDIN ATOMIC CHARGES
----------------------
   0 C :   -0.066383
   1 C :   -0.050286
   2 C :   -0.035351
   3 C :   -0.051530
   4 C :   -0.057172
   5 C :    0.011541
   6 N :   -0.107313
   7 H :    0.035539
   8 H :    0.030210
   9 H :    0.035044
  10 H :    0.019817
  11 H :    0.018785
  12 H :    0.023369
  13 H :    0.022511
  14 H :    0.023403
  15 H :    0.025117
  16 H :    0.000249
  17 H :    0.018062
  18 H :    0.050611
  19 H :    0.053775

  Mayer bond orders larger than 0.1
B(  0-C ,  1-C ) :   1.0837 B(  0-C ,  7-H ) :   0.9473 B(  0-C ,  8-H ) :   0.9603
B(  0-C ,  9-H ) :   0.9471 B(  1-C ,  2-C ) :   1.9197 B(  1-C , 10-H ) :   0.9540
B(  2-C ,  3-C ) :   1.0196 B(  2-C , 11-H ) :   0.9469 B(  3-C ,  4-C ) :   1.0584
B(  3-C ,  5-C ) :   1.0351 B(  3-C , 12-H ) :   0.9092 B(  4-C , 13-H ) :   0.9610
B(  4-C , 14-H ) :   0.9622 B(  4-C , 15-H ) :   0.9459 B(  5-C ,  6-N ) :   1.1029
B(  5-C , 16-H ) :   0.9356 B(  5-C , 17-H ) :   0.9290 B(  6-N , 18-H ) :   0.9691
B(  6-N , 19-H ) :   0.9632

FINAL SINGLE POINT ENERGY      -290.577043595540

DIPOLE MOMENT
-------------
                                X             Y             Z
Electronic contribution:      1.07382      -1.04131       0.15856
Nuclear contribution   :     -1.15256       0.53135       0.00688
                        -----------------------------------------
Total Dipole Moment    :     -0.07873      -0.50996       0.16544
                        -----------------------------------------
Magnitude (a.u.)       :      0.54187
Magnitude (Debye)      :      1.37733

                             ****ORCA TERMINATED NORMALLY****
TOTAL RUN TIME: 0 days 0 hours 0 minutes 8 seconds 468 msec
