                         Program Version 3.0.3 - RELEASE   -
|  1> ! RI PBE def2-SVP def2-SVP/J NBO PAL2
|  2> % maxcore 2000
|  3> % output
|  4>     # printlevel mini
|  5>     print[ P_Basis ] 0
|  6>     print[ P_SCFInfo ] 1
|  7>     print[ P_SCFIterInfo ] 1
|  8>     print[ P_OrbEn ] 0
|  9>     print[ P_Cartesian ] 0
| 10> end
| 11> *xyz 0 1
| 12>  C        0.9465520000     1.7642850000    -0.5197650000
| 13>  C        2.1466030000     0.9079250000    -0.7413990000
| 14>  C        3.3805030000     1.2261580000    -0.3724330000
| 15>  C        4.6169380000     0.3872500000    -0.5716910000
| 16>  C        5.0761150000    -0.1549290000     0.7824180000
| 17>  C        5.7199350000     1.2761770000    -1.1620270000
| 18>  N        4.3116760000    -0.7567500000    -1.4251630000
| 19>  H        0.2007670000     1.2447160000     0.0906900000
| 20>  H        0.4550810000     2.0103170000    -1.4667430000
| 21>  H        1.2049210000     2.6993770000    -0.0183000000
| 22>  H        1.9859840000    -0.0524710000    -1.2257470000
| 23>  H        3.5537520000     2.1768390000     0.1317350000
| 24>  H        6.0049860000    -0.7242180000     0.6724860000
| 25>  H        4.3120240000    -0.8105520000     1.2020760000
| 26>  H        5.2648710000     0.6588370000     1.4857160000
| 27>  H        5.9408740000     2.1290050000    -0.5136270000
| 28>  H        5.4184210000     1.6655500000    -2.1381030000
| 29>  H        6.6421610000     0.7018550000    -1.2901800000
| 30>  H        4.0871010000    -0.4390410000    -2.3618830000
| 31>  H        5.1288340000    -1.3510590000    -1.5029620000
| 32> *
| 33>
| 34>                          ****END OF INPUT****
 Total Charge           Charge          ....    0
 Multiplicity           Mult            ....    1
 Number of Electrons    NEL             ....   56
 Basis Dimension        Dim             ....  163

MULLIKEN ATOMIC CHARGES
-----------------------
   0 C :    0.043153
   1 C :   -0.100344
   2 C :   -0.001015
   3 C :   -0.213359
   4 C :    0.066256
   5 C :    0.065955
   6 N :   -0.130775
   7 H :    0.033629
   8 H :    0.027249
   9 H :    0.012478
  10 H :   -0.005642
  11 H :   -0.028868
  12 H :    0.007506
  13 H :    0.027914
  14 H :    0.010542
  15 H :    0.008171
  16 H :    0.008794
  17 H :    0.001030
  18 H :    0.086816
  19 H :    0.080509
Sum of atomic charges:   -0.0000000

LOEWDIN ATOMIC CHARGES
----------------------
   0 C :   -0.066253
   1 C :   -0.046429
   2 C :   -0.042873
   3 C :   -0.027271
   4 C :   -0.050133
   5 C :   -0.062807
   6 N :   -0.079719
   7 H :    0.036168
   8 H :    0.034287
   9 H :    0.027751
  10 H :    0.020567
  11 H :    0.018250
  12 H :    0.020306
  13 H :    0.029690
  14 H :    0.026514
  15 H :    0.022936
  16 H :    0.021511
  17 H :    0.018638
  18 H :    0.049421
  19 H :    0.049445

  Mayer bond orders larger than 0.1
B(  0-C ,  1-C ) :   1.0818 B(  0-C ,  7-H ) :   0.9461 B(  0-C ,  8-H ) :   0.9464
B(  0-C ,  9-H ) :   0.9582 B(  1-C ,  2-C ) :   1.9375 B(  1-C , 10-H ) :   0.9260
B(  2-C ,  3-C ) :   0.9728 B(  2-C , 11-H ) :   0.9509 B(  3-C ,  4-C ) :   1.0493
B(  3-C ,  5-C ) :   1.0373 B(  3-C ,  6-N ) :   1.0997 B(  4-C , 12-H ) :   0.9492
B(  4-C , 13-H ) :   0.9554 B(  4-C , 14-H ) :   0.9540 B(  5-C , 15-H ) :   0.9468
B(  5-C , 16-H ) :   0.9548 B(  5-C , 17-H ) :   0.9510 B(  6-N , 18-H ) :   0.9537
B(  6-N , 19-H ) :   0.9614

FINAL SINGLE POINT ENERGY      -290.581691719401

DIPOLE MOMENT
-------------
                                X             Y             Z
Electronic contribution:     -0.80819      -1.25981      -0.86003
Nuclear contribution   :      1.12188       1.37775       0.62179
                        -----------------------------------------
Total Dipole Moment    :      0.31369       0.11794      -0.23824
                        -----------------------------------------
Magnitude (a.u.)       :      0.41118
Magnitude (Debye)      :      1.04514

                             ****ORCA TERMINATED NORMALLY****
TOTAL RUN TIME: 0 days 0 hours 0 minutes 8 seconds 617 msec
