                         Program Version 3.0.3 - RELEASE   -
|  1> ! RI PBE def2-SVP def2-SVP/J NBO PAL2
|  2> % maxcore 2000
|  3> % output
|  4>     # printlevel mini
|  5>     print[ P_Basis ] 0
|  6>     print[ P_SCFInfo ] 1
|  7>     print[ P_SCFIterInfo ] 1
|  8>     print[ P_OrbEn ] 0
|  9>     print[ P_Cartesian ] 0
| 10> end
| 11> *xyz 0 1
| 12>  C        0.8050160000    -0.0810800000    -0.1514610000
| 13>  C        2.2907940000    -0.1446010000    -0.2195720000
| 14>  C        3.0704440000    -0.7106590000     0.6912820000
| 15>  C        4.5726460000    -0.7375620000     0.6141390000
| 16>  C        5.2244920000     0.0175050000     1.7781090000
| 17>  C        5.0529700000    -2.1199870000     0.5821560000
| 18>  N        5.4292850000    -3.2067170000     0.5746340000
| 19>  H        0.4556410000     0.9559300000    -0.1652800000
| 20>  H        0.4239930000    -0.5597610000     0.7521260000
| 21>  H        0.3542130000    -0.5753660000    -1.0175450000
| 22>  H        2.7563120000     0.3108840000    -1.0930580000
| 23>  H        2.6323900000    -1.1814250000     1.5692750000
| 24>  H        4.8818470000    -0.2754270000    -0.3297300000
| 25>  H        4.9257680000    -0.4174920000     2.7334800000
| 26>  H        4.9043020000     1.0599620000     1.7572010000
| 27>  H        6.3126870000    -0.0218140000     1.7097340000
| 28> *
| 29>
| 30>                          ****END OF INPUT****
 Total Charge           Charge          ....    0
 Multiplicity           Mult            ....    1
 Number of Electrons    NEL             ....   52
 Basis Dimension        Dim             ....  143

MULLIKEN ATOMIC CHARGES
-----------------------
   0 C :    0.040709
   1 C :   -0.098460
   2 C :   -0.009093
   3 C :   -0.071289
   4 C :    0.019506
   5 C :   -0.206762
   6 N :    0.049671
   7 H :    0.035691
   8 H :    0.026187
   9 H :    0.040998
  10 H :    0.002998
  11 H :    0.005624
  12 H :    0.040890
  13 H :    0.037219
  14 H :    0.037745
  15 H :    0.048367
Sum of atomic charges:    0.0000000

LOEWDIN ATOMIC CHARGES
----------------------
   0 C :   -0.061180
   1 C :   -0.031081
   2 C :   -0.032042
   3 C :   -0.060660
   4 C :   -0.038688
   5 C :   -0.035980
   6 N :   -0.070200
   7 H :    0.039384
   8 H :    0.033867
   9 H :    0.041634
  10 H :    0.025387
  11 H :    0.028483
  12 H :    0.055994
  13 H :    0.033996
  14 H :    0.034277
  15 H :    0.036809

  Mayer bond orders larger than 0.1
B(  0-C ,  1-C ) :   1.0897 B(  0-C ,  7-H ) :   0.9461 B(  0-C ,  8-H ) :   0.9626
B(  0-C ,  9-H ) :   0.9455 B(  1-C ,  2-C ) :   1.9240 B(  1-C , 10-H ) :   0.9503
B(  2-C ,  3-C ) :   1.0224 B(  2-C , 11-H ) :   0.9501 B(  3-C ,  4-C ) :   1.0845
B(  3-C ,  5-C ) :   1.0371 B(  3-C , 12-H ) :   0.8803 B(  4-C , 13-H ) :   0.9601
B(  4-C , 14-H ) :   0.9605 B(  4-C , 15-H ) :   0.9580 B(  5-C ,  6-N ) :   3.0769

FINAL SINGLE POINT ENERGY      -288.174457622373

DIPOLE MOMENT
-------------
                                X             Y             Z
Electronic contribution:      4.98810      -5.95147      -0.79893
Nuclear contribution   :     -5.67635       7.40105       0.79518
                        -----------------------------------------
Total Dipole Moment    :     -0.68825       1.44957      -0.00375
                        -----------------------------------------
Magnitude (a.u.)       :      1.60467
Magnitude (Debye)      :      4.07875

                             ****ORCA TERMINATED NORMALLY****
TOTAL RUN TIME: 0 days 0 hours 0 minutes 6 seconds 207 msec
