                         Program Version 3.0.3 - RELEASE   -
|  1> ! RI PBE def2-SVP def2-SVP/J NBO PAL2
|  2> % maxcore 2000
|  3> % output
|  4>     # printlevel mini
|  5>     print[ P_Basis ] 0
|  6>     print[ P_SCFInfo ] 1
|  7>     print[ P_SCFIterInfo ] 1
|  8>     print[ P_OrbEn ] 0
|  9>     print[ P_Cartesian ] 0
| 10> end
| 11> *xyz 0 1
| 12>  C        0.8813190000     0.0125130000     0.0191210000
| 13>  C        2.3633480000    -0.0345350000     0.1208670000
| 14>  C        3.1989690000     0.5030180000    -0.7718640000
| 15>  C        4.6120290000     0.4694250000    -0.6740870000
| 16>  C        5.8170940000     0.4725260000    -0.6261120000
| 17>  C        7.2696540000     0.4389140000    -0.5585410000
| 18>  N        7.8654270000     0.3911440000    -1.8895210000
| 19>  H        0.4439360000     0.5164530000     0.8873430000
| 20>  H        0.4570480000    -0.9968120000     0.0006390000
| 21>  H        0.5564050000     0.5376030000    -0.8809960000
| 22>  H        2.7851860000    -0.5403580000     0.9859520000
| 23>  H        2.7894740000     1.0133300000    -1.6420000000
| 24>  H        7.5599220000    -0.4006310000     0.0933710000
| 25>  H        7.6218020000     1.3501350000    -0.0614050000
| 26>  H        7.5238370000    -0.4202580000    -2.3897520000
| 27>  H        8.8708330000     0.2977920000    -1.8117360000
| 28> *
| 29>
| 30>                          ****END OF INPUT****
 Total Charge           Charge          ....    0
 Multiplicity           Mult            ....    1
 Number of Electrons    NEL             ....   52
 Basis Dimension        Dim             ....  143

MULLIKEN ATOMIC CHARGES
-----------------------
   0 C :    0.033878
   1 C :   -0.087942
   2 C :   -0.072264
   3 C :   -0.048007
   4 C :   -0.119012
   5 C :    0.157994
   6 N :   -0.218062
   7 H :    0.039074
   8 H :    0.036986
   9 H :    0.023509
  10 H :    0.006449
  11 H :    0.016626
  12 H :    0.020234
  13 H :    0.027247
  14 H :    0.093099
  15 H :    0.090191
Sum of atomic charges:    0.0000000

LOEWDIN ATOMIC CHARGES
----------------------
   0 C :   -0.063761
   1 C :   -0.013184
   2 C :   -0.063364
   3 C :   -0.051436
   4 C :   -0.052031
   5 C :    0.000591
   6 N :   -0.107635
   7 H :    0.040134
   8 H :    0.039571
   9 H :    0.032300
  10 H :    0.028368
  11 H :    0.038795
  12 H :    0.022366
  13 H :    0.042924
  14 H :    0.053148
  15 H :    0.053215

  Mayer bond orders larger than 0.1
B(  0-C ,  1-C ) :   1.0875 B(  0-C ,  7-H ) :   0.9450 B(  0-C ,  8-H ) :   0.9447
B(  0-C ,  9-H ) :   0.9594 B(  1-C ,  2-C ) :   1.8263 B(  1-C ,  4-C ) :   0.1220
B(  1-C , 10-H ) :   0.9597 B(  2-C ,  3-C ) :   1.0527 B(  2-C , 11-H ) :   0.9375
B(  3-C ,  4-C ) :   2.4711 B(  4-C ,  5-C ) :   1.0738 B(  5-C ,  6-N ) :   1.0742
B(  5-C , 12-H ) :   0.9039 B(  5-C , 13-H ) :   0.8869 B(  6-N , 14-H ) :   0.9671
B(  6-N , 15-H ) :   0.9633

FINAL SINGLE POINT ENERGY      -288.122222684490

DIPOLE MOMENT
-------------
                                X             Y             Z
Electronic contribution:      2.78732       0.83553      -0.64724
Nuclear contribution   :     -2.72495      -1.31839       0.90703
                        -----------------------------------------
Total Dipole Moment    :      0.06237      -0.48286       0.25978
                        -----------------------------------------
Magnitude (a.u.)       :      0.55184
Magnitude (Debye)      :      1.40267

                             ****ORCA TERMINATED NORMALLY****
TOTAL RUN TIME: 0 days 0 hours 0 minutes 6 seconds 760 msec
