                         Program Version 3.0.3 - RELEASE   -
|  1> ! RI PBE def2-SVP def2-SVP/J NBO PAL2
|  2> % maxcore 2000
|  3> % output
|  4>     # printlevel mini
|  5>     print[ P_Basis ] 0
|  6>     print[ P_SCFInfo ] 1
|  7>     print[ P_SCFIterInfo ] 1
|  8>     print[ P_OrbEn ] 0
|  9>     print[ P_Cartesian ] 0
| 10> end
| 11> *xyz 0 1
| 12>  C        0.9114290000    -0.0261930000     0.0652250000
| 13>  C        2.4030190000    -0.0495090000     0.0761680000
| 14>  C        3.1349650000    -1.0020370000     0.6662370000
| 15>  C        4.5429550000    -1.0072950000     0.6662400000
| 16>  C        5.7525420000    -1.0385130000     0.6829340000
| 17>  C        7.1158760000    -1.0633770000     0.6951760000
| 18>  N        8.2721360000    -1.0837010000     0.7066210000
| 19>  H        0.5295840000     0.8406380000    -0.4725440000
| 20>  H        0.5100150000     0.0056580000     1.0819950000
| 21>  H        0.5064610000    -0.9228820000    -0.4121800000
| 22>  H        2.9280970000     0.7575880000    -0.4264810000
| 23>  H        2.6501420000    -1.8290570000     1.1812090000
| 24> *
| 25>
| 26>                          ****END OF INPUT****
 Total Charge           Charge          ....    0
 Multiplicity           Mult            ....    1
 Number of Electrons    NEL             ....   48
 Basis Dimension        Dim             ....  123

MULLIKEN ATOMIC CHARGES
-----------------------
   0 C :    0.017327
   1 C :   -0.076500
   2 C :   -0.085549
   3 C :   -0.071303
   4 C :    0.061478
   5 C :   -0.153365
   6 N :    0.088829
   7 H :    0.039290
   8 H :    0.054393
   9 H :    0.055757
  10 H :    0.034000
  11 H :    0.035643
Sum of atomic charges:   -0.0000000

LOEWDIN ATOMIC CHARGES
----------------------
   0 C :   -0.066468
   1 C :    0.020786
   2 C :   -0.060493
   3 C :    0.041289
   4 C :   -0.079537
   5 C :   -0.050359
   6 N :   -0.030922
   7 H :    0.039491
   8 H :    0.049644
   9 H :    0.049905
  10 H :    0.037426
  11 H :    0.049238

  Mayer bond orders larger than 0.1
B(  0-C ,  1-C ) :   1.0720 B(  0-C ,  7-H ) :   0.9594 B(  0-C ,  8-H ) :   0.9515
B(  0-C ,  9-H ) :   0.9515 B(  1-C ,  2-C ) :   1.7916 B(  1-C ,  4-C ) :   0.1153
B(  1-C , 10-H ) :   0.9587 B(  2-C ,  3-C ) :   1.0896 B(  2-C , 11-H ) :   0.9440
B(  3-C ,  4-C ) :   2.1610 B(  3-C ,  6-N ) :   0.1791 B(  4-C ,  5-C ) :   1.0174
B(  4-C ,  6-N ) :   0.1045 B(  5-C ,  6-N ) :   2.8531

FINAL SINGLE POINT ENERGY      -285.726221231450

DIPOLE MOMENT
-------------
                                X             Y             Z
Electronic contribution:     12.09956      -2.13866       1.30094
Nuclear contribution   :    -14.38541       2.35116      -1.42827
                        -----------------------------------------
Total Dipole Moment    :     -2.28585       0.21250      -0.12733
                        -----------------------------------------
Magnitude (a.u.)       :      2.29923
Magnitude (Debye)      :      5.84418

                             ****ORCA TERMINATED NORMALLY****
TOTAL RUN TIME: 0 days 0 hours 0 minutes 5 seconds 197 msec
