                         Program Version 3.0.3 - RELEASE   -
|  1> ! RI PBE def2-SVP def2-SVP/J NBO PAL2
|  2> % maxcore 2000
|  3> % output
|  4>     # printlevel mini
|  5>     print[ P_Basis ] 0
|  6>     print[ P_SCFInfo ] 1
|  7>     print[ P_SCFIterInfo ] 1
|  8>     print[ P_OrbEn ] 0
|  9>     print[ P_Cartesian ] 0
| 10> end
| 11> *xyz 0 1
| 12>  C        0.6820440000     0.6855270000     0.2447160000
| 13>  C        2.1579520000     0.8650720000     0.3492470000
| 14>  C        2.9641070000     1.1817120000    -0.6572250000
| 15>  C        4.4438630000     1.3447840000    -0.5660740000
| 16>  C        4.9488670000     2.7190380000    -1.0085060000
| 17>  C        4.4348230000     3.8322180000    -0.1050100000
| 18>  N        6.4031530000     2.6616250000    -1.1111150000
| 19>  H        0.3847100000    -0.3262050000     0.5393560000
| 20>  H        0.3302070000     0.8589720000    -0.7742860000
| 21>  H        0.1504360000     1.3728290000     0.9108850000
| 22>  H        2.5949920000     0.7147120000     1.3361930000
| 23>  H        2.5270180000     1.3312740000    -1.6455740000
| 24>  H        4.9397880000     0.6032920000    -1.2026780000
| 25>  H        4.7747340000     1.1532880000     0.4625370000
| 26>  H        4.5725060000     2.8965610000    -2.0242580000
| 27>  H        4.7951100000     3.6887760000     0.9194000000
| 28>  H        3.3426200000     3.8550900000    -0.0741250000
| 29>  H        4.7867080000     4.8076270000    -0.4518270000
| 30>  H        6.8033830000     2.4795750000    -0.1962260000
| 31>  H        6.7687790000     3.5590120000    -1.4081100000
| 32> *
| 33>
| 34>                          ****END OF INPUT****
 Total Charge           Charge          ....    0
 Multiplicity           Mult            ....    1
 Number of Electrons    NEL             ....   56
 Basis Dimension        Dim             ....  163

MULLIKEN ATOMIC CHARGES
-----------------------
   0 C :    0.044859
   1 C :   -0.100314
   2 C :   -0.070553
   3 C :    0.114193
   4 C :   -0.100042
   5 C :    0.034370
   6 N :   -0.167889
   7 H :    0.028689
   8 H :    0.015260
   9 H :    0.030916
  10 H :   -0.011025
  11 H :   -0.013475
  12 H :    0.020878
  13 H :   -0.013942
  14 H :    0.001365
  15 H :   -0.000563
  16 H :    0.020565
  17 H :    0.006519
  18 H :    0.079514
  19 H :    0.080674
Sum of atomic charges:   -0.0000000

LOEWDIN ATOMIC CHARGES
----------------------
   0 C :   -0.064801
   1 C :   -0.048216
   2 C :   -0.046005
   3 C :   -0.040267
   4 C :   -0.003408
   5 C :   -0.078458
   6 N :   -0.097340
   7 H :    0.035207
   8 H :    0.029400
   9 H :    0.035394
  10 H :    0.019885
  11 H :    0.020230
  12 H :    0.035818
  13 H :    0.021764
  14 H :    0.019777
  15 H :    0.019537
  16 H :    0.026895
  17 H :    0.019601
  18 H :    0.046286
  19 H :    0.048702

  Mayer bond orders larger than 0.1
B(  0-C ,  1-C ) :   1.0829 B(  0-C ,  7-H ) :   0.9474 B(  0-C ,  8-H ) :   0.9614
B(  0-C ,  9-H ) :   0.9479 B(  1-C ,  2-C ) :   1.9100 B(  1-C , 10-H ) :   0.9528
B(  2-C ,  3-C ) :   1.0652 B(  2-C , 11-H ) :   0.9520 B(  3-C ,  4-C ) :   1.0533
B(  3-C , 12-H ) :   0.9006 B(  3-C , 13-H ) :   0.9168 B(  4-C ,  5-C ) :   1.0614
B(  4-C ,  6-N ) :   1.0922 B(  4-C , 14-H ) :   0.9125 B(  5-C , 15-H ) :   0.9514
B(  5-C , 16-H ) :   0.9437 B(  5-C , 17-H ) :   0.9588 B(  6-N , 18-H ) :   0.9666
B(  6-N , 19-H ) :   0.9670

FINAL SINGLE POINT ENERGY      -290.580005391241

DIPOLE MOMENT
-------------
                                X             Y             Z
Electronic contribution:      1.83277      -1.36886      -1.25190
Nuclear contribution   :     -1.93016       1.70032       1.54602
                        -----------------------------------------
Total Dipole Moment    :     -0.09739       0.33145       0.29412
                        -----------------------------------------
Magnitude (a.u.)       :      0.45371
Magnitude (Debye)      :      1.15324

                             ****ORCA TERMINATED NORMALLY****
TOTAL RUN TIME: 0 days 0 hours 0 minutes 8 seconds 494 msec
