                         Program Version 3.0.3 - RELEASE   -
|  1> ! RI PBE def2-SVP def2-SVP/J NBO PAL2
|  2> % maxcore 2000
|  3> % output
|  4>     # printlevel mini
|  5>     print[ P_Basis ] 0
|  6>     print[ P_SCFInfo ] 1
|  7>     print[ P_SCFIterInfo ] 1
|  8>     print[ P_OrbEn ] 0
|  9>     print[ P_Cartesian ] 0
| 10> end
| 11> *xyz 0 1
| 12>  C        0.5354810000     0.0967690000    -0.0808750000
| 13>  C        2.0184730000     0.0984000000     0.0554670000
| 14>  C        2.8782900000     0.2891460000    -0.9378300000
| 15>  C        4.3633160000     0.2951630000    -0.7882410000
| 16>  C        5.0194010000    -0.8219290000    -1.6126280000
| 17>  C        6.4700930000    -0.8053460000    -1.5165370000
| 18>  N        7.6158450000    -0.7754730000    -1.4252130000
| 19>  H        0.1108180000    -0.8544770000     0.2548960000
| 20>  H        0.2275690000     0.2628650000    -1.1148600000
| 21>  H        0.0834740000     0.8766560000     0.5400390000
| 22>  H        2.4128180000    -0.0645650000     1.0581520000
| 23>  H        2.4923670000     0.4546380000    -1.9439800000
| 24>  H        4.6383440000     0.1789370000     0.2628480000
| 25>  H        4.7739370000     1.2547010000    -1.1202990000
| 26>  H        4.7441850000    -0.7283370000    -2.6676030000
| 27>  H        4.6597880000    -1.7985480000    -1.2766370000
| 28> *
| 29>
| 30>                          ****END OF INPUT****
 Total Charge           Charge          ....    0
 Multiplicity           Mult            ....    1
 Number of Electrons    NEL             ....   52
 Basis Dimension        Dim             ....  143

MULLIKEN ATOMIC CHARGES
-----------------------
   0 C :    0.040328
   1 C :   -0.099191
   2 C :   -0.055122
   3 C :    0.025804
   4 C :    0.041571
   5 C :   -0.271400
   6 N :    0.060351
   7 H :    0.035270
   8 H :    0.020243
   9 H :    0.038782
  10 H :   -0.002289
  11 H :   -0.006724
  12 H :    0.029908
  13 H :    0.039257
  14 H :    0.050737
  15 H :    0.052474
Sum of atomic charges:    0.0000000

LOEWDIN ATOMIC CHARGES
----------------------
   0 C :   -0.063182
   1 C :   -0.036269
   2 C :   -0.052874
   3 C :   -0.024462
   4 C :   -0.054575
   5 C :   -0.046523
   6 N :   -0.068486
   7 H :    0.038392
   8 H :    0.031322
   9 H :    0.039775
  10 H :    0.023867
  11 H :    0.021934
  12 H :    0.036509
  13 H :    0.040271
  14 H :    0.056650
  15 H :    0.057652

  Mayer bond orders larger than 0.1
B(  0-C ,  1-C ) :   1.0835 B(  0-C ,  7-H ) :   0.9475 B(  0-C ,  8-H ) :   0.9620
B(  0-C ,  9-H ) :   0.9462 B(  1-C ,  2-C ) :   1.9312 B(  1-C , 10-H ) :   0.9549
B(  2-C ,  3-C ) :   1.0668 B(  2-C , 11-H ) :   0.9453 B(  3-C ,  4-C ) :   1.0831
B(  3-C , 12-H ) :   0.9343 B(  3-C , 13-H ) :   0.9155 B(  4-C ,  5-C ) :   1.1339
B(  4-C , 14-H ) :   0.8903 B(  4-C , 15-H ) :   0.8935 B(  5-C ,  6-N ) :   3.0559

FINAL SINGLE POINT ENERGY      -288.176058723640

DIPOLE MOMENT
-------------
                                X             Y             Z
Electronic contribution:      9.98658      -1.45573      -1.84196
Nuclear contribution   :    -11.64425       1.50972       1.87232
                        -----------------------------------------
Total Dipole Moment    :     -1.65767       0.05398       0.03036
                        -----------------------------------------
Magnitude (a.u.)       :      1.65883
Magnitude (Debye)      :      4.21640

                             ****ORCA TERMINATED NORMALLY****
TOTAL RUN TIME: 0 days 0 hours 0 minutes 6 seconds 146 msec
