                         Program Version 3.0.3 - RELEASE   -
|  1> ! RI PBE def2-SVP def2-SVP/J NBO PAL2
|  2> % maxcore 2000
|  3> % output
|  4>     # printlevel mini
|  5>     print[ P_Basis ] 0
|  6>     print[ P_SCFInfo ] 1
|  7>     print[ P_SCFIterInfo ] 1
|  8>     print[ P_OrbEn ] 0
|  9>     print[ P_Cartesian ] 0
| 10> end
| 11> *xyz 0 1
| 12>  C        3.0626940000    -1.9399280000     1.3250260000
| 13>  C        2.8587830000    -0.4704060000     1.1229410000
| 14>  C        2.1597600000     0.2622910000     1.9850160000
| 15>  C        3.4605990000     0.1300000000    -0.1172000000
| 16>  C        4.9778690000    -0.0125210000    -0.2373090000
| 17>  C        5.7416450000     0.6813070000     0.8739150000
| 18>  N        7.1763340000     0.5834130000     0.6434840000
| 19>  H        2.5276840000    -2.2999240000     2.2045190000
| 20>  H        4.1226910000    -2.1813510000     1.4519540000
| 21>  H        2.7160960000    -2.5052510000     0.4533030000
| 22>  H        1.7084540000    -0.1769580000     2.8683730000
| 23>  H        2.0125610000     1.3262430000     1.8328970000
| 24>  H        3.1919220000     1.1897230000    -0.1676610000
| 25>  H        3.0025750000    -0.3503800000    -0.9911330000
| 26>  H        5.3045740000     0.4032700000    -1.1948510000
| 27>  H        5.2521700000    -1.0743820000    -0.2579460000
| 28>  H        5.4182920000     0.2767130000     1.8452810000
| 29>  H        5.4732680000     1.7436550000     0.8790530000
| 30>  H        7.4696080000    -0.3862800000     0.6708740000
| 31>  H        7.6883030000     1.0618660000     1.3740530000
| 32> *
| 33>
| 34>                          ****END OF INPUT****
 Total Charge           Charge          ....    0
 Multiplicity           Mult            ....    1
 Number of Electrons    NEL             ....   56
 Basis Dimension        Dim             ....  163

MULLIKEN ATOMIC CHARGES
-----------------------
   0 C :    0.065372
   1 C :   -0.204601
   2 C :   -0.034210
   3 C :    0.096639
   4 C :   -0.048336
   5 C :    0.071332
   6 N :   -0.209360
   7 H :    0.013204
   8 H :    0.026196
   9 H :    0.025837
  10 H :    0.002495
  11 H :    0.006512
  12 H :   -0.005772
  13 H :    0.012509
  14 H :    0.010463
  15 H :    0.003590
  16 H :   -0.002402
  17 H :    0.000456
  18 H :    0.083051
  19 H :    0.087026
Sum of atomic charges:   -0.0000000

LOEWDIN ATOMIC CHARGES
----------------------
   0 C :   -0.057166
   1 C :   -0.032671
   2 C :   -0.082810
   3 C :   -0.030193
   4 C :   -0.045546
   5 C :    0.004606
   6 N :   -0.113490
   7 H :    0.031225
   8 H :    0.032373
   9 H :    0.034875
  10 H :    0.017499
  11 H :    0.018277
  12 H :    0.026784
  13 H :    0.033065
  14 H :    0.026647
  15 H :    0.016779
  16 H :    0.000168
  17 H :    0.019722
  18 H :    0.047862
  19 H :    0.051993

  Mayer bond orders larger than 0.1
B(  0-C ,  1-C ) :   1.0808 B(  0-C ,  7-H ) :   0.9481 B(  0-C ,  8-H ) :   0.9399
B(  0-C ,  9-H ) :   0.9443 B(  1-C ,  2-C ) :   1.9805 B(  1-C ,  3-C ) :   1.0590
B(  2-C , 10-H ) :   0.9317 B(  2-C , 11-H ) :   0.9342 B(  3-C ,  4-C ) :   1.0836
B(  3-C , 12-H ) :   0.9145 B(  3-C , 13-H ) :   0.9086 B(  4-C ,  5-C ) :   1.0893
B(  4-C , 14-H ) :   0.9225 B(  4-C , 15-H ) :   0.9344 B(  5-C ,  6-N ) :   1.0894
B(  5-C , 16-H ) :   0.9287 B(  5-C , 17-H ) :   0.9286 B(  6-N , 18-H ) :   0.9699
B(  6-N , 19-H ) :   0.9649

FINAL SINGLE POINT ENERGY      -290.574704007506

DIPOLE MOMENT
-------------
                                X             Y             Z
Electronic contribution:     -0.15217       1.11194      -0.20858
Nuclear contribution   :      0.27861      -1.42890       0.50670
                        -----------------------------------------
Total Dipole Moment    :      0.12644      -0.31696       0.29812
                        -----------------------------------------
Magnitude (a.u.)       :      0.45313
Magnitude (Debye)      :      1.15177

                             ****ORCA TERMINATED NORMALLY****
TOTAL RUN TIME: 0 days 0 hours 0 minutes 8 seconds 645 msec
