                         Program Version 3.0.3 - RELEASE   -
|  1> ! RI PBE def2-SVP def2-SVP/J NBO PAL2
|  2> % maxcore 2000
|  3> % output
|  4>     # printlevel mini
|  5>     print[ P_Basis ] 0
|  6>     print[ P_SCFInfo ] 1
|  7>     print[ P_SCFIterInfo ] 1
|  8>     print[ P_OrbEn ] 0
|  9>     print[ P_Cartesian ] 0
| 10> end
| 11> *xyz 0 1
| 12>  C        3.5174470000     1.3162660000     0.4752750000
| 13>  C        2.6596160000     0.1316460000     0.1563520000
| 14>  C        1.3343680000     0.1620450000     0.3301970000
| 15>  C        3.2953440000    -1.0766140000    -0.3563140000
| 16>  C        4.6021720000    -1.2434330000    -0.5672920000
| 17>  C        5.2148860000    -2.5003820000    -1.0845170000
| 18>  N        6.0382900000    -2.2179330000    -2.2530300000
| 19>  H        2.9141380000     2.1485110000     0.8383500000
| 20>  H        4.0698360000     1.6510370000    -0.4076290000
| 21>  H        4.2591320000     1.0694260000     1.2406750000
| 22>  H        0.8310680000     1.0442140000     0.7088390000
| 23>  H        0.7172380000    -0.6992240000     0.0982390000
| 24>  H        2.6228990000    -1.9049970000    -0.5747370000
| 25>  H        5.3000400000    -0.4322090000    -0.3757500000
| 26>  H        4.4232940000    -3.2462630000    -1.2544640000
| 27>  H        5.8777150000    -2.9147730000    -0.3145830000
| 28>  H        5.4582850000    -1.9056620000    -3.0221320000
| 29>  H        6.5256340000    -3.0504660000    -2.5589900000
| 30> *
| 31>
| 32>                          ****END OF INPUT****
 Total Charge           Charge          ....    0
 Multiplicity           Mult            ....    1
 Number of Electrons    NEL             ....   54
 Basis Dimension        Dim             ....  153

MULLIKEN ATOMIC CHARGES
-----------------------
   0 C :    0.072299
   1 C :   -0.121770
   2 C :   -0.046983
   3 C :    0.019960
   4 C :   -0.105773
   5 C :    0.148824
   6 N :   -0.224468
   7 H :    0.011761
   8 H :    0.034941
   9 H :    0.035798
  10 H :    0.011106
  11 H :    0.011240
  12 H :   -0.030524
  13 H :   -0.000501
  14 H :   -0.008463
  15 H :    0.017294
  16 H :    0.087096
  17 H :    0.088162
Sum of atomic charges:    0.0000000

LOEWDIN ATOMIC CHARGES
----------------------
   0 C :   -0.055796
   1 C :   -0.032183
   2 C :   -0.062461
   3 C :   -0.040023
   4 C :   -0.037933
   5 C :    0.005574
   6 N :   -0.110498
   7 H :    0.031259
   8 H :    0.037947
   9 H :    0.037797
  10 H :    0.020227
  11 H :    0.020253
  12 H :    0.023850
  13 H :    0.024604
  14 H :    0.003384
  15 H :    0.031724
  16 H :    0.050660
  17 H :    0.051615

  Mayer bond orders larger than 0.1
B(  0-C ,  1-C ) :   1.1069 B(  0-C ,  7-H ) :   0.9451 B(  0-C ,  8-H ) :   0.9325
B(  0-C ,  9-H ) :   0.9337 B(  1-C ,  2-C ) :   1.8821 B(  1-C ,  3-C ) :   1.1156
B(  2-C ,  4-C ) :   0.1316 B(  2-C , 10-H ) :   0.9293 B(  2-C , 11-H ) :   0.9383
B(  3-C ,  4-C ) :   1.7742 B(  3-C , 12-H ) :   0.9577 B(  4-C ,  5-C ) :   1.0638
B(  4-C , 13-H ) :   0.9458 B(  5-C ,  6-N ) :   1.0640 B(  5-C , 14-H ) :   0.9243
B(  5-C , 15-H ) :   0.9076 B(  6-N , 16-H ) :   0.9730 B(  6-N , 17-H ) :   0.9644

FINAL SINGLE POINT ENERGY      -289.364210284779

DIPOLE MOMENT
-------------
                                X             Y             Z
Electronic contribution:     -0.47655      -0.87038      -0.23518
Nuclear contribution   :      0.45491       0.53899       0.00451
                        -----------------------------------------
Total Dipole Moment    :     -0.02163      -0.33140      -0.23066
                        -----------------------------------------
Magnitude (a.u.)       :      0.40435
Magnitude (Debye)      :      1.02777

                             ****ORCA TERMINATED NORMALLY****
TOTAL RUN TIME: 0 days 0 hours 0 minutes 7 seconds 593 msec
