                         Program Version 3.0.3 - RELEASE   -
|  1> ! RI PBE def2-SVP def2-SVP/J NBO PAL2
|  2> % maxcore 2000
|  3> % output
|  4>     # printlevel mini
|  5>     print[ P_Basis ] 0
|  6>     print[ P_SCFInfo ] 1
|  7>     print[ P_SCFIterInfo ] 1
|  8>     print[ P_OrbEn ] 0
|  9>     print[ P_Cartesian ] 0
| 10> end
| 11> *xyz 0 1
| 12>  C        0.9885550000     0.3404830000     0.0771690000
| 13>  C        2.4623480000     0.0927890000     0.1480110000
| 14>  C        3.0165540000    -0.6375360000     1.1223370000
| 15>  C        3.3244880000     0.6618460000    -0.8722780000
| 16>  C        2.9048290000     1.4116950000    -1.9024750000
| 17>  C        3.7977310000     1.9401830000    -2.8686030000
| 18>  N        4.5069330000     2.3794240000    -3.6649160000
| 19>  H        0.4721970000    -0.1460050000     0.9042360000
| 20>  H        0.5694770000    -0.0411530000    -0.8584950000
| 21>  H        0.7665730000     1.4108810000     0.1186710000
| 22>  H        2.4177460000    -1.0841500000     1.9074220000
| 23>  H        4.0869180000    -0.8069510000     1.1582920000
| 24>  H        4.3866910000     0.4549460000    -0.7791570000
| 25>  H        1.8561610000     1.6490480000    -2.0436140000
| 26> *
| 27>
| 28>                          ****END OF INPUT****
 Total Charge           Charge          ....    0
 Multiplicity           Mult            ....    1
 Number of Electrons    NEL             ....   50
 Basis Dimension        Dim             ....  133

MULLIKEN ATOMIC CHARGES
-----------------------
   0 C :    0.084331
   1 C :   -0.138648
   2 C :   -0.020703
   3 C :    0.051935
   4 C :   -0.139979
   5 C :   -0.090455
   6 N :    0.046774
   7 H :    0.021982
   8 H :    0.041081
   9 H :    0.040705
  10 H :    0.025022
  11 H :    0.028117
  12 H :    0.008639
  13 H :    0.041202
Sum of atomic charges:    0.0000000

LOEWDIN ATOMIC CHARGES
----------------------
   0 C :   -0.053864
   1 C :   -0.036017
   2 C :   -0.022796
   3 C :    0.024524
   4 C :   -0.076743
   5 C :   -0.042555
   6 N :   -0.057703
   7 H :    0.036826
   8 H :    0.041758
   9 H :    0.041474
  10 H :    0.027475
  11 H :    0.027867
  12 H :    0.041460
  13 H :    0.048295

  Mayer bond orders larger than 0.1
B(  0-C ,  1-C ) :   1.0979 B(  0-C ,  7-H ) :   0.9453 B(  0-C ,  8-H ) :   0.9336
B(  0-C ,  9-H ) :   0.9339 B(  1-C ,  2-C ) :   1.8564 B(  1-C ,  3-C ) :   1.1270
B(  2-C ,  4-C ) :   0.1247 B(  2-C , 10-H ) :   0.9313 B(  2-C , 11-H ) :   0.9431
B(  3-C ,  4-C ) :   1.7271 B(  3-C , 12-H ) :   0.9650 B(  4-C ,  5-C ) :   1.1232
B(  4-C , 13-H ) :   0.9318 B(  5-C ,  6-N ) :   2.9588

FINAL SINGLE POINT ENERGY      -286.967197161231

DIPOLE MOMENT
-------------
                                X             Y             Z
Electronic contribution:      4.80591       3.57228      -6.28502
Nuclear contribution   :     -5.79258      -4.32279       7.59760
                        -----------------------------------------
Total Dipole Moment    :     -0.98667      -0.75051       1.31258
                        -----------------------------------------
Magnitude (a.u.)       :      1.80545
Magnitude (Debye)      :      4.58908

                             ****ORCA TERMINATED NORMALLY****
TOTAL RUN TIME: 0 days 0 hours 0 minutes 5 seconds 633 msec
