                         Program Version 3.0.3 - RELEASE   -
|  1> ! RI PBE def2-SVP def2-SVP/J NBO PAL2
|  2> % maxcore 2000
|  3> % output
|  4>     # printlevel mini
|  5>     print[ P_Basis ] 0
|  6>     print[ P_SCFInfo ] 1
|  7>     print[ P_SCFIterInfo ] 1
|  8>     print[ P_OrbEn ] 0
|  9>     print[ P_Cartesian ] 0
| 10> end
| 11> *xyz 0 1
| 12>  C        3.5619510000     0.7505350000    -1.2505840000
| 13>  C        2.6766360000     0.0486520000    -0.2664610000
| 14>  C        1.3481580000     0.1278000000    -0.3355190000
| 15>  C        3.3395240000    -0.7558500000     0.7845180000
| 16>  C        2.9209230000    -0.7422530000     2.0500590000
| 17>  C        4.5382340000    -1.5743470000     0.3874200000
| 18>  N        4.2360510000    -2.4344560000    -0.7469430000
| 19>  H        2.9742700000     1.3616500000    -1.9363890000
| 20>  H        4.1262130000     0.0188780000    -1.8352040000
| 21>  H        4.2836090000     1.3984610000    -0.7430840000
| 22>  H        0.8609950000     0.7366460000    -1.0893540000
| 23>  H        0.7127060000    -0.4267110000     0.3450300000
| 24>  H        2.1045530000    -0.1048100000     2.3684950000
| 25>  H        3.3997700000    -1.3565060000     2.8053190000
| 26>  H        4.9014260000    -2.1076550000     1.2773960000
| 27>  H        5.3431130000    -0.8957350000     0.0799510000
| 28>  H        3.4994530000    -3.0869580000    -0.5085900000
| 29>  H        5.0484160000    -2.9755500000    -1.0135690000
| 30> *
| 31>
| 32>                          ****END OF INPUT****
 Total Charge           Charge          ....    0
 Multiplicity           Mult            ....    1
 Number of Electrons    NEL             ....   54
 Basis Dimension        Dim             ....  153

MULLIKEN ATOMIC CHARGES
-----------------------
   0 C :    0.063039
   1 C :   -0.101454
   2 C :   -0.038377
   3 C :   -0.135595
   4 C :   -0.032775
   5 C :    0.154244
   6 N :   -0.205808
   7 H :    0.008744
   8 H :    0.038584
   9 H :    0.026190
  10 H :    0.007491
  11 H :    0.010808
  12 H :    0.016200
  13 H :    0.006805
  14 H :   -0.017963
  15 H :    0.015701
  16 H :    0.093276
  17 H :    0.090888
Sum of atomic charges:   -0.0000000

LOEWDIN ATOMIC CHARGES
----------------------
   0 C :   -0.056123
   1 C :   -0.020929
   2 C :   -0.063890
   3 C :   -0.033231
   4 C :   -0.056280
   5 C :    0.012928
   6 N :   -0.103906
   7 H :    0.029999
   8 H :    0.037778
   9 H :    0.032132
  10 H :    0.019370
  11 H :    0.019659
  12 H :    0.022528
  13 H :    0.018231
  14 H :    0.004717
  15 H :    0.028592
  16 H :    0.054758
  17 H :    0.053667

  Mayer bond orders larger than 0.1
B(  0-C ,  1-C ) :   1.0792 B(  0-C ,  7-H ) :   0.9463 B(  0-C ,  8-H ) :   0.9238
B(  0-C ,  9-H ) :   0.9462 B(  1-C ,  2-C ) :   1.9564 B(  1-C ,  3-C ) :   1.0066
B(  2-C , 10-H ) :   0.9272 B(  2-C , 11-H ) :   0.9359 B(  3-C ,  4-C ) :   1.9495
B(  3-C ,  5-C ) :   1.0686 B(  4-C , 12-H ) :   0.9347 B(  4-C , 13-H ) :   0.9271
B(  5-C ,  6-N ) :   1.0830 B(  5-C , 14-H ) :   0.9078 B(  5-C , 15-H ) :   0.9023
B(  6-N , 16-H ) :   0.9674 B(  6-N , 17-H ) :   0.9646

FINAL SINGLE POINT ENERGY      -289.357364098511

DIPOLE MOMENT
-------------
                                X             Y             Z
Electronic contribution:     -0.81538      -0.60576       0.95203
Nuclear contribution   :      1.21066       0.16729      -0.84800
                        -----------------------------------------
Total Dipole Moment    :      0.39528      -0.43846       0.10404
                        -----------------------------------------
Magnitude (a.u.)       :      0.59943
Magnitude (Debye)      :      1.52364

                             ****ORCA TERMINATED NORMALLY****
TOTAL RUN TIME: 0 days 0 hours 0 minutes 7 seconds 927 msec
