                         Program Version 3.0.3 - RELEASE   -
|  1> ! RI PBE def2-SVP def2-SVP/J NBO PAL2
|  2> % maxcore 2000
|  3> % output
|  4>     # printlevel mini
|  5>     print[ P_Basis ] 0
|  6>     print[ P_SCFInfo ] 1
|  7>     print[ P_SCFIterInfo ] 1
|  8>     print[ P_OrbEn ] 0
|  9>     print[ P_Cartesian ] 0
| 10> end
| 11> *xyz 0 1
| 12>  C        1.0072050000    -0.5107600000    -0.0862320000
| 13>  C        2.4049340000     0.0204980000    -0.1156500000
| 14>  C        2.9810890000     0.4348840000    -1.2455590000
| 15>  C        3.1343250000     0.0725100000     1.1617780000
| 16>  C        2.6352440000    -0.3216180000     2.3403620000
| 17>  C        4.4753250000     0.5819990000     1.1367540000
| 18>  N        5.5513460000     0.9906680000     1.1104550000
| 19>  H        0.5741240000    -0.4997430000    -1.0858570000
| 20>  H        0.3677330000     0.0882270000     0.5688890000
| 21>  H        0.9806770000    -1.5392410000     0.2857250000
| 22>  H        2.4457680000     0.3980840000    -2.1867510000
| 23>  H        3.9940650000     0.8196000000    -1.2633120000
| 24>  H        1.6303830000    -0.7146070000     2.4209980000
| 25>  H        3.2246030000    -0.2579200000     3.2454190000
| 26> *
| 27>
| 28>                          ****END OF INPUT****
 Total Charge           Charge          ....    0
 Multiplicity           Mult            ....    1
 Number of Electrons    NEL             ....   50
 Basis Dimension        Dim             ....  133

MULLIKEN ATOMIC CHARGES
-----------------------
   0 C :    0.044351
   1 C :   -0.084889
   2 C :   -0.026799
   3 C :   -0.086006
   4 C :    0.001246
   5 C :   -0.152269
   6 N :    0.056184
   7 H :    0.022629
   8 H :    0.045349
   9 H :    0.043941
  10 H :    0.020701
  11 H :    0.043147
  12 H :    0.029691
  13 H :    0.042723
Sum of atomic charges:    0.0000000

LOEWDIN ATOMIC CHARGES
----------------------
   0 C :   -0.054174
   1 C :   -0.026789
   2 C :   -0.026904
   3 C :   -0.061375
   4 C :   -0.001080
   5 C :   -0.026867
   6 N :   -0.053690
   7 H :    0.037734
   8 H :    0.040738
   9 H :    0.040827
  10 H :    0.027856
  11 H :    0.033985
  12 H :    0.030636
  13 H :    0.039103

  Mayer bond orders larger than 0.1
B(  0-C ,  1-C ) :   1.0951 B(  0-C ,  7-H ) :   0.9414 B(  0-C ,  8-H ) :   0.9391
B(  0-C ,  9-H ) :   0.9370 B(  1-C ,  2-C ) :   1.9090 B(  1-C ,  3-C ) :   1.0807
B(  2-C ,  4-C ) :   0.1392 B(  2-C , 10-H ) :   0.9281 B(  2-C , 11-H ) :   0.9125
B(  3-C ,  4-C ) :   1.8781 B(  3-C ,  5-C ) :   1.0671 B(  4-C , 12-H ) :   0.9142
B(  4-C , 13-H ) :   0.9374 B(  5-C ,  6-N ) :   2.9770

FINAL SINGLE POINT ENERGY      -286.960942203774

DIPOLE MOMENT
-------------
                                X             Y             Z
Electronic contribution:      6.66787       2.15670       2.02267
Nuclear contribution   :     -8.10150      -2.68795      -2.07587
                        -----------------------------------------
Total Dipole Moment    :     -1.43363      -0.53125      -0.05320
                        -----------------------------------------
Magnitude (a.u.)       :      1.52982
Magnitude (Debye)      :      3.88850

                             ****ORCA TERMINATED NORMALLY****
TOTAL RUN TIME: 0 days 0 hours 0 minutes 5 seconds 733 msec
