                         Program Version 3.0.3 - RELEASE   -
|  1> ! RI PBE def2-SVP def2-SVP/J NBO PAL2
|  2> % maxcore 2000
|  3> % output
|  4>     # printlevel mini
|  5>     print[ P_Basis ] 0
|  6>     print[ P_SCFInfo ] 1
|  7>     print[ P_SCFIterInfo ] 1
|  8>     print[ P_OrbEn ] 0
|  9>     print[ P_Cartesian ] 0
| 10> end
| 11> *xyz 0 1
| 12>  C        2.9706120000    -1.3517090000     0.4765190000
| 13>  C        2.5335380000     0.0487700000     0.1583880000
| 14>  C        1.5887310000     0.6324080000     0.8915200000
| 15>  C        3.2393140000     0.7439960000    -1.0075510000
| 16>  C        3.1312480000    -0.1073930000    -2.2714840000
| 17>  C        2.6655080000     2.1245080000    -1.2958150000
| 18>  N        4.6697900000     0.9332100000    -0.7323030000
| 19>  H        2.5125030000    -1.6998450000     1.4027410000
| 20>  H        4.0558770000    -1.4257370000     0.5932930000
| 21>  H        2.6882480000    -2.0480130000    -0.3183970000
| 22>  H        1.1371880000     0.1133500000     1.7305370000
| 23>  H        1.2273130000     1.6329080000     0.6919570000
| 24>  H        2.0857570000    -0.2853060000    -2.5326500000
| 25>  H        3.6194320000    -1.0768650000    -2.1470550000
| 26>  H        3.6200610000     0.4085950000    -3.0999180000
| 27>  H        1.6064360000     2.0735730000    -1.5557260000
| 28>  H        3.2121580000     2.5656210000    -2.1302130000
| 29>  H        2.7756370000     2.7890850000    -0.4352390000
| 30>  H        5.1393770000     0.0415320000    -0.6309830000
| 31>  H        4.7897730000     1.4329220000     0.1418790000
| 32> *
| 33>
| 34>                          ****END OF INPUT****
 Total Charge           Charge          ....    0
 Multiplicity           Mult            ....    1
 Number of Electrons    NEL             ....   56
 Basis Dimension        Dim             ....  163

MULLIKEN ATOMIC CHARGES
-----------------------
   0 C :    0.063213
   1 C :   -0.098441
   2 C :   -0.039746
   3 C :   -0.239708
   4 C :    0.068369
   5 C :    0.070783
   6 N :   -0.141524
   7 H :    0.008429
   8 H :    0.005035
   9 H :    0.036032
  10 H :   -0.003566
  11 H :    0.005768
  12 H :    0.018378
  13 H :    0.008902
  14 H :    0.018851
  15 H :    0.018902
  16 H :    0.016881
  17 H :    0.016124
  18 H :    0.081743
  19 H :    0.085576
Sum of atomic charges:   -0.0000000

LOEWDIN ATOMIC CHARGES
----------------------
   0 C :   -0.060024
   1 C :   -0.037122
   2 C :   -0.081381
   3 C :   -0.018848
   4 C :   -0.049287
   5 C :   -0.053750
   6 N :   -0.077110
   7 H :    0.031490
   8 H :    0.022541
   9 H :    0.036320
  10 H :    0.017377
  11 H :    0.018157
  12 H :    0.028894
  13 H :    0.020090
  14 H :    0.028811
  15 H :    0.026218
  16 H :    0.028734
  17 H :    0.023240
  18 H :    0.044342
  19 H :    0.051306

  Mayer bond orders larger than 0.1
B(  0-C ,  1-C ) :   1.0815 B(  0-C ,  7-H ) :   0.9415 B(  0-C ,  8-H ) :   0.9369
B(  0-C ,  9-H ) :   0.9397 B(  1-C ,  2-C ) :   1.9947 B(  1-C ,  3-C ) :   0.9419
B(  2-C , 10-H ) :   0.9240 B(  2-C , 11-H ) :   0.9196 B(  3-C ,  4-C ) :   1.0517
B(  3-C ,  5-C ) :   1.0869 B(  3-C ,  6-N ) :   1.0475 B(  4-C , 12-H ) :   0.9595
B(  4-C , 13-H ) :   0.9449 B(  4-C , 14-H ) :   0.9504 B(  5-C , 15-H ) :   0.9469
B(  5-C , 16-H ) :   0.9463 B(  5-C , 17-H ) :   0.9403 B(  6-N , 18-H ) :   0.9629
B(  6-N , 19-H ) :   0.9638

FINAL SINGLE POINT ENERGY      -290.577572669303

DIPOLE MOMENT
-------------
                                X             Y             Z
Electronic contribution:      0.58257       0.70914       1.20963
Nuclear contribution   :     -0.53515      -1.01085      -0.98656
                        -----------------------------------------
Total Dipole Moment    :      0.04742      -0.30171       0.22307
                        -----------------------------------------
Magnitude (a.u.)       :      0.37820
Magnitude (Debye)      :      0.96131

                             ****ORCA TERMINATED NORMALLY****
TOTAL RUN TIME: 0 days 0 hours 0 minutes 8 seconds 997 msec
