                         Program Version 3.0.3 - RELEASE   -
|  1> ! RI PBE def2-SVP def2-SVP/J NBO PAL2
|  2> % maxcore 2000
|  3> % output
|  4>     # printlevel mini
|  5>     print[ P_Basis ] 0
|  6>     print[ P_SCFInfo ] 1
|  7>     print[ P_SCFIterInfo ] 1
|  8>     print[ P_OrbEn ] 0
|  9>     print[ P_Cartesian ] 0
| 10> end
| 11> *xyz 0 1
| 12>  C        0.9613470000    -0.1584620000    -0.3845470000
| 13>  C        2.3878290000     0.0568440000     0.0305160000
| 14>  C        3.0359790000    -0.7774620000     0.8476470000
| 15>  C        3.0261420000     1.2156020000    -0.5002200000
| 16>  C        3.5291460000     2.2010870000    -0.9790760000
| 17>  C        4.1381760000     3.4046480000    -1.5230670000
| 18>  N        5.4883980000     3.6023740000    -1.0091040000
| 19>  H        0.5577910000    -1.0654290000     0.0669720000
| 20>  H        0.8862530000    -0.2426980000    -1.4718660000
| 21>  H        0.3406750000     0.6904890000    -0.0859710000
| 22>  H        2.5415970000    -1.6550000000     1.2478300000
| 23>  H        4.0664390000    -0.6036130000     1.1303570000
| 24>  H        3.4550840000     4.2472210000    -1.3277330000
| 25>  H        4.1985630000     3.3056340000    -2.6128780000
| 26>  H        5.4684640000     3.6516130000     0.0020420000
| 27>  H        5.8586080000     4.4820420000    -1.3476100000
| 28> *
| 29>
| 30>                          ****END OF INPUT****
 Total Charge           Charge          ....    0
 Multiplicity           Mult            ....    1
 Number of Electrons    NEL             ....   52
 Basis Dimension        Dim             ....  143

MULLIKEN ATOMIC CHARGES
-----------------------
   0 C :    0.072127
   1 C :   -0.202609
   2 C :    0.003365
   3 C :   -0.031689
   4 C :   -0.140047
   5 C :    0.152478
   6 N :   -0.213784
   7 H :    0.011494
   8 H :    0.040053
   9 H :    0.039614
  10 H :    0.011983
  11 H :    0.020244
  12 H :    0.020362
  13 H :    0.032629
  14 H :    0.096015
  15 H :    0.087763
Sum of atomic charges:   -0.0000000

LOEWDIN ATOMIC CHARGES
----------------------
   0 C :   -0.045631
   1 C :   -0.050079
   2 C :   -0.045380
   3 C :   -0.041352
   4 C :   -0.048524
   5 C :   -0.000559
   6 N :   -0.106162
   7 H :    0.030793
   8 H :    0.040711
   9 H :    0.040251
  10 H :    0.022161
  11 H :    0.027978
  12 H :    0.023215
  13 H :    0.045082
  14 H :    0.054299
  15 H :    0.053196

  Mayer bond orders larger than 0.1
B(  0-C ,  1-C ) :   1.0730 B(  0-C ,  7-H ) :   0.9456 B(  0-C ,  8-H ) :   0.9474
B(  0-C ,  9-H ) :   0.9486 B(  1-C ,  2-C ) :   1.9153 B(  1-C ,  3-C ) :   1.0184
B(  2-C ,  4-C ) :   0.1158 B(  2-C , 10-H ) :   0.9285 B(  2-C , 11-H ) :   0.9380
B(  3-C ,  4-C ) :   2.5246 B(  4-C ,  5-C ) :   1.0769 B(  5-C ,  6-N ) :   1.0815
B(  5-C , 12-H ) :   0.9014 B(  5-C , 13-H ) :   0.8848 B(  6-N , 14-H ) :   0.9689
B(  6-N , 15-H ) :   0.9611

FINAL SINGLE POINT ENERGY      -288.119933251508

DIPOLE MOMENT
-------------
                                X             Y             Z
Electronic contribution:      1.51577       0.50941      -0.14431
Nuclear contribution   :     -1.78180       0.07258       0.19231
                        -----------------------------------------
Total Dipole Moment    :     -0.26603       0.58199       0.04800
                        -----------------------------------------
Magnitude (a.u.)       :      0.64171
Magnitude (Debye)      :      1.63109

                             ****ORCA TERMINATED NORMALLY****
TOTAL RUN TIME: 0 days 0 hours 0 minutes 7 seconds 111 msec
