                         Program Version 3.0.3 - RELEASE   -
|  1> ! RI PBE def2-SVP def2-SVP/J NBO PAL2
|  2> % maxcore 2000
|  3> % output
|  4>     # printlevel mini
|  5>     print[ P_Basis ] 0
|  6>     print[ P_SCFInfo ] 1
|  7>     print[ P_SCFIterInfo ] 1
|  8>     print[ P_OrbEn ] 0
|  9>     print[ P_Cartesian ] 0
| 10> end
| 11> *xyz 0 1
| 12>  C        0.9334050000    -0.0033860000    -0.0077430000
| 13>  C        2.4313690000     0.0499350000     0.0662730000
| 14>  C        3.1044360000     0.7247900000     1.0030890000
| 15>  C        3.1393890000    -0.6693070000    -0.9321600000
| 16>  C        3.7027560000    -1.2946440000    -1.8002330000
| 17>  C        4.3521980000    -1.9960560000    -2.7738940000
| 18>  N        4.9012960000    -2.5907250000    -3.5993830000
| 19>  H        0.4904190000     0.5787270000     0.8003470000
| 20>  H        0.5795970000    -1.0346260000     0.0655000000
| 21>  H        0.5795960000     0.3927120000    -0.9626920000
| 22>  H        2.5760920000     1.2778230000     1.7707940000
| 23>  H        4.1866480000     0.7390590000     1.0228930000
| 24> *
| 25>
| 26>                          ****END OF INPUT****
 Total Charge           Charge          ....    0
 Multiplicity           Mult            ....    1
 Number of Electrons    NEL             ....   48
 Basis Dimension        Dim             ....  123

MULLIKEN ATOMIC CHARGES
-----------------------
   0 C :    0.085228
   1 C :   -0.228110
   2 C :    0.021100
   3 C :   -0.077848
   4 C :    0.070897
   5 C :   -0.168669
   6 N :    0.099842
   7 H :    0.025152
   8 H :    0.049523
   9 H :    0.049958
  10 H :    0.031500
  11 H :    0.041425
Sum of atomic charges:   -0.0000000

LOEWDIN ATOMIC CHARGES
----------------------
   0 C :   -0.038784
   1 C :   -0.052695
   2 C :   -0.007012
   3 C :    0.051074
   4 C :   -0.075002
   5 C :   -0.048537
   6 N :   -0.026665
   7 H :    0.037460
   8 H :    0.046095
   9 H :    0.046321
  10 H :    0.031490
  11 H :    0.036257

  Mayer bond orders larger than 0.1
B(  0-C ,  1-C ) :   1.0633 B(  0-C ,  7-H ) :   0.9437 B(  0-C ,  8-H ) :   0.9480
B(  0-C ,  9-H ) :   0.9474 B(  1-C ,  2-C ) :   1.8829 B(  1-C ,  3-C ) :   1.0614
B(  2-C ,  4-C ) :   0.1083 B(  2-C , 10-H ) :   0.9302 B(  2-C , 11-H ) :   0.9416
B(  3-C ,  4-C ) :   2.2157 B(  3-C ,  5-C ) :  -0.1016 B(  3-C ,  6-N ) :   0.1780
B(  4-C ,  5-C ) :   1.0102 B(  4-C ,  6-N ) :   0.1163 B(  5-C ,  6-N ) :   2.8590

FINAL SINGLE POINT ENERGY      -285.725613249098

DIPOLE MOMENT
-------------
                                X             Y             Z
Electronic contribution:      5.97866      -4.59939      -6.38181
Nuclear contribution   :     -6.99205       5.56172       7.72058
                        -----------------------------------------
Total Dipole Moment    :     -1.01339       0.96233       1.33877
                        -----------------------------------------
Magnitude (a.u.)       :      1.93529
Magnitude (Debye)      :      4.91912

                             ****ORCA TERMINATED NORMALLY****
TOTAL RUN TIME: 0 days 0 hours 0 minutes 5 seconds 844 msec
