                         Program Version 3.0.3 - RELEASE   -
|  1> ! RI PBE def2-SVP def2-SVP/J NBO PAL2
|  2> % maxcore 2000
|  3> % output
|  4>     # printlevel mini
|  5>     print[ P_Basis ] 0
|  6>     print[ P_SCFInfo ] 1
|  7>     print[ P_SCFIterInfo ] 1
|  8>     print[ P_OrbEn ] 0
|  9>     print[ P_Cartesian ] 0
| 10> end
| 11> *xyz 0 1
| 12>  C        0.8521440000    -0.2258060000    -0.1730500000
| 13>  C        2.2647850000    -0.0817690000     0.3006010000
| 14>  C        2.5769310000    -0.0847760000     1.5926060000
| 15>  C        3.2724630000     0.0632510000    -0.8021100000
| 16>  C        4.7207600000     0.2116050000    -0.3468820000
| 17>  C        5.6318620000     0.3463830000    -1.4717070000
| 18>  N        6.3398380000     0.4517780000    -2.3713900000
| 19>  H        0.1578210000    -0.3277020000     0.6612770000
| 20>  H        0.7446700000    -1.1027550000    -0.8197960000
| 21>  H        0.5497530000     0.6415430000    -0.7689800000
| 22>  H        1.8083450000    -0.1928810000     2.3494480000
| 23>  H        3.5940570000     0.0183910000     1.9514270000
| 24>  H        2.9996880000     0.9271140000    -1.4194040000
| 25>  H        3.1928210000    -0.8021060000    -1.4703400000
| 26>  H        5.0307900000    -0.6564800000     0.2421680000
| 27>  H        4.8356520000     1.0909980000     0.2935340000
| 28> *
| 29>
| 30>                          ****END OF INPUT****
 Total Charge           Charge          ....    0
 Multiplicity           Mult            ....    1
 Number of Electrons    NEL             ....   52
 Basis Dimension        Dim             ....  143

MULLIKEN ATOMIC CHARGES
-----------------------
   0 C :    0.056511
   1 C :   -0.191595
   2 C :   -0.029215
   3 C :    0.018699
   4 C :    0.042224
   5 C :   -0.276164
   6 N :    0.065599
   7 H :    0.018970
   8 H :    0.033892
   9 H :    0.035102
  10 H :    0.010738
  11 H :    0.012614
  12 H :    0.040692
  13 H :    0.042114
  14 H :    0.059936
  15 H :    0.059883
Sum of atomic charges:   -0.0000000

LOEWDIN ATOMIC CHARGES
----------------------
   0 C :   -0.053806
   1 C :   -0.031273
   2 C :   -0.081182
   3 C :   -0.024263
   4 C :   -0.057026
   5 C :   -0.043275
   6 N :   -0.069302
   7 H :    0.033643
   8 H :    0.037955
   9 H :    0.038054
  10 H :    0.024956
  11 H :    0.018591
  12 H :    0.043877
  13 H :    0.044000
  14 H :    0.059603
  15 H :    0.059449

  Mayer bond orders larger than 0.1
B(  0-C ,  1-C ) :   1.0919 B(  0-C ,  7-H ) :   0.9468 B(  0-C ,  8-H ) :   0.9462
B(  0-C ,  9-H ) :   0.9470 B(  1-C ,  2-C ) :   1.9855 B(  1-C ,  3-C ) :   1.0324
B(  2-C , 10-H ) :   0.9267 B(  2-C , 11-H ) :   0.9278 B(  3-C ,  4-C ) :   1.1060
B(  3-C , 12-H ) :   0.9148 B(  3-C , 13-H ) :   0.9157 B(  4-C ,  5-C ) :   1.1280
B(  4-C , 14-H ) :   0.8830 B(  4-C , 15-H ) :   0.8843 B(  5-C ,  6-N ) :   3.0597

FINAL SINGLE POINT ENERGY      -288.175355659344

DIPOLE MOMENT
-------------
                                X             Y             Z
Electronic contribution:      7.87084       0.99138      -3.84674
Nuclear contribution   :     -9.01065      -1.14635       4.76220
                        -----------------------------------------
Total Dipole Moment    :     -1.13981      -0.15497       0.91546
                        -----------------------------------------
Magnitude (a.u.)       :      1.47012
Magnitude (Debye)      :      3.73675

                             ****ORCA TERMINATED NORMALLY****
TOTAL RUN TIME: 0 days 0 hours 0 minutes 6 seconds 383 msec
