                         Program Version 3.0.3 - RELEASE   -
|  1> ! RI PBE def2-SVP def2-SVP/J NBO PAL2
|  2> % maxcore 2000
|  3> % output
|  4>     # printlevel mini
|  5>     print[ P_Basis ] 0
|  6>     print[ P_SCFInfo ] 1
|  7>     print[ P_SCFIterInfo ] 1
|  8>     print[ P_OrbEn ] 0
|  9>     print[ P_Cartesian ] 0
| 10> end
| 11> *xyz 0 1
| 12>  C        1.0146110000     0.0487710000     0.2935570000
| 13>  C        2.4622780000     0.0690140000    -0.0895360000
| 14>  C        3.1430840000     1.1017550000    -0.6229940000
| 15>  C        2.6157160000     2.4069960000    -0.9366640000
| 16>  C        3.3643320000     3.3767200000    -1.4658500000
| 17>  C        3.1725570000    -1.1467540000     0.1458260000
| 18>  N        3.7151440000    -2.1438560000     0.3491990000
| 19>  H        0.5269590000     1.0001090000     0.0918880000
| 20>  H        0.9050120000    -0.1774070000     1.3573720000
| 21>  H        0.4858480000    -0.7342990000    -0.2560650000
| 22>  H        4.1958200000     0.9481250000    -0.8433790000
| 23>  H        1.5682290000     2.6034290000    -0.7324740000
| 24>  H        4.4156470000     3.2217010000    -1.6853150000
| 25>  H        2.9504450000     4.3508850000    -1.6946850000
| 26> *
| 27>
| 28>                          ****END OF INPUT****
 Total Charge           Charge          ....    0
 Multiplicity           Mult            ....    1
 Number of Electrons    NEL             ....   50
 Basis Dimension        Dim             ....  133

MULLIKEN ATOMIC CHARGES
-----------------------
   0 C :    0.094691
   1 C :   -0.224275
   2 C :    0.048753
   3 C :   -0.013225
   4 C :   -0.012696
   5 C :   -0.138586
   6 N :    0.044673
   7 H :    0.022336
   8 H :    0.051324
   9 H :    0.052735
  10 H :    0.004575
  11 H :    0.002426
  12 H :    0.033264
  13 H :    0.034004
Sum of atomic charges:    0.0000000

LOEWDIN ATOMIC CHARGES
----------------------
   0 C :   -0.041781
   1 C :   -0.069602
   2 C :    0.000601
   3 C :   -0.035428
   4 C :   -0.020647
   5 C :   -0.037141
   6 N :   -0.060476
   7 H :    0.033785
   8 H :    0.048915
   9 H :    0.049199
  10 H :    0.042209
  11 H :    0.030869
  12 H :    0.028863
  13 H :    0.030634

  Mayer bond orders larger than 0.1
B(  0-C ,  1-C ) :   1.0852 B(  0-C ,  7-H ) :   0.9381 B(  0-C ,  8-H ) :   0.9398
B(  0-C ,  9-H ) :   0.9403 B(  1-C ,  2-C ) :   1.7059 B(  1-C ,  4-C ) :   0.1223
B(  1-C ,  5-C ) :   1.1158 B(  2-C ,  3-C ) :   1.1381 B(  2-C , 10-H ) :   0.9489
B(  3-C ,  4-C ) :   1.8778 B(  3-C , 11-H ) :   0.9566 B(  4-C , 12-H ) :   0.9486
B(  4-C , 13-H ) :   0.9395 B(  5-C ,  6-N ) :   2.9738

FINAL SINGLE POINT ENERGY      -286.965920666979

DIPOLE MOMENT
-------------
                                X             Y             Z
Electronic contribution:      3.21760      -5.46882       1.04785
Nuclear contribution   :     -3.97548       6.86467      -1.33749
                        -----------------------------------------
Total Dipole Moment    :     -0.75787       1.39585      -0.28964
                        -----------------------------------------
Magnitude (a.u.)       :      1.61451
Magnitude (Debye)      :      4.10377

                             ****ORCA TERMINATED NORMALLY****
TOTAL RUN TIME: 0 days 0 hours 0 minutes 5 seconds 823 msec
