                         Program Version 3.0.3 - RELEASE   -
|  1> ! RI PBE def2-SVP def2-SVP/J NBO PAL2
|  2> % maxcore 2000
|  3> % output
|  4>     # printlevel mini
|  5>     print[ P_Basis ] 0
|  6>     print[ P_SCFInfo ] 1
|  7>     print[ P_SCFIterInfo ] 1
|  8>     print[ P_OrbEn ] 0
|  9>     print[ P_Cartesian ] 0
| 10> end
| 11> *xyz 0 1
| 12>  C        0.9820770000    -0.0944160000    -0.0720320000
| 13>  C        2.4643700000     0.0370830000     0.0519950000
| 14>  C        3.1007360000     0.8998660000     0.8659880000
| 15>  C        2.4465290000     1.8091560000     1.7239020000
| 16>  C        1.9269100000     2.5989060000     2.4689540000
| 17>  C        3.2542810000    -0.8273710000    -0.7636080000
| 18>  N        3.8603630000    -1.5405250000    -1.4364610000
| 19>  H        0.4798720000     0.6084760000     0.5911500000
| 20>  H        0.6664300000    -1.1106200000     0.1780620000
| 21>  H        0.6663950000     0.0961960000    -1.1010420000
| 22>  H        4.1861990000     0.9120470000     0.8774520000
| 23>  H        1.4647280000     3.2969130000     3.1269290000
| 24> *
| 25>
| 26>                          ****END OF INPUT****
 Total Charge           Charge          ....    0
 Multiplicity           Mult            ....    1
 Number of Electrons    NEL             ....   48
 Basis Dimension        Dim             ....  123

MULLIKEN ATOMIC CHARGES
-----------------------
   0 C :    0.108010
   1 C :   -0.237827
   2 C :   -0.016595
   3 C :    0.407079
   4 C :   -0.403759
   5 C :   -0.123414
   6 N :    0.059278
   7 H :    0.038968
   8 H :    0.051954
   9 H :    0.052171
  10 H :    0.045616
  11 H :    0.018521
Sum of atomic charges:   -0.0000000

LOEWDIN ATOMIC CHARGES
----------------------
   0 C :   -0.038076
   1 C :   -0.046738
   2 C :   -0.017314
   3 C :   -0.020548
   4 C :   -0.035359
   5 C :   -0.035192
   6 N :   -0.049326
   7 H :    0.042406
   8 H :    0.050477
   9 H :    0.050461
  10 H :    0.057411
  11 H :    0.041798

  Mayer bond orders larger than 0.1
B(  0-C ,  1-C ) :   1.0910 B(  0-C ,  7-H ) :   0.9308 B(  0-C ,  8-H ) :   0.9393
B(  0-C ,  9-H ) :   0.9397 B(  1-C ,  2-C ) :   1.7326 B(  1-C ,  4-C ) :   0.1224
B(  1-C ,  5-C ) :   1.1225 B(  2-C ,  3-C ) :   1.0268 B(  2-C , 10-H ) :   0.9370
B(  3-C ,  4-C ) :   2.2126 B(  4-C , 11-H ) :   1.0856 B(  5-C ,  6-N ) :   2.9776

FINAL SINGLE POINT ENERGY      -285.719932749400

DIPOLE MOMENT
-------------
                                X             Y             Z
Electronic contribution:      4.04365      -0.88237      -0.83286
Nuclear contribution   :     -4.92719       1.73563       1.63709
                        -----------------------------------------
Total Dipole Moment    :     -0.88354       0.85326       0.80423
                        -----------------------------------------
Magnitude (a.u.)       :      1.46815
Magnitude (Debye)      :      3.73175

                             ****ORCA TERMINATED NORMALLY****
TOTAL RUN TIME: 0 days 0 hours 0 minutes 5 seconds 623 msec
