                         Program Version 3.0.3 - RELEASE   -
|  1> ! RI PBE def2-SVP def2-SVP/J NBO PAL2
|  2> % maxcore 2000
|  3> % output
|  4>     # printlevel mini
|  5>     print[ P_Basis ] 0
|  6>     print[ P_SCFInfo ] 1
|  7>     print[ P_SCFIterInfo ] 1
|  8>     print[ P_OrbEn ] 0
|  9>     print[ P_Cartesian ] 0
| 10> end
| 11> *xyz 0 1
| 12>  C        1.0119290000    -0.1616280000     0.2180100000
| 13>  C        2.4823460000    -0.0433940000    -0.0498440000
| 14>  C        2.8923150000     0.7270130000    -1.2187270000
| 15>  C        2.0652890000     1.2964650000    -2.0964760000
| 16>  C        3.3607510000    -0.6396040000     0.7722490000
| 17>  C        4.8499270000    -0.6634810000     0.6913210000
| 18>  N        5.4160680000    -0.2783830000     1.9795820000
| 19>  H        0.4979300000    -0.6574460000    -0.6112690000
| 20>  H        0.5511590000     0.8237410000     0.3357620000
| 21>  H        0.8264140000    -0.7374840000     1.1247930000
| 22>  H        3.9592880000     0.8435850000    -1.3785880000
| 23>  H        0.9874820000     1.2205320000    -2.0116360000
| 24>  H        2.4491120000     1.8596040000    -2.9386240000
| 25>  H        2.9682140000    -1.1791990000     1.6316640000
| 26>  H        5.2154490000    -0.0647190000    -0.1520970000
| 27>  H        5.1660670000    -1.6960220000     0.4953200000
| 28>  H        5.2001010000     0.6907490000     2.1790680000
| 29>  H        6.4243590000    -0.3663300000     1.9671910000
| 30> *
| 31>
| 32>                          ****END OF INPUT****
 Total Charge           Charge          ....    0
 Multiplicity           Mult            ....    1
 Number of Electrons    NEL             ....   54
 Basis Dimension        Dim             ....  153

MULLIKEN ATOMIC CHARGES
-----------------------
   0 C :    0.053055
   1 C :   -0.056409
   2 C :   -0.020839
   3 C :   -0.043546
   4 C :   -0.145121
   5 C :    0.179341
   6 N :   -0.235077
   7 H :    0.034643
   8 H :    0.031534
   9 H :    0.014667
  10 H :   -0.022337
  11 H :    0.018839
  12 H :    0.018615
  13 H :   -0.010459
  14 H :   -0.008538
  15 H :    0.012856
  16 H :    0.089767
  17 H :    0.089009
Sum of atomic charges:    0.0000000

LOEWDIN ATOMIC CHARGES
----------------------
   0 C :   -0.053818
   1 C :   -0.045583
   2 C :   -0.033619
   3 C :   -0.058969
   4 C :   -0.037487
   5 C :    0.005832
   6 N :   -0.110054
   7 H :    0.035707
   8 H :    0.034599
   9 H :    0.031012
  10 H :    0.023250
  11 H :    0.020653
  12 H :    0.024239
  13 H :    0.024409
  14 H :    0.003674
  15 H :    0.033082
  16 H :    0.051298
  17 H :    0.051777

  Mayer bond orders larger than 0.1
B(  0-C ,  1-C ) :   1.1032 B(  0-C ,  7-H ) :   0.9351 B(  0-C ,  8-H ) :   0.9375
B(  0-C ,  9-H ) :   0.9471 B(  1-C ,  2-C ) :   1.1311 B(  1-C ,  4-C ) :   1.7529
B(  2-C ,  3-C ) :   1.9036 B(  2-C , 10-H ) :   0.9483 B(  3-C ,  4-C ) :   0.1321
B(  3-C , 11-H ) :   0.9368 B(  3-C , 12-H ) :   0.9381 B(  4-C ,  5-C ) :   1.0774
B(  4-C , 13-H ) :   0.9402 B(  5-C ,  6-N ) :   1.0524 B(  5-C , 14-H ) :   0.9159
B(  5-C , 15-H ) :   0.9016 B(  6-N , 16-H ) :   0.9734 B(  6-N , 17-H ) :   0.9656

FINAL SINGLE POINT ENERGY      -289.360717632442

DIPOLE MOMENT
-------------
                                X             Y             Z
Electronic contribution:      1.15406      -0.14067       0.10327
Nuclear contribution   :     -0.84083       0.36752      -0.25378
                        -----------------------------------------
Total Dipole Moment    :      0.31323       0.22685      -0.15051
                        -----------------------------------------
Magnitude (a.u.)       :      0.41500
Magnitude (Debye)      :      1.05485

                             ****ORCA TERMINATED NORMALLY****
TOTAL RUN TIME: 0 days 0 hours 0 minutes 7 seconds 845 msec
