                         Program Version 3.0.3 - RELEASE   -
|  1> ! RI PBE def2-SVP def2-SVP/J NBO PAL2
|  2> % maxcore 2000
|  3> % output
|  4>     # printlevel mini
|  5>     print[ P_Basis ] 0
|  6>     print[ P_SCFInfo ] 1
|  7>     print[ P_SCFIterInfo ] 1
|  8>     print[ P_OrbEn ] 0
|  9>     print[ P_Cartesian ] 0
| 10> end
| 11> *xyz 0 1
| 12>  C        0.9178800000    -0.1187350000    -0.1230040000
| 13>  C        2.4076430000    -0.1697200000    -0.0358110000
| 14>  C        3.0329510000    -0.8326380000     1.0979700000
| 15>  C        2.3687780000    -1.4156720000     2.0951290000
| 16>  C        3.1564120000     0.3964270000    -1.0040890000
| 17>  C        4.5740450000     0.3970270000    -1.0051200000
| 18>  N        5.7273850000     0.4102660000    -1.0277670000
| 19>  H        0.4962790000     0.3909630000     0.7478210000
| 20>  H        0.4962750000    -1.1276120000    -0.1400830000
| 21>  H        0.5911710000     0.4059220000    -1.0203180000
| 22>  H        4.1192950000    -0.8386220000     1.1081990000
| 23>  H        1.2856710000    -1.4390720000     2.1351550000
| 24>  H        2.8976570000    -1.8927070000     2.9109960000
| 25>  H        2.6856400000     0.8895020000    -1.8473880000
| 26> *
| 27>
| 28>                          ****END OF INPUT****
 Total Charge           Charge          ....    0
 Multiplicity           Mult            ....    1
 Number of Electrons    NEL             ....   50
 Basis Dimension        Dim             ....  133

MULLIKEN ATOMIC CHARGES
-----------------------
   0 C :    0.051857
   1 C :   -0.072504
   2 C :    0.002567
   3 C :   -0.023456
   4 C :   -0.136732
   5 C :   -0.102484
   6 N :    0.035911
   7 H :    0.049762
   8 H :    0.048559
   9 H :    0.027235
  10 H :    0.023346
  11 H :    0.026241
  12 H :    0.037440
  13 H :    0.032258
Sum of atomic charges:   -0.0000000

LOEWDIN ATOMIC CHARGES
----------------------
   0 C :   -0.050123
   1 C :    0.010369
   2 C :   -0.028218
   3 C :   -0.022724
   4 C :   -0.078249
   5 C :   -0.045184
   6 N :   -0.061881
   7 H :    0.045553
   8 H :    0.045194
   9 H :    0.036325
  10 H :    0.041360
  11 H :    0.024937
  12 H :    0.033496
  13 H :    0.049146

  Mayer bond orders larger than 0.1
B(  0-C ,  1-C ) :   1.1031 B(  0-C ,  7-H ) :   0.9321 B(  0-C ,  8-H ) :   0.9325
B(  0-C ,  9-H ) :   0.9487 B(  1-C ,  2-C ) :   1.1527 B(  1-C ,  4-C ) :   1.6974
B(  2-C ,  3-C ) :   1.8863 B(  2-C , 10-H ) :   0.9402 B(  3-C ,  4-C ) :   0.1216
B(  3-C , 11-H ) :   0.9398 B(  3-C , 12-H ) :   0.9376 B(  4-C ,  5-C ) :   1.1203
B(  4-C , 13-H ) :   0.9421 B(  5-C ,  6-N ) :   2.9258

FINAL SINGLE POINT ENERGY      -286.967609858558

DIPOLE MOMENT
-------------
                                X             Y             Z
Electronic contribution:      7.00880       1.83914      -3.14787
Nuclear contribution   :     -8.68117      -2.05692       3.51797
                        -----------------------------------------
Total Dipole Moment    :     -1.67237      -0.21778       0.37010
                        -----------------------------------------
Magnitude (a.u.)       :      1.72662
Magnitude (Debye)      :      4.38873

                             ****ORCA TERMINATED NORMALLY****
TOTAL RUN TIME: 0 days 0 hours 0 minutes 6 seconds 95 msec
