                         Program Version 3.0.3 - RELEASE   -
|  1> ! RI PBE def2-SVP def2-SVP/J NBO PAL2
|  2> % maxcore 2000
|  3> % output
|  4>     # printlevel mini
|  5>     print[ P_Basis ] 0
|  6>     print[ P_SCFInfo ] 1
|  7>     print[ P_SCFIterInfo ] 1
|  8>     print[ P_OrbEn ] 0
|  9>     print[ P_Cartesian ] 0
| 10> end
| 11> *xyz 0 1
| 12>  C        3.4312990000    -1.2806550000     2.1880890000
| 13>  C        2.8910390000    -0.9662880000     0.7992410000
| 14>  C        1.3701330000    -1.0363640000     0.7902350000
| 15>  C        3.3653090000     0.3915170000     0.2846560000
| 16>  C        4.8684920000     0.5230680000     0.0982030000
| 17>  C        5.2690120000     1.8420620000    -0.5361930000
| 18>  N        6.7166420000     1.9455590000    -0.6440470000
| 19>  H        3.0715810000    -2.2522350000     2.5369190000
| 20>  H        3.1000330000    -0.5267450000     2.9101450000
| 21>  H        4.5224930000    -1.3054930000     2.2089470000
| 22>  H        3.2684790000    -1.7324790000     0.1079620000
| 23>  H        0.9441400000    -0.2851080000     1.4632750000
| 24>  H        1.0146340000    -2.0156520000     1.1211510000
| 25>  H        0.9674490000    -0.8522820000    -0.2093800000
| 26>  H        3.0142080000     1.1714270000     0.9739940000
| 27>  H        2.8696420000     0.5912340000    -0.6736200000
| 28>  H        5.2289180000    -0.3009250000    -0.5326380000
| 29>  H        5.3923980000     0.4323810000     1.0537860000
| 30>  H        4.9204200000     2.6642260000     0.0983960000
| 31>  H        4.7443180000     1.9485570000    -1.5001590000
| 32>  H        7.0736480000     1.2273630000    -1.2633500000
| 33>  H        6.9841150000     2.8359320000    -1.0443100000
| 34> *
| 35>
| 36>                          ****END OF INPUT****
 Total Charge           Charge          ....    0
 Multiplicity           Mult            ....    1
 Number of Electrons    NEL             ....   58
 Basis Dimension        Dim             ....  173

MULLIKEN ATOMIC CHARGES
-----------------------
   0 C :    0.009089
   1 C :   -0.144601
   2 C :    0.041271
   3 C :    0.008445
   4 C :   -0.021533
   5 C :    0.065653
   6 N :   -0.200632
   7 H :    0.009562
   8 H :    0.012176
   9 H :    0.025978
  10 H :    0.004723
  11 H :    0.008301
  12 H :    0.009347
  13 H :    0.009857
  14 H :   -0.001964
  15 H :   -0.004576
  16 H :   -0.004210
  17 H :    0.016309
  18 H :    0.001736
  19 H :   -0.013597
  20 H :    0.084330
  21 H :    0.084337
Sum of atomic charges:   -0.0000000

LOEWDIN ATOMIC CHARGES
----------------------
   0 C :   -0.061272
   1 C :   -0.048170
   2 C :   -0.056279
   3 C :   -0.036497
   4 C :   -0.049569
   5 C :    0.005820
   6 N :   -0.112908
   7 H :    0.024215
   8 H :    0.023996
   9 H :    0.024511
  10 H :    0.022557
  11 H :    0.022671
  12 H :    0.022902
  13 H :    0.022326
  14 H :    0.020227
  15 H :    0.019333
  16 H :    0.018402
  17 H :    0.023942
  18 H :    0.018579
  19 H :   -0.003853
  20 H :    0.048123
  21 H :    0.050943

  Mayer bond orders larger than 0.1
B(  0-C ,  1-C ) :   1.0808 B(  0-C ,  7-H ) :   0.9574 B(  0-C ,  8-H ) :   0.9590
B(  0-C ,  9-H ) :   0.9595 B(  1-C ,  2-C ) :   1.0845 B(  1-C ,  3-C ) :   1.0625
B(  1-C , 10-H ) :   0.9107 B(  2-C , 11-H ) :   0.9602 B(  2-C , 12-H ) :   0.9591
B(  2-C , 13-H ) :   0.9600 B(  3-C ,  4-C ) :   1.0856 B(  3-C , 14-H ) :   0.9267
B(  3-C , 15-H ) :   0.9279 B(  4-C ,  5-C ) :   1.0944 B(  4-C , 16-H ) :   0.9313
B(  4-C , 17-H ) :   0.9193 B(  5-C ,  6-N ) :   1.0962 B(  5-C , 18-H ) :   0.9309
B(  5-C , 19-H ) :   0.9295 B(  6-N , 20-H ) :   0.9697 B(  6-N , 21-H ) :   0.9637

FINAL SINGLE POINT ENERGY      -291.794394717558

DIPOLE MOMENT
-------------
                                X             Y             Z
Electronic contribution:      2.82776       1.67973      -1.45571
Nuclear contribution   :     -2.89313      -1.62365       0.98140
                        -----------------------------------------
Total Dipole Moment    :     -0.06537       0.05608      -0.47431
                        -----------------------------------------
Magnitude (a.u.)       :      0.48206
Magnitude (Debye)      :      1.22531

                             ****ORCA TERMINATED NORMALLY****
TOTAL RUN TIME: 0 days 0 hours 0 minutes 8 seconds 748 msec
