                         Program Version 3.0.3 - RELEASE   -
|  1> ! RI PBE def2-SVP def2-SVP/J NBO PAL2
|  2> % maxcore 2000
|  3> % output
|  4>     # printlevel mini
|  5>     print[ P_Basis ] 0
|  6>     print[ P_SCFInfo ] 1
|  7>     print[ P_SCFIterInfo ] 1
|  8>     print[ P_OrbEn ] 0
|  9>     print[ P_Cartesian ] 0
| 10> end
| 11> *xyz 0 1
| 12>  C        0.7390620000     0.1932040000    -0.0163700000
| 13>  C        2.1825460000    -0.1623790000    -0.2027010000
| 14>  C        2.4247530000    -1.2654400000    -1.1850670000
| 15>  C        3.1370880000     0.4839560000     0.4690000000
| 16>  C        4.6143380000     0.2752180000     0.4232390000
| 17>  C        5.1776490000    -0.1792470000     1.7642450000
| 18>  N        6.6305110000    -0.2403050000     1.7143730000
| 19>  H        0.2875710000     0.5072490000    -0.9640840000
| 20>  H        0.6108650000     1.0000020000     0.7066950000
| 21>  H        0.1635320000    -0.6726500000     0.3294240000
| 22>  H        1.8836930000    -2.1694370000    -0.8851350000
| 23>  H        3.4770130000    -1.5233540000    -1.2941440000
| 24>  H        2.0403590000    -0.9894470000    -2.1731210000
| 25>  H        2.8115380000     1.2663330000     1.1544670000
| 26>  H        5.1147440000     1.2133720000     0.1559690000
| 27>  H        4.8903690000    -0.4516910000    -0.3461980000
| 28>  H        4.6977150000    -1.1302840000     2.0439110000
| 29>  H        4.8972110000     0.5487220000     2.5327830000
| 30>  H        6.9296090000    -0.9447040000     1.0501700000
| 31>  H        7.0084230000    -0.5089190000     2.6141430000
| 32> *
| 33>
| 34>                          ****END OF INPUT****
 Total Charge           Charge          ....    0
 Multiplicity           Mult            ....    1
 Number of Electrons    NEL             ....   56
 Basis Dimension        Dim             ....  163

MULLIKEN ATOMIC CHARGES
-----------------------
   0 C :    0.041620
   1 C :   -0.190055
   2 C :    0.070388
   3 C :   -0.094334
   4 C :    0.073695
   5 C :    0.033327
   6 N :   -0.201891
   7 H :    0.023142
   8 H :    0.016141
   9 H :    0.024385
  10 H :    0.019538
  11 H :    0.005694
  12 H :    0.023092
  13 H :   -0.024823
  14 H :    0.013152
  15 H :   -0.006117
  16 H :   -0.005461
  17 H :    0.007722
  18 H :    0.084889
  19 H :    0.085895
Sum of atomic charges:   -0.0000000

LOEWDIN ATOMIC CHARGES
----------------------
   0 C :   -0.057216
   1 C :   -0.047624
   2 C :   -0.058259
   3 C :   -0.058694
   4 C :   -0.049113
   5 C :    0.008045
   6 N :   -0.114087
   7 H :    0.031899
   8 H :    0.028771
   9 H :    0.031808
  10 H :    0.033979
  11 H :    0.025175
  12 H :    0.034853
  13 H :    0.019304
  14 H :    0.033392
  15 H :    0.020112
  16 H :   -0.001484
  17 H :    0.018982
  18 H :    0.048409
  19 H :    0.051749

  Mayer bond orders larger than 0.1
B(  0-C ,  1-C ) :   1.0850 B(  0-C ,  7-H ) :   0.9458 B(  0-C ,  8-H ) :   0.9523
B(  0-C ,  9-H ) :   0.9464 B(  1-C ,  2-C ) :   1.1043 B(  1-C ,  3-C ) :   1.8910
B(  2-C , 10-H ) :   0.9396 B(  2-C , 11-H ) :   0.9447 B(  2-C , 12-H ) :   0.9417
B(  3-C ,  4-C ) :   1.0602 B(  3-C , 13-H ) :   0.9340 B(  4-C ,  5-C ) :   1.0796
B(  4-C , 14-H ) :   0.8964 B(  4-C , 15-H ) :   0.9231 B(  5-C ,  6-N ) :   1.0903
B(  5-C , 16-H ) :   0.9322 B(  5-C , 17-H ) :   0.9375 B(  6-N , 18-H ) :   0.9696
B(  6-N , 19-H ) :   0.9641

FINAL SINGLE POINT ENERGY      -290.579116885124

DIPOLE MOMENT
-------------
                                X             Y             Z
Electronic contribution:      1.81221       1.22790       0.85981
Nuclear contribution   :     -1.91101      -1.75820      -0.78589
                        -----------------------------------------
Total Dipole Moment    :     -0.09881      -0.53030       0.07392
                        -----------------------------------------
Magnitude (a.u.)       :      0.54447
Magnitude (Debye)      :      1.38394

                             ****ORCA TERMINATED NORMALLY****
TOTAL RUN TIME: 0 days 0 hours 0 minutes 8 seconds 564 msec
