                         Program Version 3.0.3 - RELEASE   -
|  1> ! RI PBE def2-SVP def2-SVP/J NBO PAL2
|  2> % maxcore 2000
|  3> % output
|  4>     # printlevel mini
|  5>     print[ P_Basis ] 0
|  6>     print[ P_SCFInfo ] 1
|  7>     print[ P_SCFIterInfo ] 1
|  8>     print[ P_OrbEn ] 0
|  9>     print[ P_Cartesian ] 0
| 10> end
| 11> *xyz 0 1
| 12>  C        0.8995770000     0.1583990000     0.7637320000
| 13>  C        2.1763180000     0.5057730000     0.0564970000
| 14>  C        2.4443960000     1.9830860000     0.0699870000
| 15>  C        2.9759730000    -0.4036600000    -0.5188420000
| 16>  C        2.7392340000    -1.8854000000    -0.4848410000
| 17>  C        4.2289360000    -0.0382840000    -1.2699000000
| 18>  N        5.4131850000    -0.4170320000    -0.5022780000
| 19>  H        0.0775160000     0.7665510000     0.3703750000
| 20>  H        0.9704030000     0.3936150000     1.8319000000
| 21>  H        0.6137520000    -0.8863490000     0.6642910000
| 22>  H        1.6909150000     2.5203300000    -0.5173490000
| 23>  H        3.4260230000     2.2606120000    -0.3091010000
| 24>  H        2.3632650000     2.3658300000     1.0932870000
| 25>  H        2.3386280000    -2.2385480000    -1.4426080000
| 26>  H        2.0575690000    -2.2041510000     0.3016800000
| 27>  H        3.6942590000    -2.3934080000    -0.3287600000
| 28>  H        4.2156170000     1.0152300000    -1.5708910000
| 29>  H        4.2478100000    -0.6216390000    -2.1984240000
| 30>  H        5.4737320000     0.1432880000     0.3392130000
| 31>  H        6.2564220000    -0.2520330000    -1.0377680000
| 32> *
| 33>
| 34>                          ****END OF INPUT****
 Total Charge           Charge          ....    0
 Multiplicity           Mult            ....    1
 Number of Electrons    NEL             ....   56
 Basis Dimension        Dim             ....  163

MULLIKEN ATOMIC CHARGES
-----------------------
   0 C :    0.045465
   1 C :   -0.196880
   2 C :    0.060729
   3 C :   -0.202145
   4 C :    0.064360
   5 C :    0.136418
   6 N :   -0.211401
   7 H :    0.014448
   8 H :    0.026405
   9 H :    0.011935
  10 H :    0.024191
  11 H :    0.006972
  12 H :    0.013729
  13 H :    0.017552
  14 H :    0.014344
  15 H :    0.025552
  16 H :   -0.014596
  17 H :   -0.007883
  18 H :    0.085285
  19 H :    0.085520
Sum of atomic charges:   -0.0000000

LOEWDIN ATOMIC CHARGES
----------------------
   0 C :   -0.059190
   1 C :   -0.055727
   2 C :   -0.058634
   3 C :   -0.062334
   4 C :   -0.060329
   5 C :    0.012979
   6 N :   -0.107314
   7 H :    0.032179
   8 H :    0.033914
   9 H :    0.025896
  10 H :    0.033481
  11 H :    0.023066
  12 H :    0.030668
  13 H :    0.032716
  14 H :    0.024058
  15 H :    0.033270
  16 H :   -0.001246
  17 H :    0.023254
  18 H :    0.049222
  19 H :    0.050071

  Mayer bond orders larger than 0.1
B(  0-C ,  1-C ) :   1.0968 B(  0-C ,  7-H ) :   0.9410 B(  0-C ,  8-H ) :   0.9432
B(  0-C ,  9-H ) :   0.9467 B(  1-C ,  2-C ) :   1.0973 B(  1-C ,  3-C ) :   1.8598
B(  2-C , 10-H ) :   0.9429 B(  2-C , 11-H ) :   0.9431 B(  2-C , 12-H ) :   0.9440
B(  3-C ,  4-C ) :   1.0983 B(  3-C ,  5-C ) :   1.0730 B(  4-C , 13-H ) :   0.9383
B(  4-C , 14-H ) :   0.9482 B(  4-C , 15-H ) :   0.9317 B(  5-C ,  6-N ) :   1.0787
B(  5-C , 16-H ) :   0.9074 B(  5-C , 17-H ) :   0.9066 B(  6-N , 18-H ) :   0.9696
B(  6-N , 19-H ) :   0.9649

FINAL SINGLE POINT ENERGY      -290.578929866680

DIPOLE MOMENT
-------------
                                X             Y             Z
Electronic contribution:      1.80219      -0.48485      -0.67869
Nuclear contribution   :     -1.68003       0.95140       0.62400
                        -----------------------------------------
Total Dipole Moment    :      0.12215       0.46655      -0.05470
                        -----------------------------------------
Magnitude (a.u.)       :      0.48537
Magnitude (Debye)      :      1.23371

                             ****ORCA TERMINATED NORMALLY****
TOTAL RUN TIME: 0 days 0 hours 0 minutes 8 seconds 750 msec
