                         Program Version 3.0.3 - RELEASE   -
|  1> ! RI PBE def2-SVP def2-SVP/J NBO PAL2
|  2> % maxcore 2000
|  3> % output
|  4>     # printlevel mini
|  5>     print[ P_Basis ] 0
|  6>     print[ P_SCFInfo ] 1
|  7>     print[ P_SCFIterInfo ] 1
|  8>     print[ P_OrbEn ] 0
|  9>     print[ P_Cartesian ] 0
| 10> end
| 11> *xyz 0 1
| 12>  C        0.9883670000    -0.0984860000    -0.0142280000
| 13>  C        2.4888850000    -0.0796640000     0.0247040000
| 14>  C        3.2343730000    -0.6483890000    -1.1482060000
| 15>  C        3.1510900000     0.4314790000     1.0786860000
| 16>  C        2.5276580000     1.0267220000     2.3061330000
| 17>  C        4.5776460000     0.4219160000     1.0585400000
| 18>  N        5.7313510000     0.4225000000     1.0604730000
| 19>  H        0.6248370000    -0.5464980000    -0.9381430000
| 20>  H        0.5718640000     0.9106390000     0.0521680000
| 21>  H        0.5718290000    -0.6712260000     0.8192460000
| 22>  H        2.5520140000    -1.0189490000    -1.9124030000
| 23>  H        3.8836810000    -1.4730910000    -0.8421510000
| 24>  H        3.8836540000     0.1026580000    -1.6062090000
| 25>  H        1.4406450000     1.0015720000     2.2544330000
| 26>  H        2.8417430000     2.0660230000     2.4354220000
| 27>  H        2.8418540000     0.4847940000     3.2022950000
| 28> *
| 29>
| 30>                          ****END OF INPUT****
 Total Charge           Charge          ....    0
 Multiplicity           Mult            ....    1
 Number of Electrons    NEL             ....   52
 Basis Dimension        Dim             ....  143

MULLIKEN ATOMIC CHARGES
-----------------------
   0 C :    0.043791
   1 C :   -0.243362
   2 C :    0.095453
   3 C :   -0.195377
   4 C :    0.096709
   5 C :   -0.184504
   6 N :    0.046425
   7 H :    0.019291
   8 H :    0.047524
   9 H :    0.048925
  10 H :    0.013820
  11 H :    0.053824
  12 H :    0.054582
  13 H :    0.017462
  14 H :    0.043675
  15 H :    0.041764
Sum of atomic charges:   -0.0000000

LOEWDIN ATOMIC CHARGES
----------------------
   0 C :   -0.058067
   1 C :   -0.002229
   2 C :   -0.057515
   3 C :   -0.100515
   4 C :   -0.044675
   5 C :   -0.038066
   6 N :   -0.072946
   7 H :    0.033034
   8 H :    0.044292
   9 H :    0.044593
  10 H :    0.030539
  11 H :    0.049531
  12 H :    0.049966
  13 H :    0.032706
  14 H :    0.044929
  15 H :    0.044421

  Mayer bond orders larger than 0.1
B(  0-C ,  1-C ) :   1.0965 B(  0-C ,  7-H ) :   0.9413 B(  0-C ,  8-H ) :   0.9443
B(  0-C ,  9-H ) :   0.9438 B(  1-C ,  2-C ) :   1.1356 B(  1-C ,  3-C ) :   1.7554
B(  2-C , 10-H ) :   0.9364 B(  2-C , 11-H ) :   0.9306 B(  2-C , 12-H ) :   0.9294
B(  3-C ,  4-C ) :   1.1063 B(  3-C ,  5-C ) :   1.1428 B(  4-C , 13-H ) :   0.9331
B(  4-C , 14-H ) :   0.9404 B(  4-C , 15-H ) :   0.9409 B(  5-C ,  6-N ) :   2.9533

FINAL SINGLE POINT ENERGY      -288.183632867058

DIPOLE MOMENT
-------------
                                X             Y             Z
Electronic contribution:      7.24306       0.82170       1.69070
Nuclear contribution   :     -8.89094      -0.92056      -1.89870
                        -----------------------------------------
Total Dipole Moment    :     -1.64788      -0.09887      -0.20800
                        -----------------------------------------
Magnitude (a.u.)       :      1.66389
Magnitude (Debye)      :      4.22928

                             ****ORCA TERMINATED NORMALLY****
TOTAL RUN TIME: 0 days 0 hours 0 minutes 7 seconds 322 msec
