                         Program Version 3.0.3 - RELEASE   -
|  1> ! RI PBE def2-SVP def2-SVP/J NBO PAL2
|  2> % maxcore 2000
|  3> % output
|  4>     # printlevel mini
|  5>     print[ P_Basis ] 0
|  6>     print[ P_SCFInfo ] 1
|  7>     print[ P_SCFIterInfo ] 1
|  8>     print[ P_OrbEn ] 0
|  9>     print[ P_Cartesian ] 0
| 10> end
| 11> *xyz 0 1
| 12>  C        0.9003740000     0.0309860000     0.1271380000
| 13>  C        2.4279170000     0.0155420000    -0.0430750000
| 14>  C        3.0634620000    -0.9120020000     1.0049160000
| 15>  C        2.7773970000    -0.4725970000    -1.4288640000
| 16>  C        3.4439510000     0.1910720000    -2.3591190000
| 17>  C        2.9358440000     1.3736510000     0.1642410000
| 18>  N        3.3302140000     2.4397780000     0.3377100000
| 19>  H        0.5094950000    -0.9767340000    -0.0301570000
| 20>  H        0.4343170000     0.7013100000    -0.5955740000
| 21>  H        0.6284540000     0.3545680000     1.1334200000
| 22>  H        2.6952510000    -1.9296170000     0.8569080000
| 23>  H        2.7984510000    -0.5913470000     2.0139750000
| 24>  H        4.1498380000    -0.9185210000     0.9121580000
| 25>  H        2.4196390000    -1.4805790000    -1.6297120000
| 26>  H        3.8140320000     1.1971230000    -2.1906630000
| 27>  H        3.6409750000    -0.2566450000    -3.3258010000
| 28> *
| 29>
| 30>                          ****END OF INPUT****
 Total Charge           Charge          ....    0
 Multiplicity           Mult            ....    1
 Number of Electrons    NEL             ....   52
 Basis Dimension        Dim             ....  143

MULLIKEN ATOMIC CHARGES
-----------------------
   0 C :    0.068390
   1 C :   -0.276826
   2 C :    0.059948
   3 C :   -0.033694
   4 C :    0.004860
   5 C :   -0.174567
   6 N :    0.063440
   7 H :    0.025295
   8 H :    0.045342
   9 H :    0.035308
  10 H :    0.026130
  11 H :    0.038484
  12 H :    0.048086
  13 H :    0.006334
  14 H :    0.036412
  15 H :    0.027059
Sum of atomic charges:   -0.0000000

LOEWDIN ATOMIC CHARGES
----------------------
   0 C :   -0.026754
   1 C :   -0.086977
   2 C :   -0.028687
   3 C :   -0.015296
   4 C :   -0.047156
   5 C :   -0.022731
   6 N :   -0.069507
   7 H :    0.030383
   8 H :    0.036867
   9 H :    0.034037
  10 H :    0.030772
  11 H :    0.034484
  12 H :    0.037209
  13 H :    0.029639
  14 H :    0.033005
  15 H :    0.030712

  Mayer bond orders larger than 0.1
B(  0-C ,  1-C ) :   1.0495 B(  0-C ,  7-H ) :   0.9582 B(  0-C ,  8-H ) :   0.9594
B(  0-C ,  9-H ) :   0.9549 B(  1-C ,  2-C ) :   1.0494 B(  1-C ,  3-C ) :   0.9696
B(  1-C ,  5-C ) :   1.0219 B(  2-C , 10-H ) :   0.9565 B(  2-C , 11-H ) :   0.9555
B(  2-C , 12-H ) :   0.9592 B(  3-C ,  4-C ) :   2.0405 B(  3-C , 13-H ) :   0.9573
B(  4-C , 14-H ) :   0.9124 B(  4-C , 15-H ) :   0.9394 B(  5-C ,  6-N ) :   3.0602

FINAL SINGLE POINT ENERGY      -288.168570049629

DIPOLE MOMENT
-------------
                                X             Y             Z
Electronic contribution:      2.28899       5.24801      -0.01307
Nuclear contribution   :     -2.80983      -6.57320      -0.13793
                        -----------------------------------------
Total Dipole Moment    :     -0.52084      -1.32520      -0.15100
                        -----------------------------------------
Magnitude (a.u.)       :      1.43186
Magnitude (Debye)      :      3.63950

                             ****ORCA TERMINATED NORMALLY****
TOTAL RUN TIME: 0 days 0 hours 0 minutes 7 seconds 462 msec
