                         Program Version 3.0.3 - RELEASE   -
|  1> ! RI PBE def2-SVP def2-SVP/J NBO PAL2
|  2> % maxcore 2000
|  3> % output
|  4>     # printlevel mini
|  5>     print[ P_Basis ] 0
|  6>     print[ P_SCFInfo ] 1
|  7>     print[ P_SCFIterInfo ] 1
|  8>     print[ P_OrbEn ] 0
|  9>     print[ P_Cartesian ] 0
| 10> end
| 11> *xyz 0 1
| 12>  C        0.9595790000    -0.0468760000     0.0675780000
| 13>  C        2.4864410000    -0.0736890000     0.0070910000
| 14>  C        3.0105920000    -0.8338800000     1.2244890000
| 15>  C        2.9348840000    -0.8020080000    -1.2590170000
| 16>  C        3.0682110000     1.3470610000     0.0553700000
| 17>  C        2.7198780000     2.2768730000    -1.0937570000
| 18>  N        3.3743110000     3.5642860000    -0.8987450000
| 19>  H        0.5595290000    -1.0641300000     0.1069760000
| 20>  H        0.5238940000     0.4432760000    -0.8060520000
| 21>  H        0.6114100000     0.4822050000     0.9597820000
| 22>  H        2.6235750000    -1.8567440000     1.2439990000
| 23>  H        2.7080990000    -0.3433240000     2.1542800000
| 24>  H        4.1029400000    -0.8876880000     1.2143090000
| 25>  H        2.5957860000    -1.8416600000    -1.2436920000
| 26>  H        4.0255040000    -0.8072680000    -1.3445220000
| 27>  H        2.5289510000    -0.3385880000    -2.1614530000
| 28>  H        4.1606220000     1.2835790000     0.1127290000
| 29>  H        2.7419520000     1.8172290000     0.9932590000
| 30>  H        1.6266200000     2.3555680000    -1.1933900000
| 31>  H        3.0927320000     1.8582820000    -2.0331750000
| 32>  H        3.0326680000     4.0051180000    -0.0526080000
| 33>  H        3.1605320000     4.1933760000    -1.6624410000
| 34> *
| 35>
| 36>                          ****END OF INPUT****
 Total Charge           Charge          ....    0
 Multiplicity           Mult            ....    1
 Number of Electrons    NEL             ....   58
 Basis Dimension        Dim             ....  173

MULLIKEN ATOMIC CHARGES
-----------------------
   0 C :    0.066208
   1 C :   -0.339901
   2 C :    0.071806
   3 C :    0.060740
   4 C :    0.022393
   5 C :    0.099579
   6 N :   -0.216096
   7 H :    0.005866
   8 H :    0.014210
   9 H :    0.005556
  10 H :    0.004529
  11 H :    0.005798
  12 H :    0.012550
  13 H :    0.005909
  14 H :    0.015497
  15 H :    0.010012
  16 H :    0.008866
  17 H :   -0.010688
  18 H :   -0.009151
  19 H :   -0.003830
  20 H :    0.084483
  21 H :    0.085665
Sum of atomic charges:   -0.0000000

LOEWDIN ATOMIC CHARGES
----------------------
   0 C :   -0.049883
   1 C :   -0.065474
   2 C :   -0.047555
   3 C :   -0.049590
   4 C :   -0.037425
   5 C :    0.005667
   6 N :   -0.113026
   7 H :    0.022795
   8 H :    0.019336
   9 H :    0.022191
  10 H :    0.021221
  11 H :    0.022009
  12 H :    0.023522
  13 H :    0.023382
  14 H :    0.025108
  15 H :    0.020379
  16 H :    0.024683
  17 H :    0.016887
  18 H :   -0.001286
  19 H :    0.017662
  20 H :    0.047881
  21 H :    0.051514

  Mayer bond orders larger than 0.1
B(  0-C ,  1-C ) :   1.0425 B(  0-C ,  7-H ) :   0.9558 B(  0-C ,  8-H ) :   0.9560
B(  0-C ,  9-H ) :   0.9595 B(  1-C ,  2-C ) :   1.0554 B(  1-C ,  3-C ) :   1.0489
B(  1-C ,  4-C ) :   1.0151 B(  2-C , 10-H ) :   0.9543 B(  2-C , 11-H ) :   0.9562
B(  2-C , 12-H ) :   0.9566 B(  3-C , 13-H ) :   0.9552 B(  3-C , 14-H ) :   0.9598
B(  3-C , 15-H ) :   0.9524 B(  4-C ,  5-C ) :   1.0915 B(  4-C , 16-H ) :   0.9260
B(  4-C , 17-H ) :   0.9312 B(  5-C ,  6-N ) :   1.0816 B(  5-C , 18-H ) :   0.9266
B(  5-C , 19-H ) :   0.9186 B(  6-N , 20-H ) :   0.9695 B(  6-N , 21-H ) :   0.9629

FINAL SINGLE POINT ENERGY      -291.793128263925

DIPOLE MOMENT
-------------
                                X             Y             Z
Electronic contribution:      1.08710       2.80005      -0.49988
Nuclear contribution   :     -1.52440      -2.62632       0.45252
                        -----------------------------------------
Total Dipole Moment    :     -0.43730       0.17372      -0.04736
                        -----------------------------------------
Magnitude (a.u.)       :      0.47292
Magnitude (Debye)      :      1.20206

                             ****ORCA TERMINATED NORMALLY****
TOTAL RUN TIME: 0 days 0 hours 0 minutes 9 seconds 442 msec
