                         Program Version 3.0.3 - RELEASE   -
|  1> ! RI PBE def2-SVP def2-SVP/J NBO PAL2
|  2> % maxcore 2000
|  3> % output
|  4>     # printlevel mini
|  5>     print[ P_Basis ] 0
|  6>     print[ P_SCFInfo ] 1
|  7>     print[ P_SCFIterInfo ] 1
|  8>     print[ P_OrbEn ] 0
|  9>     print[ P_Cartesian ] 0
| 10> end
| 11> *xyz 0 1
| 12>  C        0.7828580000     0.0800500000    -0.1511230000
| 13>  C        2.2905610000    -0.0636720000     0.0335370000
| 14>  C        2.7014000000     0.4827690000     1.3971970000
| 15>  C        2.6909590000    -1.5308620000    -0.0847810000
| 16>  C        2.9720020000     0.7550360000    -1.0836510000
| 17>  C        4.4248690000     0.7133090000    -1.0367460000
| 18>  N        5.5730710000     0.6713220000    -0.9878210000
| 19>  H        0.2493570000    -0.4832720000     0.6180710000
| 20>  H        0.4633290000    -0.3002590000    -1.1255110000
| 21>  H        0.4707230000     1.1255740000    -0.0761640000
| 22>  H        2.2111380000    -0.0809710000     2.1945740000
| 23>  H        2.4158020000     1.5329690000     1.5054530000
| 24>  H        3.7811430000     0.4077460000     1.5467900000
| 25>  H        2.2005300000    -2.1212910000     0.6929350000
| 26>  H        3.7704230000    -1.6586530000     0.0260140000
| 27>  H        2.3978050000    -1.9444970000    -1.0538910000
| 28>  H        2.6614100000     1.8029850000    -1.0207210000
| 29>  H        2.6543200000     0.3853060000    -2.0639610000
| 30> *
| 31>
| 32>                          ****END OF INPUT****
 Total Charge           Charge          ....    0
 Multiplicity           Mult            ....    1
 Number of Electrons    NEL             ....   54
 Basis Dimension        Dim             ....  153

MULLIKEN ATOMIC CHARGES
-----------------------
   0 C :    0.102720
   1 C :   -0.404760
   2 C :    0.059993
   3 C :    0.062147
   4 C :    0.129892
   5 C :   -0.277723
   6 N :    0.061555
   7 H :    0.021061
   8 H :    0.009621
   9 H :    0.010964
  10 H :    0.017679
  11 H :    0.013388
  12 H :    0.039658
  13 H :    0.018284
  14 H :    0.039416
  15 H :    0.013458
  16 H :    0.041017
  17 H :    0.041631
Sum of atomic charges:   -0.0000000

LOEWDIN ATOMIC CHARGES
----------------------
   0 C :   -0.045041
   1 C :   -0.058141
   2 C :   -0.048570
   3 C :   -0.047915
   4 C :   -0.046726
   5 C :   -0.043339
   6 N :   -0.071823
   7 H :    0.029363
   8 H :    0.024907
   9 H :    0.024828
  10 H :    0.028502
  11 H :    0.025771
  12 H :    0.032721
  13 H :    0.028497
  14 H :    0.032553
  15 H :    0.025561
  16 H :    0.054358
  17 H :    0.054495

  Mayer bond orders larger than 0.1
B(  0-C ,  1-C ) :   1.0599 B(  0-C ,  7-H ) :   0.9574 B(  0-C ,  8-H ) :   0.9515
B(  0-C ,  9-H ) :   0.9539 B(  1-C ,  2-C ) :   1.0431 B(  1-C ,  3-C ) :   1.0397
B(  1-C ,  4-C ) :   1.0203 B(  2-C , 10-H ) :   0.9565 B(  2-C , 11-H ) :   0.9560
B(  2-C , 12-H ) :   0.9541 B(  3-C , 13-H ) :   0.9573 B(  3-C , 14-H ) :   0.9543
B(  3-C , 15-H ) :   0.9588 B(  4-C ,  5-C ) :   1.1318 B(  4-C , 16-H ) :   0.8853
B(  4-C , 17-H ) :   0.8876 B(  5-C ,  6-N ) :   3.0299

FINAL SINGLE POINT ENERGY      -289.397277634992

DIPOLE MOMENT
-------------
                                X             Y             Z
Electronic contribution:      7.68679       2.59686      -3.58405
Nuclear contribution   :     -9.16898      -2.66185       3.67989
                        -----------------------------------------
Total Dipole Moment    :     -1.48220      -0.06499       0.09583
                        -----------------------------------------
Magnitude (a.u.)       :      1.48671
Magnitude (Debye)      :      3.77892

                             ****ORCA TERMINATED NORMALLY****
TOTAL RUN TIME: 0 days 0 hours 0 minutes 8 seconds 423 msec
