                         Program Version 3.0.3 - RELEASE   -
|  1> ! RI PBE def2-SVP def2-SVP/J NBO PAL2
|  2> % maxcore 2000
|  3> % output
|  4>     # printlevel mini
|  5>     print[ P_Basis ] 0
|  6>     print[ P_SCFInfo ] 1
|  7>     print[ P_SCFIterInfo ] 1
|  8>     print[ P_OrbEn ] 0
|  9>     print[ P_Cartesian ] 0
| 10> end
| 11> *xyz 0 1
| 12>  C        0.9345210000     0.0748340000     0.0562550000
| 13>  C        2.4731810000     0.1009330000     0.0700830000
| 14>  C        2.9990660000     1.3064400000    -0.7289580000
| 15>  C        2.9619850000     0.1613590000     1.4498120000
| 16>  C        3.3455480000     0.2404810000     2.5827310000
| 17>  C        2.9705870000    -1.1333050000    -0.5581560000
| 18>  N        3.3398840000    -2.0870260000    -1.0824970000
| 19>  H        0.5590020000     0.9888580000     0.5178300000
| 20>  H        0.5562390000    -0.7818570000     0.6132060000
| 21>  H        0.5735070000     0.0174740000    -0.9717030000
| 22>  H        2.6312640000     2.2250450000    -0.2702840000
| 23>  H        2.6437150000     1.2524660000    -1.7590730000
| 24>  H        4.0884930000     1.3253230000    -0.7302150000
| 25>  H        3.6911080000     0.3020750000     3.5878700000
| 26> *
| 27>
| 28>                          ****END OF INPUT****
 Total Charge           Charge          ....    0
 Multiplicity           Mult            ....    1
 Number of Electrons    NEL             ....   50
 Basis Dimension        Dim             ....  133

MULLIKEN ATOMIC CHARGES
-----------------------
   0 C :    0.077880
   1 C :   -0.334876
   2 C :    0.075566
   3 C :    0.499548
   4 C :   -0.511773
   5 C :   -0.140917
   6 N :    0.071054
   7 H :    0.038622
   8 H :    0.050892
   9 H :    0.038904
  10 H :    0.037506
  11 H :    0.038949
  12 H :    0.052595
  13 H :    0.006050
Sum of atomic charges:   -0.0000000

LOEWDIN ATOMIC CHARGES
----------------------
   0 C :   -0.018658
   1 C :   -0.086929
   2 C :   -0.019794
   3 C :   -0.004790
   4 C :   -0.055600
   5 C :   -0.020645
   6 N :   -0.058503
   7 H :    0.036383
   8 H :    0.040054
   9 H :    0.035564
  10 H :    0.036290
  11 H :    0.035827
  12 H :    0.040209
  13 H :    0.040592

  Mayer bond orders larger than 0.1
B(  0-C ,  1-C ) :   1.0660 B(  0-C ,  7-H ) :   0.9582 B(  0-C ,  8-H ) :   0.9554
B(  0-C ,  9-H ) :   0.9553 B(  1-C ,  2-C ) :   1.0685 B(  1-C ,  3-C ) :   0.9350
B(  1-C ,  5-C ) :   0.9846 B(  2-C , 10-H ) :   0.9571 B(  2-C , 11-H ) :   0.9532
B(  2-C , 12-H ) :   0.9547 B(  3-C ,  4-C ) :   2.2927 B(  3-C , 13-H ) :  -0.1272
B(  4-C , 13-H ) :   1.1163 B(  5-C ,  6-N ) :   3.0996

FINAL SINGLE POINT ENERGY      -286.919577921402

DIPOLE MOMENT
-------------
                                X             Y             Z
Electronic contribution:      3.24202      -4.80823       0.99054
Nuclear contribution   :     -3.79637       6.03604      -0.51392
                        -----------------------------------------
Total Dipole Moment    :     -0.55435       1.22781       0.47662
                        -----------------------------------------
Magnitude (a.u.)       :      1.42898
Magnitude (Debye)      :      3.63217

                             ****ORCA TERMINATED NORMALLY****
TOTAL RUN TIME: 0 days 0 hours 0 minutes 7 seconds 72 msec
