                         Program Version 3.0.3 - RELEASE   -
|  1> ! RI PBE def2-SVP def2-SVP/J NBO PAL2
|  2> % maxcore 2000
|  3> % output
|  4>     # printlevel mini
|  5>     print[ P_Basis ] 0
|  6>     print[ P_SCFInfo ] 1
|  7>     print[ P_SCFIterInfo ] 1
|  8>     print[ P_OrbEn ] 0
|  9>     print[ P_Cartesian ] 0
| 10> end
| 11> *xyz 0 1
| 12>  C        0.8397390000     0.1919200000    -0.0530570000
| 13>  C        2.3622870000     0.1490840000     0.0522060000
| 14>  C        2.9009950000     1.4617620000     0.6166570000
| 15>  C        2.8031190000    -1.0088150000     0.8920650000
| 16>  C        3.5735760000    -2.0106260000     0.4859090000
| 17>  C        4.0075850000    -3.1508400000     1.3456570000
| 18>  N        3.6276100000    -4.4186410000     0.7350870000
| 19>  H        0.5140450000     1.0332820000    -0.6707150000
| 20>  H        0.3863570000     0.3111900000     0.9360320000
| 21>  H        0.4472040000    -0.7275430000    -0.4925580000
| 22>  H        2.7749050000     0.0110500000    -0.9540540000
| 23>  H        2.5262710000     1.6299610000     1.6311560000
| 24>  H        2.5864080000     2.3093570000     0.0018640000
| 25>  H        3.9921370000     1.4558230000     0.6600040000
| 26>  H        2.4531490000    -1.0024210000     1.9264950000
| 27>  H        3.9198010000    -2.0429930000    -0.5461620000
| 28>  H        3.6166470000    -3.0021240000     2.3641530000
| 29>  H        5.1015990000    -3.1441280000     1.4235990000
| 30>  H        2.6186680000    -4.4990890000     0.7006790000
| 31>  H        3.9750970000    -5.1981200000     1.2792630000
| 32> *
| 33>
| 34>                          ****END OF INPUT****
 Total Charge           Charge          ....    0
 Multiplicity           Mult            ....    1
 Number of Electrons    NEL             ....   56
 Basis Dimension        Dim             ....  163

MULLIKEN ATOMIC CHARGES
-----------------------
   0 C :    0.023858
   1 C :   -0.093071
   2 C :    0.014432
   3 C :   -0.016050
   4 C :   -0.091761
   5 C :    0.144729
   6 N :   -0.227640
   7 H :    0.016326
   8 H :    0.010172
   9 H :    0.020898
  10 H :    0.000225
  11 H :    0.010221
  12 H :    0.016885
  13 H :    0.025769
  14 H :   -0.020896
  15 H :   -0.007505
  16 H :   -0.016978
  17 H :    0.017747
  18 H :    0.086184
  19 H :    0.086455
Sum of atomic charges:    0.0000000

LOEWDIN ATOMIC CHARGES
----------------------
   0 C :   -0.054139
   1 C :   -0.047496
   2 C :   -0.056066
   3 C :   -0.031802
   4 C :   -0.050678
   5 C :    0.004802
   6 N :   -0.112482
   7 H :    0.024692
   8 H :    0.022511
   9 H :    0.026142
  10 H :    0.027542
  11 H :    0.023211
  12 H :    0.024876
  13 H :    0.027233
  14 H :    0.017500
  15 H :    0.023268
  16 H :    0.001104
  17 H :    0.029442
  18 H :    0.049620
  19 H :    0.050720

  Mayer bond orders larger than 0.1
B(  0-C ,  1-C ) :   1.0659 B(  0-C ,  7-H ) :   0.9600 B(  0-C ,  8-H ) :   0.9616
B(  0-C ,  9-H ) :   0.9635 B(  1-C ,  2-C ) :   1.0704 B(  1-C ,  3-C ) :   1.0190
B(  1-C , 10-H ) :   0.9122 B(  2-C , 11-H ) :   0.9587 B(  2-C , 12-H ) :   0.9584
B(  2-C , 13-H ) :   0.9632 B(  3-C ,  4-C ) :   1.8958 B(  3-C , 14-H ) :   0.9435
B(  4-C ,  5-C ) :   1.0662 B(  4-C , 15-H ) :   0.9549 B(  5-C ,  6-N ) :   1.0590
B(  5-C , 16-H ) :   0.9216 B(  5-C , 17-H ) :   0.9140 B(  6-N , 18-H ) :   0.9730
B(  6-N , 19-H ) :   0.9653

FINAL SINGLE POINT ENERGY      -290.575809652790

DIPOLE MOMENT
-------------
                                X             Y             Z
Electronic contribution:      1.97650      -3.63800      -0.14733
Nuclear contribution   :     -2.17081       3.56942       0.52730
                        -----------------------------------------
Total Dipole Moment    :     -0.19431      -0.06858       0.37997
                        -----------------------------------------
Magnitude (a.u.)       :      0.43225
Magnitude (Debye)      :      1.09868

                             ****ORCA TERMINATED NORMALLY****
TOTAL RUN TIME: 0 days 0 hours 0 minutes 8 seconds 413 msec
