                         Program Version 3.0.3 - RELEASE   -
|  1> ! RI PBE def2-SVP def2-SVP/J NBO PAL2
|  2> % maxcore 2000
|  3> % output
|  4>     # printlevel mini
|  5>     print[ P_Basis ] 0
|  6>     print[ P_SCFInfo ] 1
|  7>     print[ P_SCFIterInfo ] 1
|  8>     print[ P_OrbEn ] 0
|  9>     print[ P_Cartesian ] 0
| 10> end
| 11> *xyz 0 1
| 12>  C        0.8247300000     0.0870700000    -0.0920800000
| 13>  C        2.3474300000    -0.0342810000    -0.0570150000
| 14>  C        3.0000420000     1.3403440000     0.0806570000
| 15>  C        2.7686430000    -0.9203670000     1.0657650000
| 16>  C        3.4379970000    -2.0649330000     0.9228140000
| 17>  C        3.8177250000    -2.8766360000     2.0262670000
| 18>  N        4.1348420000    -3.5489560000     2.9071610000
| 19>  H        0.5139560000     0.7309030000    -0.9182630000
| 20>  H        0.4484550000     0.5291490000     0.8349570000
| 21>  H        0.3486420000    -0.8870810000    -0.2188710000
| 22>  H        2.6836800000    -0.4885450000    -0.9960060000
| 23>  H        2.6952200000     1.8238290000     1.0132590000
| 24>  H        2.6976320000     1.9887900000    -0.7450190000
| 25>  H        4.0893030000     1.2680730000     0.0784330000
| 26>  H        2.5011970000    -0.5926710000     2.0691970000
| 27>  H        3.7246060000    -2.4286860000    -0.0595570000
| 28> *
| 29>
| 30>                          ****END OF INPUT****
 Total Charge           Charge          ....    0
 Multiplicity           Mult            ....    1
 Number of Electrons    NEL             ....   52
 Basis Dimension        Dim             ....  143

MULLIKEN ATOMIC CHARGES
-----------------------
   0 C :    0.022708
   1 C :   -0.100838
   2 C :    0.002034
   3 C :    0.005643
   4 C :   -0.102598
   5 C :   -0.103656
   6 N :    0.036239
   7 H :    0.026574
   8 H :    0.021954
   9 H :    0.030755
  10 H :    0.006929
  11 H :    0.025070
  12 H :    0.030396
  13 H :    0.037490
  14 H :    0.022529
  15 H :    0.038769
Sum of atomic charges:   -0.0000000

LOEWDIN ATOMIC CHARGES
----------------------
   0 C :   -0.048419
   1 C :   -0.047512
   2 C :   -0.052241
   3 C :    0.037481
   4 C :   -0.079682
   5 C :   -0.044395
   6 N :   -0.060292
   7 H :    0.030546
   8 H :    0.027581
   9 H :    0.030291
  10 H :    0.030405
  11 H :    0.028189
  12 H :    0.031361
  13 H :    0.031511
  14 H :    0.036795
  15 H :    0.048380

  Mayer bond orders larger than 0.1
B(  0-C ,  1-C ) :   1.0629 B(  0-C ,  7-H ) :   0.9575 B(  0-C ,  8-H ) :   0.9639
B(  0-C ,  9-H ) :   0.9622 B(  1-C ,  2-C ) :   1.0604 B(  1-C ,  3-C ) :   1.0236
B(  1-C , 10-H ) :   0.9109 B(  2-C , 11-H ) :   0.9631 B(  2-C , 12-H ) :   0.9566
B(  2-C , 13-H ) :   0.9629 B(  3-C ,  4-C ) :   1.8377 B(  3-C ,  6-N ) :   0.1087
B(  3-C , 14-H ) :   0.9563 B(  4-C ,  5-C ) :   1.1065 B(  4-C , 15-H ) :   0.9456
B(  5-C ,  6-N ) :   2.9671

FINAL SINGLE POINT ENERGY      -288.178832938020

DIPOLE MOMENT
-------------
                                X             Y             Z
Electronic contribution:      5.06557      -9.59533       5.72736
Nuclear contribution   :     -5.67474      10.81088      -6.91133
                        -----------------------------------------
Total Dipole Moment    :     -0.60917       1.21555      -1.18397
                        -----------------------------------------
Magnitude (a.u.)       :      1.80290
Magnitude (Debye)      :      4.58260

                             ****ORCA TERMINATED NORMALLY****
TOTAL RUN TIME: 0 days 0 hours 0 minutes 6 seconds 743 msec
