                         Program Version 3.0.3 - RELEASE   -
|  1> ! RI PBE def2-SVP def2-SVP/J NBO PAL2
|  2> % maxcore 2000
|  3> % output
|  4>     # printlevel mini
|  5>     print[ P_Basis ] 0
|  6>     print[ P_SCFInfo ] 1
|  7>     print[ P_SCFIterInfo ] 1
|  8>     print[ P_OrbEn ] 0
|  9>     print[ P_Cartesian ] 0
| 10> end
| 11> *xyz 0 1
| 12>  C        0.9022130000     0.2082620000    -0.0854540000
| 13>  C        2.4125020000    -0.0303040000    -0.0765260000
| 14>  C        2.9003750000    -0.3502820000     1.3347180000
| 15>  C        2.8263060000    -1.0801990000    -1.0826410000
| 16>  C        3.4662630000    -0.7509480000    -2.1999340000
| 17>  C        2.4739400000    -2.5069760000    -0.7602480000
| 18>  N        2.6638770000    -3.4088870000    -1.8803910000
| 19>  H        0.6417860000     1.0289740000     0.5884160000
| 20>  H        0.3516900000    -0.6749420000     0.2495260000
| 21>  H        0.5510030000     0.4661430000    -1.0868010000
| 22>  H        2.8920140000     0.9032720000    -0.3903330000
| 23>  H        2.4170080000    -1.2465120000     1.7335780000
| 24>  H        2.6679360000     0.4736580000     2.0141230000
| 25>  H        3.9808630000    -0.5109400000     1.3552240000
| 26>  H        3.7191790000     0.2826510000    -2.4117900000
| 27>  H        3.7681310000    -1.5033420000    -2.9181220000
| 28>  H        1.4514350000    -2.5261940000    -0.3489340000
| 29>  H        3.1236360000    -2.8461640000     0.0557540000
| 30>  H        2.0233580000    -3.1762470000    -2.6299200000
| 31>  H        2.4707840000    -4.3620320000    -1.6026350000
| 32> *
| 33>
| 34>                          ****END OF INPUT****
 Total Charge           Charge          ....    0
 Multiplicity           Mult            ....    1
 Number of Electrons    NEL             ....   56
 Basis Dimension        Dim             ....  163

MULLIKEN ATOMIC CHARGES
-----------------------
   0 C :    0.026589
   1 C :   -0.077743
   2 C :    0.000405
   3 C :   -0.189066
   4 C :   -0.018012
   5 C :    0.160740
   6 N :   -0.201567
   7 H :    0.015165
   8 H :    0.014317
   9 H :    0.018085
  10 H :   -0.009837
  11 H :    0.016869
  12 H :    0.019823
  13 H :    0.028491
  14 H :   -0.001214
  15 H :    0.008846
  16 H :   -0.010855
  17 H :    0.016620
  18 H :    0.093317
  19 H :    0.089026
Sum of atomic charges:    0.0000000

LOEWDIN ATOMIC CHARGES
----------------------
   0 C :   -0.054715
   1 C :   -0.038962
   2 C :   -0.058566
   3 C :   -0.036306
   4 C :   -0.077242
   5 C :    0.009429
   6 N :   -0.099539
   7 H :    0.025417
   8 H :    0.019425
   9 H :    0.026329
  10 H :    0.028344
  11 H :    0.021596
  12 H :    0.026915
  13 H :    0.028353
  14 H :    0.016820
  15 H :    0.017962
  16 H :    0.005009
  17 H :    0.032659
  18 H :    0.052945
  19 H :    0.054128

  Mayer bond orders larger than 0.1
B(  0-C ,  1-C ) :   1.0736 B(  0-C ,  7-H ) :   0.9576 B(  0-C ,  8-H ) :   0.9568
B(  0-C ,  9-H ) :   0.9606 B(  1-C ,  2-C ) :   1.0754 B(  1-C ,  3-C ) :   1.0238
B(  1-C , 10-H ) :   0.8935 B(  2-C , 11-H ) :   0.9528 B(  2-C , 12-H ) :   0.9582
B(  2-C , 13-H ) :   0.9625 B(  3-C ,  4-C ) :   2.0143 B(  3-C ,  5-C ) :   1.0107
B(  4-C , 14-H ) :   0.9253 B(  4-C , 15-H ) :   0.9125 B(  5-C ,  6-N ) :   1.1193
B(  5-C , 16-H ) :   0.9146 B(  5-C , 17-H ) :   0.8958 B(  6-N , 18-H ) :   0.9641
B(  6-N , 19-H ) :   0.9608

FINAL SINGLE POINT ENERGY      -290.573572190367

DIPOLE MOMENT
-------------
                                X             Y             Z
Electronic contribution:      1.71663      -1.58383      -2.83770
Nuclear contribution   :     -2.24183       1.37367       3.08139
                        -----------------------------------------
Total Dipole Moment    :     -0.52520      -0.21016       0.24370
                        -----------------------------------------
Magnitude (a.u.)       :      0.61595
Magnitude (Debye)      :      1.56562

                             ****ORCA TERMINATED NORMALLY****
TOTAL RUN TIME: 0 days 0 hours 0 minutes 8 seconds 512 msec
