                         Program Version 3.0.3 - RELEASE   -
|  1> ! RI PBE def2-SVP def2-SVP/J NBO PAL2
|  2> % maxcore 2000
|  3> % output
|  4>     # printlevel mini
|  5>     print[ P_Basis ] 0
|  6>     print[ P_SCFInfo ] 1
|  7>     print[ P_SCFIterInfo ] 1
|  8>     print[ P_OrbEn ] 0
|  9>     print[ P_Cartesian ] 0
| 10> end
| 11> *xyz 0 1
| 12>  C        1.0276910000     0.0936840000     0.1620650000
| 13>  C        2.5455520000     0.0698040000     0.0074800000
| 14>  C        3.2394220000     0.0949320000     1.3662110000
| 15>  C        2.9884230000    -1.1231780000    -0.8052410000
| 16>  C        3.6231290000    -1.0461600000    -1.9742220000
| 17>  C        2.6911510000    -2.4130900000    -0.2556930000
| 18>  N        2.4365330000    -3.4332550000     0.2155900000
| 19>  H        0.7196990000     0.9791130000     0.7226530000
| 20>  H        0.6776490000    -0.7867240000     0.7075620000
| 21>  H        0.5279270000     0.1116240000    -0.8086010000
| 22>  H        2.8540330000     0.9540430000    -0.5600530000
| 23>  H        2.9714520000    -0.7850980000     1.9569210000
| 24>  H        2.9354450000     0.9807320000     1.9283870000
| 25>  H        4.3259380000     0.1131370000     1.2592520000
| 26>  H        3.8579810000    -0.0810670000    -2.4085160000
| 27>  H        3.9204760000    -1.9324970000    -2.5202940000
| 28> *
| 29>
| 30>                          ****END OF INPUT****
 Total Charge           Charge          ....    0
 Multiplicity           Mult            ....    1
 Number of Electrons    NEL             ....   52
 Basis Dimension        Dim             ....  143

MULLIKEN ATOMIC CHARGES
-----------------------
   0 C :    0.021659
   1 C :   -0.060464
   2 C :    0.008861
   3 C :   -0.207029
   4 C :    0.039899
   5 C :   -0.123145
   6 N :    0.065116
   7 H :    0.024251
   8 H :    0.042123
   9 H :    0.025953
  10 H :   -0.006014
  11 H :    0.044247
  12 H :    0.026358
  13 H :    0.031300
  14 H :    0.029617
  15 H :    0.037270
Sum of atomic charges:   -0.0000000

LOEWDIN ATOMIC CHARGES
----------------------
   0 C :   -0.050960
   1 C :   -0.032322
   2 C :   -0.053906
   3 C :   -0.056928
   4 C :   -0.004058
   5 C :   -0.033971
   6 N :   -0.055585
   7 H :    0.030354
   8 H :    0.033034
   9 H :    0.029844
  10 H :    0.031652
  11 H :    0.033465
  12 H :    0.030692
  13 H :    0.030883
  14 H :    0.030932
  15 H :    0.036875

  Mayer bond orders larger than 0.1
B(  0-C ,  1-C ) :   1.0778 B(  0-C ,  7-H ) :   0.9574 B(  0-C ,  8-H ) :   0.9595
B(  0-C ,  9-H ) :   0.9580 B(  1-C ,  2-C ) :   1.0809 B(  1-C ,  3-C ) :   1.0191
B(  1-C , 10-H ) :   0.8783 B(  2-C , 11-H ) :   0.9569 B(  2-C , 12-H ) :   0.9567
B(  2-C , 13-H ) :   0.9583 B(  3-C ,  4-C ) :   1.9576 B(  3-C ,  5-C ) :   1.0797
B(  4-C ,  6-N ) :   0.1112 B(  4-C , 14-H ) :   0.9280 B(  4-C , 15-H ) :   0.9320
B(  5-C ,  6-N ) :   2.9865

FINAL SINGLE POINT ENERGY      -288.176650610138

DIPOLE MOMENT
-------------
                                X             Y             Z
Electronic contribution:      1.10084      -7.15209      -2.01027
Nuclear contribution   :     -0.86444       8.48444       1.56764
                        -----------------------------------------
Total Dipole Moment    :      0.23640       1.33235      -0.44264
                        -----------------------------------------
Magnitude (a.u.)       :      1.42371
Magnitude (Debye)      :      3.61879

                             ****ORCA TERMINATED NORMALLY****
TOTAL RUN TIME: 0 days 0 hours 0 minutes 7 seconds 173 msec
