                         Program Version 3.0.3 - RELEASE   -
|  1> ! RI PBE def2-SVP def2-SVP/J NBO PAL2
|  2> % maxcore 2000
|  3> % output
|  4>     # printlevel mini
|  5>     print[ P_Basis ] 0
|  6>     print[ P_SCFInfo ] 1
|  7>     print[ P_SCFIterInfo ] 1
|  8>     print[ P_OrbEn ] 0
|  9>     print[ P_Cartesian ] 0
| 10> end
| 11> *xyz 0 1
| 12>  C        3.0487550000     0.8831760000    -1.5772580000
| 13>  C        2.7143540000     0.0866150000    -0.3210010000
| 14>  C        1.2342750000     0.2176150000     0.0141660000
| 15>  C        3.1621960000    -1.3838900000    -0.3834150000
| 16>  C        2.4783570000    -2.2026150000    -1.4699600000
| 17>  C        4.6812910000    -1.5024430000    -0.4890040000
| 18>  N        5.1201840000    -2.8623260000    -0.2112060000
| 19>  H        2.7626420000     1.9306710000    -1.4515420000
| 20>  H        2.5088170000     0.5017140000    -2.4480220000
| 21>  H        4.1163210000     0.8605960000    -1.8074400000
| 22>  H        3.2751660000     0.5381890000     0.5087600000
| 23>  H        0.6039370000    -0.1436460000    -0.8028450000
| 24>  H        0.9679590000     1.2627270000     0.1925200000
| 25>  H        0.9763330000    -0.3512420000     0.9119000000
| 26>  H        2.8844750000    -1.8248100000     0.5859360000
| 27>  H        2.6687370000    -1.7843050000    -2.4624580000
| 28>  H        1.3970530000    -2.2492450000    -1.3262000000
| 29>  H        2.8688230000    -3.2212160000    -1.4616570000
| 30>  H        5.1425090000    -0.7507160000     0.1726520000
| 31>  H        4.9959890000    -1.2571150000    -1.5088480000
| 32>  H        4.9756710000    -3.0860550000     0.7662220000
| 33>  H        6.1095570000    -2.9666660000    -0.3947980000
| 34> *
| 35>
| 36>                          ****END OF INPUT****
 Total Charge           Charge          ....    0
 Multiplicity           Mult            ....    1
 Number of Electrons    NEL             ....   58
 Basis Dimension        Dim             ....  173

MULLIKEN ATOMIC CHARGES
-----------------------
   0 C :    0.008168
   1 C :   -0.109236
   2 C :    0.027499
   3 C :   -0.128611
   4 C :    0.035496
   5 C :    0.111483
   6 N :   -0.200032
   7 H :    0.014600
   8 H :    0.013737
   9 H :    0.018709
  10 H :   -0.005618
  11 H :    0.019496
  12 H :    0.011122
  13 H :    0.008144
  14 H :   -0.014742
  15 H :    0.003323
  16 H :    0.015416
  17 H :    0.017927
  18 H :   -0.018855
  19 H :   -0.002019
  20 H :    0.085760
  21 H :    0.088233
Sum of atomic charges:   -0.0000000

LOEWDIN ATOMIC CHARGES
----------------------
   0 C :   -0.061378
   1 C :   -0.043144
   2 C :   -0.059129
   3 C :   -0.047588
   4 C :   -0.061147
   5 C :    0.011357
   6 N :   -0.104994
   7 H :    0.026330
   8 H :    0.022869
   9 H :    0.023150
  10 H :    0.020555
  11 H :    0.023223
  12 H :    0.024209
  13 H :    0.023007
  14 H :    0.018615
  15 H :    0.020396
  16 H :    0.021971
  17 H :    0.026542
  18 H :   -0.003289
  19 H :    0.016810
  20 H :    0.049323
  21 H :    0.052311

  Mayer bond orders larger than 0.1
B(  0-C ,  1-C ) :   1.0743 B(  0-C ,  7-H ) :   0.9574 B(  0-C ,  8-H ) :   0.9570
B(  0-C ,  9-H ) :   0.9594 B(  1-C ,  2-C ) :   1.0923 B(  1-C ,  3-C ) :   1.0327
B(  1-C , 10-H ) :   0.8983 B(  2-C , 11-H ) :   0.9574 B(  2-C , 12-H ) :   0.9576
B(  2-C , 13-H ) :   0.9558 B(  3-C ,  4-C ) :   1.0718 B(  3-C ,  5-C ) :   1.0558
B(  3-C , 14-H ) :   0.9059 B(  4-C , 15-H ) :   0.9557 B(  4-C , 16-H ) :   0.9599
B(  4-C , 17-H ) :   0.9422 B(  5-C ,  6-N ) :   1.1016 B(  5-C , 18-H ) :   0.9255
B(  5-C , 19-H ) :   0.9198 B(  6-N , 20-H ) :   0.9681 B(  6-N , 21-H ) :   0.9647

FINAL SINGLE POINT ENERGY      -291.793113138754

DIPOLE MOMENT
-------------
                                X             Y             Z
Electronic contribution:      2.35465      -1.90667       1.26207
Nuclear contribution   :     -1.98171       2.07436      -0.92618
                        -----------------------------------------
Total Dipole Moment    :      0.37294       0.16768       0.33589
                        -----------------------------------------
Magnitude (a.u.)       :      0.52917
Magnitude (Debye)      :      1.34506

                             ****ORCA TERMINATED NORMALLY****
TOTAL RUN TIME: 0 days 0 hours 0 minutes 9 seconds 389 msec
