                         Program Version 3.0.3 - RELEASE   -
|  1> ! RI PBE def2-SVP def2-SVP/J NBO PAL2
|  2> % maxcore 2000
|  3> % output
|  4>     # printlevel mini
|  5>     print[ P_Basis ] 0
|  6>     print[ P_SCFInfo ] 1
|  7>     print[ P_SCFIterInfo ] 1
|  8>     print[ P_OrbEn ] 0
|  9>     print[ P_Cartesian ] 0
| 10> end
| 11> *xyz 0 1
| 12>  C        3.4903830000     1.0955050000    -0.5147910000
| 13>  C        2.9714610000     0.0836850000     0.5013440000
| 14>  C        1.5233330000     0.4095890000     0.8481520000
| 15>  C        3.1926940000    -1.3879290000     0.0678500000
| 16>  C        2.8558560000    -2.3286840000     1.2200410000
| 17>  C        2.3498710000    -1.7647270000    -1.1531400000
| 18>  N        4.6271240000    -1.5553750000    -0.1884470000
| 19>  H        3.3460480000     2.1109720000    -0.1372510000
| 20>  H        2.9543560000     1.0294090000    -1.4663390000
| 21>  H        4.5582310000     0.9764660000    -0.7074860000
| 22>  H        3.5749070000     0.1995740000     1.4095930000
| 23>  H        0.8782950000     0.3615590000    -0.0337440000
| 24>  H        1.4536520000     1.4265180000     1.2423220000
| 25>  H        1.1112220000    -0.2605990000     1.6046070000
| 26>  H        1.7928580000    -2.3138920000     1.4624240000
| 27>  H        3.1127880000    -3.3585930000     0.9531060000
| 28>  H        3.4257100000    -2.0597630000     2.1122400000
| 29>  H        1.2771790000    -1.6852860000    -0.9595130000
| 30>  H        2.5569520000    -2.7997600000    -1.4395400000
| 31>  H        2.5855750000    -1.1314020000    -2.0122880000
| 32>  H        4.8334160000    -2.5385120000    -0.3258290000
| 33>  H        4.8913170000    -1.0866660000    -1.0468320000
| 34> *
| 35>
| 36>                          ****END OF INPUT****
 Total Charge           Charge          ....    0
 Multiplicity           Mult            ....    1
 Number of Electrons    NEL             ....   58
 Basis Dimension        Dim             ....  173

MULLIKEN ATOMIC CHARGES
-----------------------
   0 C :    0.010166
   1 C :   -0.063395
   2 C :    0.023730
   3 C :   -0.252549
   4 C :    0.070690
   5 C :    0.065384
   6 N :   -0.139574
   7 H :    0.011943
   8 H :    0.010734
   9 H :    0.020391
  10 H :    0.001549
  11 H :    0.013660
  12 H :    0.011139
  13 H :    0.012546
  14 H :    0.015281
  15 H :    0.001669
  16 H :    0.016135
  17 H :    0.011449
  18 H :   -0.000917
  19 H :    0.005067
  20 H :    0.077453
  21 H :    0.077446
Sum of atomic charges:   -0.0000000

LOEWDIN ATOMIC CHARGES
----------------------
   0 C :   -0.063262
   1 C :   -0.040095
   2 C :   -0.060458
   3 C :   -0.020755
   4 C :   -0.052550
   5 C :   -0.068947
   6 N :   -0.086638
   7 H :    0.027187
   8 H :    0.020427
   9 H :    0.023529
  10 H :    0.026109
  11 H :    0.022026
  12 H :    0.026760
  13 H :    0.022355
  14 H :    0.023555
  15 H :    0.020844
  16 H :    0.026749
  17 H :    0.022866
  18 H :    0.020395
  19 H :    0.019206
  20 H :    0.046926
  21 H :    0.043773

  Mayer bond orders larger than 0.1
B(  0-C ,  1-C ) :   1.0857 B(  0-C ,  7-H ) :   0.9557 B(  0-C ,  8-H ) :   0.9551
B(  0-C ,  9-H ) :   0.9508 B(  1-C ,  2-C ) :   1.0776 B(  1-C ,  3-C ) :   0.9907
B(  1-C , 10-H ) :   0.8971 B(  2-C , 11-H ) :   0.9532 B(  2-C , 12-H ) :   0.9526
B(  2-C , 13-H ) :   0.9570 B(  3-C ,  4-C ) :   1.0602 B(  3-C ,  5-C ) :   1.0385
B(  3-C ,  6-N ) :   1.0579 B(  4-C , 14-H ) :   0.9534 B(  4-C , 15-H ) :   0.9483
B(  4-C , 16-H ) :   0.9529 B(  5-C , 17-H ) :   0.9428 B(  5-C , 18-H ) :   0.9499
B(  5-C , 19-H ) :   0.9502 B(  6-N , 20-H ) :   0.9593 B(  6-N , 21-H ) :   0.9541

FINAL SINGLE POINT ENERGY      -291.796417355488

DIPOLE MOMENT
-------------
                                X             Y             Z
Electronic contribution:      2.43763      -0.82115       0.40549
Nuclear contribution   :     -2.57333       0.64573      -0.73074
                        -----------------------------------------
Total Dipole Moment    :     -0.13570      -0.17542      -0.32525
                        -----------------------------------------
Magnitude (a.u.)       :      0.39367
Magnitude (Debye)      :      1.00063

                             ****ORCA TERMINATED NORMALLY****
TOTAL RUN TIME: 0 days 0 hours 0 minutes 9 seconds 660 msec
