                         Program Version 3.0.3 - RELEASE   -
|  1> ! RI PBE def2-SVP def2-SVP/J NBO PAL2
|  2> % maxcore 2000
|  3> % output
|  4>     # printlevel mini
|  5>     print[ P_Basis ] 0
|  6>     print[ P_SCFInfo ] 1
|  7>     print[ P_SCFIterInfo ] 1
|  8>     print[ P_OrbEn ] 0
|  9>     print[ P_Cartesian ] 0
| 10> end
| 11> *xyz 0 1
| 12>  C        1.0945730000    -0.2253920000    -0.1274000000
| 13>  C        2.6011090000    -0.0133730000    -0.1308430000
| 14>  C        3.0076630000     1.0081120000    -1.1827010000
| 15>  C        3.1097000000     0.3471150000     1.2819730000
| 16>  C        4.6328960000     0.3682170000     1.4061280000
| 17>  C        2.5480300000     1.6195140000     1.7305180000
| 18>  N        2.1129390000     2.6277710000     2.0730670000
| 19>  H        0.7492520000    -0.5521470000    -1.1106550000
| 20>  H        0.5703610000     0.7022950000     0.1187040000
| 21>  H        0.7967710000    -0.9836060000     0.6018410000
| 22>  H        3.0833660000    -0.9689860000    -0.3707760000
| 23>  H        2.5756590000     1.9882960000    -0.9615980000
| 24>  H        2.6459240000     0.7003470000    -2.1662230000
| 25>  H        4.0910100000     1.1228570000    -1.2524120000
| 26>  H        2.7203760000    -0.4139680000     1.9689410000
| 27>  H        5.0714450000     1.1653450000     0.8054850000
| 28>  H        5.0415060000    -0.5863110000     1.0679590000
| 29>  H        4.9359100000     0.5248250000     2.4421830000
| 30> *
| 31>
| 32>                          ****END OF INPUT****
 Total Charge           Charge          ....    0
 Multiplicity           Mult            ....    1
 Number of Electrons    NEL             ....   54
 Basis Dimension        Dim             ....  153

MULLIKEN ATOMIC CHARGES
-----------------------
   0 C :    0.031189
   1 C :   -0.134944
   2 C :    0.016392
   3 C :   -0.088190
   4 C :    0.043086
   5 C :   -0.234779
   6 N :    0.051172
   7 H :    0.021430
   8 H :    0.037427
   9 H :    0.015724
  10 H :    0.010732
  11 H :    0.036867
  12 H :    0.020269
  13 H :    0.023047
  14 H :    0.045021
  15 H :    0.042039
  16 H :    0.026352
  17 H :    0.037167
Sum of atomic charges:    0.0000000

LOEWDIN ATOMIC CHARGES
----------------------
   0 C :   -0.056706
   1 C :   -0.032788
   2 C :   -0.058648
   3 C :   -0.061126
   4 C :   -0.039949
   5 C :   -0.037773
   6 N :   -0.073510
   7 H :    0.029435
   8 H :    0.032688
   9 H :    0.025918
  10 H :    0.027750
  11 H :    0.033103
  12 H :    0.030496
  13 H :    0.026094
  14 H :    0.054112
  15 H :    0.033185
  16 H :    0.031536
  17 H :    0.036182

  Mayer bond orders larger than 0.1
B(  0-C ,  1-C ) :   1.0827 B(  0-C ,  7-H ) :   0.9581 B(  0-C ,  8-H ) :   0.9559
B(  0-C ,  9-H ) :   0.9573 B(  1-C ,  2-C ) :   1.0712 B(  1-C ,  3-C ) :   1.0293
B(  1-C , 10-H ) :   0.9054 B(  2-C , 11-H ) :   0.9560 B(  2-C , 12-H ) :   0.9568
B(  2-C , 13-H ) :   0.9591 B(  3-C ,  4-C ) :   1.0820 B(  3-C ,  5-C ) :   1.0499
B(  3-C , 14-H ) :   0.8759 B(  4-C , 15-H ) :   0.9565 B(  4-C , 16-H ) :   0.9567
B(  4-C , 17-H ) :   0.9583 B(  5-C ,  6-N ) :   3.0521

FINAL SINGLE POINT ENERGY      -289.395366967309

DIPOLE MOMENT
-------------
                                X             Y             Z
Electronic contribution:     -1.45257       4.37388       5.37064
Nuclear contribution   :      2.00262      -5.61639      -5.92496
                        -----------------------------------------
Total Dipole Moment    :      0.55006      -1.24251      -0.55431
                        -----------------------------------------
Magnitude (a.u.)       :      1.46753
Magnitude (Debye)      :      3.73016

                             ****ORCA TERMINATED NORMALLY****
TOTAL RUN TIME: 0 days 0 hours 0 minutes 8 seconds 65 msec
