                         Program Version 3.0.3 - RELEASE   -
|  1> ! RI PBE def2-SVP def2-SVP/J NBO PAL2
|  2> % maxcore 2000
|  3> % output
|  4>     # printlevel mini
|  5>     print[ P_Basis ] 0
|  6>     print[ P_SCFInfo ] 1
|  7>     print[ P_SCFIterInfo ] 1
|  8>     print[ P_OrbEn ] 0
|  9>     print[ P_Cartesian ] 0
| 10> end
| 11> *xyz 0 1
| 12>  C        0.8494710000     0.0914370000     0.1506760000
| 13>  C        2.3679450000     0.0258660000    -0.0161930000
| 14>  C        3.0254000000     1.3606090000     0.3343110000
| 15>  C        2.9301830000    -1.0650050000     0.7739770000
| 16>  C        3.3811600000    -1.9674250000     1.4297190000
| 17>  C        3.9342110000    -3.0401660000     2.2444510000
| 18>  N        2.9091880000    -3.6607490000     3.0779910000
| 19>  H        0.4334170000     0.8788120000    -0.4826920000
| 20>  H        0.5885680000     0.3124570000     1.1882720000
| 21>  H        0.3823200000    -0.8563350000    -0.1206700000
| 22>  H        2.5816860000    -0.1906250000    -1.0707210000
| 23>  H        2.8288120000     1.6210770000     1.3770090000
| 24>  H        2.6270480000     2.1573230000    -0.2988520000
| 25>  H        4.1067400000     1.3165060000     0.1948240000
| 26>  H        4.7846600000    -2.6320320000     2.8136020000
| 27>  H        4.3467460000    -3.8103950000     1.5834990000
| 28>  H        2.4714850000    -2.9583130000     3.6614230000
| 29>  H        3.3353600000    -4.3419420000     3.6945740000
| 30> *
| 31>
| 32>                          ****END OF INPUT****
 Total Charge           Charge          ....    0
 Multiplicity           Mult            ....    1
 Number of Electrons    NEL             ....   54
 Basis Dimension        Dim             ....  153

MULLIKEN ATOMIC CHARGES
-----------------------
   0 C :    0.025887
   1 C :   -0.114973
   2 C :    0.013235
   3 C :   -0.079961
   4 C :   -0.175834
   5 C :    0.165950
   6 N :   -0.218881
   7 H :    0.016628
   8 H :    0.020597
   9 H :    0.032798
  10 H :    0.029576
  11 H :    0.021779
  12 H :    0.017562
  13 H :    0.031613
  14 H :    0.013867
  15 H :    0.020446
  16 H :    0.093390
  17 H :    0.086322
Sum of atomic charges:   -0.0000000

LOEWDIN ATOMIC CHARGES
----------------------
   0 C :   -0.045086
   1 C :   -0.054377
   2 C :   -0.049318
   3 C :   -0.047798
   4 C :   -0.072020
   5 C :    0.001694
   6 N :   -0.109166
   7 H :    0.025182
   8 H :    0.027152
   9 H :    0.031509
  10 H :    0.044861
  11 H :    0.027307
  12 H :    0.025491
  13 H :    0.030066
  14 H :    0.019792
  15 H :    0.040372
  16 H :    0.052526
  17 H :    0.051813

  Mayer bond orders larger than 0.1
B(  0-C ,  1-C ) :   1.0738 B(  0-C ,  7-H ) :   0.9591 B(  0-C ,  8-H ) :   0.9623
B(  0-C ,  9-H ) :   0.9634 B(  1-C ,  2-C ) :   1.0756 B(  1-C ,  3-C ) :   1.0140
B(  1-C , 10-H ) :   0.8839 B(  2-C , 11-H ) :   0.9621 B(  2-C , 12-H ) :   0.9573
B(  2-C , 13-H ) :   0.9631 B(  3-C ,  4-C ) :   2.6281 B(  4-C ,  5-C ) :   1.0733
B(  5-C ,  6-N ) :   1.0794 B(  5-C , 14-H ) :   0.9060 B(  5-C , 15-H ) :   0.8866
B(  6-N , 16-H ) :   0.9678 B(  6-N , 17-H ) :   0.9636

FINAL SINGLE POINT ENERGY      -289.334631025591

DIPOLE MOMENT
-------------
                                X             Y             Z
Electronic contribution:      1.94373      -4.00533       0.73430
Nuclear contribution   :     -1.68652       4.22697      -0.41925
                        -----------------------------------------
Total Dipole Moment    :      0.25722       0.22163       0.31506
                        -----------------------------------------
Magnitude (a.u.)       :      0.46319
Magnitude (Debye)      :      1.17733

                             ****ORCA TERMINATED NORMALLY****
TOTAL RUN TIME: 0 days 0 hours 0 minutes 7 seconds 244 msec
