                         Program Version 3.0.3 - RELEASE   -
|  1> ! RI PBE def2-SVP def2-SVP/J NBO PAL2
|  2> % maxcore 2000
|  3> % output
|  4>     # printlevel mini
|  5>     print[ P_Basis ] 0
|  6>     print[ P_SCFInfo ] 1
|  7>     print[ P_SCFIterInfo ] 1
|  8>     print[ P_OrbEn ] 0
|  9>     print[ P_Cartesian ] 0
| 10> end
| 11> *xyz 0 1
| 12>  C        0.9011710000    -0.0249380000    -0.0574500000
| 13>  C        2.4307330000     0.0243910000    -0.0700790000
| 14>  C        2.9713900000     0.6053620000    -1.3786300000
| 15>  C        2.9313750000     0.7713840000     1.0707380000
| 16>  C        3.3391450000     1.4057450000     2.0124850000
| 17>  C        3.8029190000     2.1210040000     3.0807080000
| 18>  N        4.1947850000     2.7269680000     3.9832430000
| 19>  H        0.5464290000    -0.6312640000    -0.8933400000
| 20>  H        0.4842460000     0.9789760000    -0.1593900000
| 21>  H        0.5253680000    -0.4592750000     0.8697460000
| 22>  H        2.8093050000    -1.0005740000     0.0341380000
| 23>  H        2.6161010000     1.6280430000    -1.5198890000
| 24>  H        2.6244820000     0.0014280000    -2.2195230000
| 25>  H        4.0619620000     0.6174600000    -1.3872580000
| 26> *
| 27>
| 28>                          ****END OF INPUT****
 Total Charge           Charge          ....    0
 Multiplicity           Mult            ....    1
 Number of Electrons    NEL             ....   50
 Basis Dimension        Dim             ....  133

MULLIKEN ATOMIC CHARGES
-----------------------
   0 C :    0.018931
   1 C :   -0.144044
   2 C :    0.011185
   3 C :   -0.140277
   4 C :    0.083740
   5 C :   -0.207295
   6 N :    0.107884
   7 H :    0.030659
   8 H :    0.036882
   9 H :    0.042066
  10 H :    0.048208
  11 H :    0.035654
  12 H :    0.030704
  13 H :    0.045703
Sum of atomic charges:    0.0000000

LOEWDIN ATOMIC CHARGES
----------------------
   0 C :   -0.040023
   1 C :   -0.055002
   2 C :   -0.042026
   3 C :    0.053798
   4 C :   -0.093868
   5 C :   -0.049429
   6 N :   -0.033245
   7 H :    0.032532
   8 H :    0.033340
   9 H :    0.035259
  10 H :    0.056695
  11 H :    0.033573
  12 H :    0.032657
  13 H :    0.035740

  Mayer bond orders larger than 0.1
B(  0-C ,  1-C ) :   1.0692 B(  0-C ,  7-H ) :   0.9588 B(  0-C ,  8-H ) :   0.9612
B(  0-C ,  9-H ) :   0.9632 B(  1-C ,  2-C ) :   1.0741 B(  1-C ,  3-C ) :   1.0439
B(  1-C , 10-H ) :   0.8732 B(  2-C , 11-H ) :   0.9587 B(  2-C , 12-H ) :   0.9572
B(  2-C , 13-H ) :   0.9628 B(  3-C ,  4-C ) :   2.2555 B(  3-C ,  6-N ) :   0.1774
B(  4-C ,  5-C ) :   0.9808 B(  4-C ,  6-N ) :   0.1424 B(  5-C ,  6-N ) :   2.8761

FINAL SINGLE POINT ENERGY      -286.941527115525

DIPOLE MOMENT
-------------
                                X             Y             Z
Electronic contribution:      5.43310       4.82424      10.82295
Nuclear contribution   :     -6.15570      -5.85309     -12.43821
                        -----------------------------------------
Total Dipole Moment    :     -0.72260      -1.02885      -1.61526
                        -----------------------------------------
Magnitude (a.u.)       :      2.04689
Magnitude (Debye)      :      5.20278

                             ****ORCA TERMINATED NORMALLY****
TOTAL RUN TIME: 0 days 0 hours 0 minutes 6 seconds 638 msec
