                         Program Version 3.0.3 - RELEASE   -
|  1> ! RI PBE def2-SVP def2-SVP/J NBO PAL2
|  2> % maxcore 2000
|  3> % output
|  4>     # printlevel mini
|  5>     print[ P_Basis ] 0
|  6>     print[ P_SCFInfo ] 1
|  7>     print[ P_SCFIterInfo ] 1
|  8>     print[ P_OrbEn ] 0
|  9>     print[ P_Cartesian ] 0
| 10> end
| 11> *xyz 0 1
| 12>  C        1.9056200000     0.4099810000     1.0949630000
| 13>  C        3.3793830000     0.5475020000     0.7382270000
| 14>  C        4.2552280000     0.1831050000     1.9289570000
| 15>  C        3.7012980000    -0.2943570000    -0.4938510000
| 16>  C        5.1182970000    -0.1710000000    -1.0419100000
| 17>  C        5.3193620000    -1.1107750000    -2.2259190000
| 18>  N        5.4056390000     1.2269620000    -1.3450650000
| 19>  H        1.6438550000     1.0410230000     1.9483410000
| 20>  H        1.6621620000    -0.6240330000     1.3617390000
| 21>  H        1.2626170000     0.6959080000     0.2578700000
| 22>  H        3.5802990000     1.5935460000     0.4834310000
| 23>  H        4.1456930000    -0.8764300000     2.1857430000
| 24>  H        3.9755310000     0.7664780000     2.8101590000
| 25>  H        5.3112810000     0.3765910000     1.7306130000
| 26>  H        3.0013010000    -0.0263130000    -1.2981330000
| 27>  H        3.5062240000    -1.3503020000    -0.2675820000
| 28>  H        5.8205040000    -0.4677790000    -0.2539480000
| 29>  H        4.6291020000    -0.8586360000    -3.0377770000
| 30>  H        5.1422290000    -2.1537900000    -1.9473730000
| 31>  H        6.3380990000    -1.0363430000    -2.6163880000
| 32>  H        4.7876530000     1.5530590000    -2.0814580000
| 33>  H        6.3506240000     1.3250120000    -1.6968590000
| 34> *
| 35>
| 36>                          ****END OF INPUT****
 Total Charge           Charge          ....    0
 Multiplicity           Mult            ....    1
 Number of Electrons    NEL             ....   58
 Basis Dimension        Dim             ....  173

MULLIKEN ATOMIC CHARGES
-----------------------
   0 C :    0.028513
   1 C :   -0.101639
   2 C :    0.004139
   3 C :    0.011205
   4 C :   -0.042249
   5 C :    0.035427
   6 N :   -0.177988
   7 H :    0.012281
   8 H :    0.005252
   9 H :    0.008918
  10 H :    0.004533
  11 H :    0.004040
  12 H :    0.010198
  13 H :    0.027852
  14 H :   -0.013509
  15 H :   -0.002912
  16 H :    0.002545
  17 H :    0.004626
  18 H :    0.009246
  19 H :    0.004651
  20 H :    0.082697
  21 H :    0.082172
Sum of atomic charges:   -0.0000000

LOEWDIN ATOMIC CHARGES
----------------------
   0 C :   -0.058854
   1 C :   -0.046939
   2 C :   -0.059664
   3 C :   -0.038572
   4 C :   -0.006339
   5 C :   -0.076620
   6 N :   -0.092144
   7 H :    0.023370
   8 H :    0.020533
   9 H :    0.021948
  10 H :    0.022855
  11 H :    0.020069
  12 H :    0.024615
  13 H :    0.025263
  14 H :    0.017787
  15 H :    0.022080
  16 H :    0.019643
  17 H :    0.019742
  18 H :    0.024692
  19 H :    0.019193
  20 H :    0.047716
  21 H :    0.049624

  Mayer bond orders larger than 0.1
B(  0-C ,  1-C ) :   1.0858 B(  0-C ,  7-H ) :   0.9598 B(  0-C ,  8-H ) :   0.9593
B(  0-C ,  9-H ) :   0.9575 B(  1-C ,  2-C ) :   1.0818 B(  1-C ,  3-C ) :   1.0580
B(  1-C , 10-H ) :   0.8981 B(  2-C , 11-H ) :   0.9601 B(  2-C , 12-H ) :   0.9569
B(  2-C , 13-H ) :   0.9579 B(  3-C ,  4-C ) :   1.0636 B(  3-C , 14-H ) :   0.9168
B(  3-C , 15-H ) :   0.9279 B(  4-C ,  5-C ) :   1.0804 B(  4-C ,  6-N ) :   1.0732
B(  4-C , 16-H ) :   0.8983 B(  5-C , 17-H ) :   0.9536 B(  5-C , 18-H ) :   0.9467
B(  5-C , 19-H ) :   0.9555 B(  6-N , 20-H ) :   0.9669 B(  6-N , 21-H ) :   0.9685

FINAL SINGLE POINT ENERGY      -291.799134341248

DIPOLE MOMENT
-------------
                                X             Y             Z
Electronic contribution:      1.43745       1.58129      -1.12209
Nuclear contribution   :     -1.27197      -1.68993       0.68060
                        -----------------------------------------
Total Dipole Moment    :      0.16548      -0.10864      -0.44149
                        -----------------------------------------
Magnitude (a.u.)       :      0.48384
Magnitude (Debye)      :      1.22983

                             ****ORCA TERMINATED NORMALLY****
TOTAL RUN TIME: 0 days 0 hours 0 minutes 9 seconds 330 msec
