                         Program Version 3.0.3 - RELEASE   -
|  1> ! RI PBE def2-SVP def2-SVP/J NBO PAL2
|  2> % maxcore 2000
|  3> % output
|  4>     # printlevel mini
|  5>     print[ P_Basis ] 0
|  6>     print[ P_SCFInfo ] 1
|  7>     print[ P_SCFIterInfo ] 1
|  8>     print[ P_OrbEn ] 0
|  9>     print[ P_Cartesian ] 0
| 10> end
| 11> *xyz 0 1
| 12>  C        0.8675670000    -0.2072000000     0.1717510000
| 13>  C        2.3586570000    -0.1683610000    -0.1326860000
| 14>  C        2.7009110000    -1.1205010000    -1.2708610000
| 15>  C        2.7895250000     1.2662120000    -0.4268350000
| 16>  C        4.2949370000     1.4674530000    -0.6190640000
| 17>  C        5.0701120000     1.0760140000     0.5487310000
| 18>  N        5.6681360000     0.7632490000     1.4797860000
| 19>  H        0.5444340000    -1.2193160000     0.4261520000
| 20>  H        0.2830380000     0.1189960000    -0.6947210000
| 21>  H        0.6141670000     0.4460000000     1.0106260000
| 22>  H        2.8965880000    -0.5001110000     0.7643020000
| 23>  H        2.2141790000    -0.8070960000    -2.2005430000
| 24>  H        2.3574980000    -2.1323140000    -1.0436930000
| 25>  H        3.7758540000    -1.1809400000    -1.4558020000
| 26>  H        2.4530380000     1.9165210000     0.3861950000
| 27>  H        2.2895870000     1.6165890000    -1.3368200000
| 28>  H        4.5104660000     2.5190210000    -0.8284230000
| 29>  H        4.6619040000     0.8959940000    -1.4759950000
| 30> *
| 31>
| 32>                          ****END OF INPUT****
 Total Charge           Charge          ....    0
 Multiplicity           Mult            ....    1
 Number of Electrons    NEL             ....   54
 Basis Dimension        Dim             ....  153

MULLIKEN ATOMIC CHARGES
-----------------------
   0 C :    0.025530
   1 C :   -0.163633
   2 C :    0.011817
   3 C :   -0.004963
   4 C :    0.086806
   5 C :   -0.288108
   6 N :    0.044718
   7 H :    0.020552
   8 H :    0.012985
   9 H :    0.018995
  10 H :    0.032429
  11 H :    0.010866
  12 H :    0.022063
  13 H :    0.026199
  14 H :    0.029568
  15 H :    0.015452
  16 H :    0.049909
  17 H :    0.048818
Sum of atomic charges:   -0.0000000

LOEWDIN ATOMIC CHARGES
----------------------
   0 C :   -0.055547
   1 C :   -0.050456
   2 C :   -0.059126
   3 C :   -0.023370
   4 C :   -0.058109
   5 C :   -0.045719
   6 N :   -0.070411
   7 H :    0.027839
   8 H :    0.023784
   9 H :    0.026385
  10 H :    0.032045
  11 H :    0.023694
  12 H :    0.030321
  13 H :    0.024566
  14 H :    0.031992
  15 H :    0.028399
  16 H :    0.059609
  17 H :    0.054103

  Mayer bond orders larger than 0.1
B(  0-C ,  1-C ) :   1.0923 B(  0-C ,  7-H ) :   0.9600 B(  0-C ,  8-H ) :   0.9595
B(  0-C ,  9-H ) :   0.9598 B(  1-C ,  2-C ) :   1.0751 B(  1-C ,  3-C ) :   1.0626
B(  1-C , 10-H ) :   0.9068 B(  2-C , 11-H ) :   0.9603 B(  2-C , 12-H ) :   0.9581
B(  2-C , 13-H ) :   0.9597 B(  3-C ,  4-C ) :   1.0878 B(  3-C , 14-H ) :   0.9328
B(  3-C , 15-H ) :   0.9238 B(  4-C ,  5-C ) :   1.1156 B(  4-C , 16-H ) :   0.8844
B(  4-C , 17-H ) :   0.8903 B(  5-C ,  6-N ) :   3.0408

FINAL SINGLE POINT ENERGY      -289.395302462438

DIPOLE MOMENT
-------------
                                X             Y             Z
Electronic contribution:      8.48782       2.96755       4.26019
Nuclear contribution   :     -9.37937      -2.69445      -5.34692
                        -----------------------------------------
Total Dipole Moment    :     -0.89155       0.27310      -1.08673
                        -----------------------------------------
Magnitude (a.u.)       :      1.43193
Magnitude (Debye)      :      3.63968

                             ****ORCA TERMINATED NORMALLY****
TOTAL RUN TIME: 0 days 0 hours 0 minutes 8 seconds 219 msec
