                         Program Version 3.0.3 - RELEASE   -
|  1> ! RI PBE def2-SVP def2-SVP/J NBO PAL2
|  2> % maxcore 2000
|  3> % output
|  4>     # printlevel mini
|  5>     print[ P_Basis ] 0
|  6>     print[ P_SCFInfo ] 1
|  7>     print[ P_SCFIterInfo ] 1
|  8>     print[ P_OrbEn ] 0
|  9>     print[ P_Cartesian ] 0
| 10> end
| 11> *xyz 0 1
| 12>  C        1.0825080000     0.3042860000    -0.4330780000
| 13>  C        2.5366680000     0.0596920000    -0.0363180000
| 14>  C        2.6999800000    -0.2691720000     1.4604820000
| 15>  C        2.3365060000     0.8823080000     2.3375050000
| 16>  C        1.3977560000     0.8595940000     3.2724720000
| 17>  C        3.1146790000    -1.0100670000    -0.8439770000
| 18>  N        3.5616090000    -1.8639600000    -1.4715250000
| 19>  H        0.6699270000     1.1164840000     0.1667650000
| 20>  H        0.4818910000    -0.5907340000    -0.2585370000
| 21>  H        1.0023650000     0.5692440000    -1.4879000000
| 22>  H        3.1209670000     0.9621440000    -0.2537890000
| 23>  H        3.7441430000    -0.5477060000     1.6386590000
| 24>  H        2.0890520000    -1.1424680000     1.7058730000
| 25>  H        2.9084920000     1.7969050000     2.1850040000
| 26>  H        0.8058530000    -0.0310580000     3.4598500000
| 27>  H        1.1922940000     1.7257070000     3.8906150000
| 28> *
| 29>
| 30>                          ****END OF INPUT****
 Total Charge           Charge          ....    0
 Multiplicity           Mult            ....    1
 Number of Electrons    NEL             ....   52
 Basis Dimension        Dim             ....  143

MULLIKEN ATOMIC CHARGES
-----------------------
   0 C :    0.023078
   1 C :   -0.127548
   2 C :    0.075609
   3 C :   -0.079556
   4 C :   -0.023300
   5 C :   -0.223360
   6 N :    0.065218
   7 H :    0.036142
   8 H :    0.039827
   9 H :    0.042694
  10 H :    0.044169
  11 H :    0.041638
  12 H :    0.020003
  13 H :    0.009268
  14 H :    0.024452
  15 H :    0.031666
Sum of atomic charges:   -0.0000000

LOEWDIN ATOMIC CHARGES
----------------------
   0 C :   -0.042438
   1 C :   -0.060128
   2 C :   -0.021176
   3 C :   -0.032106
   4 C :   -0.054476
   5 C :   -0.038593
   6 N :   -0.070006
   7 H :    0.033549
   8 H :    0.035093
   9 H :    0.036411
  10 H :    0.053597
  11 H :    0.044489
  12 H :    0.034825
  13 H :    0.027689
  14 H :    0.024980
  15 H :    0.028290

  Mayer bond orders larger than 0.1
B(  0-C ,  1-C ) :   1.0731 B(  0-C ,  7-H ) :   0.9538 B(  0-C ,  8-H ) :   0.9605
B(  0-C ,  9-H ) :   0.9602 B(  1-C ,  2-C ) :   1.0553 B(  1-C ,  5-C ) :   1.0808
B(  1-C , 10-H ) :   0.8717 B(  2-C ,  3-C ) :   1.0768 B(  2-C , 11-H ) :   0.9088
B(  2-C , 12-H ) :   0.9248 B(  3-C ,  4-C ) :   2.0021 B(  3-C , 13-H ) :   0.9504
B(  4-C , 14-H ) :   0.9490 B(  4-C , 15-H ) :   0.9421 B(  5-C ,  6-N ) :   3.0757

FINAL SINGLE POINT ENERGY      -288.169987871500

DIPOLE MOMENT
-------------
                                X             Y             Z
Electronic contribution:      4.28296      -3.65309      -4.22221
Nuclear contribution   :     -4.86432       4.70111       5.05652
                        -----------------------------------------
Total Dipole Moment    :     -0.58136       1.04802       0.83432
                        -----------------------------------------
Magnitude (a.u.)       :      1.46028
Magnitude (Debye)      :      3.71173

                             ****ORCA TERMINATED NORMALLY****
TOTAL RUN TIME: 0 days 0 hours 0 minutes 7 seconds 33 msec
