                         Program Version 3.0.3 - RELEASE   -
|  1> ! RI PBE def2-SVP def2-SVP/J NBO PAL2
|  2> % maxcore 2000
|  3> % output
|  4>     # printlevel mini
|  5>     print[ P_Basis ] 0
|  6>     print[ P_SCFInfo ] 1
|  7>     print[ P_SCFIterInfo ] 1
|  8>     print[ P_OrbEn ] 0
|  9>     print[ P_Cartesian ] 0
| 10> end
| 11> *xyz 0 1
| 12>  C        1.0631860000     0.0634500000     0.0324530000
| 13>  C        2.5874790000    -0.0164650000    -0.0212980000
| 14>  C        3.0563690000    -1.1917410000    -0.8993930000
| 15>  C        4.4912360000    -1.4062650000    -0.8663820000
| 16>  C        5.6782940000    -1.5718910000    -0.8212580000
| 17>  C        3.1455220000     1.2453370000    -0.4997260000
| 18>  N        3.5532660000     2.2484820000    -0.8856600000
| 19>  H        0.6584390000    -0.8617360000     0.4471580000
| 20>  H        0.6472010000     0.2070390000    -0.9666300000
| 21>  H        0.7380930000     0.8946120000     0.6585160000
| 22>  H        2.9788550000    -0.1717520000     0.9894740000
| 23>  H        2.7294590000    -1.0231060000    -1.9304560000
| 24>  H        2.5444620000    -2.0936120000    -0.5488060000
| 25>  H        6.7328390000    -1.7132410000    -0.7897920000
| 26> *
| 27>
| 28>                          ****END OF INPUT****
 Total Charge           Charge          ....    0
 Multiplicity           Mult            ....    1
 Number of Electrons    NEL             ....   50
 Basis Dimension        Dim             ....  133

MULLIKEN ATOMIC CHARGES
-----------------------
   0 C :    0.043630
   1 C :   -0.146683
   2 C :    0.093647
   3 C :    0.357894
   4 C :   -0.482018
   5 C :   -0.205750
   6 N :    0.059994
   7 H :    0.031788
   8 H :    0.036985
   9 H :    0.048838
  10 H :    0.059974
  11 H :    0.052804
  12 H :    0.043979
  13 H :    0.004916
Sum of atomic charges:   -0.0000000

LOEWDIN ATOMIC CHARGES
----------------------
   0 C :   -0.038753
   1 C :   -0.054287
   2 C :   -0.027742
   3 C :   -0.028617
   4 C :   -0.065279
   5 C :   -0.036524
   6 N :   -0.060852
   7 H :    0.032864
   8 H :    0.035376
   9 H :    0.039776
  10 H :    0.059079
  11 H :    0.054880
  12 H :    0.052517
  13 H :    0.037560

  Mayer bond orders larger than 0.1
B(  0-C ,  1-C ) :   1.0886 B(  0-C ,  7-H ) :   0.9567 B(  0-C ,  8-H ) :   0.9567
B(  0-C ,  9-H ) :   0.9601 B(  1-C ,  2-C ) :   1.0518 B(  1-C ,  5-C ) :   1.0613
B(  1-C , 10-H ) :   0.8789 B(  2-C ,  3-C ) :   1.0545 B(  2-C , 11-H ) :   0.8946
B(  2-C , 12-H ) :   0.8962 B(  3-C ,  4-C ) :   2.3247 B(  3-C , 13-H ) :  -0.1112
B(  4-C , 13-H ) :   1.1023 B(  5-C ,  6-N ) :   3.0748

FINAL SINGLE POINT ENERGY      -286.925107515775

DIPOLE MOMENT
-------------
                                X             Y             Z
Electronic contribution:      4.94553       2.69336      -1.17683
Nuclear contribution   :     -5.70071      -3.89973       1.62192
                        -----------------------------------------
Total Dipole Moment    :     -0.75518      -1.20637       0.44509
                        -----------------------------------------
Magnitude (a.u.)       :      1.49121
Magnitude (Debye)      :      3.79037

                             ****ORCA TERMINATED NORMALLY****
TOTAL RUN TIME: 0 days 0 hours 0 minutes 6 seconds 350 msec
