                         Program Version 3.0.3 - RELEASE   -
|  1> ! RI PBE def2-SVP def2-SVP/J NBO PAL2
|  2> % maxcore 2000
|  3> % output
|  4>     # printlevel mini
|  5>     print[ P_Basis ] 0
|  6>     print[ P_SCFInfo ] 1
|  7>     print[ P_SCFIterInfo ] 1
|  8>     print[ P_OrbEn ] 0
|  9>     print[ P_Cartesian ] 0
| 10> end
| 11> *xyz 0 1
| 12>  C        0.8897770000    -0.0754140000    -0.0138060000
| 13>  C        2.3406430000    -0.0309330000    -0.0238620000
| 14>  C        3.5432070000     0.0005320000    -0.0312070000
| 15>  C        4.9987970000     0.0532460000    -0.0355890000
| 16>  C        5.5765080000     1.1835690000    -0.8890160000
| 17>  C        5.2747550000     1.0354020000    -2.3673870000
| 18>  N        5.8732370000     2.1308060000    -3.1177000000
| 19>  H        0.4701810000     0.5807980000    -0.7807860000
| 20>  H        0.4919030000     0.2442970000     0.9527650000
| 21>  H        0.5262900000    -1.0881300000    -0.2064120000
| 22>  H        5.3922540000    -0.9074440000    -0.3891250000
| 23>  H        5.3516020000     0.1634280000     0.9951630000
| 24>  H        6.6610820000     1.2194160000    -0.7525710000
| 25>  H        5.1783280000     2.1393000000    -0.5299180000
| 26>  H        4.1868450000     0.9435190000    -2.5022450000
| 27>  H        5.7165360000     0.0999710000    -2.7286920000
| 28>  H        5.4404300000     3.0088980000    -2.8554710000
| 29>  H        5.7105140000     2.0128300000    -4.1098320000
| 30> *
| 31>
| 32>                          ****END OF INPUT****
 Total Charge           Charge          ....    0
 Multiplicity           Mult            ....    1
 Number of Electrons    NEL             ....   54
 Basis Dimension        Dim             ....  153

MULLIKEN ATOMIC CHARGES
-----------------------
   0 C :    0.056157
   1 C :   -0.229871
   2 C :   -0.111272
   3 C :    0.085057
   4 C :   -0.039728
   5 C :    0.070105
   6 N :   -0.214951
   7 H :    0.043785
   8 H :    0.043080
   9 H :    0.042970
  10 H :    0.023656
  11 H :    0.028823
  12 H :    0.017261
  13 H :    0.010378
  14 H :    0.005384
  15 H :   -0.004890
  16 H :    0.085934
  17 H :    0.088123
Sum of atomic charges:   -0.0000000

LOEWDIN ATOMIC CHARGES
----------------------
   0 C :   -0.068491
   1 C :   -0.078352
   2 C :   -0.068439
   3 C :   -0.044921
   4 C :   -0.039166
   5 C :    0.004793
   6 N :   -0.114899
   7 H :    0.048450
   8 H :    0.048198
   9 H :    0.048517
  10 H :    0.043613
  11 H :    0.046839
  12 H :    0.027277
  13 H :    0.023039
  14 H :    0.003962
  15 H :    0.018151
  16 H :    0.049096
  17 H :    0.052332

  Mayer bond orders larger than 0.1
B(  0-C ,  1-C ) :   1.1371 B(  0-C ,  7-H ) :   0.9320 B(  0-C ,  8-H ) :   0.9339
B(  0-C ,  9-H ) :   0.9335 B(  1-C ,  2-C ) :   2.5858 B(  2-C ,  3-C ) :   1.0746
B(  3-C ,  4-C ) :   1.0781 B(  3-C , 10-H ) :   0.8956 B(  3-C , 11-H ) :   0.8948
B(  4-C ,  5-C ) :   1.0944 B(  4-C , 12-H ) :   0.9255 B(  4-C , 13-H ) :   0.9364
B(  5-C ,  6-N ) :   1.0833 B(  5-C , 14-H ) :   0.9333 B(  5-C , 15-H ) :   0.9289
B(  6-N , 16-H ) :   0.9699 B(  6-N , 17-H ) :   0.9651

FINAL SINGLE POINT ENERGY      -289.339281101715

DIPOLE MOMENT
-------------
                                X             Y             Z
Electronic contribution:     -0.41182      -0.99674       1.63666
Nuclear contribution   :     -0.08558       1.06957      -1.81295
                        -----------------------------------------
Total Dipole Moment    :     -0.49740       0.07283      -0.17629
                        -----------------------------------------
Magnitude (a.u.)       :      0.53272
Magnitude (Debye)      :      1.35406

                             ****ORCA TERMINATED NORMALLY****
TOTAL RUN TIME: 0 days 0 hours 0 minutes 7 seconds 389 msec
