                         Program Version 3.0.3 - RELEASE   -
|  1> ! RI PBE def2-SVP def2-SVP/J NBO PAL2
|  2> % maxcore 2000
|  3> % output
|  4>     # printlevel mini
|  5>     print[ P_Basis ] 0
|  6>     print[ P_SCFInfo ] 1
|  7>     print[ P_SCFIterInfo ] 1
|  8>     print[ P_OrbEn ] 0
|  9>     print[ P_Cartesian ] 0
| 10> end
| 11> *xyz 0 1
| 12>  C        0.9340170000     0.0318940000    -0.1382440000
| 13>  C        2.3820040000     0.0361130000    -0.0831780000
| 14>  C        3.5865880000     0.0300630000    -0.0287300000
| 15>  C        5.0030040000     0.0560140000     0.0033290000
| 16>  C        5.7628730000    -0.7151990000     0.7854730000
| 17>  C        7.2522260000    -0.6786620000     0.7906910000
| 18>  N        7.7477760000    -0.4700120000     2.1440780000
| 19>  H        0.5656830000     0.7714840000    -0.8535860000
| 20>  H        0.5035230000     0.2662760000     0.8391330000
| 21>  H        0.5555130000    -0.9477030000    -0.4426430000
| 22>  H        5.4874330000     0.7606390000    -0.6713110000
| 23>  H        5.2966760000    -1.4116440000     1.4770240000
| 24>  H        7.5983540000     0.0655880000     0.0568290000
| 25>  H        7.6294690000    -1.6522910000     0.4537480000
| 26>  H        7.4891860000     0.4514530000     2.4746140000
| 27>  H        8.7574750000    -0.5313010000     2.1710040000
| 28> *
| 29>
| 30>                          ****END OF INPUT****
 Total Charge           Charge          ....    0
 Multiplicity           Mult            ....    1
 Number of Electrons    NEL             ....   52
 Basis Dimension        Dim             ....  143

MULLIKEN ATOMIC CHARGES
-----------------------
   0 C :    0.053806
   1 C :   -0.174724
   2 C :   -0.000946
   3 C :   -0.077823
   4 C :   -0.078322
   5 C :    0.148545
   6 N :   -0.228710
   7 H :    0.048708
   8 H :    0.049190
   9 H :    0.048699
  10 H :    0.015072
  11 H :    0.008694
  12 H :   -0.007902
  13 H :    0.016738
  14 H :    0.088548
  15 H :    0.090427
Sum of atomic charges:    0.0000000

LOEWDIN ATOMIC CHARGES
----------------------
   0 C :   -0.067317
   1 C :   -0.051433
   2 C :   -0.061288
   3 C :   -0.060179
   4 C :   -0.015732
   5 C :    0.006003
   6 N :   -0.109832
   7 H :    0.050586
   8 H :    0.051704
   9 H :    0.051474
  10 H :    0.036060
  11 H :    0.030428
  12 H :    0.003851
  13 H :    0.032232
  14 H :    0.051104
  15 H :    0.052339

  Mayer bond orders larger than 0.1
B(  0-C ,  1-C ) :   1.1315 B(  0-C ,  7-H ) :   0.9343 B(  0-C ,  8-H ) :   0.9308
B(  0-C ,  9-H ) :   0.9306 B(  1-C ,  2-C ) :   2.4479 B(  1-C ,  4-C ) :   0.1215
B(  2-C ,  3-C ) :   1.0424 B(  3-C ,  4-C ) :   1.7873 B(  3-C , 10-H ) :   0.9392
B(  4-C ,  5-C ) :   1.0676 B(  4-C , 11-H ) :   0.9670 B(  5-C ,  6-N ) :   1.0549
B(  5-C , 12-H ) :   0.9221 B(  5-C , 13-H ) :   0.9102 B(  6-N , 14-H ) :   0.9709
B(  6-N , 15-H ) :   0.9660

FINAL SINGLE POINT ENERGY      -288.126061138557

DIPOLE MOMENT
-------------
                                X             Y             Z
Electronic contribution:     -0.92758       0.28326      -0.74188
Nuclear contribution   :      1.06720       0.01399       0.59874
                        -----------------------------------------
Total Dipole Moment    :      0.13962       0.29725      -0.14314
                        -----------------------------------------
Magnitude (a.u.)       :      0.35824
Magnitude (Debye)      :      0.91059

                             ****ORCA TERMINATED NORMALLY****
TOTAL RUN TIME: 0 days 0 hours 0 minutes 6 seconds 757 msec
