                         Program Version 3.0.3 - RELEASE   -
|  1> ! RI PBE def2-SVP def2-SVP/J NBO PAL2
|  2> % maxcore 2000
|  3> % output
|  4>     # printlevel mini
|  5>     print[ P_Basis ] 0
|  6>     print[ P_SCFInfo ] 1
|  7>     print[ P_SCFIterInfo ] 1
|  8>     print[ P_OrbEn ] 0
|  9>     print[ P_Cartesian ] 0
| 10> end
| 11> *xyz 0 1
| 12>  C        0.8625330000     0.0976620000    -0.0263660000
| 13>  C        2.3079460000     0.0423210000    -0.0365550000
| 14>  C        3.5129560000    -0.0085890000    -0.0553200000
| 15>  C        4.9207150000    -0.0454630000    -0.0310800000
| 16>  C        5.6761160000    -0.5550500000    -1.0174010000
| 17>  C        7.0915530000    -0.5713390000    -0.9506450000
| 18>  N        8.2440540000    -0.5955720000    -0.9186670000
| 19>  H        0.4362790000    -0.9051450000    -0.1137470000
| 20>  H        0.4924320000     0.6922470000    -0.8657250000
| 21>  H        0.4932450000     0.5462580000     0.8985430000
| 22>  H        5.4104730000     0.3678960000     0.8468480000
| 23>  H        5.2240080000    -0.9760470000    -1.9082750000
| 24> *
| 25>
| 26>                          ****END OF INPUT****
 Total Charge           Charge          ....    0
 Multiplicity           Mult            ....    1
 Number of Electrons    NEL             ....   48
 Basis Dimension        Dim             ....  123

MULLIKEN ATOMIC CHARGES
-----------------------
   0 C :    0.051616
   1 C :   -0.160504
   2 C :    0.022998
   3 C :   -0.049193
   4 C :   -0.096672
   5 C :   -0.097595
   6 N :    0.044931
   7 H :    0.060225
   8 H :    0.062424
   9 H :    0.059280
  10 H :    0.050498
  11 H :    0.051992
Sum of atomic charges:   -0.0000000

LOEWDIN ATOMIC CHARGES
----------------------
   0 C :   -0.064147
   1 C :   -0.011229
   2 C :   -0.063365
   3 C :    0.005427
   4 C :   -0.052844
   5 C :   -0.044284
   6 N :   -0.053517
   7 H :    0.058941
   8 H :    0.059395
   9 H :    0.056400
  10 H :    0.054367
  11 H :    0.054855

  Mayer bond orders larger than 0.1
B(  0-C ,  1-C ) :   1.1307 B(  0-C ,  7-H ) :   0.9272 B(  0-C ,  8-H ) :   0.9272
B(  0-C ,  9-H ) :   0.9321 B(  1-C ,  2-C ) :   2.4120 B(  1-C ,  4-C ) :   0.1184
B(  2-C ,  3-C ) :   1.0603 B(  3-C ,  4-C ) :   1.7443 B(  3-C , 10-H ) :   0.9406
B(  4-C ,  5-C ) :   1.1332 B(  4-C , 11-H ) :   0.9467 B(  5-C ,  6-N ) :   2.9503

FINAL SINGLE POINT ENERGY      -285.728176638102

DIPOLE MOMENT
-------------
                                X             Y             Z
Electronic contribution:      8.20938      -0.68942      -0.82426
Nuclear contribution   :    -10.31071       0.82734       0.95670
                        -----------------------------------------
Total Dipole Moment    :     -2.10133       0.13792       0.13244
                        -----------------------------------------
Magnitude (a.u.)       :      2.11002
Magnitude (Debye)      :      5.36323

                             ****ORCA TERMINATED NORMALLY****
TOTAL RUN TIME: 0 days 0 hours 0 minutes 5 seconds 192 msec
