                         Program Version 3.0.3 - RELEASE   -
|  1> ! RI PBE def2-SVP def2-SVP/J NBO PAL2
|  2> % maxcore 2000
|  3> % output
|  4>     # printlevel mini
|  5>     print[ P_Basis ] 0
|  6>     print[ P_SCFInfo ] 1
|  7>     print[ P_SCFIterInfo ] 1
|  8>     print[ P_OrbEn ] 0
|  9>     print[ P_Cartesian ] 0
| 10> end
| 11> *xyz 0 1
| 12>  C        1.1211830000     0.0608190000     0.1767830000
| 13>  C        2.5682230000     0.0605520000     0.0944230000
| 14>  C        3.7706260000     0.0456090000     0.0021620000
| 15>  C        5.1953950000     0.0599000000    -0.0470180000
| 16>  C        5.8713380000    -0.5524730000    -1.0208990000
| 17>  C        5.8820260000     0.8232990000     1.0557670000
| 18>  N        5.5301680000     0.2826750000     2.3613770000
| 19>  H        0.6740470000     0.1945610000    -0.8116190000
| 20>  H        0.7623840000     0.8678590000     0.8203340000
| 21>  H        0.7524740000    -0.8840510000     0.5852220000
| 22>  H        5.3616460000    -1.0763780000    -1.8198230000
| 23>  H        6.9549250000    -0.5391430000    -1.0346640000
| 24>  H        5.6192110000     1.8873410000     0.9371260000
| 25>  H        6.9626340000     0.7369700000     0.9170030000
| 26>  H        4.5208370000     0.2634120000     2.4579820000
| 27>  H        5.8863040000     0.8831480000     3.0946650000
| 28> *
| 29>
| 30>                          ****END OF INPUT****
 Total Charge           Charge          ....    0
 Multiplicity           Mult            ....    1
 Number of Electrons    NEL             ....   52
 Basis Dimension        Dim             ....  143

MULLIKEN ATOMIC CHARGES
-----------------------
   0 C :    0.054864
   1 C :   -0.216029
   2 C :    0.023248
   3 C :   -0.179942
   4 C :   -0.001835
   5 C :    0.161740
   6 N :   -0.214520
   7 H :    0.050644
   8 H :    0.048484
   9 H :    0.051362
  10 H :    0.016688
  11 H :    0.018073
  12 H :    0.011634
  13 H :   -0.003465
  14 H :    0.090285
  15 H :    0.088769
Sum of atomic charges:    0.0000000

LOEWDIN ATOMIC CHARGES
----------------------
   0 C :   -0.067134
   1 C :   -0.050894
   2 C :   -0.053613
   3 C :   -0.048064
   4 C :   -0.035153
   5 C :    0.021376
   6 N :   -0.111684
   7 H :    0.052992
   8 H :    0.050875
   9 H :    0.053117
  10 H :    0.026855
  11 H :    0.024298
  12 H :    0.011227
  13 H :    0.022912
  14 H :    0.050331
  15 H :    0.052559

  Mayer bond orders larger than 0.1
B(  0-C ,  1-C ) :   1.1381 B(  0-C ,  7-H ) :   0.9309 B(  0-C ,  8-H ) :   0.9323
B(  0-C ,  9-H ) :   0.9289 B(  1-C ,  2-C ) :   2.4710 B(  1-C ,  4-C ) :   0.1169
B(  2-C ,  3-C ) :   0.9931 B(  3-C ,  4-C ) :   1.9298 B(  3-C ,  5-C ) :   1.0392
B(  4-C , 10-H ) :   0.9387 B(  4-C , 11-H ) :   0.9274 B(  5-C ,  6-N ) :   1.0899
B(  5-C , 12-H ) :   0.9058 B(  5-C , 13-H ) :   0.9092 B(  6-N , 14-H ) :   0.9660
B(  6-N , 15-H ) :   0.9622

FINAL SINGLE POINT ENERGY      -288.122507524772

DIPOLE MOMENT
-------------
                                X             Y             Z
Electronic contribution:      0.53986      -0.62988      -1.03399
Nuclear contribution   :     -1.06260       1.09964       1.16459
                        -----------------------------------------
Total Dipole Moment    :     -0.52274       0.46976       0.13060
                        -----------------------------------------
Magnitude (a.u.)       :      0.71483
Magnitude (Debye)      :      1.81696

                             ****ORCA TERMINATED NORMALLY****
TOTAL RUN TIME: 0 days 0 hours 0 minutes 6 seconds 614 msec
