                         Program Version 3.0.3 - RELEASE   -
|  1> ! RI PBE def2-SVP def2-SVP/J NBO PAL2
|  2> % maxcore 2000
|  3> % output
|  4>     # printlevel mini
|  5>     print[ P_Basis ] 0
|  6>     print[ P_SCFInfo ] 1
|  7>     print[ P_SCFIterInfo ] 1
|  8>     print[ P_OrbEn ] 0
|  9>     print[ P_Cartesian ] 0
| 10> end
| 11> *xyz 0 1
| 12>  C        0.9062480000    -0.0108890000    -0.0831260000
| 13>  C        2.3522330000    -0.0551320000    -0.0531530000
| 14>  C        3.5550250000    -0.0946590000    -0.0264000000
| 15>  C        4.9772230000    -0.1092040000    -0.0165280000
| 16>  C        5.7151960000    -1.0345150000     0.6113180000
| 17>  C        5.6311010000     0.9493200000    -0.7347470000
| 18>  N        6.1523630000     1.7985200000    -1.3109570000
| 19>  H        0.5579110000     0.8606370000    -0.6420720000
| 20>  H        0.4976580000     0.0478910000     0.9288130000
| 21>  H        0.4994650000    -0.9060960000    -0.5602220000
| 22>  H        5.2375740000    -1.8379090000     1.1564210000
| 23>  H        6.7960130000    -0.9938540000     0.5837620000
| 24> *
| 25>
| 26>                          ****END OF INPUT****
 Total Charge           Charge          ....    0
 Multiplicity           Mult            ....    1
 Number of Electrons    NEL             ....   48
 Basis Dimension        Dim             ....  123

MULLIKEN ATOMIC CHARGES
-----------------------
   0 C :    0.051218
   1 C :   -0.213914
   2 C :    0.105338
   3 C :   -0.226938
   4 C :    0.070367
   5 C :   -0.123335
   6 N :    0.077817
   7 H :    0.061932
   8 H :    0.057266
   9 H :    0.059032
  10 H :    0.036879
  11 H :    0.044337
Sum of atomic charges:   -0.0000000

LOEWDIN ATOMIC CHARGES
----------------------
   0 C :   -0.063887
   1 C :   -0.010765
   2 C :   -0.051412
   3 C :   -0.077494
   4 C :    0.019379
   5 C :   -0.021955
   6 N :   -0.045947
   7 H :    0.058482
   8 H :    0.057412
   9 H :    0.057830
  10 H :    0.038179
  11 H :    0.040178

  Mayer bond orders larger than 0.1
B(  0-C ,  1-C ) :   1.1404 B(  0-C ,  7-H ) :   0.9293 B(  0-C ,  8-H ) :   0.9282
B(  0-C ,  9-H ) :   0.9282 B(  1-C ,  2-C ) :   2.4586 B(  1-C ,  4-C ) :   0.1109
B(  2-C ,  3-C ) :   0.9698 B(  3-C ,  4-C ) :   1.8853 B(  3-C ,  5-C ) :   1.0948
B(  4-C ,  6-N ) :   0.1059 B(  4-C , 10-H ) :   0.9303 B(  4-C , 11-H ) :   0.9297
B(  5-C ,  6-N ) :   3.0183

FINAL SINGLE POINT ENERGY      -285.719718663687

DIPOLE MOMENT
-------------
                                X             Y             Z
Electronic contribution:      5.58701       2.54330      -1.72723
Nuclear contribution   :     -6.68974      -3.57618       2.42646
                        -----------------------------------------
Total Dipole Moment    :     -1.10273      -1.03288       0.69923
                        -----------------------------------------
Magnitude (a.u.)       :      1.66487
Magnitude (Debye)      :      4.23175

                             ****ORCA TERMINATED NORMALLY****
TOTAL RUN TIME: 0 days 0 hours 0 minutes 5 seconds 640 msec
