                         Program Version 3.0.3 - RELEASE   -
|  1> ! RI PBE def2-SVP def2-SVP/J NBO PAL2
|  2> % maxcore 2000
|  3> % output
|  4>     # printlevel mini
|  5>     print[ P_Basis ] 0
|  6>     print[ P_SCFInfo ] 1
|  7>     print[ P_SCFIterInfo ] 1
|  8>     print[ P_OrbEn ] 0
|  9>     print[ P_Cartesian ] 0
| 10> end
| 11> *xyz 0 1
| 12>  C        0.8985750000     0.0570270000     0.0145100000
| 13>  C        2.3502520000     0.0585730000     0.0189450000
| 14>  C        3.5534290000     0.0679760000     0.0221610000
| 15>  C        5.0120710000     0.0589790000     0.0410980000
| 16>  C        5.5608730000     0.4765840000     1.4039310000
| 17>  C        5.5410890000    -1.3159390000    -0.3894330000
| 18>  N        6.9851360000    -1.2839760000    -0.5525450000
| 19>  H        0.5029940000    -0.6462840000     0.7517770000
| 20>  H        0.5076220000    -0.2302510000    -0.9649460000
| 21>  H        0.5044670000     1.0480750000     0.2538230000
| 22>  H        5.3596070000     0.7869510000    -0.7058400000
| 23>  H        5.1891940000    -0.1941360000     2.1825270000
| 24>  H        5.2489110000     1.4914730000     1.6554900000
| 25>  H        6.6501800000     0.4265230000     1.3924730000
| 26>  H        4.9968180000    -1.6314010000    -1.2904620000
| 27>  H        5.2988450000    -2.0379070000     0.3962940000
| 28>  H        7.2368940000    -0.7972640000    -1.4043010000
| 29>  H        7.3588650000    -2.2207010000    -0.6261890000
| 30> *
| 31>
| 32>                          ****END OF INPUT****
 Total Charge           Charge          ....    0
 Multiplicity           Mult            ....    1
 Number of Electrons    NEL             ....   54
 Basis Dimension        Dim             ....  153

MULLIKEN ATOMIC CHARGES
-----------------------
   0 C :    0.058021
   1 C :   -0.272885
   2 C :   -0.003300
   3 C :   -0.092825
   4 C :    0.035294
   5 C :    0.063668
   6 N :   -0.186242
   7 H :    0.044592
   8 H :    0.041748
   9 H :    0.042814
  10 H :    0.016537
  11 H :    0.014059
  12 H :    0.020525
  13 H :    0.025850
  14 H :    0.004493
  15 H :    0.008489
  16 H :    0.087842
  17 H :    0.091320
Sum of atomic charges:    0.0000000

LOEWDIN ATOMIC CHARGES
----------------------
   0 C :   -0.068541
   1 C :   -0.077746
   2 C :   -0.055983
   3 C :   -0.059050
   4 C :   -0.049148
   5 C :    0.017859
   6 N :   -0.104619
   7 H :    0.048738
   8 H :    0.047994
   9 H :    0.048703
  10 H :    0.040143
  11 H :    0.026155
  12 H :    0.026615
  13 H :    0.025607
  14 H :    0.004337
  15 H :    0.022447
  16 H :    0.051410
  17 H :    0.055079

  Mayer bond orders larger than 0.1
B(  0-C ,  1-C ) :   1.1383 B(  0-C ,  7-H ) :   0.9317 B(  0-C ,  8-H ) :   0.9332
B(  0-C ,  9-H ) :   0.9333 B(  1-C ,  2-C ) :   2.5865 B(  2-C ,  3-C ) :   0.9826
B(  3-C ,  4-C ) :   1.0678 B(  3-C ,  5-C ) :   1.0372 B(  3-C , 10-H ) :   0.8725
B(  4-C , 11-H ) :   0.9585 B(  4-C , 12-H ) :   0.9627 B(  4-C , 13-H ) :   0.9475
B(  5-C ,  6-N ) :   1.1212 B(  5-C , 14-H ) :   0.9406 B(  5-C , 15-H ) :   0.9284
B(  6-N , 16-H ) :   0.9679 B(  6-N , 17-H ) :   0.9641

FINAL SINGLE POINT ENERGY      -289.340470751658

DIPOLE MOMENT
-------------
                                X             Y             Z
Electronic contribution:     -1.05658       0.36153      -1.20919
Nuclear contribution   :      0.99048      -0.66235       0.76453
                        -----------------------------------------
Total Dipole Moment    :     -0.06610      -0.30082      -0.44466
                        -----------------------------------------
Magnitude (a.u.)       :      0.54091
Magnitude (Debye)      :      1.37488

                             ****ORCA TERMINATED NORMALLY****
TOTAL RUN TIME: 0 days 0 hours 0 minutes 7 seconds 580 msec
