                         Program Version 3.0.3 - RELEASE   -
|  1> ! RI PBE def2-SVP def2-SVP/J NBO PAL2
|  2> % maxcore 2000
|  3> % output
|  4>     # printlevel mini
|  5>     print[ P_Basis ] 0
|  6>     print[ P_SCFInfo ] 1
|  7>     print[ P_SCFIterInfo ] 1
|  8>     print[ P_OrbEn ] 0
|  9>     print[ P_Cartesian ] 0
| 10> end
| 11> *xyz 0 1
| 12>  C        1.4113590000     0.8077480000    -0.0154040000
| 13>  C        2.7862670000     0.3541680000     0.0828570000
| 14>  C        3.9235460000    -0.0245890000     0.1773440000
| 15>  C        5.3153510000    -0.4817990000     0.2614610000
| 16>  C        5.9897930000    -0.2767940000    -1.1030160000
| 17>  C        5.3508990000    -1.9636120000     0.6384640000
| 18>  N        5.9759250000     0.2655920000     1.3375030000
| 19>  H        1.2632530000     1.4349390000    -0.8981400000
| 20>  H        1.1302820000     1.3930310000     0.8637480000
| 21>  H        0.7238230000    -0.0389100000    -0.0863380000
| 22>  H        5.9834240000     0.7802340000    -1.3771810000
| 23>  H        5.4777970000    -0.8364140000    -1.8890550000
| 24>  H        7.0280550000    -0.6186860000    -1.0558480000
| 25>  H        4.8508820000    -2.5693000000    -0.1186800000
| 26>  H        4.8613980000    -2.1166470000     1.6000350000
| 27>  H        6.3892260000    -2.2993850000     0.7177060000
| 28>  H        5.9058550000     1.2605680000     1.1579740000
| 29>  H        6.9631760000     0.0316370000     1.3483820000
| 30> *
| 31>
| 32>                          ****END OF INPUT****
 Total Charge           Charge          ....    0
 Multiplicity           Mult            ....    1
 Number of Electrons    NEL             ....   54
 Basis Dimension        Dim             ....  153

MULLIKEN ATOMIC CHARGES
-----------------------
   0 C :    0.053559
   1 C :   -0.276482
   2 C :    0.064195
   3 C :   -0.258357
   4 C :    0.084029
   5 C :    0.083926
   6 N :   -0.138780
   7 H :    0.043741
   8 H :    0.047141
   9 H :    0.046673
  10 H :    0.013308
  11 H :    0.015667
  12 H :    0.002751
  13 H :    0.018557
  14 H :    0.028085
  15 H :    0.005447
  16 H :    0.088235
  17 H :    0.078305
Sum of atomic charges:   -0.0000000

LOEWDIN ATOMIC CHARGES
----------------------
   0 C :   -0.069928
   1 C :   -0.068884
   2 C :   -0.050645
   3 C :   -0.031935
   4 C :   -0.056507
   5 C :   -0.041623
   6 N :   -0.081595
   7 H :    0.048498
   8 H :    0.050898
   9 H :    0.050764
  10 H :    0.023518
  11 H :    0.027863
  12 H :    0.019861
  13 H :    0.028067
  14 H :    0.031451
  15 H :    0.021802
  16 H :    0.051016
  17 H :    0.047379

  Mayer bond orders larger than 0.1
B(  0-C ,  1-C ) :   1.1501 B(  0-C ,  7-H ) :   0.9313 B(  0-C ,  8-H ) :   0.9306
B(  0-C ,  9-H ) :   0.9285 B(  1-C ,  2-C ) :   2.6048 B(  2-C ,  3-C ) :   0.9223
B(  3-C ,  4-C ) :   1.0538 B(  3-C ,  5-C ) :   1.0523 B(  3-C ,  6-N ) :   1.0566
B(  4-C , 10-H ) :   0.9527 B(  4-C , 11-H ) :   0.9459 B(  4-C , 12-H ) :   0.9487
B(  5-C , 13-H ) :   0.9556 B(  5-C , 14-H ) :   0.9532 B(  5-C , 15-H ) :   0.9505
B(  6-N , 16-H ) :   0.9600 B(  6-N , 17-H ) :   0.9605

FINAL SINGLE POINT ENERGY      -289.340880874526

DIPOLE MOMENT
-------------
                                X             Y             Z
Electronic contribution:     -1.44963       1.52273       1.44394
Nuclear contribution   :      1.54356      -1.34519      -1.81857
                        -----------------------------------------
Total Dipole Moment    :      0.09393       0.17754      -0.37463
                        -----------------------------------------
Magnitude (a.u.)       :      0.42507
Magnitude (Debye)      :      1.08045

                             ****ORCA TERMINATED NORMALLY****
TOTAL RUN TIME: 0 days 0 hours 0 minutes 8 seconds 228 msec
