                         Program Version 3.0.3 - RELEASE   -
|  1> ! RI PBE def2-SVP def2-SVP/J NBO PAL2
|  2> % maxcore 2000
|  3> % output
|  4>     # printlevel mini
|  5>     print[ P_Basis ] 0
|  6>     print[ P_SCFInfo ] 1
|  7>     print[ P_SCFIterInfo ] 1
|  8>     print[ P_OrbEn ] 0
|  9>     print[ P_Cartesian ] 0
| 10> end
| 11> *xyz 0 1
| 12>  C        0.9418440000    -0.0716610000     0.0723680000
| 13>  C        2.3913240000    -0.0502610000     0.0821970000
| 14>  C        3.5917530000    -0.0274910000     0.0997280000
| 15>  C        5.0519880000    -0.0031160000     0.0956800000
| 16>  C        5.6289110000     0.2965560000    -1.2954840000
| 17>  C        5.5594710000     0.9604600000     1.0781290000
| 18>  N        5.9844790000     1.7153710000     1.8330620000
| 19>  H        0.5537770000     0.1687420000    -0.9202280000
| 20>  H        0.5408390000     0.6597060000     0.7780760000
| 21>  H        0.5633800000    -1.0567990000     0.3550140000
| 22>  H        5.4162170000    -0.9869890000     0.4179480000
| 23>  H        5.2974720000     1.2758960000    -1.6400010000
| 24>  H        5.2804370000    -0.4590560000    -1.9995650000
| 25>  H        6.7190090000     0.2828410000    -1.2643250000
| 26> *
| 27>
| 28>                          ****END OF INPUT****
 Total Charge           Charge          ....    0
 Multiplicity           Mult            ....    1
 Number of Electrons    NEL             ....   50
 Basis Dimension        Dim             ....  133

MULLIKEN ATOMIC CHARGES
-----------------------
   0 C :    0.056281
   1 C :   -0.219668
   2 C :   -0.036153
   3 C :   -0.018487
   4 C :    0.014418
   5 C :   -0.214528
   6 N :    0.053826
   7 H :    0.050709
   8 H :    0.057947
   9 H :    0.051017
  10 H :    0.062468
  11 H :    0.047500
  12 H :    0.046506
  13 H :    0.048165
Sum of atomic charges:   -0.0000000

LOEWDIN ATOMIC CHARGES
----------------------
   0 C :   -0.065135
   1 C :   -0.039166
   2 C :   -0.063158
   3 C :   -0.061496
   4 C :   -0.030337
   5 C :   -0.029043
   6 N :   -0.060366
   7 H :    0.053412
   8 H :    0.056432
   9 H :    0.053374
  10 H :    0.072479
  11 H :    0.038379
  12 H :    0.037577
  13 H :    0.037048

  Mayer bond orders larger than 0.1
B(  0-C ,  1-C ) :   1.1395 B(  0-C ,  7-H ) :   0.9303 B(  0-C ,  8-H ) :   0.9297
B(  0-C ,  9-H ) :   0.9318 B(  1-C ,  2-C ) :   2.6395 B(  2-C ,  3-C ) :   0.9975
B(  3-C ,  4-C ) :   1.0926 B(  3-C ,  5-C ) :   1.0270 B(  3-C , 10-H ) :   0.8522
B(  4-C , 11-H ) :   0.9575 B(  4-C , 12-H ) :   0.9609 B(  4-C , 13-H ) :   0.9578
B(  5-C ,  6-N ) :   3.0801

FINAL SINGLE POINT ENERGY      -286.932584400691

DIPOLE MOMENT
-------------
                                X             Y             Z
Electronic contribution:      3.60636       1.81702       4.60291
Nuclear contribution   :     -4.38964      -2.72287      -5.61934
                        -----------------------------------------
Total Dipole Moment    :     -0.78328      -0.90584      -1.01644
                        -----------------------------------------
Magnitude (a.u.)       :      1.57074
Magnitude (Debye)      :      3.99250

                             ****ORCA TERMINATED NORMALLY****
TOTAL RUN TIME: 0 days 0 hours 0 minutes 5 seconds 716 msec
