                         Program Version 3.0.3 - RELEASE   -
|  1> ! RI PBE def2-SVP def2-SVP/J NBO PAL2
|  2> % maxcore 2000
|  3> % output
|  4>     # printlevel mini
|  5>     print[ P_Basis ] 0
|  6>     print[ P_SCFInfo ] 1
|  7>     print[ P_SCFIterInfo ] 1
|  8>     print[ P_OrbEn ] 0
|  9>     print[ P_Cartesian ] 0
| 10> end
| 11> *xyz 0 1
| 12>  C        1.1866430000    -0.0189330000    -0.0201890000
| 13>  C        2.6286590000    -0.0189620000    -0.0203930000
| 14>  C        3.8382500000    -0.0188570000    -0.0204960000
| 15>  C        5.1910930000    -0.0189540000    -0.0202750000
| 16>  C        6.4040270000    -0.0189260000    -0.0201540000
| 17>  C        7.7645520000    -0.0188840000    -0.0200930000
| 18>  N        8.9216840000    -0.0188600000    -0.0201080000
| 19>  H        0.8005040000    -0.7720120000     0.6716190000
| 20>  H        0.8002990000    -0.2414460000    -1.0182170000
| 21>  H        0.8005780000     0.9567250000     0.2861960000
| 22> *
| 23>
| 24>                          ****END OF INPUT****
 Total Charge           Charge          ....    0
 Multiplicity           Mult            ....    1
 Number of Electrons    NEL             ....   46
 Basis Dimension        Dim             ....  113

MULLIKEN ATOMIC CHARGES
-----------------------
   0 C :    0.055066
   1 C :   -0.157125
   2 C :   -0.032560
   3 C :   -0.123251
   4 C :    0.128224
   5 C :   -0.202901
   6 N :    0.127762
   7 H :    0.069503
   8 H :    0.067596
   9 H :    0.067685
Sum of atomic charges:   -0.0000000

LOEWDIN ATOMIC CHARGES
----------------------
   0 C :   -0.060718
   1 C :    0.034575
   2 C :   -0.069389
   3 C :    0.023235
   4 C :   -0.049800
   5 C :   -0.048645
   6 N :   -0.022099
   7 H :    0.064485
   8 H :    0.064155
   9 H :    0.064200

  Mayer bond orders larger than 0.1
B(  0-C ,  1-C ) :   1.1683 B(  0-C ,  7-H ) :   0.9211 B(  0-C ,  8-H ) :   0.9210
B(  0-C ,  9-H ) :   0.9208 B(  1-C ,  2-C ) :   2.2641 B(  1-C ,  4-C ) :   0.2022
B(  2-C ,  3-C ) :   1.0878 B(  3-C ,  4-C ) :   2.0499 B(  3-C ,  5-C ) :  -0.1219
B(  3-C ,  6-N ) :   0.1574 B(  4-C ,  5-C ) :   1.0127 B(  4-C ,  6-N ) :   0.1451
B(  5-C ,  6-N ) :   2.8434

FINAL SINGLE POINT ENERGY      -284.497143123412

DIPOLE MOMENT
-------------
                                X             Y             Z
Electronic contribution:      9.53700      -0.00047      -0.00027
Nuclear contribution   :    -11.99935      -0.00000       0.00029
                        -----------------------------------------
Total Dipole Moment    :     -2.46236      -0.00047       0.00002
                        -----------------------------------------
Magnitude (a.u.)       :      2.46236
Magnitude (Debye)      :      6.25882

                             ****ORCA TERMINATED NORMALLY****
TOTAL RUN TIME: 0 days 0 hours 0 minutes 4 seconds 769 msec
