                         Program Version 3.0.3 - RELEASE   -
|  1> ! RI PBE def2-SVP def2-SVP/J NBO PAL2
|  2> % maxcore 2000
|  3> % output
|  4>     # printlevel mini
|  5>     print[ P_Basis ] 0
|  6>     print[ P_SCFInfo ] 1
|  7>     print[ P_SCFIterInfo ] 1
|  8>     print[ P_OrbEn ] 0
|  9>     print[ P_Cartesian ] 0
| 10> end
| 11> *xyz 0 1
| 12>  C        0.9856510000    -0.0971550000     0.0566760000
| 13>  C        2.4366130000    -0.1111370000     0.0517500000
| 14>  C        3.6384000000    -0.1259020000     0.0311300000
| 15>  C        5.0916410000    -0.1276750000     0.0194990000
| 16>  C        5.7167910000     0.6546040000    -1.1406320000
| 17>  C        7.2217950000     0.7843110000    -0.9341320000
| 18>  N        5.3398210000     0.0328620000    -2.3996340000
| 19>  H        0.5932050000     0.0105420000    -0.9578730000
| 20>  H        0.5989910000     0.7317060000     0.6553520000
| 21>  H        0.5845360000    -1.0249680000     0.4729740000
| 22>  H        5.4589750000    -1.1620350000    -0.0205920000
| 23>  H        5.4617790000     0.2867900000     0.9633850000
| 24>  H        5.2732320000     1.6564180000    -1.1375290000
| 25>  H        7.6918710000    -0.2041230000    -0.8965600000
| 26>  H        7.4615860000     1.3074140000    -0.0037510000
| 27>  H        7.6773400000     1.3393900000    -1.7579850000
| 28>  H        5.7397910000    -0.8973590000    -2.4646520000
| 29>  H        5.7032710000     0.5649170000    -3.1808240000
| 30> *
| 31>
| 32>                          ****END OF INPUT****
 Total Charge           Charge          ....    0
 Multiplicity           Mult            ....    1
 Number of Electrons    NEL             ....   54
 Basis Dimension        Dim             ....  153

MULLIKEN ATOMIC CHARGES
-----------------------
   0 C :    0.053088
   1 C :   -0.256524
   2 C :   -0.032322
   3 C :    0.083994
   4 C :   -0.084431
   5 C :    0.045016
   6 N :   -0.168218
   7 H :    0.044519
   8 H :    0.041767
   9 H :    0.040880
  10 H :    0.010554
  11 H :    0.020520
  12 H :    0.013275
  13 H :    0.003229
  14 H :    0.009740
  15 H :    0.011130
  16 H :    0.079686
  17 H :    0.084099
Sum of atomic charges:    0.0000000

LOEWDIN ATOMIC CHARGES
----------------------
   0 C :   -0.068769
   1 C :   -0.073007
   2 C :   -0.061394
   3 C :   -0.047119
   4 C :    0.002230
   5 C :   -0.078830
   6 N :   -0.089521
   7 H :    0.048999
   8 H :    0.046859
   9 H :    0.047522
  10 H :    0.038866
  11 H :    0.043680
  12 H :    0.025519
  13 H :    0.020479
  14 H :    0.024807
  15 H :    0.022087
  16 H :    0.047385
  17 H :    0.050206

  Mayer bond orders larger than 0.1
B(  0-C ,  1-C ) :   1.1364 B(  0-C ,  7-H ) :   0.9323 B(  0-C ,  8-H ) :   0.9345
B(  0-C ,  9-H ) :   0.9341 B(  1-C ,  2-C ) :   2.5616 B(  2-C ,  3-C ) :   1.0601
B(  3-C ,  4-C ) :   1.0468 B(  3-C , 10-H ) :   0.8821 B(  3-C , 11-H ) :   0.9007
B(  4-C ,  5-C ) :   1.0763 B(  4-C ,  6-N ) :   1.0826 B(  4-C , 12-H ) :   0.9117
B(  5-C , 13-H ) :   0.9492 B(  5-C , 14-H ) :   0.9445 B(  5-C , 15-H ) :   0.9591
B(  6-N , 16-H ) :   0.9680 B(  6-N , 17-H ) :   0.9710

FINAL SINGLE POINT ENERGY      -289.341430012002

DIPOLE MOMENT
-------------
                                X             Y             Z
Electronic contribution:     -3.04259      -0.83337       0.78421
Nuclear contribution   :      3.47225       0.87210      -0.91706
                        -----------------------------------------
Total Dipole Moment    :      0.42966       0.03873      -0.13285
                        -----------------------------------------
Magnitude (a.u.)       :      0.45139
Magnitude (Debye)      :      1.14735

                             ****ORCA TERMINATED NORMALLY****
TOTAL RUN TIME: 0 days 0 hours 0 minutes 7 seconds 598 msec
