                         Program Version 3.0.3 - RELEASE   -
|  1> ! RI PBE def2-SVP def2-SVP/J NBO PAL2
|  2> % maxcore 2000
|  3> % output
|  4>     # printlevel mini
|  5>     print[ P_Basis ] 0
|  6>     print[ P_SCFInfo ] 1
|  7>     print[ P_SCFIterInfo ] 1
|  8>     print[ P_OrbEn ] 0
|  9>     print[ P_Cartesian ] 0
| 10> end
| 11> *xyz 0 1
| 12>  C        0.9508490000    -0.0825700000    -0.0523890000
| 13>  C        2.4015350000    -0.0786200000    -0.0598180000
| 14>  C        3.6035730000    -0.0651450000    -0.0711980000
| 15>  C        5.0563420000    -0.0713120000    -0.0725150000
| 16>  C        5.6176710000    -1.3174060000     0.6308780000
| 17>  C        7.0714380000    -1.3318920000     0.6343480000
| 18>  N        8.2209600000    -1.3242270000     0.6262880000
| 19>  H        0.5650810000    -0.5438430000     0.8599750000
| 20>  H        0.5550970000    -0.6398190000    -0.9049200000
| 21>  H        0.5586060000     0.9359810000    -0.1047920000
| 22>  H        5.4365170000     0.8252910000     0.4259320000
| 23>  H        5.4314430000    -0.0381390000    -1.0996810000
| 24>  H        5.2579060000    -2.2217530000     0.1340090000
| 25>  H        5.2629940000    -1.3560360000     1.6637730000
| 26> *
| 27>
| 28>                          ****END OF INPUT****
 Total Charge           Charge          ....    0
 Multiplicity           Mult            ....    1
 Number of Electrons    NEL             ....   50
 Basis Dimension        Dim             ....  133

MULLIKEN ATOMIC CHARGES
-----------------------
   0 C :    0.054589
   1 C :   -0.247537
   2 C :   -0.058094
   3 C :    0.040996
   4 C :    0.035411
   5 C :   -0.268528
   6 N :    0.066138
   7 H :    0.049510
   8 H :    0.051262
   9 H :    0.050081
  10 H :    0.051590
  11 H :    0.052572
  12 H :    0.060386
  13 H :    0.061625
Sum of atomic charges:    0.0000000

LOEWDIN ATOMIC CHARGES
----------------------
   0 C :   -0.067137
   1 C :   -0.056459
   2 C :   -0.075758
   3 C :   -0.029462
   4 C :   -0.047061
   5 C :   -0.045940
   6 N :   -0.064720
   7 H :    0.052059
   8 H :    0.052031
   9 H :    0.052797
  10 H :    0.053338
  11 H :    0.053652
  12 H :    0.061148
  13 H :    0.061513

  Mayer bond orders larger than 0.1
B(  0-C ,  1-C ) :   1.1300 B(  0-C ,  7-H ) :   0.9317 B(  0-C ,  8-H ) :   0.9327
B(  0-C ,  9-H ) :   0.9331 B(  1-C ,  2-C ) :   2.5936 B(  2-C ,  3-C ) :   1.0707
B(  3-C ,  4-C ) :   1.1076 B(  3-C , 10-H ) :   0.8968 B(  3-C , 11-H ) :   0.8950
B(  4-C ,  5-C ) :   1.1374 B(  4-C , 12-H ) :   0.8905 B(  4-C , 13-H ) :   0.8884
B(  5-C ,  6-N ) :   3.0579

FINAL SINGLE POINT ENERGY      -286.938561217007

DIPOLE MOMENT
-------------
                                X             Y             Z
Electronic contribution:      7.35816      -1.08390       0.58728
Nuclear contribution   :     -9.02057       1.16559      -0.62652
                        -----------------------------------------
Total Dipole Moment    :     -1.66242       0.08169      -0.03923
                        -----------------------------------------
Magnitude (a.u.)       :      1.66488
Magnitude (Debye)      :      4.23180

                             ****ORCA TERMINATED NORMALLY****
TOTAL RUN TIME: 0 days 0 hours 0 minutes 5 seconds 806 msec
