                         Program Version 3.0.3 - RELEASE   -
|  1> ! RI PBE def2-SVP def2-SVP/J NBO PAL2
|  2> % maxcore 2000
|  3> % output
|  4>     # printlevel mini
|  5>     print[ P_Basis ] 0
|  6>     print[ P_SCFInfo ] 1
|  7>     print[ P_SCFIterInfo ] 1
|  8>     print[ P_OrbEn ] 0
|  9>     print[ P_Cartesian ] 0
| 10> end
| 11> *xyz 0 1
| 12>  C        3.3106180000    -1.9113820000     0.5594510000
| 13>  C        3.8001350000    -0.6550160000    -0.1531510000
| 14>  C        3.1686370000     0.5909070000     0.3743660000
| 15>  C        3.8186640000     1.6116570000     0.9210640000
| 16>  C        3.1873160000     2.8544750000     1.4531160000
| 17>  C        3.6338490000     4.1072940000     0.7108550000
| 18>  N        3.0806270000     5.2969570000     1.3396200000
| 19>  H        3.7622520000    -2.8096630000     0.1318680000
| 20>  H        2.2250630000    -2.0131500000     0.4769070000
| 21>  H        3.5593530000    -1.8785740000     1.6227370000
| 22>  H        3.5777700000    -0.7469720000    -1.2236870000
| 23>  H        4.8883280000    -0.5758690000    -0.0677690000
| 24>  H        2.0804480000     0.6393290000     0.3118190000
| 25>  H        4.9063350000     1.5602630000     0.9862270000
| 26>  H        3.4412650000     2.9875800000     2.5112420000
| 27>  H        2.0961860000     2.7655090000     1.3974600000
| 28>  H        3.3715600000     3.9989230000    -0.3532150000
| 29>  H        4.7257710000     4.1788520000     0.7574730000
| 30>  H        2.0697600000     5.2927700000     1.2691740000
| 31>  H        3.4022640000     6.1329000000     0.8681430000
| 32> *
| 33>
| 34>                          ****END OF INPUT****
 Total Charge           Charge          ....    0
 Multiplicity           Mult            ....    1
 Number of Electrons    NEL             ....   56
 Basis Dimension        Dim             ....  163

MULLIKEN ATOMIC CHARGES
-----------------------
   0 C :   -0.037688
   1 C :    0.017576
   2 C :   -0.070193
   3 C :   -0.073347
   4 C :    0.047336
   5 C :    0.037818
   6 N :   -0.205926
   7 H :    0.017680
   8 H :    0.024103
   9 H :    0.026923
  10 H :    0.024124
  11 H :    0.014088
  12 H :   -0.012804
  13 H :   -0.010392
  14 H :    0.020440
  15 H :    0.001292
  16 H :   -0.005096
  17 H :    0.011303
  18 H :    0.086823
  19 H :    0.085942
Sum of atomic charges:   -0.0000000

LOEWDIN ATOMIC CHARGES
----------------------
   0 C :   -0.064530
   1 C :   -0.048561
   2 C :   -0.043302
   3 C :   -0.043117
   4 C :   -0.049455
   5 C :    0.006634
   6 N :   -0.114186
   7 H :    0.025777
   8 H :    0.025162
   9 H :    0.026719
  10 H :    0.032923
  11 H :    0.028161
  12 H :    0.019387
  13 H :    0.020590
  14 H :    0.033844
  15 H :    0.023744
  16 H :   -0.000967
  17 H :    0.019774
  18 H :    0.049296
  19 H :    0.052106

  Mayer bond orders larger than 0.1
B(  0-C ,  1-C ) :   1.0973 B(  0-C ,  7-H ) :   0.9584 B(  0-C ,  8-H ) :   0.9701
B(  0-C ,  9-H ) :   0.9687 B(  1-C ,  2-C ) :   1.0617 B(  1-C , 10-H ) :   0.9193
B(  1-C , 11-H ) :   0.9363 B(  2-C ,  3-C ) :   1.9161 B(  2-C , 12-H ) :   0.9509
B(  3-C ,  4-C ) :   1.0566 B(  3-C , 13-H ) :   0.9504 B(  4-C ,  5-C ) :   1.0748
B(  4-C , 14-H ) :   0.9040 B(  4-C , 15-H ) :   0.9319 B(  5-C ,  6-N ) :   1.0874
B(  5-C , 16-H ) :   0.9307 B(  5-C , 17-H ) :   0.9382 B(  6-N , 18-H ) :   0.9698
B(  6-N , 19-H ) :   0.9652

FINAL SINGLE POINT ENERGY      -290.575500131356

DIPOLE MOMENT
-------------
                                X             Y             Z
Electronic contribution:      0.13556       3.04312       0.49249
Nuclear contribution   :     -0.29489      -2.94680      -0.93985
                        -----------------------------------------
Total Dipole Moment    :     -0.15932       0.09632      -0.44736
                        -----------------------------------------
Magnitude (a.u.)       :      0.48456
Magnitude (Debye)      :      1.23164

                             ****ORCA TERMINATED NORMALLY****
TOTAL RUN TIME: 0 days 0 hours 0 minutes 8 seconds 242 msec
