                         Program Version 3.0.3 - RELEASE   -
|  1> ! RI PBE def2-SVP def2-SVP/J NBO PAL2
|  2> % maxcore 2000
|  3> % output
|  4>     # printlevel mini
|  5>     print[ P_Basis ] 0
|  6>     print[ P_SCFInfo ] 1
|  7>     print[ P_SCFIterInfo ] 1
|  8>     print[ P_OrbEn ] 0
|  9>     print[ P_Cartesian ] 0
| 10> end
| 11> *xyz 0 1
| 12>  C        2.0713530000     1.1354260000    -0.1319290000
| 13>  C        3.5433680000     0.8839620000     0.1799540000
| 14>  C        4.0682100000    -0.3303930000    -0.5157390000
| 15>  C        4.6806760000    -1.3990030000    -0.0015080000
| 16>  C        5.1239300000    -2.5343180000    -0.8721810000
| 17>  C        4.9802280000    -1.5725210000     1.4614910000
| 18>  N        4.2336430000    -2.7048810000     2.0049760000
| 19>  H        1.7175660000     2.0537170000     0.3427980000
| 20>  H        1.4489670000     0.3093620000     0.2206600000
| 21>  H        1.9089960000     1.2327930000    -1.2087360000
| 22>  H        3.6818660000     0.8129390000     1.2608440000
| 23>  H        4.1236400000     1.7573280000    -0.1445080000
| 24>  H        3.9116040000    -0.3272520000    -1.5950910000
| 25>  H        6.2155300000    -2.6315900000    -0.8544950000
| 26>  H        4.8109480000    -2.3927450000    -1.9077530000
| 27>  H        4.7190900000    -3.4799230000    -0.5034140000
| 28>  H        4.8124880000    -0.6341470000     2.0033300000
| 29>  H        6.0462190000    -1.8075220000     1.5668490000
| 30>  H        3.2428730000    -2.4945980000     2.0107580000
| 31>  H        4.5082050000    -2.8858400000     2.9621850000
| 32> *
| 33>
| 34>                          ****END OF INPUT****
 Total Charge           Charge          ....    0
 Multiplicity           Mult            ....    1
 Number of Electrons    NEL             ....   56
 Basis Dimension        Dim             ....  163

MULLIKEN ATOMIC CHARGES
-----------------------
   0 C :   -0.045273
   1 C :    0.043329
   2 C :   -0.085362
   3 C :   -0.198052
   4 C :    0.077056
   5 C :    0.138947
   6 N :   -0.217245
   7 H :    0.016709
   8 H :    0.023947
   9 H :    0.024374
  10 H :    0.009539
  11 H :    0.018714
  12 H :   -0.023481
  13 H :    0.017989
  14 H :    0.006081
  15 H :    0.027038
  16 H :   -0.014100
  17 H :    0.002584
  18 H :    0.089915
  19 H :    0.087290
Sum of atomic charges:   -0.0000000

LOEWDIN ATOMIC CHARGES
----------------------
   0 C :   -0.063860
   1 C :   -0.049947
   2 C :   -0.053856
   3 C :   -0.051014
   4 C :   -0.055763
   5 C :    0.011335
   6 N :   -0.107625
   7 H :    0.025111
   8 H :    0.024527
   9 H :    0.025017
  10 H :    0.023324
  11 H :    0.033337
  12 H :    0.019698
  13 H :    0.032430
  14 H :    0.025207
  15 H :    0.033169
  16 H :    0.000497
  17 H :    0.026108
  18 H :    0.051071
  19 H :    0.051236

  Mayer bond orders larger than 0.1
B(  0-C ,  1-C ) :   1.0971 B(  0-C ,  7-H ) :   0.9591 B(  0-C ,  8-H ) :   0.9696
B(  0-C ,  9-H ) :   0.9704 B(  1-C ,  2-C ) :   1.0630 B(  1-C , 10-H ) :   0.9267
B(  1-C , 11-H ) :   0.9125 B(  2-C ,  3-C ) :   1.9003 B(  2-C , 12-H ) :   0.9300
B(  3-C ,  4-C ) :   1.0787 B(  3-C ,  5-C ) :   1.0747 B(  4-C , 13-H ) :   0.9396
B(  4-C , 14-H ) :   0.9525 B(  4-C , 15-H ) :   0.9374 B(  5-C ,  6-N ) :   1.0825
B(  5-C , 16-H ) :   0.9115 B(  5-C , 17-H ) :   0.9072 B(  6-N , 18-H ) :   0.9684
B(  6-N , 19-H ) :   0.9655

FINAL SINGLE POINT ENERGY      -290.577774845500

DIPOLE MOMENT
-------------
                                X             Y             Z
Electronic contribution:      1.67924      -1.46879       0.66762
Nuclear contribution   :     -1.78625       1.74812      -0.24001
                        -----------------------------------------
Total Dipole Moment    :     -0.10701       0.27934       0.42762
                        -----------------------------------------
Magnitude (a.u.)       :      0.52186
Magnitude (Debye)      :      1.32645

                             ****ORCA TERMINATED NORMALLY****
TOTAL RUN TIME: 0 days 0 hours 0 minutes 8 seconds 582 msec
