                         Program Version 3.0.3 - RELEASE   -
|  1> ! RI PBE def2-SVP def2-SVP/J NBO PAL2
|  2> % maxcore 2000
|  3> % output
|  4>     # printlevel mini
|  5>     print[ P_Basis ] 0
|  6>     print[ P_SCFInfo ] 1
|  7>     print[ P_SCFIterInfo ] 1
|  8>     print[ P_OrbEn ] 0
|  9>     print[ P_Cartesian ] 0
| 10> end
| 11> *xyz 0 1
| 12>  C        1.6340180000     1.2597700000    -0.7555720000
| 13>  C        2.3467300000     0.0622210000    -0.1318910000
| 14>  C        3.0320030000    -0.7731330000    -1.1549140000
| 15>  C        4.3312140000    -1.0931290000    -1.2150870000
| 16>  C        5.4096650000    -0.6916230000    -0.2540320000
| 17>  C        4.7667450000    -1.9125990000    -2.3049120000
| 18>  N        5.1520150000    -2.5710920000    -3.1690620000
| 19>  H        1.0937750000     1.8273850000     0.0046090000
| 20>  H        0.9122220000     0.9395130000    -1.5108160000
| 21>  H        2.3461620000     1.9313430000    -1.2396630000
| 22>  H        1.6044930000    -0.5646940000     0.3778030000
| 23>  H        3.0437560000     0.4005460000     0.6366460000
| 24>  H        2.3933570000    -1.1554230000    -1.9481610000
| 25>  H        5.0307800000    -0.0381110000     0.5292730000
| 26>  H        6.2150200000    -0.1723830000    -0.7793740000
| 27>  H        5.8508250000    -1.5742800000     0.2162440000
| 28> *
| 29>
| 30>                          ****END OF INPUT****
 Total Charge           Charge          ....    0
 Multiplicity           Mult            ....    1
 Number of Electrons    NEL             ....   52
 Basis Dimension        Dim             ....  143

MULLIKEN ATOMIC CHARGES
-----------------------
   0 C :   -0.050910
   1 C :    0.038772
   2 C :   -0.042732
   3 C :   -0.219796
   4 C :    0.095292
   5 C :   -0.137853
   6 N :    0.036953
   7 H :    0.031760
   8 H :    0.034196
   9 H :    0.036629
  10 H :    0.037283
  11 H :    0.014170
  12 H :    0.011603
  13 H :    0.019303
  14 H :    0.047959
  15 H :    0.047370
Sum of atomic charges:   -0.0000000

LOEWDIN ATOMIC CHARGES
----------------------
   0 C :   -0.059246
   1 C :   -0.045229
   2 C :    0.008224
   3 C :   -0.082760
   4 C :   -0.044068
   5 C :   -0.036627
   6 N :   -0.066974
   7 H :    0.031370
   8 H :    0.029097
   9 H :    0.030508
  10 H :    0.044091
  11 H :    0.028195
  12 H :    0.037287
  13 H :    0.032597
  14 H :    0.046441
  15 H :    0.047096

  Mayer bond orders larger than 0.1
B(  0-C ,  1-C ) :   1.0920 B(  0-C ,  7-H ) :   0.9595 B(  0-C ,  8-H ) :   0.9703
B(  0-C ,  9-H ) :   0.9694 B(  1-C ,  2-C ) :   1.0680 B(  1-C , 10-H ) :   0.9067
B(  1-C , 11-H ) :   0.9294 B(  2-C ,  3-C ) :   1.8295 B(  2-C ,  6-N ) :   0.1011
B(  2-C , 12-H ) :   0.9389 B(  3-C ,  4-C ) :   1.0853 B(  3-C ,  5-C ) :   1.1049
B(  4-C , 13-H ) :   0.9390 B(  4-C , 14-H ) :   0.9415 B(  4-C , 15-H ) :   0.9401
B(  5-C ,  6-N ) :   2.9850

FINAL SINGLE POINT ENERGY      -288.181259830985

DIPOLE MOMENT
-------------
                                X             Y             Z
Electronic contribution:      4.51671      -6.90009      -5.72772
Nuclear contribution   :     -5.15495       7.89478       6.97674
                        -----------------------------------------
Total Dipole Moment    :     -0.63824       0.99469       1.24903
                        -----------------------------------------
Magnitude (a.u.)       :      1.71954
Magnitude (Debye)      :      4.37073

                             ****ORCA TERMINATED NORMALLY****
TOTAL RUN TIME: 0 days 0 hours 0 minutes 6 seconds 960 msec
