                         Program Version 3.0.3 - RELEASE   -
|  1> ! RI PBE def2-SVP def2-SVP/J NBO PAL2
|  2> % maxcore 2000
|  3> % output
|  4>     # printlevel mini
|  5>     print[ P_Basis ] 0
|  6>     print[ P_SCFInfo ] 1
|  7>     print[ P_SCFIterInfo ] 1
|  8>     print[ P_OrbEn ] 0
|  9>     print[ P_Cartesian ] 0
| 10> end
| 11> *xyz 0 1
| 12>  C        2.0939970000     1.3580060000    -0.3262730000
| 13>  C        2.7746060000     0.0711490000     0.1277500000
| 14>  C        3.1109760000    -0.8362350000    -1.0101840000
| 15>  C        4.3357690000    -1.2487900000    -1.3139960000
| 16>  C        4.7315630000    -2.1492080000    -2.4468110000
| 17>  C        3.5774570000    -2.5758290000    -3.3428960000
| 18>  N        5.8371760000    -1.5089850000    -3.1581070000
| 19>  H        1.8271570000     1.9860240000     0.5269490000
| 20>  H        1.1767010000     1.1440120000    -0.8816250000
| 21>  H        2.7502290000     1.9359940000    -0.9812390000
| 22>  H        2.1072380000    -0.4549380000     0.8219230000
| 23>  H        3.6843540000     0.3053790000     0.6886360000
| 24>  H        2.2691130000    -1.1607020000    -1.6202400000
| 25>  H        5.1750650000    -0.9106500000    -0.7081820000
| 26>  H        5.1565520000    -3.0565460000    -1.9934870000
| 27>  H        3.1088600000    -1.7082650000    -3.8168280000
| 28>  H        2.8078740000    -3.1189670000    -2.7878960000
| 29>  H        3.9433330000    -3.2342250000    -4.1347580000
| 30>  H        5.5119060000    -0.6527190000    -3.5937850000
| 31>  H        6.1728720000    -2.1110960000    -3.9008410000
| 32> *
| 33>
| 34>                          ****END OF INPUT****
 Total Charge           Charge          ....    0
 Multiplicity           Mult            ....    1
 Number of Electrons    NEL             ....   56
 Basis Dimension        Dim             ....  163

MULLIKEN ATOMIC CHARGES
-----------------------
   0 C :   -0.045105
   1 C :    0.039492
   2 C :   -0.071625
   3 C :   -0.056569
   4 C :    0.017861
   5 C :    0.016938
   6 N :   -0.197317
   7 H :    0.022642
   8 H :    0.021428
   9 H :    0.028294
  10 H :    0.022357
  11 H :    0.007467
  12 H :   -0.013236
  13 H :   -0.010942
  14 H :    0.008300
  15 H :    0.013430
  16 H :    0.021422
  17 H :    0.010619
  18 H :    0.081909
  19 H :    0.082635
Sum of atomic charges:    0.0000000

LOEWDIN ATOMIC CHARGES
----------------------
   0 C :   -0.065609
   1 C :   -0.044712
   2 C :   -0.044158
   3 C :   -0.044399
   4 C :   -0.005713
   5 C :   -0.079941
   6 N :   -0.096041
   7 H :    0.026678
   8 H :    0.024543
   9 H :    0.026488
  10 H :    0.032844
  11 H :    0.027604
  12 H :    0.019141
  13 H :    0.023748
  14 H :    0.031758
  15 H :    0.022085
  16 H :    0.026874
  17 H :    0.022656
  18 H :    0.048127
  19 H :    0.048027

  Mayer bond orders larger than 0.1
B(  0-C ,  1-C ) :   1.1027 B(  0-C ,  7-H ) :   0.9593 B(  0-C ,  8-H ) :   0.9671
B(  0-C ,  9-H ) :   0.9688 B(  1-C ,  2-C ) :   1.0585 B(  1-C , 10-H ) :   0.9177
B(  1-C , 11-H ) :   0.9330 B(  2-C ,  3-C ) :   1.9076 B(  2-C , 12-H ) :   0.9303
B(  3-C ,  4-C ) :   1.0197 B(  3-C , 13-H ) :   0.9607 B(  4-C ,  5-C ) :   1.1034
B(  4-C ,  6-N ) :   1.0619 B(  4-C , 14-H ) :   0.8813 B(  5-C , 15-H ) :   0.9433
B(  5-C , 16-H ) :   0.9363 B(  5-C , 17-H ) :   0.9540 B(  6-N , 18-H ) :   0.9709
B(  6-N , 19-H ) :   0.9674

FINAL SINGLE POINT ENERGY      -290.577972396892

DIPOLE MOMENT
-------------
                                X             Y             Z
Electronic contribution:      3.00641      -1.63804       0.18360
Nuclear contribution   :     -3.30397       1.55792      -0.51370
                        -----------------------------------------
Total Dipole Moment    :     -0.29755      -0.08011      -0.33010
                        -----------------------------------------
Magnitude (a.u.)       :      0.45158
Magnitude (Debye)      :      1.14782

                             ****ORCA TERMINATED NORMALLY****
TOTAL RUN TIME: 0 days 0 hours 0 minutes 8 seconds 460 msec
