                         Program Version 3.0.3 - RELEASE   -
|  1> ! RI PBE def2-SVP def2-SVP/J NBO PAL2
|  2> % maxcore 2000
|  3> % output
|  4>     # printlevel mini
|  5>     print[ P_Basis ] 0
|  6>     print[ P_SCFInfo ] 1
|  7>     print[ P_SCFIterInfo ] 1
|  8>     print[ P_OrbEn ] 0
|  9>     print[ P_Cartesian ] 0
| 10> end
| 11> *xyz 0 1
| 12>  C        2.6674180000     0.0303910000    -1.7582360000
| 13>  C        3.0678290000    -0.2232090000    -0.3086600000
| 14>  C        3.0488330000     1.0209690000     0.5139480000
| 15>  C        4.0913030000     1.5252230000     1.1592510000
| 16>  C        4.0338830000     2.7762890000     1.9882040000
| 17>  C        4.9938040000     3.7820250000     1.5481700000
| 18>  N        5.7588400000     4.5649740000     1.1972860000
| 19>  H        2.6588100000    -0.9000020000    -2.3299260000
| 20>  H        3.3633500000     0.7199000000    -2.2409810000
| 21>  H        1.6679860000     0.4689330000    -1.8203710000
| 22>  H        4.0629460000    -0.6754240000    -0.2653650000
| 23>  H        2.3741200000    -0.9505710000     0.1302920000
| 24>  H        2.0957810000     1.5486850000     0.5641130000
| 25>  H        5.0558270000     1.0255810000     1.1121940000
| 26>  H        4.2512150000     2.5544780000     3.0396580000
| 27>  H        3.0325330000     3.2139670000     1.9538030000
| 28> *
| 29>
| 30>                          ****END OF INPUT****
 Total Charge           Charge          ....    0
 Multiplicity           Mult            ....    1
 Number of Electrons    NEL             ....   52
 Basis Dimension        Dim             ....  143

MULLIKEN ATOMIC CHARGES
-----------------------
   0 C :   -0.046549
   1 C :    0.024005
   2 C :   -0.058604
   3 C :   -0.073095
   4 C :    0.126355
   5 C :   -0.277328
   6 N :    0.041042
   7 H :    0.029139
   8 H :    0.038603
   9 H :    0.024497
  10 H :    0.013089
  11 H :    0.030800
  12 H :   -0.001420
  13 H :    0.014479
  14 H :    0.063981
  15 H :    0.051005
Sum of atomic charges:    0.0000000

LOEWDIN ATOMIC CHARGES
----------------------
   0 C :   -0.062599
   1 C :   -0.044754
   2 C :   -0.023546
   3 C :   -0.039180
   4 C :   -0.054760
   5 C :   -0.044162
   6 N :   -0.066382
   7 H :    0.029893
   8 H :    0.030602
   9 H :    0.026577
  10 H :    0.030598
  11 H :    0.037201
  12 H :    0.024192
  13 H :    0.030306
  14 H :    0.065648
  15 H :    0.060366

  Mayer bond orders larger than 0.1
B(  0-C ,  1-C ) :   1.1007 B(  0-C ,  7-H ) :   0.9599 B(  0-C ,  8-H ) :   0.9695
B(  0-C ,  9-H ) :   0.9683 B(  1-C ,  2-C ) :   1.0697 B(  1-C , 10-H ) :   0.9344
B(  1-C , 11-H ) :   0.9173 B(  2-C ,  3-C ) :   1.9240 B(  2-C , 12-H ) :   0.9496
B(  3-C ,  4-C ) :   1.0459 B(  3-C , 13-H ) :   0.9536 B(  4-C ,  5-C ) :   1.0826
B(  4-C , 14-H ) :   0.8854 B(  4-C , 15-H ) :   0.8966 B(  5-C ,  6-N ) :   3.0606

FINAL SINGLE POINT ENERGY      -288.173637420932

DIPOLE MOMENT
-------------
                                X             Y             Z
Electronic contribution:      5.22465       8.03448       4.95982
Nuclear contribution   :     -6.25334      -9.21291      -4.71294
                        -----------------------------------------
Total Dipole Moment    :     -1.02868      -1.17844       0.24688
                        -----------------------------------------
Magnitude (a.u.)       :      1.58362
Magnitude (Debye)      :      4.02524

                             ****ORCA TERMINATED NORMALLY****
TOTAL RUN TIME: 0 days 0 hours 0 minutes 6 seconds 585 msec
