                         Program Version 3.0.3 - RELEASE   -
|  1> ! RI PBE def2-SVP def2-SVP/J NBO PAL2
|  2> % maxcore 2000
|  3> % output
|  4>     # printlevel mini
|  5>     print[ P_Basis ] 0
|  6>     print[ P_SCFInfo ] 1
|  7>     print[ P_SCFIterInfo ] 1
|  8>     print[ P_OrbEn ] 0
|  9>     print[ P_Cartesian ] 0
| 10> end
| 11> *xyz 0 1
| 12>  C        2.5239000000     1.2644570000     0.8231040000
| 13>  C        2.1295100000    -0.0286900000     0.1168560000
| 14>  C        2.6194170000    -1.2752550000     0.8020920000
| 15>  C        1.7665620000    -2.2057240000     1.2221640000
| 16>  C        4.0994500000    -1.4378830000     1.0040840000
| 17>  C        4.9099900000    -1.4655140000    -0.2856560000
| 18>  N        6.3115460000    -1.7164620000     0.0142320000
| 19>  H        2.0993660000     2.1296650000     0.3089690000
| 20>  H        3.6077430000     1.3999350000     0.8499950000
| 21>  H        2.1611350000     1.2732610000     1.8538950000
| 22>  H        2.5148520000    -0.0021010000    -0.9095060000
| 23>  H        1.0406730000    -0.0818920000     0.0330620000
| 24>  H        0.6957560000    -2.0951260000     1.0855520000
| 25>  H        2.1100040000    -3.1079030000     1.7170960000
| 26>  H        4.2979970000    -2.3615540000     1.5525890000
| 27>  H        4.4753120000    -0.6170070000     1.6299650000
| 28>  H        4.7420680000    -0.5345180000    -0.8487950000
| 29>  H        4.5455900000    -2.2838970000    -0.9146180000
| 30>  H        6.6973620000    -0.9527410000     0.5571800000
| 31>  H        6.8550560000    -1.7742420000    -0.8376580000
| 32> *
| 33>
| 34>                          ****END OF INPUT****
 Total Charge           Charge          ....    0
 Multiplicity           Mult            ....    1
 Number of Electrons    NEL             ....   56
 Basis Dimension        Dim             ....  163

MULLIKEN ATOMIC CHARGES
-----------------------
   0 C :   -0.032053
   1 C :    0.036206
   2 C :   -0.156717
   3 C :   -0.043111
   4 C :    0.052702
   5 C :    0.036259
   6 N :   -0.202327
   7 H :    0.020445
   8 H :    0.023284
   9 H :    0.023463
  10 H :    0.021668
  11 H :    0.003479
  12 H :    0.007815
  13 H :    0.005918
  14 H :    0.003200
  15 H :    0.012833
  16 H :    0.000667
  17 H :    0.012606
  18 H :    0.085755
  19 H :    0.087909
Sum of atomic charges:   -0.0000000

LOEWDIN ATOMIC CHARGES
----------------------
   0 C :   -0.063392
   1 C :   -0.040663
   2 C :   -0.024684
   3 C :   -0.078218
   4 C :   -0.040988
   5 C :    0.007186
   6 N :   -0.110857
   7 H :    0.028100
   8 H :    0.022030
   9 H :    0.027609
  10 H :    0.028904
  11 H :    0.028757
  12 H :    0.017933
  13 H :    0.018756
  14 H :    0.030679
  15 H :    0.026436
  16 H :   -0.002035
  17 H :    0.022682
  18 H :    0.048888
  19 H :    0.052879

  Mayer bond orders larger than 0.1
B(  0-C ,  1-C ) :   1.1056 B(  0-C ,  7-H ) :   0.9581 B(  0-C ,  8-H ) :   0.9635
B(  0-C ,  9-H ) :   0.9644 B(  1-C ,  2-C ) :   1.0641 B(  1-C , 10-H ) :   0.9138
B(  1-C , 11-H ) :   0.9172 B(  2-C ,  3-C ) :   1.9884 B(  2-C ,  4-C ) :   1.0478
B(  3-C , 12-H ) :   0.9324 B(  3-C , 13-H ) :   0.9316 B(  4-C ,  5-C ) :   1.0814
B(  4-C , 14-H ) :   0.9078 B(  4-C , 15-H ) :   0.9120 B(  5-C ,  6-N ) :   1.0991
B(  5-C , 16-H ) :   0.9276 B(  5-C , 17-H ) :   0.9316 B(  6-N , 18-H ) :   0.9678
B(  6-N , 19-H ) :   0.9646

FINAL SINGLE POINT ENERGY      -290.573035183509

DIPOLE MOMENT
-------------
                                X             Y             Z
Electronic contribution:      0.41275      -2.66934       0.18057
Nuclear contribution   :     -0.18943       3.22264      -0.51811
                        -----------------------------------------
Total Dipole Moment    :      0.22331       0.55330      -0.33755
                        -----------------------------------------
Magnitude (a.u.)       :      0.68553
Magnitude (Debye)      :      1.74248

                             ****ORCA TERMINATED NORMALLY****
TOTAL RUN TIME: 0 days 0 hours 0 minutes 8 seconds 678 msec
