                         Program Version 3.0.3 - RELEASE   -
|  1> ! RI PBE def2-SVP def2-SVP/J NBO PAL2
|  2> % maxcore 2000
|  3> % output
|  4>     # printlevel mini
|  5>     print[ P_Basis ] 0
|  6>     print[ P_SCFInfo ] 1
|  7>     print[ P_SCFIterInfo ] 1
|  8>     print[ P_OrbEn ] 0
|  9>     print[ P_Cartesian ] 0
| 10> end
| 11> *xyz 0 1
| 12>  C        0.8065820000    -0.2181300000    -0.7253760000
| 13>  C        2.2715010000    -0.4536830000    -0.4149400000
| 14>  C        3.0403210000     0.7212400000     0.1197860000
| 15>  C        2.4816190000     1.8969170000     0.3892360000
| 16>  C        4.5189770000     0.4549980000     0.3192520000
| 17>  C        5.2554870000     1.5126160000     1.1286890000
| 18>  N        5.1188970000     0.1990850000    -0.9917580000
| 19>  H        0.3466440000    -1.1315270000    -1.1084710000
| 20>  H        0.6785560000     0.5597800000    -1.4823690000
| 21>  H        0.2468850000     0.0856210000     0.1630580000
| 22>  H        2.7976390000    -0.8119440000    -1.3057520000
| 23>  H        2.3646260000    -1.2704700000     0.3138840000
| 24>  H        1.4251360000     2.0731450000     0.2276000000
| 25>  H        3.0528650000     2.7274800000     0.7846140000
| 26>  H        4.5887300000    -0.4939100000     0.8692490000
| 27>  H        5.2598700000     2.4759310000     0.6109460000
| 28>  H        4.8092320000     1.6565860000     2.1158650000
| 29>  H        6.2963020000     1.2100240000     1.2699940000
| 30>  H        6.0864750000    -0.0814850000    -0.8845300000
| 31>  H        5.1172360000     1.0553440000    -1.5358570000
| 32> *
| 33>
| 34>                          ****END OF INPUT****
 Total Charge           Charge          ....    0
 Multiplicity           Mult            ....    1
 Number of Electrons    NEL             ....   56
 Basis Dimension        Dim             ....  163

MULLIKEN ATOMIC CHARGES
-----------------------
   0 C :   -0.022332
   1 C :    0.049483
   2 C :   -0.139195
   3 C :   -0.039253
   4 C :   -0.013493
   5 C :    0.036047
   6 N :   -0.181808
   7 H :    0.015266
   8 H :    0.024673
   9 H :    0.027305
  10 H :    0.019181
  11 H :    0.011289
  12 H :    0.001747
  13 H :   -0.003259
  14 H :    0.001720
  15 H :    0.016129
  16 H :    0.020235
  17 H :    0.004122
  18 H :    0.085374
  19 H :    0.086769
Sum of atomic charges:    0.0000000

LOEWDIN ATOMIC CHARGES
----------------------
   0 C :   -0.067591
   1 C :   -0.043500
   2 C :   -0.025958
   3 C :   -0.082743
   4 C :   -0.000140
   5 C :   -0.076051
   6 N :   -0.088491
   7 H :    0.028105
   8 H :    0.026179
   9 H :    0.025161
  10 H :    0.034260
  11 H :    0.034837
  12 H :    0.019241
  13 H :    0.017653
  14 H :    0.027029
  15 H :    0.021508
  16 H :    0.028395
  17 H :    0.022125
  18 H :    0.049737
  19 H :    0.050243

  Mayer bond orders larger than 0.1
B(  0-C ,  1-C ) :   1.1443 B(  0-C ,  7-H ) :   0.9531 B(  0-C ,  8-H ) :   0.9592
B(  0-C ,  9-H ) :   0.9551 B(  1-C ,  2-C ) :   1.0420 B(  1-C , 10-H ) :   0.9015
B(  1-C , 11-H ) :   0.9045 B(  2-C ,  3-C ) :   1.9958 B(  2-C ,  4-C ) :   1.0084
B(  3-C , 12-H ) :   0.9168 B(  3-C , 13-H ) :   0.9174 B(  4-C ,  5-C ) :   1.0975
B(  4-C ,  6-N ) :   1.0774 B(  4-C , 14-H ) :   0.8929 B(  5-C , 15-H ) :   0.9428
B(  5-C , 16-H ) :   0.9416 B(  5-C , 17-H ) :   0.9483 B(  6-N , 18-H ) :   0.9667
B(  6-N , 19-H ) :   0.9668

FINAL SINGLE POINT ENERGY      -290.577360185999

DIPOLE MOMENT
-------------
                                X             Y             Z
Electronic contribution:      1.30783      -0.31828      -0.43524
Nuclear contribution   :     -0.87939       0.43201       0.52797
                        -----------------------------------------
Total Dipole Moment    :      0.42844       0.11373       0.09273
                        -----------------------------------------
Magnitude (a.u.)       :      0.45287
Magnitude (Debye)      :      1.15112

                             ****ORCA TERMINATED NORMALLY****
TOTAL RUN TIME: 0 days 0 hours 0 minutes 8 seconds 734 msec
