                         Program Version 3.0.3 - RELEASE   -
|  1> ! RI PBE def2-SVP def2-SVP/J NBO PAL2
|  2> % maxcore 2000
|  3> % output
|  4>     # printlevel mini
|  5>     print[ P_Basis ] 0
|  6>     print[ P_SCFInfo ] 1
|  7>     print[ P_SCFIterInfo ] 1
|  8>     print[ P_OrbEn ] 0
|  9>     print[ P_Cartesian ] 0
| 10> end
| 11> *xyz 0 1
| 12>  C        2.8935550000     1.4283070000    -0.2079330000
| 13>  C        2.5576130000    -0.0281460000     0.0982520000
| 14>  C        2.8891080000    -0.4472570000     1.4991350000
| 15>  C        1.9761640000    -0.8810870000     2.3593680000
| 16>  C        4.3356640000    -0.3370700000     1.9272960000
| 17>  C        5.2487030000    -1.0402050000     1.0352470000
| 18>  N        5.9613450000    -1.5918630000     0.3215320000
| 19>  H        2.5858180000     1.6842150000    -1.2235320000
| 20>  H        3.9665470000     1.6227390000    -0.1395990000
| 21>  H        2.3805770000     2.1043620000     0.4805370000
| 22>  H        3.1021020000    -0.6732010000    -0.6017490000
| 23>  H        1.4935100000    -0.2066400000    -0.0735700000
| 24>  H        0.9301720000    -0.9427620000     2.0806670000
| 25>  H        2.2373550000    -1.1907520000     3.3653880000
| 26>  H        4.4643540000    -0.7318740000     2.9374660000
| 27>  H        4.6460320000     0.7136540000     1.9516950000
| 28> *
| 29>
| 30>                          ****END OF INPUT****
 Total Charge           Charge          ....    0
 Multiplicity           Mult            ....    1
 Number of Electrons    NEL             ....   52
 Basis Dimension        Dim             ....  143

MULLIKEN ATOMIC CHARGES
-----------------------
   0 C :   -0.036498
   1 C :    0.049317
   2 C :   -0.183615
   3 C :   -0.027890
   4 C :    0.156085
   5 C :   -0.283454
   6 N :    0.040435
   7 H :    0.029173
   8 H :    0.031401
   9 H :    0.026614
  10 H :    0.045398
  11 H :    0.008095
  12 H :    0.022564
  13 H :    0.014449
  14 H :    0.041709
  15 H :    0.066216
Sum of atomic charges:   -0.0000000

LOEWDIN ATOMIC CHARGES
----------------------
   0 C :   -0.061441
   1 C :   -0.038570
   2 C :   -0.020717
   3 C :   -0.059438
   4 C :   -0.047552
   5 C :   -0.042587
   6 N :   -0.066610
   7 H :    0.033173
   8 H :    0.026305
   9 H :    0.027704
  10 H :    0.042398
  11 H :    0.032773
  12 H :    0.026602
  13 H :    0.022954
  14 H :    0.061332
  15 H :    0.063674

  Mayer bond orders larger than 0.1
B(  0-C ,  1-C ) :   1.1084 B(  0-C ,  7-H ) :   0.9583 B(  0-C ,  8-H ) :   0.9635
B(  0-C ,  9-H ) :   0.9652 B(  1-C ,  2-C ) :   1.0694 B(  1-C , 10-H ) :   0.9057
B(  1-C , 11-H ) :   0.9178 B(  2-C ,  3-C ) :   2.0033 B(  2-C ,  4-C ) :   1.0286
B(  3-C , 12-H ) :   0.9345 B(  3-C , 13-H ) :   0.9313 B(  4-C ,  5-C ) :   1.0811
B(  4-C , 14-H ) :   0.8750 B(  4-C , 15-H ) :   0.8894 B(  5-C ,  6-N ) :   3.0450

FINAL SINGLE POINT ENERGY      -288.172857884953

DIPOLE MOMENT
-------------
                                X             Y             Z
Electronic contribution:      5.77965      -4.62229       0.75258
Nuclear contribution   :     -6.70749       5.38329      -0.10756
                        -----------------------------------------
Total Dipole Moment    :     -0.92784       0.76100       0.64502
                        -----------------------------------------
Magnitude (a.u.)       :      1.36237
Magnitude (Debye)      :      3.46287

                             ****ORCA TERMINATED NORMALLY****
TOTAL RUN TIME: 0 days 0 hours 0 minutes 7 seconds 378 msec
