                         Program Version 3.0.3 - RELEASE   -
|  1> ! RI PBE def2-SVP def2-SVP/J NBO PAL2
|  2> % maxcore 2000
|  3> % output
|  4>     # printlevel mini
|  5>     print[ P_Basis ] 0
|  6>     print[ P_SCFInfo ] 1
|  7>     print[ P_SCFIterInfo ] 1
|  8>     print[ P_OrbEn ] 0
|  9>     print[ P_Cartesian ] 0
| 10> end
| 11> *xyz 0 1
| 12>  C        1.1399140000    -1.2493660000    -0.5893420000
| 13>  C        1.7853320000     0.0492170000    -0.1185160000
| 14>  C        2.6974760000     0.6534050000    -1.1508280000
| 15>  C        2.5265400000     1.8103940000    -1.8040760000
| 16>  C        1.4029690000     2.7703950000    -1.6579940000
| 17>  C        3.8614520000    -0.1208340000    -1.4592310000
| 18>  N        4.7876210000    -0.7711450000    -1.6792560000
| 19>  H        0.5160920000    -1.6759490000     0.1986240000
| 20>  H        1.8968550000    -1.9898030000    -0.8570710000
| 21>  H        0.5121300000    -1.0790690000    -1.4668030000
| 22>  H        2.3701370000    -0.1445240000     0.7868140000
| 23>  H        1.0173420000     0.7732610000     0.1563150000
| 24>  H        3.2918350000     2.0872600000    -2.5243680000
| 25>  H        1.7798890000     3.7480030000    -1.3406630000
| 26>  H        0.6469220000     2.4478450000    -0.9439800000
| 27>  H        0.9152840000     2.9279990000    -2.6251270000
| 28> *
| 29>
| 30>                          ****END OF INPUT****
 Total Charge           Charge          ....    0
 Multiplicity           Mult            ....    1
 Number of Electrons    NEL             ....   52
 Basis Dimension        Dim             ....  143

MULLIKEN ATOMIC CHARGES
-----------------------
   0 C :   -0.041603
   1 C :    0.070092
   2 C :   -0.198006
   3 C :   -0.079619
   4 C :    0.053022
   5 C :   -0.134101
   6 N :    0.045402
   7 H :    0.032724
   8 H :    0.049335
   9 H :    0.029533
  10 H :    0.036631
  11 H :    0.004358
  12 H :    0.015130
  13 H :    0.045930
  14 H :    0.026481
  15 H :    0.044692
Sum of atomic charges:   -0.0000000

LOEWDIN ATOMIC CHARGES
----------------------
   0 C :   -0.060815
   1 C :   -0.028976
   2 C :   -0.079156
   3 C :    0.003964
   4 C :   -0.062302
   5 C :   -0.036375
   6 N :   -0.068037
   7 H :    0.031478
   8 H :    0.034688
   9 H :    0.029701
  10 H :    0.042012
  11 H :    0.029478
  12 H :    0.038121
  13 H :    0.047252
  14 H :    0.031902
  15 H :    0.047065

  Mayer bond orders larger than 0.1
B(  0-C ,  1-C ) :   1.1178 B(  0-C ,  7-H ) :   0.9603 B(  0-C ,  8-H ) :   0.9641
B(  0-C ,  9-H ) :   0.9612 B(  1-C ,  2-C ) :   1.0685 B(  1-C , 10-H ) :   0.9130
B(  1-C , 11-H ) :   0.9046 B(  2-C ,  3-C ) :   1.8416 B(  2-C ,  5-C ) :   1.1019
B(  3-C ,  4-C ) :   1.0994 B(  3-C ,  6-N ) :   0.1022 B(  3-C , 12-H ) :   0.9400
B(  4-C , 13-H ) :   0.9378 B(  4-C , 14-H ) :   0.9542 B(  4-C , 15-H ) :   0.9359
B(  5-C ,  6-N ) :   2.9842

FINAL SINGLE POINT ENERGY      -288.181749871545

DIPOLE MOMENT
-------------
                                X             Y             Z
Electronic contribution:      7.88357      -1.84448      -1.72941
Nuclear contribution   :     -9.24862       2.80239       1.99876
                        -----------------------------------------
Total Dipole Moment    :     -1.36505       0.95790       0.26935
                        -----------------------------------------
Magnitude (a.u.)       :      1.68923
Magnitude (Debye)      :      4.29367

                             ****ORCA TERMINATED NORMALLY****
TOTAL RUN TIME: 0 days 0 hours 0 minutes 7 seconds 39 msec
