                         Program Version 3.0.3 - RELEASE   -
|  1> ! RI PBE def2-SVP def2-SVP/J NBO PAL2
|  2> % maxcore 2000
|  3> % output
|  4>     # printlevel mini
|  5>     print[ P_Basis ] 0
|  6>     print[ P_SCFInfo ] 1
|  7>     print[ P_SCFIterInfo ] 1
|  8>     print[ P_OrbEn ] 0
|  9>     print[ P_Cartesian ] 0
| 10> end
| 11> *xyz 0 1
| 12>  C        2.8571700000     1.4843240000     0.0374060000
| 13>  C        2.4556000000     0.0217240000    -0.0080190000
| 14>  C        3.0233780000    -0.8073180000     1.1583340000
| 15>  C        2.5479620000    -2.2339310000     1.1145140000
| 16>  C        1.7655650000    -2.7808720000     2.0307170000
| 17>  C        4.4857510000    -0.7663400000     1.1488400000
| 18>  N        5.6350410000    -0.7368080000     1.1188710000
| 19>  H        2.4190120000     2.0297630000    -0.8005220000
| 20>  H        3.9418890000     1.6014430000    -0.0175070000
| 21>  H        2.5145550000     1.9606170000     0.9600280000
| 22>  H        2.7799950000    -0.4326870000    -0.9490280000
| 23>  H        1.3676210000    -0.0792400000     0.0326560000
| 24>  H        2.6973040000    -0.3551600000     2.1022150000
| 25>  H        2.8712250000    -2.8119800000     0.2524180000
| 26>  H        1.4371660000    -2.2267030000     2.9045160000
| 27>  H        1.4258160000    -3.8057730000     1.9419000000
| 28> *
| 29>
| 30>                          ****END OF INPUT****
 Total Charge           Charge          ....    0
 Multiplicity           Mult            ....    1
 Number of Electrons    NEL             ....   52
 Basis Dimension        Dim             ....  143

MULLIKEN ATOMIC CHARGES
-----------------------
   0 C :   -0.010339
   1 C :   -0.019709
   2 C :   -0.059516
   3 C :   -0.020042
   4 C :   -0.020461
   5 C :   -0.205933
   6 N :    0.053120
   7 H :    0.030651
   8 H :    0.047115
   9 H :    0.021765
  10 H :    0.025997
  11 H :    0.034814
  12 H :    0.037156
  13 H :    0.021652
  14 H :    0.026795
  15 H :    0.036935
Sum of atomic charges:   -0.0000000

LOEWDIN ATOMIC CHARGES
----------------------
   0 C :   -0.065587
   1 C :   -0.024061
   2 C :   -0.059815
   3 C :   -0.011370
   4 C :   -0.045031
   5 C :   -0.034745
   6 N :   -0.067054
   7 H :    0.033702
   8 H :    0.035023
   9 H :    0.028070
  10 H :    0.031245
  11 H :    0.033190
  12 H :    0.054612
  13 H :    0.033732
  14 H :    0.026278
  15 H :    0.031811

  Mayer bond orders larger than 0.1
B(  0-C ,  1-C ) :   1.1173 B(  0-C ,  7-H ) :   0.9583 B(  0-C ,  8-H ) :   0.9585
B(  0-C ,  9-H ) :   0.9629 B(  1-C ,  2-C ) :   1.0565 B(  1-C , 10-H ) :   0.9289
B(  1-C , 11-H ) :   0.9376 B(  2-C ,  3-C ) :   1.0204 B(  2-C ,  5-C ) :   1.0318
B(  2-C , 12-H ) :   0.8806 B(  3-C ,  4-C ) :   2.0167 B(  3-C , 13-H ) :   0.9506
B(  4-C , 14-H ) :   0.9481 B(  4-C , 15-H ) :   0.9418 B(  5-C ,  6-N ) :   3.0610

FINAL SINGLE POINT ENERGY      -288.168552395844

DIPOLE MOMENT
-------------
                                X             Y             Z
Electronic contribution:      5.59843      -2.79568       1.69305
Nuclear contribution   :     -7.04713       2.83709      -1.77837
                        -----------------------------------------
Total Dipole Moment    :     -1.44870       0.04141      -0.08532
                        -----------------------------------------
Magnitude (a.u.)       :      1.45180
Magnitude (Debye)      :      3.69018

                             ****ORCA TERMINATED NORMALLY****
TOTAL RUN TIME: 0 days 0 hours 0 minutes 6 seconds 814 msec
