                         Program Version 3.0.3 - RELEASE   -
|  1> ! RI PBE def2-SVP def2-SVP/J NBO PAL2
|  2> % maxcore 2000
|  3> % output
|  4>     # printlevel mini
|  5>     print[ P_Basis ] 0
|  6>     print[ P_SCFInfo ] 1
|  7>     print[ P_SCFIterInfo ] 1
|  8>     print[ P_OrbEn ] 0
|  9>     print[ P_Cartesian ] 0
| 10> end
| 11> *xyz 0 1
| 12>  C        1.9195620000     2.0116540000    -1.1742070000
| 13>  C        2.1717170000     0.6933670000    -0.4578810000
| 14>  C        2.7280650000    -0.4381940000    -1.3312940000
| 15>  C        1.7094940000    -0.9061190000    -2.3636470000
| 16>  C        4.0527810000    -0.1014830000    -2.0134210000
| 17>  C        5.1823300000     0.2815330000    -1.0756050000
| 18>  N        6.4310080000     0.4102490000    -1.8154370000
| 19>  H        1.4972120000     2.7485700000    -0.4871140000
| 20>  H        1.2158550000     1.8984890000    -2.0022290000
| 21>  H        2.8415170000     2.4364220000    -1.5793060000
| 22>  H        1.2347180000     0.3438200000    -0.0096380000
| 23>  H        2.8532040000     0.8683780000     0.3808450000
| 24>  H        2.9198270000    -1.2833010000    -0.6562040000
| 25>  H        1.4943770000    -0.1247870000    -3.0979590000
| 26>  H        0.7648300000    -1.1877940000    -1.8905000000
| 27>  H        2.0810850000    -1.7746440000    -2.9132880000
| 28>  H        3.8965500000     0.7069670000    -2.7400100000
| 29>  H        4.3822430000    -0.9674170000    -2.5971920000
| 30>  H        5.3140010000    -0.5119290000    -0.3311180000
| 31>  H        4.9114920000     1.1919140000    -0.5190230000
| 32>  H        6.3502870000     1.1453760000    -2.5084700000
| 33>  H        7.1870570000     0.6762300000    -1.1969020000
| 34> *
| 35>
| 36>                          ****END OF INPUT****
 Total Charge           Charge          ....    0
 Multiplicity           Mult            ....    1
 Number of Electrons    NEL             ....   58
 Basis Dimension        Dim             ....  173

MULLIKEN ATOMIC CHARGES
-----------------------
   0 C :   -0.030483
   1 C :   -0.002481
   2 C :   -0.129571
   3 C :    0.034246
   4 C :   -0.021254
   5 C :    0.080167
   6 N :   -0.206832
   7 H :    0.020983
   8 H :    0.020171
   9 H :    0.015649
  10 H :   -0.002287
  11 H :    0.012626
  12 H :    0.000852
  13 H :    0.015440
  14 H :    0.009011
  15 H :    0.013017
  16 H :   -0.001317
  17 H :    0.009601
  18 H :    0.001491
  19 H :   -0.007551
  20 H :    0.083834
  21 H :    0.084688
Sum of atomic charges:   -0.0000000

LOEWDIN ATOMIC CHARGES
----------------------
   0 C :   -0.069985
   1 C :   -0.043286
   2 C :   -0.043802
   3 C :   -0.058394
   4 C :   -0.046157
   5 C :    0.004351
   6 N :   -0.112605
   7 H :    0.028499
   8 H :    0.023903
   9 H :    0.021655
  10 H :    0.022098
  11 H :    0.020178
  12 H :    0.024156
  13 H :    0.022107
  14 H :    0.023479
  15 H :    0.025392
  16 H :    0.016211
  17 H :    0.026095
  18 H :    0.019388
  19 H :   -0.002645
  20 H :    0.048244
  21 H :    0.051119

  Mayer bond orders larger than 0.1
B(  0-C ,  1-C ) :   1.1151 B(  0-C ,  7-H ) :   0.9584 B(  0-C ,  8-H ) :   0.9633
B(  0-C ,  9-H ) :   0.9578 B(  1-C ,  2-C ) :   1.0647 B(  1-C , 10-H ) :   0.9277
B(  1-C , 11-H ) :   0.9334 B(  2-C ,  3-C ) :   1.0880 B(  2-C ,  4-C ) :   1.0522
B(  2-C , 12-H ) :   0.9036 B(  3-C , 13-H ) :   0.9576 B(  3-C , 14-H ) :   0.9561
B(  3-C , 15-H ) :   0.9578 B(  4-C ,  5-C ) :   1.0934 B(  4-C , 16-H ) :   0.9266
B(  4-C , 17-H ) :   0.9249 B(  5-C ,  6-N ) :   1.0895 B(  5-C , 18-H ) :   0.9268
B(  5-C , 19-H ) :   0.9217 B(  6-N , 20-H ) :   0.9692 B(  6-N , 21-H ) :   0.9645

FINAL SINGLE POINT ENERGY      -291.791646329285

DIPOLE MOMENT
-------------
                                X             Y             Z
Electronic contribution:      3.12690      -1.12872       0.28850
Nuclear contribution   :     -3.12532       1.54856      -0.08203
                        -----------------------------------------
Total Dipole Moment    :      0.00158       0.41984       0.20647
                        -----------------------------------------
Magnitude (a.u.)       :      0.46786
Magnitude (Debye)      :      1.18922

                             ****ORCA TERMINATED NORMALLY****
TOTAL RUN TIME: 0 days 0 hours 0 minutes 9 seconds 303 msec
