                         Program Version 3.0.3 - RELEASE   -
|  1> ! RI PBE def2-SVP def2-SVP/J NBO PAL2
|  2> % maxcore 2000
|  3> % output
|  4>     # printlevel mini
|  5>     print[ P_Basis ] 0
|  6>     print[ P_SCFInfo ] 1
|  7>     print[ P_SCFIterInfo ] 1
|  8>     print[ P_OrbEn ] 0
|  9>     print[ P_Cartesian ] 0
| 10> end
| 11> *xyz 0 1
| 12>  C        2.0233970000     1.0437740000    -0.7536170000
| 13>  C        2.5487020000    -0.2028130000    -0.0468660000
| 14>  C        2.7816320000    -1.3739600000    -0.9633940000
| 15>  C        1.5439260000    -2.0016920000    -1.5271640000
| 16>  C        4.0252620000    -1.7929650000    -1.2065460000
| 17>  C        4.4753520000    -2.9175890000    -2.0784880000
| 18>  N        5.4767640000    -2.4378900000    -3.0265340000
| 19>  H        1.8900150000     1.8632390000    -0.0434370000
| 20>  H        1.0575630000     0.8680400000    -1.2328490000
| 21>  H        2.7237840000     1.3758590000    -1.5238060000
| 22>  H        1.8344310000    -0.4956350000     0.7334830000
| 23>  H        3.4842760000     0.0418240000     0.4631920000
| 24>  H        0.9425400000    -2.4413420000    -0.7236300000
| 25>  H        1.7539990000    -2.7866120000    -2.2521250000
| 26>  H        0.9110790000    -1.2543490000    -2.0145040000
| 27>  H        4.8450210000    -1.2557690000    -0.7323930000
| 28>  H        3.6187830000    -3.4149610000    -2.5522450000
| 29>  H        4.9630780000    -3.6740340000    -1.4509430000
| 30>  H        5.0601530000    -1.7649760000    -3.6585970000
| 31>  H        5.8299330000    -3.2014470000    -3.5897380000
| 32> *
| 33>
| 34>                          ****END OF INPUT****
 Total Charge           Charge          ....    0
 Multiplicity           Mult            ....    1
 Number of Electrons    NEL             ....   56
 Basis Dimension        Dim             ....  163

MULLIKEN ATOMIC CHARGES
-----------------------
   0 C :   -0.039061
   1 C :    0.044283
   2 C :   -0.170138
   3 C :    0.067443
   4 C :   -0.121288
   5 C :    0.164481
   6 N :   -0.227758
   7 H :    0.023922
   8 H :    0.020908
   9 H :    0.025184
  10 H :    0.012203
  11 H :    0.000604
  12 H :    0.026537
  13 H :    0.009629
  14 H :    0.019247
  15 H :   -0.018220
  16 H :   -0.017982
  17 H :    0.009955
  18 H :    0.084770
  19 H :    0.085282
Sum of atomic charges:    0.0000000

LOEWDIN ATOMIC CHARGES
----------------------
   0 C :   -0.065237
   1 C :   -0.035524
   2 C :   -0.041526
   3 C :   -0.062129
   4 C :   -0.063465
   5 C :    0.003996
   6 N :   -0.111979
   7 H :    0.028077
   8 H :    0.021914
   9 H :    0.026737
  10 H :    0.027501
  11 H :    0.027084
  12 H :    0.037643
  13 H :    0.024947
  14 H :    0.031820
  15 H :    0.022202
  16 H :    0.000244
  17 H :    0.028954
  18 H :    0.048706
  19 H :    0.050035

  Mayer bond orders larger than 0.1
B(  0-C ,  1-C ) :   1.1075 B(  0-C ,  7-H ) :   0.9586 B(  0-C ,  8-H ) :   0.9638
B(  0-C ,  9-H ) :   0.9662 B(  1-C ,  2-C ) :   1.0621 B(  1-C , 10-H ) :   0.9208
B(  1-C , 11-H ) :   0.9224 B(  2-C ,  3-C ) :   1.1020 B(  2-C ,  4-C ) :   1.8694
B(  3-C , 12-H ) :   0.9343 B(  3-C , 13-H ) :   0.9409 B(  3-C , 14-H ) :   0.9372
B(  4-C ,  5-C ) :   1.0715 B(  4-C , 15-H ) :   0.9411 B(  5-C ,  6-N ) :   1.0551
B(  5-C , 16-H ) :   0.9184 B(  5-C , 17-H ) :   0.9050 B(  6-N , 18-H ) :   0.9725
B(  6-N , 19-H ) :   0.9653

FINAL SINGLE POINT ENERGY      -290.576787998103

DIPOLE MOMENT
-------------
                                X             Y             Z
Electronic contribution:      3.02194      -1.94065      -0.08964
Nuclear contribution   :     -3.43484       1.75350      -0.20864
                        -----------------------------------------
Total Dipole Moment    :     -0.41290      -0.18714      -0.29828
                        -----------------------------------------
Magnitude (a.u.)       :      0.54266
Magnitude (Debye)      :      1.37932

                             ****ORCA TERMINATED NORMALLY****
TOTAL RUN TIME: 0 days 0 hours 0 minutes 8 seconds 235 msec
