                         Program Version 3.0.3 - RELEASE   -
|  1> ! RI PBE def2-SVP def2-SVP/J NBO PAL2
|  2> % maxcore 2000
|  3> % output
|  4>     # printlevel mini
|  5>     print[ P_Basis ] 0
|  6>     print[ P_SCFInfo ] 1
|  7>     print[ P_SCFIterInfo ] 1
|  8>     print[ P_OrbEn ] 0
|  9>     print[ P_Cartesian ] 0
| 10> end
| 11> *xyz 0 1
| 12>  C        2.0473620000     1.0706220000     0.9588370000
| 13>  C        2.6882200000     0.1553080000    -0.0812940000
| 14>  C        3.0425050000    -1.2012310000     0.4471420000
| 15>  C        1.9276650000    -2.0579890000     0.9428170000
| 16>  C        4.3216770000    -1.6034070000     0.4590370000
| 17>  C        4.7401830000    -2.8723480000     0.9390180000
| 18>  N        5.1000590000    -3.8980930000     1.3245910000
| 19>  H        1.8411610000     2.0506320000     0.5244750000
| 20>  H        2.7098850000     1.2137320000     1.8155010000
| 21>  H        1.1016590000     0.6681940000     1.3266190000
| 22>  H        3.5843000000     0.6307030000    -0.4879110000
| 23>  H        1.9911910000     0.0266520000    -0.9187250000
| 24>  H        1.4619230000    -1.6100060000     1.8255430000
| 25>  H        2.2661240000    -3.0590330000     1.2082570000
| 26>  H        1.1450850000    -2.1394040000     0.1820420000
| 27>  H        5.1090010000    -0.9542230000     0.0904510000
| 28> *
| 29>
| 30>                          ****END OF INPUT****
 Total Charge           Charge          ....    0
 Multiplicity           Mult            ....    1
 Number of Electrons    NEL             ....   52
 Basis Dimension        Dim             ....  143

MULLIKEN ATOMIC CHARGES
-----------------------
   0 C :   -0.030947
   1 C :    0.028233
   2 C :   -0.187979
   3 C :    0.091802
   4 C :   -0.102821
   5 C :   -0.117479
   6 N :    0.033454
   7 H :    0.031360
   8 H :    0.034037
   9 H :    0.027255
  10 H :    0.010841
  11 H :    0.035994
  12 H :    0.040086
  13 H :    0.041927
  14 H :    0.037492
  15 H :    0.026746
Sum of atomic charges:   -0.0000000

LOEWDIN ATOMIC CHARGES
----------------------
   0 C :   -0.057500
   1 C :   -0.036242
   2 C :    0.019505
   3 C :   -0.053050
   4 C :   -0.096944
   5 C :   -0.047126
   6 N :   -0.068359
   7 H :    0.032820
   8 H :    0.030890
   9 H :    0.026259
  10 H :    0.030712
  11 H :    0.039859
  12 H :    0.045298
  13 H :    0.042644
  14 H :    0.044359
  15 H :    0.046876

  Mayer bond orders larger than 0.1
B(  0-C ,  1-C ) :   1.1081 B(  0-C ,  7-H ) :   0.9582 B(  0-C ,  8-H ) :   0.9671
B(  0-C ,  9-H ) :   0.9633 B(  1-C ,  2-C ) :   1.0657 B(  1-C , 10-H ) :   0.9226
B(  1-C , 11-H ) :   0.9137 B(  2-C ,  3-C ) :   1.1207 B(  2-C ,  4-C ) :   1.7992
B(  2-C ,  6-N ) :   0.1025 B(  3-C , 12-H ) :   0.9281 B(  3-C , 13-H ) :   0.9287
B(  3-C , 14-H ) :   0.9323 B(  4-C ,  5-C ) :   1.1019 B(  4-C , 15-H ) :   0.9435
B(  5-C ,  6-N ) :   2.9360

FINAL SINGLE POINT ENERGY      -288.185178796155

DIPOLE MOMENT
-------------
                                X             Y             Z
Electronic contribution:      7.34514      -7.61411       0.38663
Nuclear contribution   :     -8.33282       9.07717      -0.82613
                        -----------------------------------------
Total Dipole Moment    :     -0.98769       1.46306      -0.43950
                        -----------------------------------------
Magnitude (a.u.)       :      1.81913
Magnitude (Debye)      :      4.62386

                             ****ORCA TERMINATED NORMALLY****
TOTAL RUN TIME: 0 days 0 hours 0 minutes 7 seconds 188 msec
