                         Program Version 3.0.3 - RELEASE   -
|  1> ! RI PBE def2-SVP def2-SVP/J NBO PAL2
|  2> % maxcore 2000
|  3> % output
|  4>     # printlevel mini
|  5>     print[ P_Basis ] 0
|  6>     print[ P_SCFInfo ] 1
|  7>     print[ P_SCFIterInfo ] 1
|  8>     print[ P_OrbEn ] 0
|  9>     print[ P_Cartesian ] 0
| 10> end
| 11> *xyz 0 1
| 12>  C        2.9395660000     0.8902540000     1.1542110000
| 13>  C        2.5299370000    -0.0132320000     0.0003130000
| 14>  C        3.0319620000     0.3872740000    -1.3971400000
| 15>  C        2.5639810000    -0.6690820000    -2.3942500000
| 16>  C        2.4698340000     1.7460880000    -1.8036200000
| 17>  C        4.5639310000     0.4766050000    -1.4273390000
| 18>  N        5.2100100000    -0.7568160000    -1.0043720000
| 19>  H        2.5400520000     0.5102080000     2.0975180000
| 20>  H        2.5647340000     1.9087260000     1.0302840000
| 21>  H        4.0259700000     0.9531750000     1.2647790000
| 22>  H        1.4357720000    -0.0660310000    -0.0402600000
| 23>  H        2.8643000000    -1.0368030000     0.2024770000
| 24>  H        1.4758850000    -0.7776540000    -2.3637300000
| 25>  H        3.0177880000    -1.6362270000    -2.1709320000
| 26>  H        2.8432780000    -0.3928660000    -3.4154730000
| 27>  H        1.3764020000     1.7353050000    -1.7892640000
| 28>  H        2.7853750000     2.0068560000    -2.8180460000
| 29>  H        2.8072490000     2.5457710000    -1.1394130000
| 30>  H        4.8773140000     1.3552580000    -0.8423280000
| 31>  H        4.8671440000     0.6737260000    -2.4609660000
| 32>  H        5.1735240000    -0.8576690000     0.0021850000
| 33>  H        6.1878950000    -0.7523570000    -1.2620240000
| 34> *
| 35>
| 36>                          ****END OF INPUT****
 Total Charge           Charge          ....    0
 Multiplicity           Mult            ....    1
 Number of Electrons    NEL             ....   58
 Basis Dimension        Dim             ....  173

MULLIKEN ATOMIC CHARGES
-----------------------
   0 C :   -0.006082
   1 C :   -0.001812
   2 C :   -0.327306
   3 C :    0.082627
   4 C :    0.060537
   5 C :    0.115948
   6 N :   -0.190393
   7 H :    0.014185
   8 H :    0.019289
   9 H :    0.017333
  10 H :    0.007873
  11 H :    0.002805
  12 H :    0.005432
  13 H :    0.016931
  14 H :   -0.001680
  15 H :    0.014341
  16 H :    0.005959
  17 H :    0.009802
  18 H :   -0.013531
  19 H :   -0.011257
  20 H :    0.087882
  21 H :    0.091116
Sum of atomic charges:    0.0000000

LOEWDIN ATOMIC CHARGES
----------------------
   0 C :   -0.069927
   1 C :   -0.039222
   2 C :   -0.071873
   3 C :   -0.048767
   4 C :   -0.051197
   5 C :    0.014818
   6 N :   -0.102261
   7 H :    0.028129
   8 H :    0.024825
   9 H :    0.020321
  10 H :    0.024066
  11 H :    0.021042
  12 H :    0.019963
  13 H :    0.023722
  14 H :    0.020143
  15 H :    0.025251
  16 H :    0.023723
  17 H :    0.019344
  18 H :   -0.004063
  19 H :    0.018608
  20 H :    0.048752
  21 H :    0.054602

  Mayer bond orders larger than 0.1
B(  0-C ,  1-C ) :   1.1152 B(  0-C ,  7-H ) :   0.9540 B(  0-C ,  8-H ) :   0.9562
B(  0-C ,  9-H ) :   0.9584 B(  1-C ,  2-C ) :   1.0289 B(  1-C , 10-H ) :   0.9337
B(  1-C , 11-H ) :   0.9269 B(  2-C ,  3-C ) :   1.0483 B(  2-C ,  4-C ) :   1.0493
B(  2-C ,  5-C ) :   1.0100 B(  3-C , 12-H ) :   0.9579 B(  3-C , 13-H ) :   0.9472
B(  3-C , 14-H ) :   0.9550 B(  4-C , 15-H ) :   0.9580 B(  4-C , 16-H ) :   0.9520
B(  4-C , 17-H ) :   0.9492 B(  5-C ,  6-N ) :   1.1245 B(  5-C , 18-H ) :   0.9270
B(  5-C , 19-H ) :   0.9262 B(  6-N , 20-H ) :   0.9663 B(  6-N , 21-H ) :   0.9634

FINAL SINGLE POINT ENERGY      -291.793898976513

DIPOLE MOMENT
-------------
                                X             Y             Z
Electronic contribution:      1.75215      -1.45579      -0.55657
Nuclear contribution   :     -1.39398       1.68476       0.82081
                        -----------------------------------------
Total Dipole Moment    :      0.35818       0.22897       0.26424
                        -----------------------------------------
Magnitude (a.u.)       :      0.50054
Magnitude (Debye)      :      1.27227

                             ****ORCA TERMINATED NORMALLY****
TOTAL RUN TIME: 0 days 0 hours 0 minutes 9 seconds 274 msec
