                         Program Version 3.0.3 - RELEASE   -
|  1> ! RI PBE def2-SVP def2-SVP/J NBO PAL2
|  2> % maxcore 2000
|  3> % output
|  4>     # printlevel mini
|  5>     print[ P_Basis ] 0
|  6>     print[ P_SCFInfo ] 1
|  7>     print[ P_SCFIterInfo ] 1
|  8>     print[ P_OrbEn ] 0
|  9>     print[ P_Cartesian ] 0
| 10> end
| 11> *xyz 0 1
| 12>  C        2.9836820000    -1.4832560000    -0.2177270000
| 13>  C        2.5525930000    -0.0486360000     0.0280550000
| 14>  C        3.0720370000     0.5906430000     1.3311110000
| 15>  C        2.6094980000     2.0497870000     1.4025220000
| 16>  C        2.5838820000    -0.1704240000     2.5681650000
| 17>  C        4.5389220000     0.5717490000     1.3165250000
| 18>  N        5.6892040000     0.5579050000     1.3015880000
| 19>  H        2.6173660000    -1.8266640000    -1.1871960000
| 20>  H        2.5909090000    -2.1651330000     0.5392160000
| 21>  H        4.0726620000    -1.5742350000    -0.2231910000
| 22>  H        1.4595450000     0.0171900000     0.0596860000
| 23>  H        2.8778000000     0.5791450000    -0.8071890000
| 24>  H        1.5175020000     2.0815210000     1.4214470000
| 25>  H        2.9569390000     2.6152650000     0.5361550000
| 26>  H        2.9844070000     2.5372380000     2.3040180000
| 27>  H        1.4911910000    -0.1884050000     2.5720060000
| 28>  H        2.9230700000     0.3202600000     3.4820320000
| 29>  H        2.9484820000    -1.1975800000     2.5821360000
| 30> *
| 31>
| 32>                          ****END OF INPUT****
 Total Charge           Charge          ....    0
 Multiplicity           Mult            ....    1
 Number of Electrons    NEL             ....   54
 Basis Dimension        Dim             ....  153

MULLIKEN ATOMIC CHARGES
-----------------------
   0 C :   -0.010024
   1 C :    0.010703
   2 C :   -0.386550
   3 C :    0.070847
   4 C :    0.064808
   5 C :   -0.146402
   6 N :    0.062439
   7 H :    0.023138
   8 H :    0.025612
   9 H :    0.046110
  10 H :    0.021785
  11 H :    0.023712
  12 H :    0.028612
  13 H :    0.034232
  14 H :    0.034159
  15 H :    0.028164
  16 H :    0.031882
  17 H :    0.036775
Sum of atomic charges:   -0.0000000

LOEWDIN ATOMIC CHARGES
----------------------
   0 C :   -0.067380
   1 C :   -0.022929
   2 C :   -0.085589
   3 C :   -0.033649
   4 C :   -0.034077
   5 C :   -0.029050
   6 N :   -0.076155
   7 H :    0.032951
   8 H :    0.026432
   9 H :    0.035110
  10 H :    0.028431
  11 H :    0.030837
  12 H :    0.030932
  13 H :    0.033263
  14 H :    0.033372
  15 H :    0.031326
  16 H :    0.033920
  17 H :    0.032255

  Mayer bond orders larger than 0.1
B(  0-C ,  1-C ) :   1.1173 B(  0-C ,  7-H ) :   0.9532 B(  0-C ,  8-H ) :   0.9584
B(  0-C ,  9-H ) :   0.9579 B(  1-C ,  2-C ) :   1.0372 B(  1-C , 10-H ) :   0.9340
B(  1-C , 11-H ) :   0.9287 B(  2-C ,  3-C ) :   1.0621 B(  2-C ,  4-C ) :   1.0573
B(  2-C ,  5-C ) :   1.0127 B(  3-C , 12-H ) :   0.9572 B(  3-C , 13-H ) :   0.9537
B(  3-C , 14-H ) :   0.9550 B(  4-C , 15-H ) :   0.9588 B(  4-C , 16-H ) :   0.9539
B(  4-C , 17-H ) :   0.9526 B(  5-C ,  6-N ) :   3.0822

FINAL SINGLE POINT ENERGY      -289.394482937004

DIPOLE MOMENT
-------------
                                X             Y             Z
Electronic contribution:      6.74295       1.72731       0.74193
Nuclear contribution   :     -8.21268      -1.75852      -0.76244
                        -----------------------------------------
Total Dipole Moment    :     -1.46973      -0.03122      -0.02052
                        -----------------------------------------
Magnitude (a.u.)       :      1.47020
Magnitude (Debye)      :      3.73696

                             ****ORCA TERMINATED NORMALLY****
TOTAL RUN TIME: 0 days 0 hours 0 minutes 8 seconds 595 msec
