                         Program Version 3.0.3 - RELEASE   -
|  1> ! RI PBE def2-SVP def2-SVP/J NBO PAL2
|  2> % maxcore 2000
|  3> % output
|  4>     # printlevel mini
|  5>     print[ P_Basis ] 0
|  6>     print[ P_SCFInfo ] 1
|  7>     print[ P_SCFIterInfo ] 1
|  8>     print[ P_OrbEn ] 0
|  9>     print[ P_Cartesian ] 0
| 10> end
| 11> *xyz 0 1
| 12>  C        3.2279170000     0.6183450000    -1.2050090000
| 13>  C        2.7541250000    -0.2443490000    -0.0463590000
| 14>  C        3.2991930000     0.1560820000     1.3243430000
| 15>  C        2.5624570000    -0.6095400000     2.4178520000
| 16>  C        4.8256180000    -0.0075840000     1.4171860000
| 17>  C        5.4087300000     0.6591100000     2.6596440000
| 18>  N        5.1937690000    -1.4134780000     1.2785720000
| 19>  H        2.7216990000     0.3370460000    -2.1315410000
| 20>  H        4.3006430000     0.5149790000    -1.3829550000
| 21>  H        3.0199670000     1.6777160000    -1.0245540000
| 22>  H        3.0220730000    -1.2893270000    -0.2306090000
| 23>  H        1.6600740000    -0.2043460000     0.0004380000
| 24>  H        3.0959050000     1.2264880000     1.4662000000
| 25>  H        2.6767570000    -1.6893150000     2.2848590000
| 26>  H        1.4919860000    -0.3940790000     2.3786490000
| 27>  H        2.9104720000    -0.3484470000     3.4197930000
| 28>  H        5.2518080000     0.5040920000     0.5475850000
| 29>  H        5.0672220000     0.1686170000     3.5754940000
| 30>  H        5.1287460000     1.7150930000     2.7192740000
| 31>  H        6.5005580000     0.6027600000     2.6453400000
| 32>  H        4.9610740000    -1.9225620000     2.1238390000
| 33>  H        6.1951080000    -1.5023890000     1.1579520000
| 34> *
| 35>
| 36>                          ****END OF INPUT****
 Total Charge           Charge          ....    0
 Multiplicity           Mult            ....    1
 Number of Electrons    NEL             ....   58
 Basis Dimension        Dim             ....  173

MULLIKEN ATOMIC CHARGES
-----------------------
   0 C :   -0.012622
   1 C :    0.003561
   2 C :   -0.099586
   3 C :    0.003877
   4 C :   -0.046937
   5 C :    0.028809
   6 N :   -0.174256
   7 H :    0.012008
   8 H :    0.026448
   9 H :    0.010345
  10 H :    0.009034
  11 H :    0.004652
  12 H :   -0.007504
  13 H :    0.023768
  14 H :    0.016740
  15 H :    0.009464
  16 H :   -0.003661
  17 H :    0.006828
  18 H :    0.010248
  19 H :    0.011398
  20 H :    0.081376
  21 H :    0.086009
Sum of atomic charges:   -0.0000000

LOEWDIN ATOMIC CHARGES
----------------------
   0 C :   -0.068895
   1 C :   -0.042785
   2 C :   -0.044279
   3 C :   -0.065146
   4 C :   -0.001905
   5 C :   -0.079464
   6 N :   -0.089724
   7 H :    0.026990
   8 H :    0.022813
   9 H :    0.021756
  10 H :    0.023091
  11 H :    0.021147
  12 H :    0.020561
  13 H :    0.024925
  14 H :    0.027595
  15 H :    0.021016
  16 H :    0.019981
  17 H :    0.018757
  18 H :    0.025408
  19 H :    0.021377
  20 H :    0.045704
  21 H :    0.051076

  Mayer bond orders larger than 0.1
B(  0-C ,  1-C ) :   1.1212 B(  0-C ,  7-H ) :   0.9545 B(  0-C ,  8-H ) :   0.9600
B(  0-C ,  9-H ) :   0.9612 B(  1-C ,  2-C ) :   1.0625 B(  1-C , 10-H ) :   0.9189
B(  1-C , 11-H ) :   0.9364 B(  2-C ,  3-C ) :   1.0705 B(  2-C ,  4-C ) :   1.0264
B(  2-C , 12-H ) :   0.9070 B(  3-C , 13-H ) :   0.9576 B(  3-C , 14-H ) :   0.9542
B(  3-C , 15-H ) :   0.9563 B(  4-C ,  5-C ) :   1.0805 B(  4-C ,  6-N ) :   1.0846
B(  4-C , 16-H ) :   0.9068 B(  5-C , 17-H ) :   0.9494 B(  5-C , 18-H ) :   0.9441
B(  5-C , 19-H ) :   0.9563 B(  6-N , 20-H ) :   0.9655 B(  6-N , 21-H ) :   0.9682

FINAL SINGLE POINT ENERGY      -291.796153111344

DIPOLE MOMENT
-------------
                                X             Y             Z
Electronic contribution:      1.00958      -1.24351      -0.20765
Nuclear contribution   :     -0.70074       1.30902       0.54470
                        -----------------------------------------
Total Dipole Moment    :      0.30885       0.06551       0.33705
                        -----------------------------------------
Magnitude (a.u.)       :      0.46182
Magnitude (Debye)      :      1.17386

                             ****ORCA TERMINATED NORMALLY****
TOTAL RUN TIME: 0 days 0 hours 0 minutes 9 seconds 15 msec
