                         Program Version 3.0.3 - RELEASE   -
|  1> ! RI PBE def2-SVP def2-SVP/J NBO PAL2
|  2> % maxcore 2000
|  3> % output
|  4>     # printlevel mini
|  5>     print[ P_Basis ] 0
|  6>     print[ P_SCFInfo ] 1
|  7>     print[ P_SCFIterInfo ] 1
|  8>     print[ P_OrbEn ] 0
|  9>     print[ P_Cartesian ] 0
| 10> end
| 11> *xyz 0 1
| 12>  C        3.2729560000    -0.6667510000     0.9317280000
| 13>  C        2.7202230000     0.5059690000     0.1386970000
| 14>  C        3.1729640000     0.5679540000    -1.3175930000
| 15>  C        2.4775560000     1.6961650000    -2.0637950000
| 16>  C        4.7006310000     0.6825520000    -1.4551880000
| 17>  C        5.2391810000     1.8769400000    -0.8210650000
| 18>  N        5.6481620000     2.8231480000    -0.3111860000
| 19>  H        2.8331380000    -0.7003540000     1.9305520000
| 20>  H        4.3558050000    -0.6018120000     1.0636440000
| 21>  H        3.0507790000    -1.6194740000     0.4416700000
| 22>  H        2.9868610000     1.4472630000     0.6330370000
| 23>  H        1.6262180000     0.4613010000     0.1437010000
| 24>  H        2.9076630000    -0.3828340000    -1.7967760000
| 25>  H        2.7383690000     2.6673090000    -1.6338580000
| 26>  H        1.3925500000     1.5857790000    -2.0064730000
| 27>  H        2.7581140000     1.7112720000    -3.1201780000
| 28>  H        4.9798750000     0.7064240000    -2.5127250000
| 29>  H        5.1977640000    -0.1861520000    -1.0155910000
| 30> *
| 31>
| 32>                          ****END OF INPUT****
 Total Charge           Charge          ....    0
 Multiplicity           Mult            ....    1
 Number of Electrons    NEL             ....   54
 Basis Dimension        Dim             ....  153

MULLIKEN ATOMIC CHARGES
-----------------------
   0 C :   -0.016027
   1 C :   -0.027899
   2 C :   -0.148791
   3 C :    0.019599
   4 C :    0.101480
   5 C :   -0.293159
   6 N :    0.044445
   7 H :    0.025100
   8 H :    0.032341
   9 H :    0.017216
  10 H :    0.031359
  11 H :    0.019485
  12 H :    0.012123
  13 H :    0.038060
  14 H :    0.028498
  15 H :    0.019242
  16 H :    0.048519
  17 H :    0.048411
Sum of atomic charges:    0.0000000

LOEWDIN ATOMIC CHARGES
----------------------
   0 C :   -0.068056
   1 C :   -0.043809
   2 C :   -0.032998
   3 C :   -0.058805
   4 C :   -0.052960
   5 C :   -0.044993
   6 N :   -0.071424
   7 H :    0.032872
   8 H :    0.026146
   9 H :    0.024665
  10 H :    0.030593
  11 H :    0.029067
  12 H :    0.027849
  13 H :    0.033099
  14 H :    0.030529
  15 H :    0.027362
  16 H :    0.056746
  17 H :    0.054116

  Mayer bond orders larger than 0.1
B(  0-C ,  1-C ) :   1.1168 B(  0-C ,  7-H ) :   0.9547 B(  0-C ,  8-H ) :   0.9615
B(  0-C ,  9-H ) :   0.9634 B(  1-C ,  2-C ) :   1.0583 B(  1-C , 10-H ) :   0.9290
B(  1-C , 11-H ) :   0.9343 B(  2-C ,  3-C ) :   1.0800 B(  2-C ,  4-C ) :   1.0508
B(  2-C , 12-H ) :   0.9057 B(  3-C , 13-H ) :   0.9571 B(  3-C , 14-H ) :   0.9582
B(  3-C , 15-H ) :   0.9571 B(  4-C ,  5-C ) :   1.1091 B(  4-C , 16-H ) :   0.8908
B(  4-C , 17-H ) :   0.8889 B(  5-C ,  6-N ) :   3.0344

FINAL SINGLE POINT ENERGY      -289.395636688022

DIPOLE MOMENT
-------------
                                X             Y             Z
Electronic contribution:      6.28413       4.75295      -0.30934
Nuclear contribution   :     -6.98297      -5.90959      -0.22614
                        -----------------------------------------
Total Dipole Moment    :     -0.69884      -1.15664      -0.53548
                        -----------------------------------------
Magnitude (a.u.)       :      1.45359
Magnitude (Debye)      :      3.69474

                             ****ORCA TERMINATED NORMALLY****
TOTAL RUN TIME: 0 days 0 hours 0 minutes 7 seconds 896 msec
