                         Program Version 3.0.3 - RELEASE   -
|  1> ! RI PBE def2-SVP def2-SVP/J NBO PAL2
|  2> % maxcore 2000
|  3> % output
|  4>     # printlevel mini
|  5>     print[ P_Basis ] 0
|  6>     print[ P_SCFInfo ] 1
|  7>     print[ P_SCFIterInfo ] 1
|  8>     print[ P_OrbEn ] 0
|  9>     print[ P_Cartesian ] 0
| 10> end
| 11> *xyz 0 1
| 12>  C        0.9624820000    -0.0559600000     0.0462270000
| 13>  C        2.4760890000     0.0354350000     0.0431290000
| 14>  C        3.0122360000     1.1334530000     0.9855640000
| 15>  C        4.4698260000     1.1333690000     1.0542110000
| 16>  C        5.6666930000     1.1023100000     1.1024800000
| 17>  C        2.5117550000     2.4531760000     0.5902100000
| 18>  N        2.0906670000     3.4726300000     0.2683990000
| 19>  H        0.6280910000    -0.8490900000    -0.6246680000
| 20>  H        0.5053840000     0.8785040000    -0.2866660000
| 21>  H        0.5793850000    -0.2818970000     1.0450380000
| 22>  H        2.8527530000     0.2344080000    -0.9628660000
| 23>  H        2.9230140000    -0.9062690000     0.3703380000
| 24>  H        2.6195510000     0.9421810000     1.9931810000
| 25>  H        6.7302720000     1.0833510000     1.1466230000
| 26> *
| 27>
| 28>                          ****END OF INPUT****
 Total Charge           Charge          ....    0
 Multiplicity           Mult            ....    1
 Number of Electrons    NEL             ....   50
 Basis Dimension        Dim             ....  133

MULLIKEN ATOMIC CHARGES
-----------------------
   0 C :    0.001554
   1 C :   -0.030715
   2 C :   -0.003336
   3 C :    0.428151
   4 C :   -0.496673
   5 C :   -0.211262
   6 N :    0.058671
   7 H :    0.034496
   8 H :    0.045417
   9 H :    0.020735
  10 H :    0.042577
  11 H :    0.035267
  12 H :    0.067021
  13 H :    0.008097
Sum of atomic charges:   -0.0000000

LOEWDIN ATOMIC CHARGES
----------------------
   0 C :   -0.064283
   1 C :   -0.015065
   2 C :   -0.061720
   3 C :   -0.012664
   4 C :   -0.051336
   5 C :   -0.027392
   6 N :   -0.054655
   7 H :    0.035895
   8 H :    0.035584
   9 H :    0.028514
  10 H :    0.037187
  11 H :    0.035774
  12 H :    0.073959
  13 H :    0.040200

  Mayer bond orders larger than 0.1
B(  0-C ,  1-C ) :   1.1196 B(  0-C ,  7-H ) :   0.9585 B(  0-C ,  8-H ) :   0.9569
B(  0-C ,  9-H ) :   0.9603 B(  1-C ,  2-C ) :   1.0618 B(  1-C , 10-H ) :   0.9300
B(  1-C , 11-H ) :   0.9359 B(  2-C ,  3-C ) :   0.9870 B(  2-C ,  5-C ) :   1.0145
B(  2-C , 12-H ) :   0.8504 B(  3-C ,  4-C ) :   2.3229 B(  3-C , 13-H ) :  -0.1201
B(  4-C , 13-H ) :   1.1103 B(  5-C ,  6-N ) :   3.0667

FINAL SINGLE POINT ENERGY      -286.920187376026

DIPOLE MOMENT
-------------
                                X             Y             Z
Electronic contribution:      3.91535       6.03493       1.44489
Nuclear contribution   :     -3.64597      -7.37720      -1.17910
                        -----------------------------------------
Total Dipole Moment    :      0.26939      -1.34227       0.26579
                        -----------------------------------------
Magnitude (a.u.)       :      1.39459
Magnitude (Debye)      :      3.54478

                             ****ORCA TERMINATED NORMALLY****
TOTAL RUN TIME: 0 days 0 hours 0 minutes 6 seconds 511 msec
