                         Program Version 3.0.3 - RELEASE   -
|  1> ! RI PBE def2-SVP def2-SVP/J NBO PAL2
|  2> % maxcore 2000
|  3> % output
|  4>     # printlevel mini
|  5>     print[ P_Basis ] 0
|  6>     print[ P_SCFInfo ] 1
|  7>     print[ P_SCFIterInfo ] 1
|  8>     print[ P_OrbEn ] 0
|  9>     print[ P_Cartesian ] 0
| 10> end
| 11> *xyz 0 1
| 12>  C        3.0964150000     0.3019390000    -1.2968030000
| 13>  C        3.0068640000    -0.6100250000    -0.0835430000
| 14>  C        3.3303010000     0.0698160000     1.2459740000
| 15>  C        3.0355810000    -0.8425360000     2.4395550000
| 16>  C        1.5576780000    -1.1005170000     2.6891460000
| 17>  C        4.7674950000     0.5865340000     1.3038150000
| 18>  N        5.7421740000    -0.4849220000     1.1507780000
| 19>  H        2.7647100000    -0.2158720000    -2.1999390000
| 20>  H        4.1193500000     0.6398000000    -1.4769630000
| 21>  H        2.4672870000     1.1894630000    -1.1760150000
| 22>  H        3.6882890000    -1.4563820000    -0.2124220000
| 23>  H        1.9956870000    -1.0245960000    -0.0304180000
| 24>  H        2.6847900000     0.9552990000     1.3427000000
| 25>  H        3.4690290000    -0.3909170000     3.3406100000
| 26>  H        3.5498020000    -1.8004680000     2.2963540000
| 27>  H        1.0180590000    -0.1622440000     2.8474480000
| 28>  H        1.4112270000    -1.7202230000     3.5770360000
| 29>  H        1.0844100000    -1.6169430000     1.8513670000
| 30>  H        4.8873420000     1.1551720000     2.2404410000
| 31>  H        4.9279330000     1.2982160000     0.4895320000
| 32>  H        5.7574660000    -1.0759820000     1.9724760000
| 33>  H        6.6742240000    -0.1064110000     1.0460420000
| 34> *
| 35>
| 36>                          ****END OF INPUT****
 Total Charge           Charge          ....    0
 Multiplicity           Mult            ....    1
 Number of Electrons    NEL             ....   58
 Basis Dimension        Dim             ....  173

MULLIKEN ATOMIC CHARGES
-----------------------
   0 C :   -0.006671
   1 C :    0.010697
   2 C :   -0.119917
   3 C :   -0.018257
   4 C :   -0.005772
   5 C :    0.083251
   6 N :   -0.206778
   7 H :    0.011681
   8 H :    0.020654
   9 H :    0.007713
  10 H :    0.012069
  11 H :   -0.003871
  12 H :   -0.008333
  13 H :   -0.002244
  14 H :    0.006919
  15 H :    0.014438
  16 H :    0.016776
  17 H :    0.024129
  18 H :   -0.013395
  19 H :    0.001431
  20 H :    0.086679
  21 H :    0.088801
Sum of atomic charges:   -0.0000000

LOEWDIN ATOMIC CHARGES
----------------------
   0 C :   -0.065534
   1 C :   -0.041331
   2 C :   -0.048634
   3 C :   -0.044630
   4 C :   -0.066140
   5 C :    0.009106
   6 N :   -0.106696
   7 H :    0.025899
   8 H :    0.022653
   9 H :    0.021218
  10 H :    0.022958
  11 H :    0.018355
  12 H :    0.021122
  13 H :    0.019906
  14 H :    0.021230
  15 H :    0.024069
  16 H :    0.026470
  17 H :    0.023518
  18 H :   -0.002671
  19 H :    0.017240
  20 H :    0.048636
  21 H :    0.053256

  Mayer bond orders larger than 0.1
B(  0-C ,  1-C ) :   1.1235 B(  0-C ,  7-H ) :   0.9575 B(  0-C ,  8-H ) :   0.9608
B(  0-C ,  9-H ) :   0.9607 B(  1-C ,  2-C ) :   1.0479 B(  1-C , 10-H ) :   0.9228
B(  1-C , 11-H ) :   0.9313 B(  2-C ,  3-C ) :   1.0644 B(  2-C ,  5-C ) :   1.0565
B(  2-C , 12-H ) :   0.9002 B(  3-C ,  4-C ) :   1.1266 B(  3-C , 13-H ) :   0.9326
B(  3-C , 14-H ) :   0.9234 B(  4-C , 15-H ) :   0.9616 B(  4-C , 16-H ) :   0.9574
B(  4-C , 17-H ) :   0.9596 B(  5-C ,  6-N ) :   1.0945 B(  5-C , 18-H ) :   0.9235
B(  5-C , 19-H ) :   0.9322 B(  6-N , 20-H ) :   0.9660 B(  6-N , 21-H ) :   0.9654

FINAL SINGLE POINT ENERGY      -291.792665219080

DIPOLE MOMENT
-------------
                                X             Y             Z
Electronic contribution:      2.53220       0.00451       0.44863
Nuclear contribution   :     -2.26748       0.15041      -0.06645
                        -----------------------------------------
Total Dipole Moment    :      0.26472       0.15493       0.38217
                        -----------------------------------------
Magnitude (a.u.)       :      0.49004
Magnitude (Debye)      :      1.24558

                             ****ORCA TERMINATED NORMALLY****
TOTAL RUN TIME: 0 days 0 hours 0 minutes 9 seconds 46 msec
