                         Program Version 3.0.3 - RELEASE   -
|  1> ! RI PBE def2-SVP def2-SVP/J NBO PAL2
|  2> % maxcore 2000
|  3> % output
|  4>     # printlevel mini
|  5>     print[ P_Basis ] 0
|  6>     print[ P_SCFInfo ] 1
|  7>     print[ P_SCFIterInfo ] 1
|  8>     print[ P_OrbEn ] 0
|  9>     print[ P_Cartesian ] 0
| 10> end
| 11> *xyz 0 1
| 12>  C        2.9625740000    -1.2989380000    -0.5859500000
| 13>  C        2.5429730000     0.0186850000     0.0396870000
| 14>  C        3.0690880000     1.2541920000    -0.7005050000
| 15>  C        2.5467500000     2.5636860000    -0.0975480000
| 16>  C        2.9702080000     3.8051410000    -0.8611430000
| 17>  C        4.5298970000     1.2506240000    -0.7265390000
| 18>  N        5.6802820000     1.2490100000    -0.7252500000
| 19>  H        2.5524520000    -2.1419000000    -0.0264560000
| 20>  H        4.0498690000    -1.4037720000    -0.5992900000
| 21>  H        2.6061340000    -1.3792490000    -1.6165800000
| 22>  H        2.8785820000     0.0668910000     1.0803040000
| 23>  H        1.4514070000     0.0955110000     0.0590370000
| 24>  H        2.7418900000     1.1982370000    -1.7471680000
| 25>  H        2.8823450000     2.6266460000     0.9422850000
| 26>  H        1.4549610000     2.4926400000    -0.0702620000
| 27>  H        4.0578090000     3.9046890000    -0.8854660000
| 28>  H        2.5626710000     4.7045920000    -0.3956110000
| 29>  H        2.6138790000     3.7752350000    -1.8945050000
| 30> *
| 31>
| 32>                          ****END OF INPUT****
 Total Charge           Charge          ....    0
 Multiplicity           Mult            ....    1
 Number of Electrons    NEL             ....   54
 Basis Dimension        Dim             ....  153

MULLIKEN ATOMIC CHARGES
-----------------------
   0 C :   -0.003765
   1 C :   -0.022887
   2 C :   -0.102761
   3 C :   -0.020922
   4 C :   -0.002307
   5 C :   -0.220089
   6 N :    0.049586
   7 H :    0.026596
   8 H :    0.046977
   9 H :    0.017556
  10 H :    0.027820
  11 H :    0.025604
  12 H :    0.036251
  13 H :    0.027058
  14 H :    0.025608
  15 H :    0.047609
  16 H :    0.024894
  17 H :    0.017172
Sum of atomic charges:   -0.0000000

LOEWDIN ATOMIC CHARGES
----------------------
   0 C :   -0.065520
   1 C :   -0.028614
   2 C :   -0.061675
   3 C :   -0.028554
   4 C :   -0.065159
   5 C :   -0.036429
   6 N :   -0.073718
   7 H :    0.032072
   8 H :    0.034432
   9 H :    0.027154
  10 H :    0.031520
  11 H :    0.029806
  12 H :    0.050086
  13 H :    0.031527
  14 H :    0.029792
  15 H :    0.034469
  16 H :    0.031742
  17 H :    0.027069

  Mayer bond orders larger than 0.1
B(  0-C ,  1-C ) :   1.1212 B(  0-C ,  7-H ) :   0.9564 B(  0-C ,  8-H ) :   0.9602
B(  0-C ,  9-H ) :   0.9592 B(  1-C ,  2-C ) :   1.0638 B(  1-C , 10-H ) :   0.9288
B(  1-C , 11-H ) :   0.9334 B(  2-C ,  3-C ) :   1.0661 B(  2-C ,  5-C ) :   1.0550
B(  2-C , 12-H ) :   0.8767 B(  3-C ,  4-C ) :   1.1191 B(  3-C , 13-H ) :   0.9275
B(  3-C , 14-H ) :   0.9337 B(  4-C , 15-H ) :   0.9608 B(  4-C , 16-H ) :   0.9566
B(  4-C , 17-H ) :   0.9597 B(  5-C ,  6-N ) :   3.0465

FINAL SINGLE POINT ENERGY      -289.395949891697

DIPOLE MOMENT
-------------
                                X             Y             Z
Electronic contribution:      5.93439      -0.03430      -0.45705
Nuclear contribution   :     -7.38441       0.03976       0.53504
                        -----------------------------------------
Total Dipole Moment    :     -1.45002       0.00546       0.07799
                        -----------------------------------------
Magnitude (a.u.)       :      1.45213
Magnitude (Debye)      :      3.69101

                             ****ORCA TERMINATED NORMALLY****
TOTAL RUN TIME: 0 days 0 hours 0 minutes 7 seconds 855 msec
