                         Program Version 3.0.3 - RELEASE   -
|  1> ! RI PBE def2-SVP def2-SVP/J NBO PAL2
|  2> % maxcore 2000
|  3> % output
|  4>     # printlevel mini
|  5>     print[ P_Basis ] 0
|  6>     print[ P_SCFInfo ] 1
|  7>     print[ P_SCFIterInfo ] 1
|  8>     print[ P_OrbEn ] 0
|  9>     print[ P_Cartesian ] 0
| 10> end
| 11> *xyz 0 1
| 12>  C        0.9889090000    -0.2626820000     0.0864920000
| 13>  C        2.4799310000     0.0517920000     0.1797350000
| 14>  C        2.9449100000     0.9396380000    -0.8757180000
| 15>  C        3.3090530000     1.6677090000    -1.7620580000
| 16>  C        3.7533380000     2.5679310000    -2.8136570000
| 17>  C        3.8928880000     4.0129320000    -2.3417840000
| 18>  N        4.3204950000     4.8534820000    -3.4475460000
| 19>  H        0.6874030000    -0.9320530000     0.8952210000
| 20>  H        0.7528570000    -0.7439910000    -0.8641240000
| 21>  H        0.3949250000     0.6502360000     0.1563750000
| 22>  H        3.0566820000    -0.8789040000     0.1429820000
| 23>  H        2.7014410000     0.5056420000     1.1518510000
| 24>  H        3.0548900000     2.5423930000    -3.6560820000
| 25>  H        4.7183430000     2.2218020000    -3.2042020000
| 26>  H        4.5622130000     4.0362010000    -1.4692840000
| 27>  H        2.9161680000     4.3651960000    -2.0000310000
| 28>  H        5.2733670000     4.6341580000    -3.7129310000
| 29>  H        4.3076870000     5.8293070000    -3.1805580000
| 30> *
| 31>
| 32>                          ****END OF INPUT****
 Total Charge           Charge          ....    0
 Multiplicity           Mult            ....    1
 Number of Electrons    NEL             ....   54
 Basis Dimension        Dim             ....  153

MULLIKEN ATOMIC CHARGES
-----------------------
   0 C :   -0.037872
   1 C :    0.042156
   2 C :   -0.183054
   3 C :   -0.119505
   4 C :    0.069810
   5 C :    0.032232
   6 N :   -0.203748
   7 H :    0.021870
   8 H :    0.033748
   9 H :    0.033500
  10 H :    0.031292
  11 H :    0.028526
  12 H :    0.033492
  13 H :    0.017849
  14 H :    0.006351
  15 H :    0.014125
  16 H :    0.088516
  17 H :    0.090712
Sum of atomic charges:   -0.0000000

LOEWDIN ATOMIC CHARGES
----------------------
   0 C :   -0.056108
   1 C :   -0.051073
   2 C :   -0.068638
   3 C :   -0.066458
   4 C :   -0.053831
   5 C :    0.014809
   6 N :   -0.112757
   7 H :    0.026362
   8 H :    0.029913
   9 H :    0.029870
  10 H :    0.045224
  11 H :    0.044320
  12 H :    0.046495
  13 H :    0.040369
  14 H :    0.002875
  15 H :    0.023741
  16 H :    0.050322
  17 H :    0.054566

  Mayer bond orders larger than 0.1
B(  0-C ,  1-C ) :   1.1065 B(  0-C ,  7-H ) :   0.9605 B(  0-C ,  8-H ) :   0.9706
B(  0-C ,  9-H ) :   0.9691 B(  1-C ,  2-C ) :   1.0886 B(  1-C , 10-H ) :   0.9018
B(  1-C , 11-H ) :   0.9026 B(  2-C ,  3-C ) :   2.6077 B(  3-C ,  4-C ) :   1.0452
B(  4-C ,  5-C ) :   1.0769 B(  4-C , 12-H ) :   0.8913 B(  4-C , 13-H ) :   0.8962
B(  5-C ,  6-N ) :   1.1015 B(  5-C , 14-H ) :   0.9385 B(  5-C , 15-H ) :   0.9358
B(  6-N , 16-H ) :   0.9681 B(  6-N , 17-H ) :   0.9642

FINAL SINGLE POINT ENERGY      -289.338951224947

DIPOLE MOMENT
-------------
                                X             Y             Z
Electronic contribution:      1.95351       0.38821      -1.32877
Nuclear contribution   :     -1.63000      -0.18246       1.63905
                        -----------------------------------------
Total Dipole Moment    :      0.32351       0.20575       0.31027
                        -----------------------------------------
Magnitude (a.u.)       :      0.49321
Magnitude (Debye)      :      1.25365

                             ****ORCA TERMINATED NORMALLY****
TOTAL RUN TIME: 0 days 0 hours 0 minutes 7 seconds 351 msec
