                         Program Version 3.0.3 - RELEASE   -
|  1> ! RI PBE def2-SVP def2-SVP/J NBO PAL2
|  2> % maxcore 2000
|  3> % output
|  4>     # printlevel mini
|  5>     print[ P_Basis ] 0
|  6>     print[ P_SCFInfo ] 1
|  7>     print[ P_SCFIterInfo ] 1
|  8>     print[ P_OrbEn ] 0
|  9>     print[ P_Cartesian ] 0
| 10> end
| 11> *xyz 0 1
| 12>  C        0.9121350000     0.0493880000     0.1453790000
| 13>  C        2.4351480000     0.1010820000     0.0517640000
| 14>  C        2.9566060000    -0.5652590000    -1.1324150000
| 15>  C        3.3760300000    -1.1212850000    -2.1140980000
| 16>  C        3.8390300000    -1.7874090000    -3.3204350000
| 17>  C        2.7340220000    -1.9467570000    -4.3763050000
| 18>  N        3.1368410000    -2.6061080000    -5.6005820000
| 19>  H        0.5664190000     0.5614540000     1.0460030000
| 20>  H        0.5606100000    -0.9832270000     0.1807330000
| 21>  H        0.4538400000     0.5299920000    -0.7206770000
| 22>  H        2.8756530000    -0.3582420000     0.9434040000
| 23>  H        2.7699290000     1.1441430000     0.0518980000
| 24>  H        4.6719290000    -1.2231250000    -3.7569660000
| 25>  H        4.2367490000    -2.7774750000    -3.0670940000
| 26>  H        2.3391690000    -0.9582400000    -4.6258560000
| 27>  H        1.9034600000    -2.5054820000    -3.9364780000
| 28>  H        3.8856090000    -2.0994340000    -6.0568290000
| 29>  H        3.4794190000    -3.5406160000    -5.4139460000
| 30> *
| 31>
| 32>                          ****END OF INPUT****
 Total Charge           Charge          ....    0
 Multiplicity           Mult            ....    1
 Number of Electrons    NEL             ....   54
 Basis Dimension        Dim             ....  153

MULLIKEN ATOMIC CHARGES
-----------------------
   0 C :   -0.032055
   1 C :    0.052005
   2 C :   -0.177191
   3 C :   -0.139841
   4 C :    0.069941
   5 C :    0.025227
   6 N :   -0.192938
   7 H :    0.019628
   8 H :    0.030622
   9 H :    0.034145
  10 H :    0.027632
  11 H :    0.030832
  12 H :    0.015956
  13 H :    0.013508
  14 H :    0.020105
  15 H :    0.023963
  16 H :    0.088730
  17 H :    0.089730
Sum of atomic charges:   -0.0000000

LOEWDIN ATOMIC CHARGES
----------------------
   0 C :   -0.054389
   1 C :   -0.050264
   2 C :   -0.067117
   3 C :   -0.069675
   4 C :   -0.070391
   5 C :    0.009448
   6 N :   -0.098342
   7 H :    0.026416
   8 H :    0.028925
   9 H :    0.029798
  10 H :    0.044528
  11 H :    0.044660
  12 H :    0.038127
  13 H :    0.037672
  14 H :    0.024530
  15 H :    0.025112
  16 H :    0.050407
  17 H :    0.050554

  Mayer bond orders larger than 0.1
B(  0-C ,  1-C ) :   1.1017 B(  0-C ,  7-H ) :   0.9595 B(  0-C ,  8-H ) :   0.9708
B(  0-C ,  9-H ) :   0.9707 B(  1-C ,  2-C ) :   1.0880 B(  1-C , 10-H ) :   0.9015
B(  1-C , 11-H ) :   0.9036 B(  2-C ,  3-C ) :   2.6119 B(  3-C ,  4-C ) :   1.0515
B(  4-C ,  5-C ) :   1.0464 B(  4-C , 12-H ) :   0.8913 B(  4-C , 13-H ) :   0.8871
B(  5-C ,  6-N ) :   1.1366 B(  5-C , 14-H ) :   0.9428 B(  5-C , 15-H ) :   0.9448
B(  6-N , 16-H ) :   0.9758 B(  6-N , 17-H ) :   0.9740

FINAL SINGLE POINT ENERGY      -289.340028487866

DIPOLE MOMENT
-------------
                                X             Y             Z
Electronic contribution:      2.68745      -0.46751      -0.77099
Nuclear contribution   :     -2.34202       0.44465       0.95044
                        -----------------------------------------
Total Dipole Moment    :      0.34544      -0.02286       0.17946
                        -----------------------------------------
Magnitude (a.u.)       :      0.38994
Magnitude (Debye)      :      0.99115

                             ****ORCA TERMINATED NORMALLY****
TOTAL RUN TIME: 0 days 0 hours 0 minutes 7 seconds 369 msec
