                         Program Version 3.0.3 - RELEASE   -
|  1> ! RI PBE def2-SVP def2-SVP/J NBO PAL2
|  2> % maxcore 2000
|  3> % output
|  4>     # printlevel mini
|  5>     print[ P_Basis ] 0
|  6>     print[ P_SCFInfo ] 1
|  7>     print[ P_SCFIterInfo ] 1
|  8>     print[ P_OrbEn ] 0
|  9>     print[ P_Cartesian ] 0
| 10> end
| 11> *xyz 0 1
| 12>  C        0.9398450000    -0.1492500000    -0.0679090000
| 13>  C        2.4645320000    -0.0739420000    -0.0474610000
| 14>  C        2.9760380000     0.8616530000     0.9409870000
| 15>  C        3.3802720000     1.6336790000     1.7670820000
| 16>  C        3.8753430000     2.5731360000     2.7634720000
| 17>  C        4.2725000000     1.9279450000     4.0131570000
| 18>  N        4.5891360000     1.4378540000     5.0024200000
| 19>  H        0.6060480000    -0.8642470000    -0.8223020000
| 20>  H        0.5052830000     0.8240840000    -0.3013220000
| 21>  H        0.5539360000    -0.4674610000     0.9017500000
| 22>  H        2.8385610000     0.2159330000    -1.0350030000
| 23>  H        2.8849430000    -1.0637420000     0.1589390000
| 24>  H        3.1107540000     3.3219400000     2.9978860000
| 25>  H        4.7407080000     3.1224170000     2.3765150000
| 26> *
| 27>
| 28>                          ****END OF INPUT****
 Total Charge           Charge          ....    0
 Multiplicity           Mult            ....    1
 Number of Electrons    NEL             ....   50
 Basis Dimension        Dim             ....  133

MULLIKEN ATOMIC CHARGES
-----------------------
   0 C :   -0.032112
   1 C :    0.035993
   2 C :   -0.132359
   3 C :   -0.156125
   4 C :    0.182514
   5 C :   -0.274303
   6 N :    0.046616
   7 H :    0.027672
   8 H :    0.034247
   9 H :    0.038815
  10 H :    0.037358
  11 H :    0.043152
  12 H :    0.075569
  13 H :    0.072963
Sum of atomic charges:   -0.0000000

LOEWDIN ATOMIC CHARGES
----------------------
   0 C :   -0.051509
   1 C :   -0.049484
   2 C :   -0.028782
   3 C :   -0.073107
   4 C :   -0.054121
   5 C :   -0.036289
   6 N :   -0.055353
   7 H :    0.029927
   8 H :    0.030514
   9 H :    0.032315
  10 H :    0.049159
  11 H :    0.051611
  12 H :    0.077744
  13 H :    0.077374

  Mayer bond orders larger than 0.1
B(  0-C ,  1-C ) :   1.1045 B(  0-C ,  7-H ) :   0.9605 B(  0-C ,  8-H ) :   0.9699
B(  0-C ,  9-H ) :   0.9704 B(  1-C ,  2-C ) :   1.0823 B(  1-C , 10-H ) :   0.9032
B(  1-C , 11-H ) :   0.9006 B(  2-C ,  3-C ) :   2.6781 B(  3-C ,  4-C ) :   1.0465
B(  4-C ,  5-C ) :   1.0671 B(  4-C , 12-H ) :   0.8707 B(  4-C , 13-H ) :   0.8702
B(  5-C ,  6-N ) :   3.0672

FINAL SINGLE POINT ENERGY      -286.931425799380

DIPOLE MOMENT
-------------
                                X             Y             Z
Electronic contribution:      5.95488       3.14990       7.75981
Nuclear contribution   :     -6.47860      -2.74286      -9.15220
                        -----------------------------------------
Total Dipole Moment    :     -0.52372       0.40703      -1.39239
                        -----------------------------------------
Magnitude (a.u.)       :      1.54230
Magnitude (Debye)      :      3.92022

                             ****ORCA TERMINATED NORMALLY****
TOTAL RUN TIME: 0 days 0 hours 0 minutes 5 seconds 427 msec
