                         Program Version 3.0.3 - RELEASE   -
|  1> ! RI PBE def2-SVP def2-SVP/J NBO PAL2
|  2> % maxcore 2000
|  3> % output
|  4>     # printlevel mini
|  5>     print[ P_Basis ] 0
|  6>     print[ P_SCFInfo ] 1
|  7>     print[ P_SCFIterInfo ] 1
|  8>     print[ P_OrbEn ] 0
|  9>     print[ P_Cartesian ] 0
| 10> end
| 11> *xyz 0 1
| 12>  C        1.0794830000     0.2234260000    -0.3240040000
| 13>  C        2.5860200000     0.1009550000    -0.1736590000
| 14>  C        2.9931880000    -0.7625470000     1.0177870000
| 15>  C        4.4704780000    -0.9318930000     1.1406420000
| 16>  C        5.2027320000    -0.5740390000     2.1888910000
| 17>  C        6.6809510000    -0.7511980000     2.2909770000
| 18>  N        7.3257610000     0.5244870000     2.5765920000
| 19>  H        0.8116700000     0.8462710000    -1.1805310000
| 20>  H        0.6292140000     0.6719820000     0.5660380000
| 21>  H        0.6164320000    -0.7569410000    -0.4677960000
| 22>  H        3.0326710000     1.0944580000    -0.0613710000
| 23>  H        3.0151340000    -0.3236110000    -1.0884610000
| 24>  H        2.5224820000    -1.7489420000     0.9078640000
| 25>  H        2.5940300000    -0.3302140000     1.9415700000
| 26>  H        4.9744210000    -1.3842320000     0.2851510000
| 27>  H        4.7253630000    -0.1037110000     3.0473300000
| 28>  H        7.0464800000    -1.2508690000     1.3804230000
| 29>  H        6.9043060000    -1.4216340000     3.1297820000
| 30>  H        7.2024300000     1.1584030000     1.7964900000
| 31>  H        8.3212260000     0.4014680000     2.7121930000
| 32> *
| 33>
| 34>                          ****END OF INPUT****
 Total Charge           Charge          ....    0
 Multiplicity           Mult            ....    1
 Number of Electrons    NEL             ....   56
 Basis Dimension        Dim             ....  163

MULLIKEN ATOMIC CHARGES
-----------------------
   0 C :   -0.003682
   1 C :   -0.067610
   2 C :    0.058449
   3 C :   -0.058111
   4 C :   -0.085827
   5 C :    0.135191
   6 N :   -0.227444
   7 H :    0.020512
   8 H :    0.017838
   9 H :    0.014180
  10 H :    0.014957
  11 H :    0.009595
  12 H :    0.013571
  13 H :    0.001230
  14 H :   -0.013443
  15 H :   -0.006679
  16 H :   -0.014180
  17 H :    0.016204
  18 H :    0.087582
  19 H :    0.087667
Sum of atomic charges:   -0.0000000

LOEWDIN ATOMIC CHARGES
----------------------
   0 C :   -0.066717
   1 C :   -0.043906
   2 C :   -0.041645
   3 C :   -0.041199
   4 C :   -0.049961
   5 C :    0.004377
   6 N :   -0.112734
   7 H :    0.026709
   8 H :    0.024761
   9 H :    0.023823
  10 H :    0.024119
  11 H :    0.021641
  12 H :    0.031394
  13 H :    0.026533
  14 H :    0.018631
  15 H :    0.023244
  16 H :    0.001377
  17 H :    0.028937
  18 H :    0.049734
  19 H :    0.050881

  Mayer bond orders larger than 0.1
B(  0-C ,  1-C ) :   1.1161 B(  0-C ,  7-H ) :   0.9624 B(  0-C ,  8-H ) :   0.9653
B(  0-C ,  9-H ) :   0.9635 B(  1-C ,  2-C ) :   1.0762 B(  1-C , 10-H ) :   0.9409
B(  1-C , 11-H ) :   0.9410 B(  2-C ,  3-C ) :   1.0589 B(  2-C , 12-H ) :   0.9104
B(  2-C , 13-H ) :   0.9332 B(  3-C ,  4-C ) :   1.9001 B(  3-C , 14-H ) :   0.9455
B(  4-C ,  5-C ) :   1.0683 B(  4-C , 15-H ) :   0.9542 B(  5-C ,  6-N ) :   1.0615
B(  5-C , 16-H ) :   0.9240 B(  5-C , 17-H ) :   0.9143 B(  6-N , 18-H ) :   0.9725
B(  6-N , 19-H ) :   0.9659

FINAL SINGLE POINT ENERGY      -290.575418762178

DIPOLE MOMENT
-------------
                                X             Y             Z
Electronic contribution:      4.15410      -0.61206       2.54152
Nuclear contribution   :     -3.93191       0.51931      -2.94156
                        -----------------------------------------
Total Dipole Moment    :      0.22219      -0.09276      -0.40003
                        -----------------------------------------
Magnitude (a.u.)       :      0.46690
Magnitude (Debye)      :      1.18677

                             ****ORCA TERMINATED NORMALLY****
TOTAL RUN TIME: 0 days 0 hours 0 minutes 8 seconds 109 msec
