                         Program Version 3.0.3 - RELEASE   -
|  1> ! RI PBE def2-SVP def2-SVP/J NBO PAL2
|  2> % maxcore 2000
|  3> % output
|  4>     # printlevel mini
|  5>     print[ P_Basis ] 0
|  6>     print[ P_SCFInfo ] 1
|  7>     print[ P_SCFIterInfo ] 1
|  8>     print[ P_OrbEn ] 0
|  9>     print[ P_Cartesian ] 0
| 10> end
| 11> *xyz 0 1
| 12>  C        0.7574530000    -0.0370380000    -0.0927820000
| 13>  C        2.2754190000     0.0003870000    -0.0715120000
| 14>  C        2.8447060000    -0.2509050000     1.3250380000
| 15>  C        4.3301540000    -0.2627270000     1.3449940000
| 16>  C        5.0850410000     0.5582120000     2.0768730000
| 17>  C        6.5056850000     0.5178300000     2.0577070000
| 18>  N        7.6582420000     0.5024830000     2.0569490000
| 19>  H        0.3713170000     0.1469790000    -1.0973860000
| 20>  H        0.3338070000     0.7224990000     0.5698870000
| 21>  H        0.3810980000    -1.0096670000     0.2358210000
| 22>  H        2.6315980000     0.9704090000    -0.4325340000
| 23>  H        2.6754020000    -0.7490050000    -0.7630640000
| 24>  H        2.4814420000    -1.2249240000     1.6786720000
| 25>  H        2.4658010000     0.5000410000     2.0255000000
| 26>  H        4.8249560000    -0.9889120000     0.7035790000
| 27>  H        4.6365880000     1.3014280000     2.7294660000
| 28> *
| 29>
| 30>                          ****END OF INPUT****
 Total Charge           Charge          ....    0
 Multiplicity           Mult            ....    1
 Number of Electrons    NEL             ....   52
 Basis Dimension        Dim             ....  143

MULLIKEN ATOMIC CHARGES
-----------------------
   0 C :    0.002664
   1 C :   -0.078515
   2 C :    0.049034
   3 C :   -0.021305
   4 C :   -0.113467
   5 C :   -0.103613
   6 N :    0.037860
   7 H :    0.026240
   8 H :    0.021535
   9 H :    0.018099
  10 H :    0.022878
  11 H :    0.025251
  12 H :    0.030203
  13 H :    0.016162
  14 H :    0.024198
  15 H :    0.042777
Sum of atomic charges:    0.0000000

LOEWDIN ATOMIC CHARGES
----------------------
   0 C :   -0.062988
   1 C :   -0.039504
   2 C :   -0.040144
   3 C :    0.031875
   4 C :   -0.081968
   5 C :   -0.044672
   6 N :   -0.059553
   7 H :    0.030515
   8 H :    0.026825
   9 H :    0.025945
  10 H :    0.027472
  11 H :    0.027032
  12 H :    0.041630
  13 H :    0.031473
  14 H :    0.037201
  15 H :    0.048860

  Mayer bond orders larger than 0.1
B(  0-C ,  1-C ) :   1.1169 B(  0-C ,  7-H ) :   0.9620 B(  0-C ,  8-H ) :   0.9651
B(  0-C ,  9-H ) :   0.9647 B(  1-C ,  2-C ) :   1.0685 B(  1-C , 10-H ) :   0.9423
B(  1-C , 11-H ) :   0.9420 B(  2-C ,  3-C ) :   1.0691 B(  2-C , 12-H ) :   0.9058
B(  2-C , 13-H ) :   0.9295 B(  3-C ,  4-C ) :   1.8336 B(  3-C ,  6-N ) :   0.1085
B(  3-C , 14-H ) :   0.9561 B(  4-C ,  5-C ) :   1.1196 B(  4-C , 15-H ) :   0.9430
B(  5-C ,  6-N ) :   2.9643

FINAL SINGLE POINT ENERGY      -288.178514659463

DIPOLE MOMENT
-------------
                                X             Y             Z
Electronic contribution:     13.27637       1.31067       4.58003
Nuclear contribution   :    -15.07998      -1.46406      -4.83491
                        -----------------------------------------
Total Dipole Moment    :     -1.80361      -0.15339      -0.25488
                        -----------------------------------------
Magnitude (a.u.)       :      1.82798
Magnitude (Debye)      :      4.64635

                             ****ORCA TERMINATED NORMALLY****
TOTAL RUN TIME: 0 days 0 hours 0 minutes 6 seconds 132 msec
