                         Program Version 3.0.3 - RELEASE   -
|  1> ! RI PBE def2-SVP def2-SVP/J NBO PAL2
|  2> % maxcore 2000
|  3> % output
|  4>     # printlevel mini
|  5>     print[ P_Basis ] 0
|  6>     print[ P_SCFInfo ] 1
|  7>     print[ P_SCFIterInfo ] 1
|  8>     print[ P_OrbEn ] 0
|  9>     print[ P_Cartesian ] 0
| 10> end
| 11> *xyz 0 1
| 12>  C        1.0255080000    -0.0870480000    -0.1386350000
| 13>  C        2.5125910000     0.1350140000     0.0783600000
| 14>  C        3.3376810000    -0.2424670000    -1.1494200000
| 15>  C        4.8195730000    -0.1022820000    -0.9602480000
| 16>  C        5.6489430000    -1.1361240000    -1.0703290000
| 17>  C        5.3483580000     1.2677620000    -0.6325210000
| 18>  N        4.8873780000     2.2571000000    -1.5977220000
| 19>  H        0.4460080000     0.1891080000     0.7454260000
| 20>  H        0.8109470000    -1.1360360000    -0.3622640000
| 21>  H        0.6578040000     0.5104390000    -0.9775730000
| 22>  H        2.8547140000    -0.4512930000     0.9385180000
| 23>  H        2.6895860000     1.1863390000     0.3250290000
| 24>  H        3.0266760000     0.4011100000    -1.9797910000
| 25>  H        3.1118340000    -1.2744280000    -1.4364030000
| 26>  H        5.2846850000    -2.1349600000    -1.2862560000
| 27>  H        6.7204050000    -1.0184800000    -0.9437080000
| 28>  H        6.4420430000     1.2075350000    -0.5371290000
| 29>  H        4.9651000000     1.5692320000     0.3492760000
| 30>  H        5.3084570000     2.0864860000    -2.5029950000
| 31>  H        5.1573400000     3.1890120000    -1.3113050000
| 32> *
| 33>
| 34>                          ****END OF INPUT****
 Total Charge           Charge          ....    0
 Multiplicity           Mult            ....    1
 Number of Electrons    NEL             ....   56
 Basis Dimension        Dim             ....  163

MULLIKEN ATOMIC CHARGES
-----------------------
   0 C :   -0.006036
   1 C :   -0.077153
   2 C :    0.108388
   3 C :   -0.199346
   4 C :   -0.040364
   5 C :    0.163178
   6 N :   -0.216669
   7 H :    0.017599
   8 H :    0.013770
   9 H :    0.018487
  10 H :    0.011246
  11 H :    0.023774
  12 H :    0.014851
  13 H :   -0.013875
  14 H :    0.005555
  15 H :    0.004488
  16 H :   -0.015727
  17 H :    0.007365
  18 H :    0.090851
  19 H :    0.089617
Sum of atomic charges:   -0.0000000

LOEWDIN ATOMIC CHARGES
----------------------
   0 C :   -0.065826
   1 C :   -0.042904
   2 C :   -0.032815
   3 C :   -0.031829
   4 C :   -0.079150
   5 C :    0.012790
   6 N :   -0.106901
   7 H :    0.025708
   8 H :    0.023174
   9 H :    0.025583
  10 H :    0.022421
  11 H :    0.024304
  12 H :    0.031411
  13 H :    0.023022
  14 H :    0.018562
  15 H :    0.016648
  16 H :    0.003768
  17 H :    0.025905
  18 H :    0.052982
  19 H :    0.053147

  Mayer bond orders larger than 0.1
B(  0-C ,  1-C ) :   1.1221 B(  0-C ,  7-H ) :   0.9613 B(  0-C ,  8-H ) :   0.9647
B(  0-C ,  9-H ) :   0.9637 B(  1-C ,  2-C ) :   1.0820 B(  1-C , 10-H ) :   0.9387
B(  1-C , 11-H ) :   0.9334 B(  2-C ,  3-C ) :   1.0528 B(  2-C , 12-H ) :   0.8984
B(  2-C , 13-H ) :   0.9162 B(  3-C ,  4-C ) :   1.9783 B(  3-C ,  5-C ) :   1.0595
B(  4-C , 14-H ) :   0.9323 B(  4-C , 15-H ) :   0.9286 B(  5-C ,  6-N ) :   1.0785
B(  5-C , 16-H ) :   0.9133 B(  5-C , 17-H ) :   0.9065 B(  6-N , 18-H ) :   0.9665
B(  6-N , 19-H ) :   0.9645

FINAL SINGLE POINT ENERGY      -290.575279015566

DIPOLE MOMENT
-------------
                                X             Y             Z
Electronic contribution:      3.59865       0.46995      -1.18077
Nuclear contribution   :     -3.27602      -0.11268       1.15694
                        -----------------------------------------
Total Dipole Moment    :      0.32262       0.35726      -0.02383
                        -----------------------------------------
Magnitude (a.u.)       :      0.48197
Magnitude (Debye)      :      1.22506

                             ****ORCA TERMINATED NORMALLY****
TOTAL RUN TIME: 0 days 0 hours 0 minutes 8 seconds 696 msec
