                         Program Version 3.0.3 - RELEASE   -
|  1> ! RI PBE def2-SVP def2-SVP/J NBO PAL2
|  2> % maxcore 2000
|  3> % output
|  4>     # printlevel mini
|  5>     print[ P_Basis ] 0
|  6>     print[ P_SCFInfo ] 1
|  7>     print[ P_SCFIterInfo ] 1
|  8>     print[ P_OrbEn ] 0
|  9>     print[ P_Cartesian ] 0
| 10> end
| 11> *xyz 0 1
| 12>  C        1.2350660000    -0.1740270000     0.1787340000
| 13>  C        2.7471750000    -0.0908780000     0.2918010000
| 14>  C        3.3623710000     0.7643730000    -0.8126980000
| 15>  C        4.8556490000     0.8881130000    -0.7083640000
| 16>  C        5.7182340000     0.4308600000    -1.6154120000
| 17>  C        5.3556070000     1.5395900000     0.4658870000
| 18>  N        5.7216470000     2.0715650000     1.4201100000
| 19>  H        0.8136730000    -0.7921430000     0.9739890000
| 20>  H        0.9310170000    -0.6099370000    -0.7770550000
| 21>  H        0.7783670000     0.8167720000     0.2510550000
| 22>  H        3.1827160000    -1.0944490000     0.2491240000
| 23>  H        3.0246460000     0.3242450000     1.2659610000
| 24>  H        2.9202530000     1.7669080000    -0.7763940000
| 25>  H        3.1204320000     0.3439500000    -1.7930040000
| 26>  H        5.3614400000    -0.0633330000    -2.5116230000
| 27>  H        6.7879050000     0.5396920000    -1.4888120000
| 28> *
| 29>
| 30>                          ****END OF INPUT****
 Total Charge           Charge          ....    0
 Multiplicity           Mult            ....    1
 Number of Electrons    NEL             ....   52
 Basis Dimension        Dim             ....  143

MULLIKEN ATOMIC CHARGES
-----------------------
   0 C :   -0.004661
   1 C :   -0.063834
   2 C :    0.097426
   3 C :   -0.232105
   4 C :    0.037322
   5 C :   -0.119383
   6 N :    0.057025
   7 H :    0.028996
   8 H :    0.018165
   9 H :    0.021587
  10 H :    0.018183
  11 H :    0.036862
  12 H :    0.034285
  13 H :    0.000569
  14 H :    0.028734
  15 H :    0.040827
Sum of atomic charges:   -0.0000000

LOEWDIN ATOMIC CHARGES
----------------------
   0 C :   -0.063957
   1 C :   -0.041089
   2 C :   -0.022297
   3 C :   -0.061108
   4 C :   -0.006091
   5 C :   -0.034141
   6 N :   -0.055273
   7 H :    0.031427
   8 H :    0.025307
   9 H :    0.027120
  10 H :    0.027874
  11 H :    0.031481
  12 H :    0.040636
  13 H :    0.031567
  14 H :    0.031106
  15 H :    0.037439

  Mayer bond orders larger than 0.1
B(  0-C ,  1-C ) :   1.1202 B(  0-C ,  7-H ) :   0.9616 B(  0-C ,  8-H ) :   0.9654
B(  0-C ,  9-H ) :   0.9643 B(  1-C ,  2-C ) :   1.0902 B(  1-C , 10-H ) :   0.9347
B(  1-C , 11-H ) :   0.9361 B(  2-C ,  3-C ) :   1.0519 B(  2-C , 12-H ) :   0.9131
B(  2-C , 13-H ) :   0.9037 B(  3-C ,  4-C ) :   1.9486 B(  3-C ,  5-C ) :   1.0885
B(  4-C ,  6-N ) :   0.1112 B(  4-C , 14-H ) :   0.9273 B(  4-C , 15-H ) :   0.9344
B(  5-C ,  6-N ) :   2.9877

FINAL SINGLE POINT ENERGY      -288.176126505161

DIPOLE MOMENT
-------------
                                X             Y             Z
Electronic contribution:      8.42904       4.40654       2.24429
Nuclear contribution   :     -9.06324      -5.10170      -3.32159
                        -----------------------------------------
Total Dipole Moment    :     -0.63419      -0.69516      -1.07731
                        -----------------------------------------
Magnitude (a.u.)       :      1.43040
Magnitude (Debye)      :      3.63579

                             ****ORCA TERMINATED NORMALLY****
TOTAL RUN TIME: 0 days 0 hours 0 minutes 7 seconds 47 msec
