                         Program Version 3.0.3 - RELEASE   -
|  1> ! RI PBE def2-SVP def2-SVP/J NBO PAL2
|  2> % maxcore 2000
|  3> % output
|  4>     # printlevel mini
|  5>     print[ P_Basis ] 0
|  6>     print[ P_SCFInfo ] 1
|  7>     print[ P_SCFIterInfo ] 1
|  8>     print[ P_OrbEn ] 0
|  9>     print[ P_Cartesian ] 0
| 10> end
| 11> *xyz 0 1
| 12>  C        0.9187000000    -0.0987880000    -0.2460310000
| 13>  C        2.4299520000    -0.0453670000    -0.0945720000
| 14>  C        3.1100280000    -1.3297480000    -0.5446390000
| 15>  C        4.6354410000    -1.3037280000    -0.5030240000
| 16>  C        5.1806940000    -1.1064450000     0.9039100000
| 17>  C        5.1969480000    -2.5754810000    -1.1330000000
| 18>  N        6.6432200000    -2.5100530000    -1.2801930000
| 19>  H        0.4484820000     0.8313170000     0.0817490000
| 20>  H        0.4919370000    -0.9127420000     0.3471000000
| 21>  H        0.6317180000    -0.2673040000    -1.2879680000
| 22>  H        2.6810990000     0.1635790000     0.9498560000
| 23>  H        2.8279410000     0.7943740000    -0.6769360000
| 24>  H        2.7868410000    -1.5556340000    -1.5689210000
| 25>  H        2.7519750000    -2.1633420000     0.0751860000
| 26>  H        4.9713510000    -0.4592630000    -1.1243270000
| 27>  H        4.7748770000    -1.8672330000     1.5798700000
| 28>  H        4.9203270000    -0.1268600000     1.3095380000
| 29>  H        6.2673920000    -1.2016980000     0.9051520000
| 30>  H        4.6690870000    -2.7591050000    -2.0825960000
| 31>  H        4.9644150000    -3.4234820000    -0.4782050000
| 32>  H        6.8942130000    -1.8322900000    -1.9900670000
| 33>  H        7.0151440000    -3.4017170000    -1.5800930000
| 34> *
| 35>
| 36>                          ****END OF INPUT****
 Total Charge           Charge          ....    0
 Multiplicity           Mult            ....    1
 Number of Electrons    NEL             ....   58
 Basis Dimension        Dim             ....  173

MULLIKEN ATOMIC CHARGES
-----------------------
   0 C :   -0.001570
   1 C :   -0.030689
   2 C :    0.000937
   3 C :   -0.132499
   4 C :    0.026329
   5 C :    0.090247
   6 N :   -0.190305
   7 H :    0.014724
   8 H :    0.015671
   9 H :    0.012821
  10 H :    0.014047
  11 H :    0.005235
  12 H :   -0.007770
  13 H :   -0.002129
  14 H :   -0.008427
  15 H :    0.002667
  16 H :    0.012770
  17 H :    0.023542
  18 H :   -0.015701
  19 H :   -0.004123
  20 H :    0.086102
  21 H :    0.088121
Sum of atomic charges:   -0.0000000

LOEWDIN ATOMIC CHARGES
----------------------
   0 C :   -0.064746
   1 C :   -0.047256
   2 C :   -0.036990
   3 C :   -0.051303
   4 C :   -0.061886
   5 C :    0.009564
   6 N :   -0.105186
   7 H :    0.025035
   8 H :    0.024041
   9 H :    0.022321
  10 H :    0.022586
  11 H :    0.022127
  12 H :    0.017504
  13 H :    0.019726
  14 H :    0.018871
  15 H :    0.021885
  16 H :    0.020380
  17 H :    0.025557
  18 H :   -0.002662
  19 H :    0.017907
  20 H :    0.049731
  21 H :    0.052793

  Mayer bond orders larger than 0.1
B(  0-C ,  1-C ) :   1.1165 B(  0-C ,  7-H ) :   0.9604 B(  0-C ,  8-H ) :   0.9655
B(  0-C ,  9-H ) :   0.9662 B(  1-C ,  2-C ) :   1.0980 B(  1-C , 10-H ) :   0.9306
B(  1-C , 11-H ) :   0.9332 B(  2-C ,  3-C ) :   1.0583 B(  2-C , 12-H ) :   0.9271
B(  2-C , 13-H ) :   0.9275 B(  3-C ,  4-C ) :   1.0723 B(  3-C ,  5-C ) :   1.0555
B(  3-C , 14-H ) :   0.9065 B(  4-C , 15-H ) :   0.9568 B(  4-C , 16-H ) :   0.9592
B(  4-C , 17-H ) :   0.9465 B(  5-C ,  6-N ) :   1.1052 B(  5-C , 18-H ) :   0.9299
B(  5-C , 19-H ) :   0.9256 B(  6-N , 20-H ) :   0.9689 B(  6-N , 21-H ) :   0.9625

FINAL SINGLE POINT ENERGY      -291.794987011481

DIPOLE MOMENT
-------------
                                X             Y             Z
Electronic contribution:      3.21166      -1.30934      -1.25536
Nuclear contribution   :     -3.22815       1.16364       0.76910
                        -----------------------------------------
Total Dipole Moment    :     -0.01649      -0.14570      -0.48626
                        -----------------------------------------
Magnitude (a.u.)       :      0.50788
Magnitude (Debye)      :      1.29094

                             ****ORCA TERMINATED NORMALLY****
TOTAL RUN TIME: 0 days 0 hours 0 minutes 8 seconds 949 msec
