                         Program Version 3.0.3 - RELEASE   -
|  1> ! RI PBE def2-SVP def2-SVP/J NBO PAL2
|  2> % maxcore 2000
|  3> % output
|  4>     # printlevel mini
|  5>     print[ P_Basis ] 0
|  6>     print[ P_SCFInfo ] 1
|  7>     print[ P_SCFIterInfo ] 1
|  8>     print[ P_OrbEn ] 0
|  9>     print[ P_Cartesian ] 0
| 10> end
| 11> *xyz 0 1
| 12>  C        1.1759420000     1.9910620000    -1.5193830000
| 13>  C        2.6921090000     1.8835310000    -1.5603190000
| 14>  C        3.2734070000     1.3925100000    -0.2439260000
| 15>  C        4.8107670000     1.3260450000    -0.1505680000
| 16>  C        5.1866350000     0.8374690000     1.2435600000
| 17>  C        5.3822860000     0.3709410000    -1.1922070000
| 18>  N        5.4614300000     2.6230000000    -0.3418070000
| 19>  H        0.7724710000     2.3450020000    -2.4709980000
| 20>  H        0.8512320000     2.6869030000    -0.7405850000
| 21>  H        0.7175160000     1.0216990000    -1.3044230000
| 22>  H        3.1129450000     2.8649350000    -1.8079180000
| 23>  H        2.9827930000     1.2100300000    -2.3728750000
| 24>  H        2.8650640000     0.3977040000    -0.0252040000
| 25>  H        2.9181490000     2.0471810000     0.5633300000
| 26>  H        4.7642790000    -0.1507980000     1.4406940000
| 27>  H        4.8071390000     1.5209580000     2.0096440000
| 28>  H        6.2721340000     0.7834890000     1.3454700000
| 29>  H        4.9329430000    -0.6211270000    -1.1022510000
| 30>  H        6.4618680000     0.2791040000    -1.0593720000
| 31>  H        5.2018860000     0.7308040000    -2.2085180000
| 32>  H        5.1018770000     3.2985250000     0.3238820000
| 33>  H        5.2674100000     2.9873300000    -1.2670260000
| 34> *
| 35>
| 36>                          ****END OF INPUT****
 Total Charge           Charge          ....    0
 Multiplicity           Mult            ....    1
 Number of Electrons    NEL             ....   58
 Basis Dimension        Dim             ....  173

MULLIKEN ATOMIC CHARGES
-----------------------
   0 C :   -0.002539
   1 C :   -0.033471
   2 C :    0.058786
   3 C :   -0.263127
   4 C :    0.079575
   5 C :    0.061707
   6 N :   -0.148616
   7 H :    0.015891
   8 H :    0.015974
   9 H :    0.016964
  10 H :   -0.016669
  11 H :    0.013513
  12 H :   -0.009813
  13 H :   -0.015673
  14 H :    0.005678
  15 H :    0.001635
  16 H :    0.019650
  17 H :    0.006988
  18 H :    0.020916
  19 H :    0.012237
  20 H :    0.080061
  21 H :    0.080332
Sum of atomic charges:    0.0000000

LOEWDIN ATOMIC CHARGES
----------------------
   0 C :   -0.063540
   1 C :   -0.052113
   2 C :   -0.046507
   3 C :   -0.024692
   4 C :   -0.053447
   5 C :   -0.054314
   6 N :   -0.085637
   7 H :    0.025432
   8 H :    0.023583
   9 H :    0.024337
  10 H :    0.011638
  11 H :    0.023100
  12 H :    0.020264
  13 H :    0.016135
  14 H :    0.023923
  15 H :    0.020395
  16 H :    0.026652
  17 H :    0.024581
  18 H :    0.028316
  19 H :    0.020565
  20 H :    0.047650
  21 H :    0.043680

  Mayer bond orders larger than 0.1
B(  0-C ,  1-C ) :   1.1211 B(  0-C ,  7-H ) :   0.9601 B(  0-C ,  8-H ) :   0.9657
B(  0-C ,  9-H ) :   0.9651 B(  1-C ,  2-C ) :   1.0942 B(  1-C , 10-H ) :   0.9165
B(  1-C , 11-H ) :   0.9310 B(  2-C ,  3-C ) :   1.0001 B(  2-C , 12-H ) :   0.9183
B(  2-C , 13-H ) :   0.9215 B(  3-C ,  4-C ) :   1.0643 B(  3-C ,  5-C ) :   1.0527
B(  3-C ,  6-N ) :   1.0541 B(  4-C , 14-H ) :   0.9536 B(  4-C , 15-H ) :   0.9480
B(  4-C , 16-H ) :   0.9522 B(  5-C , 17-H ) :   0.9572 B(  5-C , 18-H ) :   0.9529
B(  5-C , 19-H ) :   0.9518 B(  6-N , 20-H ) :   0.9633 B(  6-N , 21-H ) :   0.9673

FINAL SINGLE POINT ENERGY      -291.799513775532

DIPOLE MOMENT
-------------
                                X             Y             Z
Electronic contribution:      2.33323       1.16694       0.45533
Nuclear contribution   :     -2.73878      -1.05594      -0.53933
                        -----------------------------------------
Total Dipole Moment    :     -0.40555       0.11099      -0.08400
                        -----------------------------------------
Magnitude (a.u.)       :      0.42877
Magnitude (Debye)      :      1.08985

                             ****ORCA TERMINATED NORMALLY****
TOTAL RUN TIME: 0 days 0 hours 0 minutes 8 seconds 684 msec
