                         Program Version 3.0.3 - RELEASE   -
|  1> ! RI PBE def2-SVP def2-SVP/J NBO PAL2
|  2> % maxcore 2000
|  3> % output
|  4>     # printlevel mini
|  5>     print[ P_Basis ] 0
|  6>     print[ P_SCFInfo ] 1
|  7>     print[ P_SCFIterInfo ] 1
|  8>     print[ P_OrbEn ] 0
|  9>     print[ P_Cartesian ] 0
| 10> end
| 11> *xyz 0 1
| 12>  C        1.0426510000     0.0814590000    -0.0462320000
| 13>  C        2.5611270000     0.0775410000    -0.0013540000
| 14>  C        3.1417360000    -1.3242600000    -0.0828110000
| 15>  C        4.6723810000    -1.3772530000    -0.0280300000
| 16>  C        5.2030100000    -2.8102980000    -0.0056030000
| 17>  C        5.2557690000    -0.6416170000    -1.1477750000
| 18>  N        5.7095960000    -0.0752390000    -2.0401510000
| 19>  H        0.6463820000     1.0970560000     0.0153540000
| 20>  H        0.6187750000    -0.4914130000     0.7834700000
| 21>  H        0.6749940000    -0.3617130000    -0.9757060000
| 22>  H        2.9042490000     0.5570110000     0.9228480000
| 23>  H        2.9567380000     0.6817820000    -0.8242230000
| 24>  H        2.8052900000    -1.8147590000    -1.0029730000
| 25>  H        2.7648810000    -1.9303260000     0.7486020000
| 26>  H        5.0032100000    -0.8629070000     0.8826920000
| 27>  H        4.8905420000    -3.3505740000    -0.9013150000
| 28>  H        4.8083860000    -3.3338240000     0.8671950000
| 29>  H        6.2924940000    -2.8301450000     0.0416120000
| 30> *
| 31>
| 32>                          ****END OF INPUT****
 Total Charge           Charge          ....    0
 Multiplicity           Mult            ....    1
 Number of Electrons    NEL             ....   54
 Basis Dimension        Dim             ....  153

MULLIKEN ATOMIC CHARGES
-----------------------
   0 C :    0.001302
   1 C :   -0.047127
   2 C :   -0.005059
   3 C :   -0.088076
   4 C :    0.027390
   5 C :   -0.229631
   6 N :    0.047208
   7 H :    0.023150
   8 H :    0.016843
   9 H :    0.019137
  10 H :    0.009725
  11 H :    0.037952
  12 H :    0.020244
  13 H :    0.014448
  14 H :    0.038048
  15 H :    0.039730
  16 H :    0.029815
  17 H :    0.044900
Sum of atomic charges:   -0.0000000

LOEWDIN ATOMIC CHARGES
----------------------
   0 C :   -0.062053
   1 C :   -0.047873
   2 C :   -0.024353
   3 C :   -0.062634
   4 C :   -0.041322
   5 C :   -0.037370
   6 N :   -0.073136
   7 H :    0.029296
   8 H :    0.024220
   9 H :    0.026480
  10 H :    0.024415
  11 H :    0.032261
  12 H :    0.029181
  13 H :    0.027582
  14 H :    0.052314
  15 H :    0.034821
  16 H :    0.031726
  17 H :    0.036445

  Mayer bond orders larger than 0.1
B(  0-C ,  1-C ) :   1.1208 B(  0-C ,  7-H ) :   0.9617 B(  0-C ,  8-H ) :   0.9654
B(  0-C ,  9-H ) :   0.9649 B(  1-C ,  2-C ) :   1.0893 B(  1-C , 10-H ) :   0.9353
B(  1-C , 11-H ) :   0.9310 B(  2-C ,  3-C ) :   1.0623 B(  2-C , 12-H ) :   0.9283
B(  2-C , 13-H ) :   0.9302 B(  3-C ,  4-C ) :   1.0871 B(  3-C ,  5-C ) :   1.0576
B(  3-C , 14-H ) :   0.8720 B(  4-C , 15-H ) :   0.9584 B(  4-C , 16-H ) :   0.9574
B(  4-C , 17-H ) :   0.9594 B(  5-C ,  6-N ) :   3.0595

FINAL SINGLE POINT ENERGY      -289.395423329825

DIPOLE MOMENT
-------------
                                X             Y             Z
Electronic contribution:      7.15587       2.03846      -4.07931
Nuclear contribution   :     -7.83156      -2.74134       5.16341
                        -----------------------------------------
Total Dipole Moment    :     -0.67568      -0.70288       1.08410
                        -----------------------------------------
Magnitude (a.u.)       :      1.45803
Magnitude (Debye)      :      3.70602

                             ****ORCA TERMINATED NORMALLY****
TOTAL RUN TIME: 0 days 0 hours 0 minutes 7 seconds 868 msec
