                         Program Version 3.0.3 - RELEASE   -
|  1> ! RI PBE def2-SVP def2-SVP/J NBO PAL2
|  2> % maxcore 2000
|  3> % output
|  4>     # printlevel mini
|  5>     print[ P_Basis ] 0
|  6>     print[ P_SCFInfo ] 1
|  7>     print[ P_SCFIterInfo ] 1
|  8>     print[ P_OrbEn ] 0
|  9>     print[ P_Cartesian ] 0
| 10> end
| 11> *xyz 0 1
| 12>  C        0.9522650000     0.0019630000    -0.0731410000
| 13>  C        2.4700020000    -0.0331000000    -0.0714430000
| 14>  C        3.0659980000     0.8437640000     1.0307690000
| 15>  C        4.5197270000     0.8302700000     1.0600790000
| 16>  C        5.7224810000     0.8184020000     1.0711240000
| 17>  C        7.1780880000     0.7788420000     1.0812400000
| 18>  N        7.7324330000     1.1348140000    -0.2213580000
| 19>  H        0.5419480000    -0.6272190000    -0.8658170000
| 20>  H        0.5794210000     1.0181060000    -0.2298540000
| 21>  H        0.5464380000    -0.3553360000     0.8775780000
| 22>  H        2.8568560000     0.3030640000    -1.0378340000
| 23>  H        2.8247160000    -1.0592620000     0.0623280000
| 24>  H        2.6850760000     0.5123740000     2.0041540000
| 25>  H        2.7162310000     1.8751530000     0.9041440000
| 26>  H        7.4904150000    -0.2141880000     1.4419010000
| 27>  H        7.5457660000     1.5033160000     1.8162690000
| 28>  H        7.3618050000     0.5153530000    -0.9314950000
| 29>  H        8.7378640000     1.0129830000    -0.2102740000
| 30> *
| 31>
| 32>                          ****END OF INPUT****
 Total Charge           Charge          ....    0
 Multiplicity           Mult            ....    1
 Number of Electrons    NEL             ....   54
 Basis Dimension        Dim             ....  153

MULLIKEN ATOMIC CHARGES
-----------------------
   0 C :    0.005040
   1 C :   -0.076282
   2 C :    0.059951
   3 C :   -0.102641
   4 C :   -0.199363
   5 C :    0.163166
   6 N :   -0.220169
   7 H :    0.023161
   8 H :    0.016300
   9 H :    0.015375
  10 H :    0.022635
  11 H :    0.022982
  12 H :    0.024736
  13 H :    0.027952
  14 H :    0.010675
  15 H :    0.024659
  16 H :    0.093334
  17 H :    0.088488
Sum of atomic charges:    0.0000000

LOEWDIN ATOMIC CHARGES
----------------------
   0 C :   -0.065948
   1 C :   -0.036509
   2 C :   -0.047379
   3 C :   -0.054770
   4 C :   -0.073328
   5 C :    0.000857
   6 N :   -0.109048
   7 H :    0.028914
   8 H :    0.025010
   9 H :    0.024645
  10 H :    0.027452
  11 H :    0.026958
  12 H :    0.044082
  13 H :    0.044176
  14 H :    0.019068
  15 H :    0.041087
  16 H :    0.052544
  17 H :    0.052189

  Mayer bond orders larger than 0.1
B(  0-C ,  1-C ) :   1.1180 B(  0-C ,  7-H ) :   0.9619 B(  0-C ,  8-H ) :   0.9633
B(  0-C ,  9-H ) :   0.9632 B(  1-C ,  2-C ) :   1.0783 B(  1-C , 10-H ) :   0.9425
B(  1-C , 11-H ) :   0.9432 B(  2-C ,  3-C ) :   1.0654 B(  2-C , 12-H ) :   0.8996
B(  2-C , 13-H ) :   0.8959 B(  3-C ,  4-C ) :   2.6101 B(  4-C ,  5-C ) :   1.0752
B(  5-C ,  6-N ) :   1.0819 B(  5-C , 14-H ) :   0.9026 B(  5-C , 15-H ) :   0.8898
B(  6-N , 16-H ) :   0.9689 B(  6-N , 17-H ) :   0.9637

FINAL SINGLE POINT ENERGY      -289.334923907794

DIPOLE MOMENT
-------------
                                X             Y             Z
Electronic contribution:      5.56080       1.59384       1.70754
Nuclear contribution   :     -5.51292      -2.09204      -1.71946
                        -----------------------------------------
Total Dipole Moment    :      0.04788      -0.49820      -0.01192
                        -----------------------------------------
Magnitude (a.u.)       :      0.50064
Magnitude (Debye)      :      1.27252

                             ****ORCA TERMINATED NORMALLY****
TOTAL RUN TIME: 0 days 0 hours 0 minutes 7 seconds 320 msec
