                         Program Version 3.0.3 - RELEASE   -
|  1> ! RI PBE def2-SVP def2-SVP/J NBO PAL2
|  2> % maxcore 2000
|  3> % output
|  4>     # printlevel mini
|  5>     print[ P_Basis ] 0
|  6>     print[ P_SCFInfo ] 1
|  7>     print[ P_SCFIterInfo ] 1
|  8>     print[ P_OrbEn ] 0
|  9>     print[ P_Cartesian ] 0
| 10> end
| 11> *xyz 0 1
| 12>  C        0.8726610000    -0.0284040000     0.0090320000
| 13>  C        2.3902690000    -0.0482840000     0.0116470000
| 14>  C        2.9737830000     1.0026210000    -0.9381170000
| 15>  C        4.4200300000     1.0097940000    -0.9592510000
| 16>  C        5.6260150000     0.9967350000    -0.9596960000
| 17>  C        6.9925930000     0.9856890000    -0.9636950000
| 18>  N        8.1480660000     0.9761310000    -0.9667280000
| 19>  H        0.4717340000    -0.7815610000     0.6897660000
| 20>  H        0.4738410000    -0.2358010000    -0.9876110000
| 21>  H        0.4870380000     0.9443590000     0.3258850000
| 22>  H        2.7578130000    -1.0347030000    -0.2836960000
| 23>  H        2.7709050000     0.1361150000     1.0198400000
| 24>  H        2.6220080000     2.0006930000    -0.6518010000
| 25>  H        2.6087530000     0.8284080000    -1.9570740000
| 26> *
| 27>
| 28>                          ****END OF INPUT****
 Total Charge           Charge          ....    0
 Multiplicity           Mult            ....    1
 Number of Electrons    NEL             ....   50
 Basis Dimension        Dim             ....  133

MULLIKEN ATOMIC CHARGES
-----------------------
   0 C :    0.006193
   1 C :   -0.086766
   2 C :    0.039429
   3 C :   -0.154229
   4 C :    0.041489
   5 C :   -0.191571
   6 N :    0.101976
   7 H :    0.033192
   8 H :    0.021966
   9 H :    0.022050
  10 H :    0.035598
  11 H :    0.037100
  12 H :    0.046237
  13 H :    0.047334
Sum of atomic charges:    0.0000000

LOEWDIN ATOMIC CHARGES
----------------------
   0 C :   -0.062786
   1 C :   -0.030983
   2 C :   -0.045647
   3 C :    0.047429
   4 C :   -0.093602
   5 C :   -0.050014
   6 N :   -0.032301
   7 H :    0.034139
   8 H :    0.027608
   9 H :    0.027652
  10 H :    0.032379
  11 H :    0.032585
  12 H :    0.056670
  13 H :    0.056871

  Mayer bond orders larger than 0.1
B(  0-C ,  1-C ) :   1.1214 B(  0-C ,  7-H ) :   0.9608 B(  0-C ,  8-H ) :   0.9631
B(  0-C ,  9-H ) :   0.9631 B(  1-C ,  2-C ) :   1.0706 B(  1-C , 10-H ) :   0.9428
B(  1-C , 11-H ) :   0.9431 B(  2-C ,  3-C ) :   1.1006 B(  2-C , 12-H ) :   0.8890
B(  2-C , 13-H ) :   0.8884 B(  3-C ,  4-C ) :   2.2666 B(  3-C ,  6-N ) :   0.1819
B(  4-C ,  5-C ) :   1.0022 B(  4-C ,  6-N ) :   0.1273 B(  5-C ,  6-N ) :   2.8735

FINAL SINGLE POINT ENERGY      -286.941855840471

DIPOLE MOMENT
-------------
                                X             Y             Z
Electronic contribution:     15.07722       2.58864      -2.47809
Nuclear contribution   :    -17.16953      -2.67048       2.57226
                        -----------------------------------------
Total Dipole Moment    :     -2.09231      -0.08183       0.09417
                        -----------------------------------------
Magnitude (a.u.)       :      2.09603
Magnitude (Debye)      :      5.32769

                             ****ORCA TERMINATED NORMALLY****
TOTAL RUN TIME: 0 days 0 hours 0 minutes 5 seconds 843 msec
