                         Program Version 3.0.3 - RELEASE   -
|  1> ! RI PBE def2-SVP def2-SVP/J NBO PAL2
|  2> % maxcore 2000
|  3> % output
|  4>     # printlevel mini
|  5>     print[ P_Basis ] 0
|  6>     print[ P_SCFInfo ] 1
|  7>     print[ P_SCFIterInfo ] 1
|  8>     print[ P_OrbEn ] 0
|  9>     print[ P_Cartesian ] 0
| 10> end
| 11> *xyz 0 1
| 12>  C        0.8721500000     0.0011100000    -0.0524530000
| 13>  C        2.3902040000    -0.0510190000    -0.0915010000
| 14>  C        2.9329760000    -0.5963610000    -1.4029260000
| 15>  C        4.4509530000    -0.6322800000    -1.4576960000
| 16>  C        5.0173000000    -1.2469130000    -2.7324330000
| 17>  C        6.5250410000    -1.0384700000    -2.8207660000
| 18>  N        4.6133320000    -2.6469560000    -2.8159860000
| 19>  H        0.5059940000     0.3886660000     0.9012940000
| 20>  H        0.4410060000    -0.9937500000    -0.1953100000
| 21>  H        0.4796440000     0.6447310000    -0.8449740000
| 22>  H        2.7565410000    -0.6713410000     0.7351990000
| 23>  H        2.7961910000     0.9526970000     0.0833120000
| 24>  H        2.5587740000     0.0182630000    -2.2318470000
| 25>  H        2.5466730000    -1.6053520000    -1.5761290000
| 26>  H        4.8378480000    -1.1995870000    -0.5990120000
| 27>  H        4.8479530000     0.3836180000    -1.3489830000
| 28>  H        4.5493630000    -0.7387690000    -3.5856680000
| 29>  H        7.0275050000    -1.5081510000    -1.9684960000
| 30>  H        6.7872310000     0.0235510000    -2.8200250000
| 31>  H        6.9291080000    -1.4836170000    -3.7341880000
| 32>  H        5.0574380000    -3.1749950000    -2.0714520000
| 33>  H        4.9301860000    -3.0546640000    -3.6875410000
| 34> *
| 35>
| 36>                          ****END OF INPUT****
 Total Charge           Charge          ....    0
 Multiplicity           Mult            ....    1
 Number of Electrons    NEL             ....   58
 Basis Dimension        Dim             ....  173

MULLIKEN ATOMIC CHARGES
-----------------------
   0 C :    0.002535
   1 C :   -0.037502
   2 C :    0.003115
   3 C :    0.015874
   4 C :   -0.061469
   5 C :    0.047414
   6 N :   -0.173779
   7 H :    0.012675
   8 H :    0.014790
   9 H :    0.014380
  10 H :    0.004925
  11 H :    0.001264
  12 H :   -0.007328
  13 H :    0.005194
  14 H :   -0.012587
  15 H :   -0.002995
  16 H :   -0.003259
  17 H :    0.002377
  18 H :    0.009174
  19 H :    0.002464
  20 H :    0.080506
  21 H :    0.082230
Sum of atomic charges:    0.0000000

LOEWDIN ATOMIC CHARGES
----------------------
   0 C :   -0.065870
   1 C :   -0.047632
   2 C :   -0.042245
   3 C :   -0.041643
   4 C :   -0.005727
   5 C :   -0.076552
   6 N :   -0.091850
   7 H :    0.024129
   8 H :    0.023807
   9 H :    0.023262
  10 H :    0.020863
  11 H :    0.019047
  12 H :    0.020151
  13 H :    0.021477
  14 H :    0.017875
  15 H :    0.021993
  16 H :    0.020116
  17 H :    0.019849
  18 H :    0.024164
  19 H :    0.018932
  20 H :    0.046713
  21 H :    0.049142

  Mayer bond orders larger than 0.1
B(  0-C ,  1-C ) :   1.1161 B(  0-C ,  7-H ) :   0.9605 B(  0-C ,  8-H ) :   0.9651
B(  0-C ,  9-H ) :   0.9658 B(  1-C ,  2-C ) :   1.0969 B(  1-C , 10-H ) :   0.9359
B(  1-C , 11-H ) :   0.9347 B(  2-C ,  3-C ) :   1.0900 B(  2-C , 12-H ) :   0.9299
B(  2-C , 13-H ) :   0.9244 B(  3-C ,  4-C ) :   1.0621 B(  3-C , 14-H ) :   0.9172
B(  3-C , 15-H ) :   0.9310 B(  4-C ,  5-C ) :   1.0724 B(  4-C ,  6-N ) :   1.0767
B(  4-C , 16-H ) :   0.9057 B(  5-C , 17-H ) :   0.9525 B(  5-C , 18-H ) :   0.9479
B(  5-C , 19-H ) :   0.9560 B(  6-N , 20-H ) :   0.9678 B(  6-N , 21-H ) :   0.9682

FINAL SINGLE POINT ENERGY      -291.799028865646

DIPOLE MOMENT
-------------
                                X             Y             Z
Electronic contribution:      0.99214      -1.60013      -1.56712
Nuclear contribution   :     -0.51778       1.50857       1.46409
                        -----------------------------------------
Total Dipole Moment    :      0.47436      -0.09155      -0.10303
                        -----------------------------------------
Magnitude (a.u.)       :      0.49398
Magnitude (Debye)      :      1.25559

                             ****ORCA TERMINATED NORMALLY****
TOTAL RUN TIME: 0 days 0 hours 0 minutes 8 seconds 715 msec
