                         Program Version 3.0.3 - RELEASE   -
|  1> ! RI PBE def2-SVP def2-SVP/J NBO PAL2
|  2> % maxcore 2000
|  3> % output
|  4>     # printlevel mini
|  5>     print[ P_Basis ] 0
|  6>     print[ P_SCFInfo ] 1
|  7>     print[ P_SCFIterInfo ] 1
|  8>     print[ P_OrbEn ] 0
|  9>     print[ P_Cartesian ] 0
| 10> end
| 11> *xyz 0 1
| 12>  C        0.9549920000    -0.0186780000     0.0466760000
| 13>  C        2.4736060000     0.0175450000     0.0563800000
| 14>  C        3.0340570000     1.2517710000     0.7454650000
| 15>  C        4.5527600000     1.2894360000     0.7556460000
| 16>  C        5.0910130000     2.5387730000     1.4537020000
| 17>  C        6.5440760000     2.5911600000     1.4721360000
| 18>  N        7.6936030000     2.6149770000     1.4770950000
| 19>  H        0.5804310000    -0.9144520000    -0.4532760000
| 20>  H        0.5421920000     0.8493160000    -0.4749000000
| 21>  H        0.5529550000    -0.0138820000     1.0636350000
| 22>  H        2.8494990000    -0.0221660000    -0.9723340000
| 23>  H        2.8602000000    -0.8791630000     0.5539530000
| 24>  H        2.6602590000     1.2926100000     1.7763420000
| 25>  H        2.6492300000     2.1509290000     0.2479460000
| 26>  H        4.9355110000     1.2596270000    -0.2690090000
| 27>  H        4.9465680000     0.4011480000     1.2588180000
| 28>  H        4.7351550000     2.5819400000     2.4880320000
| 29>  H        4.7236920000     3.4424080000     0.9568920000
| 30> *
| 31>
| 32>                          ****END OF INPUT****
 Total Charge           Charge          ....    0
 Multiplicity           Mult            ....    1
 Number of Electrons    NEL             ....   54
 Basis Dimension        Dim             ....  153

MULLIKEN ATOMIC CHARGES
-----------------------
   0 C :   -0.002928
   1 C :   -0.033635
   2 C :   -0.013180
   3 C :   -0.060389
   4 C :    0.069638
   5 C :   -0.271738
   6 N :    0.060161
   7 H :    0.022239
   8 H :    0.018967
   9 H :    0.017550
  10 H :    0.013337
  11 H :    0.012247
  12 H :    0.006604
  13 H :    0.005405
  14 H :    0.032016
  15 H :    0.029787
  16 H :    0.047196
  17 H :    0.046722
Sum of atomic charges:   -0.0000000

LOEWDIN ATOMIC CHARGES
----------------------
   0 C :   -0.064556
   1 C :   -0.044496
   2 C :   -0.042953
   3 C :   -0.026921
   4 C :   -0.056847
   5 C :   -0.044522
   6 N :   -0.070710
   7 H :    0.028708
   8 H :    0.025175
   9 H :    0.024822
  10 H :    0.024560
  11 H :    0.024545
  12 H :    0.023205
  13 H :    0.023122
  14 H :    0.032319
  15 H :    0.032014
  16 H :    0.056347
  17 H :    0.056187

  Mayer bond orders larger than 0.1
B(  0-C ,  1-C ) :   1.1148 B(  0-C ,  7-H ) :   0.9606 B(  0-C ,  8-H ) :   0.9664
B(  0-C ,  9-H ) :   0.9660 B(  1-C ,  2-C ) :   1.0966 B(  1-C , 10-H ) :   0.9373
B(  1-C , 11-H ) :   0.9368 B(  2-C ,  3-C ) :   1.0975 B(  2-C , 12-H ) :   0.9313
B(  2-C , 13-H ) :   0.9312 B(  3-C ,  4-C ) :   1.0921 B(  3-C , 14-H ) :   0.9357
B(  3-C , 15-H ) :   0.9352 B(  4-C ,  5-C ) :   1.1302 B(  4-C , 16-H ) :   0.8858
B(  4-C , 17-H ) :   0.8878 B(  5-C ,  6-N ) :   3.0575

FINAL SINGLE POINT ENERGY      -289.395198475643

DIPOLE MOMENT
-------------
                                X             Y             Z
Electronic contribution:     12.12326       5.03798       2.74163
Nuclear contribution   :    -13.69822      -5.23451      -2.84013
                        -----------------------------------------
Total Dipole Moment    :     -1.57496      -0.19654      -0.09851
                        -----------------------------------------
Magnitude (a.u.)       :      1.59023
Magnitude (Debye)      :      4.04203

                             ****ORCA TERMINATED NORMALLY****
TOTAL RUN TIME: 0 days 0 hours 0 minutes 7 seconds 595 msec
