                         Program Version 3.0.3 - RELEASE   -
|  1> ! RI PBE def2-SVP def2-SVP/J NBO PAL2
|  2> % maxcore 2000
|  3> % output
|  4>     # printlevel mini
|  5>     print[ P_Basis ] 0
|  6>     print[ P_SCFInfo ] 1
|  7>     print[ P_SCFIterInfo ] 1
|  8>     print[ P_OrbEn ] 0
|  9>     print[ P_Cartesian ] 0
| 10> end
| 11> *xyz 0 1
| 12>  C        0.4149520000    -0.1109330000     1.0534030000
| 13>  C        1.7156090000    -0.3021510000     0.2921020000
| 14>  C        2.6440880000    -1.3159180000     0.9424760000
| 15>  C        3.9490340000    -1.5108620000     0.1883990000
| 16>  C        4.8685790000    -2.5263330000     0.8385350000
| 17>  N        6.1134760000    -2.6611420000     0.1131270000
| 18>  C        6.9934430000    -3.6621740000     0.6713590000
| 19>  H       -0.2323720000     0.6221740000     0.5665190000
| 20>  H        0.6026320000     0.2375110000     2.0730300000
| 21>  H       -0.1418330000    -1.0496870000     1.1249620000
| 22>  H        2.2364650000     0.6584340000     0.2053310000
| 23>  H        1.4976290000    -0.6202790000    -0.7341280000
| 24>  H        2.1230030000    -2.2776570000     1.0301770000
| 25>  H        2.8622330000    -0.9970860000     1.9695630000
| 26>  H        4.4817130000    -0.5574850000     0.1053950000
| 27>  H        3.7282440000    -1.8304600000    -0.8387960000
| 28>  H        4.3353430000    -3.4906270000     0.9432530000
| 29>  H        5.1078320000    -2.2008070000     1.8585840000
| 30>  H        5.9153010000    -2.8798820000    -0.8557190000
| 31>  H        6.5330630000    -4.6601210000     0.7718910000
| 32>  H        7.3164460000    -3.3498440000     1.6687560000
| 33>  H        7.8875990000    -3.7588820000     0.0520820000
| 34> *
| 35>
| 36>                          ****END OF INPUT****
 Total Charge           Charge          ....    0
 Multiplicity           Mult            ....    1
 Number of Electrons    NEL             ....   58
 Basis Dimension        Dim             ....  173

MULLIKEN ATOMIC CHARGES
-----------------------
   0 C :   -0.012522
   1 C :   -0.031314
   2 C :   -0.042096
   3 C :   -0.016490
   4 C :    0.107053
   5 N :   -0.262790
   6 C :    0.069607
   7 H :    0.020761
   8 H :    0.017340
   9 H :    0.017877
  10 H :    0.009975
  11 H :    0.005654
  12 H :    0.005436
  13 H :    0.003091
  14 H :    0.012051
  15 H :   -0.003852
  16 H :   -0.021767
  17 H :   -0.003453
  18 H :    0.098759
  19 H :   -0.008234
  20 H :    0.013793
  21 H :    0.021123
Sum of atomic charges:   -0.0000000

LOEWDIN ATOMIC CHARGES
----------------------
   0 C :   -0.068747
   1 C :   -0.046503
   2 C :   -0.042142
   3 C :   -0.047168
   4 C :    0.010672
   5 N :   -0.106764
   6 C :   -0.007751
   7 H :    0.026387
   8 H :    0.024580
   9 H :    0.024160
  10 H :    0.022847
  11 H :    0.021936
  12 H :    0.020525
  13 H :    0.021658
  14 H :    0.024770
  15 H :    0.018571
  16 H :   -0.005438
  17 H :    0.017535
  18 H :    0.052125
  19 H :   -0.003698
  20 H :    0.020519
  21 H :    0.021925

  Mayer bond orders larger than 0.1
B(  0-C ,  1-C ) :   1.1211 B(  0-C ,  7-H ) :   0.9604 B(  0-C ,  8-H ) :   0.9622
B(  0-C ,  9-H ) :   0.9649 B(  1-C ,  2-C ) :   1.1009 B(  1-C , 10-H ) :   0.9373
B(  1-C , 11-H ) :   0.9330 B(  2-C ,  3-C ) :   1.0924 B(  2-C , 12-H ) :   0.9350
B(  2-C , 13-H ) :   0.9306 B(  3-C ,  4-C ) :   1.0912 B(  3-C , 14-H ) :   0.9291
B(  3-C , 15-H ) :   0.9256 B(  4-C ,  5-N ) :   1.0538 B(  4-C , 16-H ) :   0.9155
B(  4-C , 17-H ) :   0.9226 B(  5-N ,  6-C ) :   1.0701 B(  5-N , 18-H ) :   0.9433
B(  6-C , 19-H ) :   0.9438 B(  6-C , 20-H ) :   0.9670 B(  6-C , 21-H ) :   0.9722

FINAL SINGLE POINT ENERGY      -291.788082035797

DIPOLE MOMENT
-------------
                                X             Y             Z
Electronic contribution:      2.84027      -0.29864      -1.17743
Nuclear contribution   :     -2.98712       0.05587       1.05140
                        -----------------------------------------
Total Dipole Moment    :     -0.14685      -0.24278      -0.12603
                        -----------------------------------------
Magnitude (a.u.)       :      0.31046
Magnitude (Debye)      :      0.78913

                             ****ORCA TERMINATED NORMALLY****
TOTAL RUN TIME: 0 days 0 hours 0 minutes 8 seconds 473 msec
