                         Program Version 3.0.3 - RELEASE   -
|  1> ! RI PBE def2-SVP def2-SVP/J NBO PAL2
|  2> % maxcore 2000
|  3> % output
|  4>     # printlevel mini
|  5>     print[ P_Basis ] 0
|  6>     print[ P_SCFInfo ] 1
|  7>     print[ P_SCFIterInfo ] 1
|  8>     print[ P_OrbEn ] 0
|  9>     print[ P_Cartesian ] 0
| 10> end
| 11> *xyz 0 1
| 12>  C        3.1085570000    -1.8510020000    -0.3968670000
| 13>  C        3.0505250000    -0.5349890000     0.3712840000
| 14>  C        3.1665810000     0.6564700000    -0.5205570000
| 15>  C        4.1040120000     1.5930720000    -0.4370030000
| 16>  C        4.2032250000     2.7751490000    -1.3414100000
| 17>  N        5.4971190000     2.8251650000    -1.9944660000
| 18>  C        5.6448720000     3.9583370000    -2.8789890000
| 19>  H        2.9844340000    -2.7050180000     0.2729490000
| 20>  H        4.0657850000    -1.9599080000    -0.9121260000
| 21>  H        2.3185530000    -1.9016870000    -1.1511350000
| 22>  H        3.8422060000    -0.5043030000     1.1258960000
| 23>  H        2.0991400000    -0.4850960000     0.9155880000
| 24>  H        2.4120940000     0.7438530000    -1.3038010000
| 25>  H        4.8760820000     1.5169670000     0.3271380000
| 26>  H        4.1023570000     3.6966210000    -0.7520120000
| 27>  H        3.3588140000     2.7685000000    -2.0539900000
| 28>  H        5.6445770000     1.9620870000    -2.5029210000
| 29>  H        5.6218770000     4.8830770000    -2.2950180000
| 30>  H        4.8583400000     4.0345760000    -3.6490730000
| 31>  H        6.6124510000     3.9114310000    -3.3825870000
| 32> *
| 33>
| 34>                          ****END OF INPUT****
 Total Charge           Charge          ....    0
 Multiplicity           Mult            ....    1
 Number of Electrons    NEL             ....   56
 Basis Dimension        Dim             ....  163

MULLIKEN ATOMIC CHARGES
-----------------------
   0 C :   -0.039441
   1 C :    0.027456
   2 C :   -0.069789
   3 C :   -0.093045
   4 C :    0.179456
   5 N :   -0.284820
   6 C :    0.073986
   7 H :    0.022425
   8 H :    0.023232
   9 H :    0.023245
  10 H :    0.014753
  11 H :    0.022775
  12 H :   -0.009323
  13 H :   -0.001809
  14 H :    0.007825
  15 H :   -0.021218
  16 H :    0.096726
  17 H :    0.014135
  18 H :   -0.006034
  19 H :    0.019464
Sum of atomic charges:    0.0000000

LOEWDIN ATOMIC CHARGES
----------------------
   0 C :   -0.063817
   1 C :   -0.046926
   2 C :   -0.039238
   3 C :   -0.050970
   4 C :    0.011218
   5 N :   -0.106866
   6 C :   -0.007183
   7 H :    0.026900
   8 H :    0.025726
   9 H :    0.024981
  10 H :    0.028999
  11 H :    0.033804
  12 H :    0.019650
  13 H :    0.024062
  14 H :    0.026841
  15 H :   -0.000362
  16 H :    0.052844
  17 H :    0.020397
  18 H :   -0.002613
  19 H :    0.022554

  Mayer bond orders larger than 0.1
B(  0-C ,  1-C ) :   1.0954 B(  0-C ,  7-H ) :   0.9608 B(  0-C ,  8-H ) :   0.9691
B(  0-C ,  9-H ) :   0.9698 B(  1-C ,  2-C ) :   1.0594 B(  1-C , 10-H ) :   0.9374
B(  1-C , 11-H ) :   0.9181 B(  2-C ,  3-C ) :   1.9018 B(  2-C , 12-H ) :   0.9489
B(  3-C ,  4-C ) :   1.0543 B(  3-C , 13-H ) :   0.9580 B(  4-C ,  5-N ) :   1.0130
B(  4-C , 14-H ) :   0.9090 B(  4-C , 15-H ) :   0.9122 B(  5-N ,  6-C ) :   1.0645
B(  5-N , 16-H ) :   0.9494 B(  6-C , 17-H ) :   0.9680 B(  6-C , 18-H ) :   0.9440
B(  6-C , 19-H ) :   0.9725

FINAL SINGLE POINT ENERGY      -290.568920486971

DIPOLE MOMENT
-------------
                                X             Y             Z
Electronic contribution:      0.67642       1.44539       1.16415
Nuclear contribution   :     -0.85582      -1.60668      -1.39098
                        -----------------------------------------
Total Dipole Moment    :     -0.17940      -0.16129      -0.22683
                        -----------------------------------------
Magnitude (a.u.)       :      0.33114
Magnitude (Debye)      :      0.84168

                             ****ORCA TERMINATED NORMALLY****
TOTAL RUN TIME: 0 days 0 hours 0 minutes 8 seconds 208 msec
