                         Program Version 3.0.3 - RELEASE   -
|  1> ! RI PBE def2-SVP def2-SVP/J NBO PAL2
|  2> % maxcore 2000
|  3> % output
|  4>     # printlevel mini
|  5>     print[ P_Basis ] 0
|  6>     print[ P_SCFInfo ] 1
|  7>     print[ P_SCFIterInfo ] 1
|  8>     print[ P_OrbEn ] 0
|  9>     print[ P_Cartesian ] 0
| 10> end
| 11> *xyz 0 1
| 12>  C        2.2649730000    -1.5000690000    -0.3654690000
| 13>  C        2.0964780000    -0.0153470000    -0.0551050000
| 14>  C        2.7453250000     0.8929630000    -1.0600610000
| 15>  C        2.0410530000     1.7475150000    -1.7952310000
| 16>  C        4.2386260000     0.7726280000    -1.1767330000
| 17>  N        4.8566430000     1.8363280000    -1.9284710000
| 18>  C        6.2918050000     1.7004290000    -2.0242110000
| 19>  H        1.7410250000    -2.1107630000     0.3732780000
| 20>  H        3.3147480000    -1.8020290000    -0.3533940000
| 21>  H        1.8590810000    -1.7395100000    -1.3513500000
| 22>  H        2.5191160000     0.1888560000     0.9369700000
| 23>  H        1.0320160000     0.2265400000     0.0027500000
| 24>  H        0.9642940000     1.8196660000    -1.6855320000
| 25>  H        2.5163010000     2.3804690000    -2.5348270000
| 26>  H        4.4822640000    -0.1753800000    -1.6750480000
| 27>  H        4.6567390000     0.6752950000    -0.1545520000
| 28>  H        4.6159260000     2.7258640000    -1.5085710000
| 29>  H        6.5379150000     0.8125890000    -2.6138420000
| 30>  H        6.8003040000     1.6014140000    -1.0499600000
| 31>  H        6.7111760000     2.5652220000    -2.5418490000
| 32> *
| 33>
| 34>                          ****END OF INPUT****
 Total Charge           Charge          ....    0
 Multiplicity           Mult            ....    1
 Number of Electrons    NEL             ....   56
 Basis Dimension        Dim             ....  163

MULLIKEN ATOMIC CHARGES
-----------------------
   0 C :   -0.033274
   1 C :    0.041171
   2 C :   -0.210034
   3 C :   -0.033456
   4 C :    0.193779
   5 N :   -0.266791
   6 C :    0.068646
   7 H :    0.023708
   8 H :    0.024326
   9 H :    0.025027
  10 H :    0.016022
  11 H :    0.000593
  12 H :    0.005700
  13 H :    0.008805
  14 H :    0.017032
  15 H :   -0.018784
  16 H :    0.103041
  17 H :    0.019757
  18 H :   -0.007388
  19 H :    0.022121
Sum of atomic charges:   -0.0000000

LOEWDIN ATOMIC CHARGES
----------------------
   0 C :   -0.062366
   1 C :   -0.037233
   2 C :   -0.038290
   3 C :   -0.080574
   4 C :    0.014838
   5 N :   -0.095235
   6 C :   -0.005734
   7 H :    0.028459
   8 H :    0.022722
   9 H :    0.027933
  10 H :    0.029190
  11 H :    0.027758
  12 H :    0.018813
  13 H :    0.017875
  14 H :    0.031063
  15 H :    0.003310
  16 H :    0.055186
  17 H :    0.021427
  18 H :   -0.002502
  19 H :    0.023361

  Mayer bond orders larger than 0.1
B(  0-C ,  1-C ) :   1.1040 B(  0-C ,  7-H ) :   0.9590 B(  0-C ,  8-H ) :   0.9664
B(  0-C ,  9-H ) :   0.9661 B(  1-C ,  2-C ) :   1.0684 B(  1-C , 10-H ) :   0.9157
B(  1-C , 11-H ) :   0.9213 B(  2-C ,  3-C ) :   2.0030 B(  2-C ,  4-C ) :   1.0037
B(  3-C , 12-H ) :   0.9267 B(  3-C , 13-H ) :   0.9195 B(  4-C ,  5-N ) :   1.0643
B(  4-C , 14-H ) :   0.9019 B(  4-C , 15-H ) :   0.8985 B(  5-N ,  6-C ) :   1.0672
B(  5-N , 16-H ) :   0.9350 B(  6-C , 17-H ) :   0.9687 B(  6-C , 18-H ) :   0.9430
B(  6-C , 19-H ) :   0.9729

FINAL SINGLE POINT ENERGY      -290.568202106566

DIPOLE MOMENT
-------------
                                X             Y             Z
Electronic contribution:     -1.21507       2.59045      -0.98848
Nuclear contribution   :      1.45534      -2.63532       1.35839
                        -----------------------------------------
Total Dipole Moment    :      0.24027      -0.04487       0.36991
                        -----------------------------------------
Magnitude (a.u.)       :      0.44338
Magnitude (Debye)      :      1.12697

                             ****ORCA TERMINATED NORMALLY****
TOTAL RUN TIME: 0 days 0 hours 0 minutes 8 seconds 557 msec
