                         Program Version 3.0.3 - RELEASE   -
|  1> ! RI PBE def2-SVP def2-SVP/J NBO PAL2
|  2> % maxcore 2000
|  3> % output
|  4>     # printlevel mini
|  5>     print[ P_Basis ] 0
|  6>     print[ P_SCFInfo ] 1
|  7>     print[ P_SCFIterInfo ] 1
|  8>     print[ P_OrbEn ] 0
|  9>     print[ P_Cartesian ] 0
| 10> end
| 11> *xyz 0 1
| 12>  C        1.2860350000    -0.6170960000    -0.1066950000
| 13>  C        2.5907230000     0.0313660000     0.3266830000
| 14>  C        3.0119150000     1.2311140000    -0.5196420000
| 15>  C        2.0939140000     2.4292420000    -0.3228540000
| 16>  C        4.4553930000     1.6288080000    -0.2312470000
| 17>  N        5.3986700000     0.5948670000    -0.6003150000
| 18>  C        6.7700570000     0.9433210000    -0.3066330000
| 19>  H        1.0566860000    -1.4883390000     0.5113850000
| 20>  H        1.3435400000    -0.9571520000    -1.1451380000
| 21>  H        0.4374320000     0.0672110000    -0.0304960000
| 22>  H        3.3964920000    -0.7066950000     0.2925860000
| 23>  H        2.5132780000     0.3552770000     1.3726560000
| 24>  H        2.9589410000     0.9328810000    -1.5780830000
| 25>  H        2.1302130000     2.7757110000     0.7152220000
| 26>  H        1.0552070000     2.1867380000    -0.5544770000
| 27>  H        2.3878810000     3.2656280000    -0.9623990000
| 28>  H        4.5657690000     1.8154040000     0.8453470000
| 29>  H        4.6734970000     2.5904740000    -0.7320050000
| 30>  H        5.3013400000     0.3919630000    -1.5879910000
| 31>  H        6.9046570000     1.0181500000     0.7762390000
| 32>  H        7.0939910000     1.9021490000    -0.7463650000
| 33>  H        7.4383790000     0.1588870000    -0.6676770000
| 34> *
| 35>
| 36>                          ****END OF INPUT****
 Total Charge           Charge          ....    0
 Multiplicity           Mult            ....    1
 Number of Electrons    NEL             ....   58
 Basis Dimension        Dim             ....  173

MULLIKEN ATOMIC CHARGES
-----------------------
   0 C :   -0.001999
   1 C :   -0.012458
   2 C :   -0.143653
   3 C :    0.025512
   4 C :    0.132845
   5 N :   -0.258934
   6 C :    0.071487
   7 H :    0.017952
   8 H :    0.011412
   9 H :    0.014112
  10 H :    0.015371
  11 H :   -0.003708
  12 H :   -0.008252
  13 H :    0.012133
  14 H :    0.017104
  15 H :    0.012927
  16 H :   -0.007420
  17 H :   -0.023566
  18 H :    0.098717
  19 H :    0.019547
  20 H :   -0.010545
  21 H :    0.021416
Sum of atomic charges:   -0.0000000

LOEWDIN ATOMIC CHARGES
----------------------
   0 C :   -0.068456
   1 C :   -0.043110
   2 C :   -0.050552
   3 C :   -0.058021
   4 C :    0.014894
   5 N :   -0.098895
   6 C :   -0.006860
   7 H :    0.027103
   8 H :    0.023408
   9 H :    0.020327
  10 H :    0.022166
  11 H :    0.020115
  12 H :    0.017853
  13 H :    0.024357
  14 H :    0.024526
  15 H :    0.023776
  16 H :    0.018009
  17 H :   -0.004249
  18 H :    0.052966
  19 H :    0.021692
  20 H :   -0.003382
  21 H :    0.022331

  Mayer bond orders larger than 0.1
B(  0-C ,  1-C ) :   1.1209 B(  0-C ,  7-H ) :   0.9579 B(  0-C ,  8-H ) :   0.9606
B(  0-C ,  9-H ) :   0.9609 B(  1-C ,  2-C ) :   1.0562 B(  1-C , 10-H ) :   0.9262
B(  1-C , 11-H ) :   0.9300 B(  2-C ,  3-C ) :   1.0794 B(  2-C ,  4-C ) :   1.0523
B(  2-C , 12-H ) :   0.9091 B(  3-C , 13-H ) :   0.9606 B(  3-C , 14-H ) :   0.9572
B(  3-C , 15-H ) :   0.9537 B(  4-C ,  5-N ) :   1.0515 B(  4-C , 16-H ) :   0.9188
B(  4-C , 17-H ) :   0.9163 B(  5-N ,  6-C ) :   1.0708 B(  5-N , 18-H ) :   0.9443
B(  6-C , 19-H ) :   0.9681 B(  6-C , 20-H ) :   0.9415 B(  6-C , 21-H ) :   0.9720

FINAL SINGLE POINT ENERGY      -291.788750735772

DIPOLE MOMENT
-------------
                                X             Y             Z
Electronic contribution:      1.90238      -0.64958      -0.58659
Nuclear contribution   :     -1.76180       0.82557       0.31974
                        -----------------------------------------
Total Dipole Moment    :      0.14058       0.17599      -0.26685
                        -----------------------------------------
Magnitude (a.u.)       :      0.34920
Magnitude (Debye)      :      0.88760

                             ****ORCA TERMINATED NORMALLY****
TOTAL RUN TIME: 0 days 0 hours 0 minutes 9 seconds 151 msec
