                         Program Version 3.0.3 - RELEASE   -
|  1> ! RI PBE def2-SVP def2-SVP/J NBO PAL2
|  2> % maxcore 2000
|  3> % output
|  4>     # printlevel mini
|  5>     print[ P_Basis ] 0
|  6>     print[ P_SCFInfo ] 1
|  7>     print[ P_SCFIterInfo ] 1
|  8>     print[ P_OrbEn ] 0
|  9>     print[ P_Cartesian ] 0
| 10> end
| 11> *xyz 0 1
| 12>  C       -0.0686800000     0.3153440000    -0.2691160000
| 13>  C        1.4323640000     0.4063360000    -0.0523760000
| 14>  C        1.9920190000     1.7680200000     0.3854180000
| 15>  C        1.3346940000     2.2214980000     1.6924160000
| 16>  C        1.7567640000     2.8120810000    -0.7005900000
| 17>  N        3.4364660000     1.5513040000     0.5268330000
| 18>  C        4.2569260000     2.6714210000     0.9326990000
| 19>  H       -0.3421730000    -0.6927040000    -0.5892630000
| 20>  H       -0.4142680000     1.0032650000    -1.0442570000
| 21>  H       -0.6311740000     0.5285860000     0.6426610000
| 22>  H        1.9600410000     0.1209970000    -0.9676150000
| 23>  H        1.7231280000    -0.3308410000     0.7076090000
| 24>  H        1.4576720000     1.4620020000     2.4708840000
| 25>  H        0.2653400000     2.4028600000     1.5644140000
| 26>  H        1.7769170000     3.1520990000     2.0548310000
| 27>  H        0.6904820000     2.9321340000    -0.8985420000
| 28>  H        2.2545970000     2.5154130000    -1.6267170000
| 29>  H        2.1402890000     3.7905780000    -0.4033490000
| 30>  H        3.5839330000     0.7760400000     1.1616520000
| 31>  H        4.2822840000     3.4298630000     0.1473290000
| 32>  H        5.2821250000     2.3201100000     1.0669730000
| 33>  H        3.9511520000     3.1669950000     1.8674030000
| 34> *
| 35>
| 36>                          ****END OF INPUT****
 Total Charge           Charge          ....    0
 Multiplicity           Mult            ....    1
 Number of Electrons    NEL             ....   58
 Basis Dimension        Dim             ....  173

MULLIKEN ATOMIC CHARGES
-----------------------
   0 C :   -0.009226
   1 C :    0.014980
   2 C :   -0.240787
   3 C :    0.063243
   4 C :    0.074014
   5 N :   -0.212157
   6 C :    0.061220
   7 H :    0.015599
   8 H :    0.021365
   9 H :    0.020424
  10 H :    0.008079
  11 H :   -0.004039
  12 H :    0.005277
  13 H :    0.011479
  14 H :    0.009313
  15 H :    0.008793
  16 H :    0.014451
  17 H :    0.009110
  18 H :    0.090117
  19 H :    0.027363
  20 H :    0.016312
  21 H :   -0.004930
Sum of atomic charges:    0.0000000

LOEWDIN ATOMIC CHARGES
----------------------
   0 C :   -0.067810
   1 C :   -0.040153
   2 C :   -0.020879
   3 C :   -0.067552
   4 C :   -0.052437
   5 N :   -0.091275
   6 C :   -0.010147
   7 H :    0.029337
   8 H :    0.024086
   9 H :    0.023734
  10 H :    0.024265
  11 H :    0.018290
  12 H :    0.021311
  13 H :    0.023763
  14 H :    0.022342
  15 H :    0.024291
  16 H :    0.027242
  17 H :    0.022179
  18 H :    0.048516
  19 H :    0.020651
  20 H :    0.024145
  21 H :   -0.003902

  Mayer bond orders larger than 0.1
B(  0-C ,  1-C ) :   1.1160 B(  0-C ,  7-H ) :   0.9530 B(  0-C ,  8-H ) :   0.9614
B(  0-C ,  9-H ) :   0.9570 B(  1-C ,  2-C ) :   1.0330 B(  1-C , 10-H ) :   0.9277
B(  1-C , 11-H ) :   0.9256 B(  2-C ,  3-C ) :   1.0404 B(  2-C ,  4-C ) :   1.0488
B(  2-C ,  5-N ) :   1.0318 B(  3-C , 12-H ) :   0.9517 B(  3-C , 13-H ) :   0.9441
B(  3-C , 14-H ) :   0.9451 B(  4-C , 15-H ) :   0.9517 B(  4-C , 16-H ) :   0.9527
B(  4-C , 17-H ) :   0.9490 B(  5-N ,  6-C ) :   1.0684 B(  5-N , 18-H ) :   0.9385
B(  6-C , 19-H ) :   0.9656 B(  6-C , 20-H ) :   0.9690 B(  6-C , 21-H ) :   0.9379

FINAL SINGLE POINT ENERGY      -291.787468049572

DIPOLE MOMENT
-------------
                                X             Y             Z
Electronic contribution:      2.16870      -1.15892      -0.28774
Nuclear contribution   :     -2.23741       1.15750       0.56413
                        -----------------------------------------
Total Dipole Moment    :     -0.06871      -0.00142       0.27639
                        -----------------------------------------
Magnitude (a.u.)       :      0.28480
Magnitude (Debye)      :      0.72391

                             ****ORCA TERMINATED NORMALLY****
TOTAL RUN TIME: 0 days 0 hours 0 minutes 9 seconds 854 msec
