                         Program Version 3.0.3 - RELEASE   -
|  1> ! RI PBE def2-SVP def2-SVP/J NBO PAL2
|  2> % maxcore 2000
|  3> % output
|  4>     # printlevel mini
|  5>     print[ P_Basis ] 0
|  6>     print[ P_SCFInfo ] 1
|  7>     print[ P_SCFIterInfo ] 1
|  8>     print[ P_OrbEn ] 0
|  9>     print[ P_Cartesian ] 0
| 10> end
| 11> *xyz 0 1
| 12>  C        1.5165000000     1.4471140000     0.2308510000
| 13>  C        1.5008160000    -0.0137990000     0.6515580000
| 14>  C        2.0764010000    -0.9738830000    -0.3852720000
| 15>  C        2.2850940000    -2.3577460000     0.2279180000
| 16>  C        2.8583050000    -3.3855220000    -0.7304160000
| 17>  N        1.2153480000    -1.0429650000    -1.5646110000
| 18>  C        1.8801780000    -0.8438240000    -2.8338540000
| 19>  H        1.0735180000     2.0846030000     0.9992930000
| 20>  H        0.9553560000     1.6165890000    -0.6924590000
| 21>  H        2.5389990000     1.7942770000     0.0593650000
| 22>  H        0.4747920000    -0.3305210000     0.8794240000
| 23>  H        2.0637460000    -0.1282250000     1.5829770000
| 24>  H        3.0638750000    -0.5844140000    -0.6869890000
| 25>  H        2.9442620000    -2.2555850000     1.0979590000
| 26>  H        1.3177610000    -2.7103880000     0.6040270000
| 27>  H        2.1907700000    -3.5332460000    -1.5818000000
| 28>  H        3.8354900000    -3.0739880000    -1.1124970000
| 29>  H        2.9905880000    -4.3519520000    -0.2382850000
| 30>  H        0.4562550000    -0.3829800000    -1.4746180000
| 31>  H        2.5830390000    -1.6580140000    -3.0243940000
| 32>  H        2.4449230000     0.1010630000    -2.9003390000
| 33>  H        1.1422840000    -0.8571830000    -3.6394470000
| 34> *
| 35>
| 36>                          ****END OF INPUT****
 Total Charge           Charge          ....    0
 Multiplicity           Mult            ....    1
 Number of Electrons    NEL             ....   58
 Basis Dimension        Dim             ....  173

MULLIKEN ATOMIC CHARGES
-----------------------
   0 C :    0.004165
   1 C :   -0.031383
   2 C :   -0.055751
   3 C :    0.035457
   4 C :   -0.004686
   5 N :   -0.218157
   6 C :    0.060599
   7 H :    0.024222
   8 H :    0.004283
   9 H :    0.019149
  10 H :    0.008976
  11 H :    0.007548
  12 H :   -0.016938
  13 H :   -0.002201
  14 H :   -0.005116
  15 H :    0.030382
  16 H :    0.005629
  17 H :    0.012039
  18 H :    0.088219
  19 H :    0.019555
  20 H :   -0.004766
  21 H :    0.018777
Sum of atomic charges:   -0.0000000

LOEWDIN ATOMIC CHARGES
----------------------
   0 C :   -0.068700
   1 C :   -0.049859
   2 C :    0.008003
   3 C :   -0.046960
   4 C :   -0.068424
   5 N :   -0.094271
   6 C :   -0.006946
   7 H :    0.028996
   8 H :    0.018088
   9 H :    0.026135
  10 H :    0.022907
  11 H :    0.027770
  12 H :    0.007276
  13 H :    0.018907
  14 H :    0.021484
  15 H :    0.026410
  16 H :    0.020207
  17 H :    0.025120
  18 H :    0.047203
  19 H :    0.017923
  20 H :   -0.003852
  21 H :    0.022584

  Mayer bond orders larger than 0.1
B(  0-C ,  1-C ) :   1.1155 B(  0-C ,  7-H ) :   0.9578 B(  0-C ,  8-H ) :   0.9569
B(  0-C ,  9-H ) :   0.9622 B(  1-C ,  2-C ) :   1.0707 B(  1-C , 10-H ) :   0.9252
B(  1-C , 11-H ) :   0.9261 B(  2-C ,  3-C ) :   1.0498 B(  2-C ,  5-N ) :   1.0705
B(  2-C , 12-H ) :   0.8983 B(  3-C ,  4-C ) :   1.1264 B(  3-C , 13-H ) :   0.9277
B(  3-C , 14-H ) :   0.9200 B(  4-C , 15-H ) :   0.9551 B(  4-C , 16-H ) :   0.9577
B(  4-C , 17-H ) :   0.9561 B(  5-N ,  6-C ) :   1.0643 B(  5-N , 18-H ) :   0.9554
B(  6-C , 19-H ) :   0.9636 B(  6-C , 20-H ) :   0.9452 B(  6-C , 21-H ) :   0.9697

FINAL SINGLE POINT ENERGY      -291.786655859230

DIPOLE MOMENT
-------------
                                X             Y             Z
Electronic contribution:     -1.39248      -0.49213       0.33726
Nuclear contribution   :      1.38909       0.87933      -0.29677
                        -----------------------------------------
Total Dipole Moment    :     -0.00339       0.38720       0.04050
                        -----------------------------------------
Magnitude (a.u.)       :      0.38933
Magnitude (Debye)      :      0.98960

                             ****ORCA TERMINATED NORMALLY****
TOTAL RUN TIME: 0 days 0 hours 0 minutes 9 seconds 596 msec
