                         Program Version 3.0.3 - RELEASE   -
|  1> ! RI PBE def2-SVP def2-SVP/J NBO PAL2
|  2> % maxcore 2000
|  3> % output
|  4>     # printlevel mini
|  5>     print[ P_Basis ] 0
|  6>     print[ P_SCFInfo ] 1
|  7>     print[ P_SCFIterInfo ] 1
|  8>     print[ P_OrbEn ] 0
|  9>     print[ P_Cartesian ] 0
| 10> end
| 11> *xyz 0 1
| 12>  C        0.9965150000    -0.2030490000    -0.3553180000
| 13>  C        2.3668050000     0.2298430000     0.1599070000
| 14>  C        2.9365850000    -0.7004880000     1.1225140000
| 15>  C        3.3831060000    -1.4885680000     1.9139700000
| 16>  C        3.9495940000    -2.4231130000     2.8746940000
| 17>  N        4.9012680000    -3.3314300000     2.2598570000
| 18>  C        5.5864200000    -4.1498650000     3.2340500000
| 19>  H        0.6118280000     0.5230320000    -1.0747950000
| 20>  H        0.2818410000    -0.2852240000     0.4653400000
| 21>  H        1.0569530000    -1.1758220000    -0.8460610000
| 22>  H        2.2945140000     1.2209480000     0.6208710000
| 23>  H        3.0610690000     0.3379180000    -0.6804860000
| 24>  H        3.1436160000    -3.0214030000     3.3175020000
| 25>  H        4.3930610000    -1.8473420000     3.7084940000
| 26>  H        5.5651710000    -2.7961260000     1.7152130000
| 27>  H        4.8700440000    -4.8203340000     3.7179270000
| 28>  H        6.0917470000    -3.5757020000     4.0294670000
| 29>  H        6.3308550000    -4.7710680000     2.7331660000
| 30> *
| 31>
| 32>                          ****END OF INPUT****
 Total Charge           Charge          ....    0
 Multiplicity           Mult            ....    1
 Number of Electrons    NEL             ....   54
 Basis Dimension        Dim             ....  153

MULLIKEN ATOMIC CHARGES
-----------------------
   0 C :   -0.046195
   1 C :    0.024804
   2 C :   -0.161790
   3 C :   -0.139384
   4 C :    0.193012
   5 N :   -0.280222
   6 C :    0.077581
   7 H :    0.025570
   8 H :    0.037761
   9 H :    0.038098
  10 H :    0.034025
  11 H :    0.038320
  12 H :    0.018342
  13 H :    0.003294
  14 H :    0.105828
  15 H :    0.015572
  16 H :   -0.008972
  17 H :    0.024356
Sum of atomic charges:   -0.0000000

LOEWDIN ATOMIC CHARGES
----------------------
   0 C :   -0.057330
   1 C :   -0.052727
   2 C :   -0.055403
   3 C :   -0.072600
   4 C :    0.007033
   5 N :   -0.101443
   6 C :   -0.006690
   7 H :    0.027339
   8 H :    0.031118
   9 H :    0.031810
  10 H :    0.046180
  11 H :    0.047958
  12 H :    0.038940
  13 H :    0.016281
  14 H :    0.056541
  15 H :    0.021510
  16 H :   -0.003071
  17 H :    0.024555

  Mayer bond orders larger than 0.1
B(  0-C ,  1-C ) :   1.1079 B(  0-C ,  7-H ) :   0.9599 B(  0-C ,  8-H ) :   0.9693
B(  0-C ,  9-H ) :   0.9689 B(  1-C ,  2-C ) :   1.0943 B(  1-C , 10-H ) :   0.9031
B(  1-C , 11-H ) :   0.9008 B(  2-C ,  3-C ) :   2.6034 B(  3-C ,  4-C ) :   1.0479
B(  4-C ,  5-N ) :   1.0306 B(  4-C , 12-H ) :   0.8826 B(  4-C , 13-H ) :   0.8929
B(  5-N ,  6-C ) :   1.0660 B(  5-N , 14-H ) :   0.9460 B(  6-C , 15-H ) :   0.9660
B(  6-C , 16-H ) :   0.9426 B(  6-C , 17-H ) :   0.9735

FINAL SINGLE POINT ENERGY      -289.328678827390

DIPOLE MOMENT
-------------
                                X             Y             Z
Electronic contribution:      0.64331       0.97464       0.09548
Nuclear contribution   :     -0.46911      -0.70601      -0.06006
                        -----------------------------------------
Total Dipole Moment    :      0.17420       0.26863       0.03542
                        -----------------------------------------
Magnitude (a.u.)       :      0.32212
Magnitude (Debye)      :      0.81877

                             ****ORCA TERMINATED NORMALLY****
TOTAL RUN TIME: 0 days 0 hours 0 minutes 7 seconds 331 msec
