                         Program Version 3.0.3 - RELEASE   -
|  1> ! RI PBE def2-SVP def2-SVP/J NBO PAL2
|  2> % maxcore 2000
|  3> % output
|  4>     # printlevel mini
|  5>     print[ P_Basis ] 0
|  6>     print[ P_SCFInfo ] 1
|  7>     print[ P_SCFIterInfo ] 1
|  8>     print[ P_OrbEn ] 0
|  9>     print[ P_Cartesian ] 0
| 10> end
| 11> *xyz 0 1
| 12>  C        0.9169720000     1.0094640000     2.1926770000
| 13>  C        2.4181250000     1.2325690000     2.1110630000
| 14>  C        3.1478700000     0.0378450000     1.5135280000
| 15>  C        4.6728260000     0.1251700000     1.5036780000
| 16>  C        5.1782830000     1.3285120000     0.7214680000
| 17>  N        5.1660080000     0.1539510000     2.8731790000
| 18>  C        6.5936590000    -0.0365990000     3.0060510000
| 19>  H        0.4049900000     1.8785570000     2.6124540000
| 20>  H        0.6784410000     0.1482350000     2.8237650000
| 21>  H        0.4890130000     0.8187460000     1.2039010000
| 22>  H        2.8217590000     1.4413880000     3.1058250000
| 23>  H        2.6168860000     2.1245640000     1.5085500000
| 24>  H        2.8058410000    -0.1216500000     0.4844220000
| 25>  H        2.8595030000    -0.8676400000     2.0651840000
| 26>  H        5.0409980000    -0.7801510000     0.9825420000
| 27>  H        4.9270490000     2.2589410000     1.2349580000
| 28>  H        4.7319690000     1.3477630000    -0.2758700000
| 29>  H        6.2619570000     1.2967450000     0.5931650000
| 30>  H        4.6853510000    -0.5633840000     3.4021180000
| 31>  H        7.1328360000     0.8467400000     2.6569600000
| 32>  H        6.9798400000    -0.9062060000     2.4462500000
| 33>  H        6.8456250000    -0.1711670000     4.0597310000
| 34> *
| 35>
| 36>                          ****END OF INPUT****
 Total Charge           Charge          ....    0
 Multiplicity           Mult            ....    1
 Number of Electrons    NEL             ....   58
 Basis Dimension        Dim             ....  173

MULLIKEN ATOMIC CHARGES
-----------------------
   0 C :   -0.005942
   1 C :   -0.040945
   2 C :   -0.003900
   3 C :   -0.013082
   4 C :    0.013197
   5 N :   -0.235478
   6 C :    0.064825
   7 H :    0.017910
   8 H :    0.013516
   9 H :    0.012985
  10 H :    0.011198
  11 H :    0.010504
  12 H :    0.001295
  13 H :   -0.006756
  14 H :   -0.023444
  15 H :    0.023631
  16 H :    0.010912
  17 H :    0.020628
  18 H :    0.096353
  19 H :    0.025752
  20 H :   -0.010616
  21 H :    0.017458
Sum of atomic charges:   -0.0000000

LOEWDIN ATOMIC CHARGES
----------------------
   0 C :   -0.066495
   1 C :   -0.048248
   2 C :   -0.042246
   3 C :    0.003992
   4 C :   -0.066325
   5 N :   -0.098596
   6 C :   -0.007229
   7 H :    0.025850
   8 H :    0.022214
   9 H :    0.022483
  10 H :    0.021970
  11 H :    0.022965
  12 H :    0.023793
  13 H :    0.017293
  14 H :   -0.001591
  15 H :    0.026035
  16 H :    0.027541
  17 H :    0.024565
  18 H :    0.052019
  19 H :    0.019867
  20 H :   -0.002884
  21 H :    0.023029

  Mayer bond orders larger than 0.1
B(  0-C ,  1-C ) :   1.1173 B(  0-C ,  7-H ) :   0.9614 B(  0-C ,  8-H ) :   0.9656
B(  0-C ,  9-H ) :   0.9633 B(  1-C ,  2-C ) :   1.0868 B(  1-C , 10-H ) :   0.9325
B(  1-C , 11-H ) :   0.9338 B(  2-C ,  3-C ) :   1.0681 B(  2-C , 12-H ) :   0.9255
B(  2-C , 13-H ) :   0.9290 B(  3-C ,  4-C ) :   1.0766 B(  3-C ,  5-N ) :   1.0364
B(  3-C , 14-H ) :   0.8985 B(  4-C , 15-H ) :   0.9508 B(  4-C , 16-H ) :   0.9558
B(  4-C , 17-H ) :   0.9540 B(  5-N ,  6-C ) :   1.0693 B(  5-N , 18-H ) :   0.9371
B(  6-C , 19-H ) :   0.9674 B(  6-C , 20-H ) :   0.9394 B(  6-C , 21-H ) :   0.9711

FINAL SINGLE POINT ENERGY      -291.788648637302

DIPOLE MOMENT
-------------
                                X             Y             Z
Electronic contribution:      1.11253      -0.80305       0.96448
Nuclear contribution   :     -1.04688       0.50643      -0.98131
                        -----------------------------------------
Total Dipole Moment    :      0.06564      -0.29663      -0.01683
                        -----------------------------------------
Magnitude (a.u.)       :      0.30427
Magnitude (Debye)      :      0.77340

                             ****ORCA TERMINATED NORMALLY****
TOTAL RUN TIME: 0 days 0 hours 0 minutes 9 seconds 870 msec
