                         Program Version 3.0.3 - RELEASE   -
|  1> ! RI PBE def2-SVP def2-SVP/J NBO PAL2
|  2> % maxcore 2000
|  3> % output
|  4>     # printlevel mini
|  5>     print[ P_Basis ] 0
|  6>     print[ P_SCFInfo ] 1
|  7>     print[ P_SCFIterInfo ] 1
|  8>     print[ P_OrbEn ] 0
|  9>     print[ P_Cartesian ] 0
| 10> end
| 11> *xyz 0 1
| 12>  C        1.0256120000    -0.3134200000    -0.1331820000
| 13>  C        2.4930680000    -0.0703900000    -0.1254840000
| 14>  C        3.1693470000     0.9563680000    -0.6638220000
| 15>  C        2.5565470000     2.1017270000    -1.4033460000
| 16>  C        4.6171560000     0.9676820000    -0.5231120000
| 17>  N        5.3333470000     1.9028700000    -1.0087810000
| 18>  N        6.6691110000     1.8753480000    -0.7731700000
| 19>  H        0.6383910000    -0.3774690000     0.8895030000
| 20>  H        0.7941810000    -1.2721890000    -0.6097860000
| 21>  H        0.4659560000     0.4623490000    -0.6543430000
| 22>  H        3.0834080000    -0.8291460000     0.3865840000
| 23>  H        1.4726630000     2.0239470000    -1.4638340000
| 24>  H        2.9613760000     2.1592660000    -2.4168220000
| 25>  H        2.8150220000     3.0464100000    -0.9187910000
| 26>  H        5.0723170000     0.1333890000     0.0281000000
| 27>  H        7.1699780000     2.3747860000    -1.4905360000
| 28>  H        7.0620110000     0.9543830000    -0.5979670000
| 29> *
| 30>
| 31>                          ****END OF INPUT****
 Total Charge           Charge          ....    0
 Multiplicity           Mult            ....    1
 Number of Electrons    NEL             ....   54
 Basis Dimension        Dim             ....  148

MULLIKEN ATOMIC CHARGES
-----------------------
   0 C :    0.059439
   1 C :   -0.159791
   2 C :   -0.072635
   3 C :    0.101400
   4 C :   -0.040294
   5 N :   -0.115256
   6 N :   -0.043267
   7 H :    0.029878
   8 H :    0.028248
   9 H :    0.018046
  10 H :   -0.015010
  11 H :    0.004540
  12 H :    0.024263
  13 H :    0.026721
  14 H :   -0.046772
  15 H :    0.115790
  16 H :    0.084698
Sum of atomic charges:    0.0000000

LOEWDIN ATOMIC CHARGES
----------------------
   0 C :   -0.066666
   1 C :   -0.049438
   2 C :   -0.053484
   3 C :   -0.054820
   4 C :   -0.051953
   5 N :   -0.050739
   6 N :    0.009594
   7 H :    0.037761
   8 H :    0.037303
   9 H :    0.028533
  10 H :    0.019400
  11 H :    0.024124
  12 H :    0.038856
  13 H :    0.039893
  14 H :   -0.007729
  15 H :    0.059610
  16 H :    0.039755

  Mayer bond orders larger than 0.1
B(  0-C ,  1-C ) :   1.0960 B(  0-C ,  7-H ) :   0.9402 B(  0-C ,  8-H ) :   0.9396
B(  0-C ,  9-H ) :   0.9536 B(  1-C ,  2-C ) :   1.7693 B(  1-C , 10-H ) :   0.9404
B(  2-C ,  3-C ) :   1.1234 B(  2-C ,  4-C ) :   1.1108 B(  3-C , 11-H ) :   0.9411
B(  3-C , 12-H ) :   0.9280 B(  3-C , 13-H ) :   0.9302 B(  4-C ,  5-N ) :   1.8174
B(  4-C ,  6-N ) :   0.1137 B(  4-C , 14-H ) :   0.9328 B(  5-N ,  6-N ) :   1.1132
B(  6-N , 15-H ) :   0.9622 B(  6-N , 16-H ) :   0.9406

FINAL SINGLE POINT ENERGY      -305.385659709769

DIPOLE MOMENT
-------------
                                X             Y             Z
Electronic contribution:      5.79383       1.45761      -0.04718
Nuclear contribution   :     -5.41233      -1.92751      -0.11043
                        -----------------------------------------
Total Dipole Moment    :      0.38150      -0.46990      -0.15761
                        -----------------------------------------
Magnitude (a.u.)       :      0.62546
Magnitude (Debye)      :      1.58978

                             ****ORCA TERMINATED NORMALLY****
TOTAL RUN TIME: 0 days 0 hours 0 minutes 7 seconds 768 msec
