                         Program Version 3.0.3 - RELEASE   -
|  1> ! RI PBE def2-SVP def2-SVP/J NBO PAL2
|  2> % maxcore 2000
|  3> % output
|  4>     # printlevel mini
|  5>     print[ P_Basis ] 0
|  6>     print[ P_SCFInfo ] 1
|  7>     print[ P_SCFIterInfo ] 1
|  8>     print[ P_OrbEn ] 0
|  9>     print[ P_Cartesian ] 0
| 10> end
| 11> *xyz 0 1
| 12>  C        0.8528950000    -0.1476140000     0.0987550000
| 13>  C        2.3326000000    -0.0113880000     0.1809930000
| 14>  C        3.0407340000     0.8661270000     0.8969930000
| 15>  C        2.4571700000     1.9061760000     1.8054720000
| 16>  C        4.5305630000     0.8144360000     0.8044760000
| 17>  N        5.1938180000     1.0331010000     1.9893750000
| 18>  N        5.2099560000     0.6434290000    -0.2619670000
| 19>  H        0.5180260000    -0.0620880000    -0.9401550000
| 20>  H        0.3164800000     0.5948320000     0.6884550000
| 21>  H        0.5398320000    -1.1391290000     0.4417890000
| 22>  H        2.8977820000    -0.7288330000    -0.4104580000
| 23>  H        1.3856530000     2.0260630000     1.6522630000
| 24>  H        2.9390860000     2.8732070000     1.6436090000
| 25>  H        2.6083300000     1.6554580000     2.8606900000
| 26>  H        4.7484540000     0.7288200000     2.8379890000
| 27>  H        6.1849380000     0.8568890000     1.9388150000
| 28>  H        4.5921920000     0.6156050000    -1.0669930000
| 29> *
| 30>
| 31>                          ****END OF INPUT****
 Total Charge           Charge          ....    0
 Multiplicity           Mult            ....    1
 Number of Electrons    NEL             ....   54
 Basis Dimension        Dim             ....  148

MULLIKEN ATOMIC CHARGES
-----------------------
   0 C :    0.056346
   1 C :   -0.136461
   2 C :   -0.119007
   3 C :    0.071140
   4 C :   -0.138487
   5 N :   -0.064965
   6 N :   -0.113729
   7 H :    0.033767
   8 H :    0.016997
   9 H :    0.032628
  10 H :   -0.002603
  11 H :    0.014247
  12 H :    0.037291
  13 H :    0.025644
  14 H :    0.103231
  15 H :    0.108370
  16 H :    0.075593
Sum of atomic charges:   -0.0000000

LOEWDIN ATOMIC CHARGES
----------------------
   0 C :   -0.065444
   1 C :   -0.034675
   2 C :   -0.073489
   3 C :   -0.058041
   4 C :    0.003069
   5 N :   -0.006572
   6 N :   -0.175225
   7 H :    0.040070
   8 H :    0.028032
   9 H :    0.040177
  10 H :    0.024616
  11 H :    0.029139
  12 H :    0.040898
  13 H :    0.034067
  14 H :    0.064565
  15 H :    0.069014
  16 H :    0.039799

  Mayer bond orders larger than 0.1
B(  0-C ,  1-C ) :   1.0933 B(  0-C ,  7-H ) :   0.9406 B(  0-C ,  8-H ) :   0.9533
B(  0-C ,  9-H ) :   0.9401 B(  1-C ,  2-C ) :   1.8667 B(  1-C , 10-H ) :   0.9389
B(  2-C ,  3-C ) :   1.0982 B(  2-C ,  4-C ) :   0.9499 B(  3-C , 11-H ) :   0.9411
B(  3-C , 12-H ) :   0.9421 B(  3-C , 13-H ) :   0.9350 B(  4-C ,  5-N ) :   1.2237
B(  4-C ,  6-N ) :   1.9463 B(  5-N , 14-H ) :   0.9484 B(  5-N , 15-H ) :   0.9404
B(  6-N , 16-H ) :   0.9240

FINAL SINGLE POINT ENERGY      -305.416874637462

DIPOLE MOMENT
-------------
                                X             Y             Z
Electronic contribution:      5.75870      -0.23143      -0.73288
Nuclear contribution   :     -6.57762       0.06812       1.46057
                        -----------------------------------------
Total Dipole Moment    :     -0.81892      -0.16331       0.72769
                        -----------------------------------------
Magnitude (a.u.)       :      1.10762
Magnitude (Debye)      :      2.81535

                             ****ORCA TERMINATED NORMALLY****
TOTAL RUN TIME: 0 days 0 hours 0 minutes 8 seconds 247 msec
