                         Program Version 3.0.3 - RELEASE   -
|  1> ! RI PBE def2-SVP def2-SVP/J NBO PAL2
|  2> % maxcore 2000
|  3> % output
|  4>     # printlevel mini
|  5>     print[ P_Basis ] 0
|  6>     print[ P_SCFInfo ] 1
|  7>     print[ P_SCFIterInfo ] 1
|  8>     print[ P_OrbEn ] 0
|  9>     print[ P_Cartesian ] 0
| 10> end
| 11> *xyz 0 1
| 12>  C        1.0405080000     0.6430420000    -2.0374660000
| 13>  C        2.5139580000     0.8471050000    -2.0203320000
| 14>  C        3.3199580000     0.4595160000    -1.0312100000
| 15>  C        4.7715690000     0.6372300000    -0.9683370000
| 16>  C        5.5111260000     0.1302120000     0.2340110000
| 17>  N        5.3713820000     1.2210330000    -1.9420430000
| 18>  N        6.6907680000     1.3858690000    -1.8916440000
| 19>  H        0.5091350000     1.5979390000    -2.1153140000
| 20>  H        0.6930310000     0.1336400000    -1.1359220000
| 21>  H        0.7329190000     0.0483540000    -2.9046360000
| 22>  H        2.9577430000     1.3479810000    -2.8774840000
| 23>  H        2.8786900000    -0.0421860000    -0.1718430000
| 24>  H        4.8344030000    -0.3333390000     0.9504300000
| 25>  H        6.0373280000     0.9422980000     0.7509240000
| 26>  H        6.2627840000    -0.6182970000    -0.0458380000
| 27>  H        7.1117280000     1.8458570000    -2.6728850000
| 28>  H        7.2573710000     1.0741570000    -1.1202200000
| 29> *
| 30>
| 31>                          ****END OF INPUT****
 Total Charge           Charge          ....    0
 Multiplicity           Mult            ....    1
 Number of Electrons    NEL             ....   54
 Basis Dimension        Dim             ....  148

MULLIKEN ATOMIC CHARGES
-----------------------
   0 C :    0.041670
   1 C :   -0.094020
   2 C :    0.033754
   3 C :   -0.189160
   4 C :    0.021978
   5 N :   -0.073220
   6 N :   -0.064093
   7 H :    0.028122
   8 H :    0.012612
   9 H :    0.028859
  10 H :   -0.005681
  11 H :   -0.038969
  12 H :    0.016274
  13 H :    0.032546
  14 H :    0.033151
  15 H :    0.122911
  16 H :    0.093266
Sum of atomic charges:   -0.0000000

LOEWDIN ATOMIC CHARGES
----------------------
   0 C :   -0.065314
   1 C :   -0.030305
   2 C :   -0.066194
   3 C :   -0.086605
   4 C :   -0.084131
   5 N :   -0.042772
   6 N :    0.036788
   7 H :    0.034424
   8 H :    0.027374
   9 H :    0.034334
  10 H :    0.022403
  11 H :    0.019195
  12 H :    0.035185
  13 H :    0.031911
  14 H :    0.031549
  15 H :    0.062619
  16 H :    0.039537

  Mayer bond orders larger than 0.1
B(  0-C ,  1-C ) :   1.0844 B(  0-C ,  7-H ) :   0.9434 B(  0-C ,  8-H ) :   0.9597
B(  0-C ,  9-H ) :   0.9445 B(  1-C ,  2-C ) :   1.8391 B(  1-C , 10-H ) :   0.9457
B(  2-C ,  3-C ) :   1.1075 B(  2-C , 11-H ) :   0.9365 B(  3-C ,  4-C ) :   1.0827
B(  3-C ,  5-N ) :   1.8283 B(  3-C ,  6-N ) :   0.1214 B(  4-C , 12-H ) :   0.9387
B(  4-C , 13-H ) :   0.9336 B(  4-C , 14-H ) :   0.9359 B(  5-N ,  6-N ) :   1.1378
B(  6-N , 15-H ) :   0.9637 B(  6-N , 16-H ) :   0.9351

FINAL SINGLE POINT ENERGY      -305.381544700265

DIPOLE MOMENT
-------------
                                X             Y             Z
Electronic contribution:      3.55302       1.53834      -2.00313
Nuclear contribution   :     -2.76517      -1.55600       2.26402
                        -----------------------------------------
Total Dipole Moment    :      0.78784      -0.01766       0.26088
                        -----------------------------------------
Magnitude (a.u.)       :      0.83010
Magnitude (Debye)      :      2.10995

                             ****ORCA TERMINATED NORMALLY****
TOTAL RUN TIME: 0 days 0 hours 0 minutes 7 seconds 618 msec
