                         Program Version 3.0.3 - RELEASE   -
|  1> ! RI PBE def2-SVP def2-SVP/J NBO PAL2
|  2> % maxcore 2000
|  3> % output
|  4>     # printlevel mini
|  5>     print[ P_Basis ] 0
|  6>     print[ P_SCFInfo ] 1
|  7>     print[ P_SCFIterInfo ] 1
|  8>     print[ P_OrbEn ] 0
|  9>     print[ P_Cartesian ] 0
| 10> end
| 11> *xyz 0 1
| 12>  C        0.8925210000     0.3481090000    -0.8167620000
| 13>  C        2.3822150000     0.3703350000    -0.8463940000
| 14>  C        3.1606500000    -0.6939200000    -1.0021690000
| 15>  C        4.6581470000    -0.6667470000    -1.0346040000
| 16>  C        5.2019620000    -1.1243240000    -2.3497920000
| 17>  N        5.9417430000    -2.1499080000    -2.4349160000
| 18>  N        6.4583870000    -2.4811030000    -3.6497660000
| 19>  H        0.5106950000     0.7367380000     0.1328220000
| 20>  H        0.5057380000    -0.6640320000    -0.9502180000
| 21>  H        0.4719130000     0.9812450000    -1.6046850000
| 22>  H        2.8548480000     1.3445570000    -0.7225080000
| 23>  H        2.6999870000    -1.6730140000    -1.1296410000
| 24>  H        5.0728870000    -1.3208380000    -0.2616880000
| 25>  H        5.0039580000     0.3529630000    -0.8277720000
| 26>  H        4.9277480000    -0.5419220000    -3.2404410000
| 27>  H        6.6532030000    -3.4687840000    -3.6914350000
| 28>  H        5.9163150000    -2.1647660000    -4.4492420000
| 29> *
| 30>
| 31>                          ****END OF INPUT****
 Total Charge           Charge          ....    0
 Multiplicity           Mult            ....    1
 Number of Electrons    NEL             ....   54
 Basis Dimension        Dim             ....  148

MULLIKEN ATOMIC CHARGES
-----------------------
   0 C :    0.046084
   1 C :   -0.104228
   2 C :   -0.086254
   3 C :    0.157658
   4 C :   -0.098862
   5 N :   -0.117952
   6 N :   -0.053173
   7 H :    0.030345
   8 H :    0.016150
   9 H :    0.031596
  10 H :   -0.007831
  11 H :   -0.008955
  12 H :    0.015878
  13 H :    0.009421
  14 H :   -0.026254
  15 H :    0.114832
  16 H :    0.081546
Sum of atomic charges:    0.0000000

LOEWDIN ATOMIC CHARGES
----------------------
   0 C :   -0.064170
   1 C :   -0.048564
   2 C :   -0.046352
   3 C :   -0.046558
   4 C :   -0.049169
   5 N :   -0.048592
   6 N :    0.000171
   7 H :    0.035864
   8 H :    0.029931
   9 H :    0.035650
  10 H :    0.020290
  11 H :    0.020763
  12 H :    0.040032
  13 H :    0.034402
  14 H :   -0.010789
  15 H :    0.058656
  16 H :    0.038436

  Mayer bond orders larger than 0.1
B(  0-C ,  1-C ) :   1.0820 B(  0-C ,  7-H ) :   0.9473 B(  0-C ,  8-H ) :   0.9616
B(  0-C ,  9-H ) :   0.9484 B(  1-C ,  2-C ) :   1.9188 B(  1-C , 10-H ) :   0.9518
B(  2-C ,  3-C ) :   1.0444 B(  2-C , 11-H ) :   0.9535 B(  3-C ,  4-C ) :   1.0308
B(  3-C , 12-H ) :   0.9001 B(  3-C , 13-H ) :   0.9113 B(  4-C ,  5-N ) :   1.8879
B(  4-C ,  6-N ) :   0.1279 B(  4-C , 14-H ) :   0.9297 B(  5-N ,  6-N ) :   1.1021
B(  6-N , 15-H ) :   0.9641 B(  6-N , 16-H ) :   0.9425

FINAL SINGLE POINT ENERGY      -305.372035675718

DIPOLE MOMENT
-------------
                                X             Y             Z
Electronic contribution:      5.72006      -2.86287      -1.55502
Nuclear contribution   :     -6.14653       2.81074       0.98226
                        -----------------------------------------
Total Dipole Moment    :     -0.42647      -0.05213      -0.57275
                        -----------------------------------------
Magnitude (a.u.)       :      0.71599
Magnitude (Debye)      :      1.81990

                             ****ORCA TERMINATED NORMALLY****
TOTAL RUN TIME: 0 days 0 hours 0 minutes 7 seconds 309 msec
