                         Program Version 3.0.3 - RELEASE   -
|  1> ! RI PBE def2-SVP def2-SVP/J NBO PAL2
|  2> % maxcore 2000
|  3> % output
|  4>     # printlevel mini
|  5>     print[ P_Basis ] 0
|  6>     print[ P_SCFInfo ] 1
|  7>     print[ P_SCFIterInfo ] 1
|  8>     print[ P_OrbEn ] 0
|  9>     print[ P_Cartesian ] 0
| 10> end
| 11> *xyz 0 1
| 12>  C        0.7489440000    -1.5237170000     0.8702370000
| 13>  C        2.2107050000    -1.2588400000     0.7577490000
| 14>  C        3.0090920000    -1.7561020000    -0.1811560000
| 15>  C        4.4754160000    -1.4822810000    -0.2885610000
| 16>  C        5.3377200000    -2.7200390000    -0.1193660000
| 17>  N        5.0569870000    -3.4369380000     1.0098390000
| 18>  N        6.2898150000    -3.0780690000    -0.8855320000
| 19>  H        0.4999330000    -1.9651660000     1.8404500000
| 20>  H        0.4033250000    -2.2012370000     0.0872540000
| 21>  H        0.1756770000    -0.5942490000     0.7955810000
| 22>  H        2.6423080000    -0.5927300000     1.5047020000
| 23>  H        2.5875740000    -2.4199890000    -0.9354510000
| 24>  H        4.7687290000    -0.7556350000     0.4765810000
| 25>  H        4.7094910000    -1.0458650000    -1.2635290000
| 26>  H        4.1291450000    -3.3610470000     1.3903320000
| 27>  H        5.5042390000    -4.3359060000     1.0787600000
| 28>  H        6.4042000000    -2.4135910000    -1.6440920000
| 29> *
| 30>
| 31>                          ****END OF INPUT****
 Total Charge           Charge          ....    0
 Multiplicity           Mult            ....    1
 Number of Electrons    NEL             ....   54
 Basis Dimension        Dim             ....  148

MULLIKEN ATOMIC CHARGES
-----------------------
   0 C :    0.045338
   1 C :   -0.110858
   2 C :   -0.102198
   3 C :    0.162337
   4 C :   -0.244174
   5 N :   -0.051513
   6 N :   -0.108730
   7 H :    0.031185
   8 H :    0.023752
   9 H :    0.037156
  10 H :    0.001999
  11 H :   -0.002631
  12 H :    0.032219
  13 H :   -0.001823
  14 H :    0.105381
  15 H :    0.110129
  16 H :    0.072431
Sum of atomic charges:   -0.0000000

LOEWDIN ATOMIC CHARGES
----------------------
   0 C :   -0.065089
   1 C :   -0.047271
   2 C :   -0.051807
   3 C :   -0.055829
   4 C :   -0.003526
   5 N :   -0.001648
   6 N :   -0.182206
   7 H :    0.036688
   8 H :    0.032215
   9 H :    0.039480
  10 H :    0.023355
  11 H :    0.024881
  12 H :    0.043071
  13 H :    0.036550
  14 H :    0.062419
  15 H :    0.069421
  16 H :    0.039296

  Mayer bond orders larger than 0.1
B(  0-C ,  1-C ) :   1.0828 B(  0-C ,  7-H ) :   0.9466 B(  0-C ,  8-H ) :   0.9616
B(  0-C ,  9-H ) :   0.9440 B(  1-C ,  2-C ) :   1.8792 B(  1-C , 10-H ) :   0.9571
B(  2-C ,  3-C ) :   1.0555 B(  2-C , 11-H ) :   0.9589 B(  3-C ,  4-C ) :   0.9766
B(  3-C , 12-H ) :   0.9121 B(  3-C , 13-H ) :   0.8863 B(  4-C ,  5-N ) :   1.2394
B(  4-C ,  6-N ) :   1.9438 B(  5-N , 14-H ) :   0.9375 B(  5-N , 15-H ) :   0.9440
B(  6-N , 16-H ) :   0.9225

FINAL SINGLE POINT ENERGY      -305.414867873757

DIPOLE MOMENT
-------------
                                X             Y             Z
Electronic contribution:      5.42936      -1.84954      -1.05715
Nuclear contribution   :     -6.50064       2.17503       1.44329
                        -----------------------------------------
Total Dipole Moment    :     -1.07128       0.32549       0.38615
                        -----------------------------------------
Magnitude (a.u.)       :      1.18435
Magnitude (Debye)      :      3.01039

                             ****ORCA TERMINATED NORMALLY****
TOTAL RUN TIME: 0 days 0 hours 0 minutes 7 seconds 932 msec
