                         Program Version 3.0.3 - RELEASE   -
|  1> ! RI PBE def2-SVP def2-SVP/J NBO PAL2
|  2> % maxcore 2000
|  3> % output
|  4>     # printlevel mini
|  5>     print[ P_Basis ] 0
|  6>     print[ P_SCFInfo ] 1
|  7>     print[ P_SCFIterInfo ] 1
|  8>     print[ P_OrbEn ] 0
|  9>     print[ P_Cartesian ] 0
| 10> end
| 11> *xyz 0 1
| 12>  C        3.0677190000    -0.3714470000    -1.2454770000
| 13>  C        2.3180470000    -0.2521610000     0.0465110000
| 14>  C        1.0210700000     0.0733120000     0.0529040000
| 15>  C        3.0822100000    -0.4940990000     1.2776920000
| 16>  C        2.4412190000    -0.4913020000     2.6310780000
| 17>  N        4.3385760000    -0.7161620000     1.1281440000
| 18>  N        5.0847110000    -0.9802110000     2.2254770000
| 19>  H        2.4036810000    -0.1891690000    -2.0909010000
| 20>  H        3.5128640000    -1.3634810000    -1.3467800000
| 21>  H        3.8953370000     0.3400460000    -1.2824350000
| 22>  H        0.4948780000     0.2503040000    -0.8775630000
| 23>  H        0.4417280000     0.1828520000     0.9603040000
| 24>  H        1.3572510000    -0.4430740000     2.5808730000
| 25>  H        2.7803920000     0.3612890000     3.2323520000
| 26>  H        2.7130610000    -1.4024930000     3.1738370000
| 27>  H        6.0630810000    -0.8435930000     2.0298370000
| 28>  H        4.7965640000    -0.5396130000     3.0921450000
| 29> *
| 30>
| 31>                          ****END OF INPUT****
 Total Charge           Charge          ....    0
 Multiplicity           Mult            ....    1
 Number of Electrons    NEL             ....   54
 Basis Dimension        Dim             ....  148

MULLIKEN ATOMIC CHARGES
-----------------------
   0 C :    0.123175
   1 C :   -0.104356
   2 C :   -0.077373
   3 C :   -0.152885
   4 C :    0.013555
   5 N :   -0.132907
   6 N :   -0.038494
   7 H :   -0.000937
   8 H :    0.021709
   9 H :    0.024161
  10 H :    0.008193
  11 H :    0.004514
  12 H :    0.024893
  13 H :    0.038494
  14 H :    0.042027
  15 H :    0.117685
  16 H :    0.088544
Sum of atomic charges:    0.0000000

LOEWDIN ATOMIC CHARGES
----------------------
   0 C :   -0.051130
   1 C :   -0.035762
   2 C :   -0.078540
   3 C :   -0.063052
   4 C :   -0.082905
   5 N :   -0.052755
   6 N :    0.017813
   7 H :    0.024636
   8 H :    0.036728
   9 H :    0.036760
  10 H :    0.020300
  11 H :    0.014404
  12 H :    0.036331
  13 H :    0.036044
  14 H :    0.037851
  15 H :    0.061602
  16 H :    0.041676

  Mayer bond orders larger than 0.1
B(  0-C ,  1-C ) :   1.1102 B(  0-C ,  7-H ) :   0.9404 B(  0-C ,  8-H ) :   0.9343
B(  0-C ,  9-H ) :   0.9309 B(  1-C ,  2-C ) :   1.8931 B(  1-C ,  3-C ) :   1.0789
B(  2-C , 10-H ) :   0.9262 B(  2-C , 11-H ) :   0.9316 B(  3-C ,  4-C ) :   1.1049
B(  3-C ,  5-N ) :   1.8429 B(  4-C , 12-H ) :   0.9310 B(  4-C , 13-H ) :   0.9312
B(  4-C , 14-H ) :   0.9329 B(  5-N ,  6-N ) :   1.1226 B(  6-N , 15-H ) :   0.9643
B(  6-N , 16-H ) :   0.9335

FINAL SINGLE POINT ENERGY      -305.384647117185

DIPOLE MOMENT
-------------
                                X             Y             Z
Electronic contribution:      2.66854      -0.68436       0.43946
Nuclear contribution   :     -2.33865       0.96011       0.31992
                        -----------------------------------------
Total Dipole Moment    :      0.32988       0.27575       0.75937
                        -----------------------------------------
Magnitude (a.u.)       :      0.87264
Magnitude (Debye)      :      2.21808

                             ****ORCA TERMINATED NORMALLY****
TOTAL RUN TIME: 0 days 0 hours 0 minutes 7 seconds 736 msec
