                         Program Version 3.0.3 - RELEASE   -
|  1> ! RI PBE def2-SVP def2-SVP/J NBO PAL2
|  2> % maxcore 2000
|  3> % output
|  4>     # printlevel mini
|  5>     print[ P_Basis ] 0
|  6>     print[ P_SCFInfo ] 1
|  7>     print[ P_SCFIterInfo ] 1
|  8>     print[ P_OrbEn ] 0
|  9>     print[ P_Cartesian ] 0
| 10> end
| 11> *xyz 0 1
| 12>  C        2.5424310000     1.5506290000     0.6983470000
| 13>  C        2.5650850000     0.0961780000     0.3522560000
| 14>  C        1.9026470000    -0.8181020000     1.0538830000
| 15>  C        3.3968070000    -0.2827630000    -0.8472690000
| 16>  C        4.8599350000    -0.0935970000    -0.6056000000
| 17>  N        5.5334390000     0.7536570000    -1.2654230000
| 18>  N        6.8425920000     0.9383620000    -0.9449740000
| 19>  H        1.9612430000     1.7398560000     1.6015130000
| 20>  H        2.1094340000     2.1333060000    -0.1216720000
| 21>  H        3.5561970000     1.9348360000     0.8455310000
| 22>  H        1.3106820000    -0.5471490000     1.9214830000
| 23>  H        1.9254330000    -1.8677280000     0.7804530000
| 24>  H        3.1205350000     0.3329210000    -1.7088470000
| 25>  H        3.2014740000    -1.3296460000    -1.1020590000
| 26>  H        5.3230130000    -0.7015820000     0.1841750000
| 27>  H        7.3565750000     1.2768640000    -1.7427060000
| 28>  H        7.2972700000     0.1422710000    -0.5061810000
| 29> *
| 30>
| 31>                          ****END OF INPUT****
 Total Charge           Charge          ....    0
 Multiplicity           Mult            ....    1
 Number of Electrons    NEL             ....   54
 Basis Dimension        Dim             ....  148

MULLIKEN ATOMIC CHARGES
-----------------------
   0 C :    0.081130
   1 C :   -0.227362
   2 C :   -0.034085
   3 C :    0.172605
   4 C :   -0.101075
   5 N :   -0.115611
   6 N :   -0.055214
   7 H :    0.012272
   8 H :    0.028145
   9 H :    0.037321
  10 H :    0.006026
  11 H :    0.007474
  12 H :    0.009684
  13 H :    0.001468
  14 H :   -0.023550
  15 H :    0.115896
  16 H :    0.084876
Sum of atomic charges:   -0.0000000

LOEWDIN ATOMIC CHARGES
----------------------
   0 C :   -0.055745
   1 C :   -0.029082
   2 C :   -0.083672
   3 C :   -0.038842
   4 C :   -0.049379
   5 N :   -0.047788
   6 N :    0.000995
   7 H :    0.029570
   8 H :    0.038084
   9 H :    0.037890
  10 H :    0.018995
  11 H :    0.018149
  12 H :    0.037171
  13 H :    0.033741
  14 H :   -0.009144
  15 H :    0.059301
  16 H :    0.039755

  Mayer bond orders larger than 0.1
B(  0-C ,  1-C ) :   1.0862 B(  0-C ,  7-H ) :   0.9500 B(  0-C ,  8-H ) :   0.9381
B(  0-C ,  9-H ) :   0.9381 B(  1-C ,  2-C ) :   1.9811 B(  1-C ,  3-C ) :   1.0513
B(  2-C , 10-H ) :   0.9328 B(  2-C , 11-H ) :   0.9350 B(  3-C ,  4-C ) :   1.0432
B(  3-C , 12-H ) :   0.9027 B(  3-C , 13-H ) :   0.8979 B(  4-C ,  5-N ) :   1.8657
B(  4-C ,  6-N ) :   0.1290 B(  4-C , 14-H ) :   0.9285 B(  5-N ,  6-N ) :   1.1058
B(  6-N , 15-H ) :   0.9633 B(  6-N , 16-H ) :   0.9425

FINAL SINGLE POINT ENERGY      -305.372136084892

DIPOLE MOMENT
-------------
                                X             Y             Z
Electronic contribution:      3.40915      -0.15201      -2.37840
Nuclear contribution   :     -2.79027      -0.15766       2.32946
                        -----------------------------------------
Total Dipole Moment    :      0.61889      -0.30967      -0.04895
                        -----------------------------------------
Magnitude (a.u.)       :      0.69377
Magnitude (Debye)      :      1.76342

                             ****ORCA TERMINATED NORMALLY****
TOTAL RUN TIME: 0 days 0 hours 0 minutes 7 seconds 549 msec
