                         Program Version 3.0.3 - RELEASE   -
|  1> ! RI PBE def2-SVP def2-SVP/J NBO PAL2
|  2> % maxcore 2000
|  3> % output
|  4>     # printlevel mini
|  5>     print[ P_Basis ] 0
|  6>     print[ P_SCFInfo ] 1
|  7>     print[ P_SCFIterInfo ] 1
|  8>     print[ P_OrbEn ] 0
|  9>     print[ P_Cartesian ] 0
| 10> end
| 11> *xyz 0 1
| 12>  C        3.8912340000     1.7648500000    -1.0457030000
| 13>  C        3.4444220000     0.3392710000    -0.9794080000
| 14>  C        2.9592580000    -0.3114700000    -2.0336790000
| 15>  C        3.5900440000    -0.3319110000     0.3586020000
| 16>  C        5.0383700000    -0.5128950000     0.7763460000
| 17>  N        5.7945950000    -1.1822060000    -0.1427290000
| 18>  N        5.5497890000    -0.1475550000     1.8842280000
| 19>  H        3.8074650000     2.1674410000    -2.0554730000
| 20>  H        4.9290330000     1.8656600000    -0.7125440000
| 21>  H        3.2889240000     2.3867000000    -0.3750700000
| 22>  H        2.8633350000     0.1697530000    -3.0010950000
| 23>  H        2.6278910000    -1.3418030000    -1.9594610000
| 24>  H        3.1143080000    -1.3165710000     0.3318900000
| 25>  H        3.0908100000     0.2604120000     1.1304930000
| 26>  H        5.4922070000    -1.1703070000    -1.1018160000
| 27>  H        6.7862960000    -1.1953470000     0.0264530000
| 28>  H        4.8476300000     0.2881660000     2.4730680000
| 29> *
| 30>
| 31>                          ****END OF INPUT****
 Total Charge           Charge          ....    0
 Multiplicity           Mult            ....    1
 Number of Electrons    NEL             ....   54
 Basis Dimension        Dim             ....  148

MULLIKEN ATOMIC CHARGES
-----------------------
   0 C :    0.091128
   1 C :   -0.266612
   2 C :   -0.026890
   3 C :    0.198006
   4 C :   -0.265139
   5 N :   -0.043061
   6 N :   -0.101062
   7 H :    0.015593
   8 H :    0.038063
   9 H :    0.028628
  10 H :    0.013133
  11 H :    0.011687
  12 H :    0.021769
  13 H :   -0.007547
  14 H :    0.104785
  15 H :    0.111767
  16 H :    0.075752
Sum of atomic charges:    0.0000000

LOEWDIN ATOMIC CHARGES
----------------------
   0 C :   -0.055373
   1 C :   -0.036496
   2 C :   -0.079406
   3 C :   -0.046710
   4 C :   -0.003865
   5 N :    0.000293
   6 N :   -0.181763
   7 H :    0.031172
   8 H :    0.039628
   9 H :    0.039634
  10 H :    0.021484
  11 H :    0.020719
  12 H :    0.041861
  13 H :    0.034717
  14 H :    0.063897
  15 H :    0.070102
  16 H :    0.040107

  Mayer bond orders larger than 0.1
B(  0-C ,  1-C ) :   1.0833 B(  0-C ,  7-H ) :   0.9503 B(  0-C ,  8-H ) :   0.9358
B(  0-C ,  9-H ) :   0.9350 B(  1-C ,  2-C ) :   1.9549 B(  1-C ,  3-C ) :   1.0621
B(  2-C , 10-H ) :   0.9327 B(  2-C , 11-H ) :   0.9343 B(  3-C ,  4-C ) :   0.9820
B(  3-C , 12-H ) :   0.8950 B(  3-C , 13-H ) :   0.8852 B(  4-C ,  5-N ) :   1.2515
B(  4-C ,  6-N ) :   1.9363 B(  5-N , 14-H ) :   0.9360 B(  5-N , 15-H ) :   0.9427
B(  6-N , 16-H ) :   0.9228

FINAL SINGLE POINT ENERGY      -305.415014023370

DIPOLE MOMENT
-------------
                                X             Y             Z
Electronic contribution:      2.08239      -2.31570       2.58618
Nuclear contribution   :     -2.51333       2.46514      -3.37759
                        -----------------------------------------
Total Dipole Moment    :     -0.43094       0.14944      -0.79141
                        -----------------------------------------
Magnitude (a.u.)       :      0.91344
Magnitude (Debye)      :      2.32179

                             ****ORCA TERMINATED NORMALLY****
TOTAL RUN TIME: 0 days 0 hours 0 minutes 8 seconds 309 msec
