                         Program Version 3.0.3 - RELEASE   -
|  1> ! RI PBE def2-SVP def2-SVP/J NBO PAL2
|  2> % maxcore 2000
|  3> % output
|  4>     # printlevel mini
|  5>     print[ P_Basis ] 0
|  6>     print[ P_SCFInfo ] 1
|  7>     print[ P_SCFIterInfo ] 1
|  8>     print[ P_OrbEn ] 0
|  9>     print[ P_Cartesian ] 0
| 10> end
| 11> *xyz 0 1
| 12>  C        1.0813250000    -0.1105340000     0.2027340000
| 13>  C        2.4931330000     0.4265290000    -0.0500380000
| 14>  C        2.5778100000     1.0806980000    -1.3981940000
| 15>  C        3.3701890000     0.6894810000    -2.3853350000
| 16>  C        2.8846590000     1.3959300000     1.0240500000
| 17>  N        3.8429030000     1.1501140000     1.8141830000
| 18>  N        4.1014130000     2.0290750000     2.8215450000
| 19>  H        0.7973180000    -0.8249350000    -0.5728440000
| 20>  H        0.3463170000     0.6998580000     0.1965330000
| 21>  H        1.0274220000    -0.6073280000     1.1736610000
| 22>  H        3.2083510000    -0.3994940000    -0.0092150000
| 23>  H        1.9188470000     1.9351790000    -1.5525920000
| 24>  H        4.0406950000    -0.1566610000    -2.2708970000
| 25>  H        3.3793810000     1.1989590000    -3.3420790000
| 26>  H        2.2965360000     2.3221630000     1.1074590000
| 27>  H        5.0701840000     1.9737920000     3.0934140000
| 28>  H        3.8122160000     2.9864840000     2.6401260000
| 29> *
| 30>
| 31>                          ****END OF INPUT****
 Total Charge           Charge          ....    0
 Multiplicity           Mult            ....    1
 Number of Electrons    NEL             ....   54
 Basis Dimension        Dim             ....  148

MULLIKEN ATOMIC CHARGES
-----------------------
   0 C :    0.009706
   1 C :   -0.008553
   2 C :   -0.049469
   3 C :   -0.028925
   4 C :   -0.035146
   5 N :   -0.113129
   6 N :   -0.056066
   7 H :    0.027546
   8 H :    0.016079
   9 H :    0.031068
  10 H :    0.003945
  11 H :   -0.002147
  12 H :    0.019245
  13 H :    0.021061
  14 H :   -0.034449
  15 H :    0.115583
  16 H :    0.083652
Sum of atomic charges:   -0.0000000

LOEWDIN ATOMIC CHARGES
----------------------
   0 C :   -0.052551
   1 C :   -0.052438
   2 C :   -0.020984
   3 C :   -0.063206
   4 C :   -0.038168
   5 N :   -0.044749
   6 N :   -0.000864
   7 H :    0.028513
   8 H :    0.023802
   9 H :    0.030235
  10 H :    0.035950
  11 H :    0.022336
  12 H :    0.023094
  13 H :    0.023843
  14 H :   -0.013008
  15 H :    0.059142
  16 H :    0.039054

  Mayer bond orders larger than 0.1
B(  0-C ,  1-C ) :   1.0580 B(  0-C ,  7-H ) :   0.9613 B(  0-C ,  8-H ) :   0.9599
B(  0-C ,  9-H ) :   0.9586 B(  1-C ,  2-C ) :   0.9992 B(  1-C ,  4-C ) :   0.9968
B(  1-C , 10-H ) :   0.9043 B(  2-C ,  3-C ) :   2.0276 B(  2-C , 11-H ) :   0.9514
B(  3-C , 12-H ) :   0.9454 B(  3-C , 13-H ) :   0.9414 B(  4-C ,  5-N ) :   1.9077
B(  4-C ,  6-N ) :   0.1269 B(  4-C , 14-H ) :   0.9223 B(  5-N ,  6-N ) :   1.1034
B(  6-N , 15-H ) :   0.9631 B(  6-N , 16-H ) :   0.9427

FINAL SINGLE POINT ENERGY      -305.365323212999

DIPOLE MOMENT
-------------
                                X             Y             Z
Electronic contribution:      3.13260       1.20474       2.83919
Nuclear contribution   :     -3.06851      -0.56338      -2.80194
                        -----------------------------------------
Total Dipole Moment    :      0.06409       0.64135       0.03725
                        -----------------------------------------
Magnitude (a.u.)       :      0.64562
Magnitude (Debye)      :      1.64104

                             ****ORCA TERMINATED NORMALLY****
TOTAL RUN TIME: 0 days 0 hours 0 minutes 7 seconds 522 msec
