                         Program Version 3.0.3 - RELEASE   -
|  1> ! RI PBE def2-SVP def2-SVP/J NBO PAL2
|  2> % maxcore 2000
|  3> % output
|  4>     # printlevel mini
|  5>     print[ P_Basis ] 0
|  6>     print[ P_SCFInfo ] 1
|  7>     print[ P_SCFIterInfo ] 1
|  8>     print[ P_OrbEn ] 0
|  9>     print[ P_Cartesian ] 0
| 10> end
| 11> *xyz 0 1
| 12>  C        1.1187420000     0.3918290000    -0.2967350000
| 13>  C        2.3829960000    -0.4303480000    -0.0642870000
| 14>  C        2.6093240000    -0.8246530000     1.3637150000
| 15>  C        1.7935380000    -0.5938650000     2.3829180000
| 16>  C        2.3687750000    -1.6640270000    -0.9609940000
| 17>  N        2.9007030000    -1.4621430000    -2.2078300000
| 18>  N        1.9203390000    -2.8102610000    -0.6418840000
| 19>  H        1.1382720000     1.3124360000     0.2899330000
| 20>  H        0.2286420000    -0.1767800000    -0.0200760000
| 21>  H        1.0210720000     0.6658780000    -1.3490920000
| 22>  H        3.2488610000     0.1746230000    -0.3669800000
| 23>  H        3.5394970000    -1.3583950000     1.5461610000
| 24>  H        0.8499620000    -0.0730580000     2.2646620000
| 25>  H        2.0485980000    -0.9193420000     3.3846380000
| 26>  H        2.9611210000    -0.5244500000    -2.5620780000
| 27>  H        2.7044510000    -2.1811660000    -2.8848510000
| 28>  H        1.6156960000    -2.8116980000     0.3278690000
| 29> *
| 30>
| 31>                          ****END OF INPUT****
 Total Charge           Charge          ....    0
 Multiplicity           Mult            ....    1
 Number of Electrons    NEL             ....   54
 Basis Dimension        Dim             ....  148

MULLIKEN ATOMIC CHARGES
-----------------------
   0 C :    0.060233
   1 C :   -0.018960
   2 C :   -0.063425
   3 C :   -0.032155
   4 C :   -0.225401
   5 N :   -0.036334
   6 N :   -0.098990
   7 H :    0.035233
   8 H :    0.024997
   9 H :    0.005028
  10 H :    0.004493
  11 H :    0.006707
  12 H :    0.022637
  13 H :    0.025172
  14 H :    0.099611
  15 H :    0.111327
  16 H :    0.079825
Sum of atomic charges:    0.0000000

LOEWDIN ATOMIC CHARGES
----------------------
   0 C :   -0.048739
   1 C :   -0.066842
   2 C :   -0.022568
   3 C :   -0.064039
   4 C :    0.005559
   5 N :   -0.001614
   6 N :   -0.177356
   7 H :    0.030201
   8 H :    0.029499
   9 H :    0.024073
  10 H :    0.035693
  11 H :    0.030419
  12 H :    0.022805
  13 H :    0.027614
  14 H :    0.063770
  15 H :    0.070228
  16 H :    0.041296

  Mayer bond orders larger than 0.1
B(  0-C ,  1-C ) :   1.0984 B(  0-C ,  7-H ) :   0.9537 B(  0-C ,  8-H ) :   0.9470
B(  0-C ,  9-H ) :   0.9481 B(  1-C ,  2-C ) :   1.0153 B(  1-C ,  4-C ) :   0.9178
B(  1-C , 10-H ) :   0.8698 B(  2-C ,  3-C ) :   1.9909 B(  2-C , 11-H ) :   0.9618
B(  3-C , 12-H ) :   0.9310 B(  3-C , 13-H ) :   0.9405 B(  4-C ,  5-N ) :   1.2424
B(  4-C ,  6-N ) :   1.9860 B(  5-N , 14-H ) :   0.9415 B(  5-N , 15-H ) :   0.9418
B(  6-N , 16-H ) :   0.9205

FINAL SINGLE POINT ENERGY      -305.407031875734

DIPOLE MOMENT
-------------
                                X             Y             Z
Electronic contribution:      2.01680      -3.30919      -1.79494
Nuclear contribution   :     -1.95220       4.33161       1.54771
                        -----------------------------------------
Total Dipole Moment    :      0.06460       1.02242      -0.24724
                        -----------------------------------------
Magnitude (a.u.)       :      1.05387
Magnitude (Debye)      :      2.67872

                             ****ORCA TERMINATED NORMALLY****
TOTAL RUN TIME: 0 days 0 hours 0 minutes 8 seconds 518 msec
