                         Program Version 3.0.3 - RELEASE   -
|  1> ! RI PBE def2-SVP def2-SVP/J NBO PAL2
|  2> % maxcore 2000
|  3> % output
|  4>     # printlevel mini
|  5>     print[ P_Basis ] 0
|  6>     print[ P_SCFInfo ] 1
|  7>     print[ P_SCFIterInfo ] 1
|  8>     print[ P_OrbEn ] 0
|  9>     print[ P_Cartesian ] 0
| 10> end
| 11> *xyz 0 1
| 12>  C        1.0796600000    -0.0684700000     0.0871830000
| 13>  C        2.5719540000    -0.0187770000     0.0033960000
| 14>  C        3.1156570000     1.1170380000    -0.8034400000
| 15>  C        3.3233620000    -0.9433760000     0.6207700000
| 16>  C        4.7614670000    -1.0357920000     0.6374660000
| 17>  N        5.3337470000    -1.9863220000     1.2788040000
| 18>  N        6.6595180000    -2.0544470000     1.2823970000
| 19>  H        0.6330880000    -0.1491580000    -0.9107370000
| 20>  H        0.6806580000     0.8515660000     0.5300270000
| 21>  H        0.7347490000    -0.9129950000     0.6851610000
| 22>  H        2.7340800000     1.0752060000    -1.8298490000
| 23>  H        4.2034100000     1.1344330000    -0.8515140000
| 24>  H        2.7817220000     2.0753210000    -0.3898590000
| 25>  H        2.8235270000    -1.7283430000     1.1824790000
| 26>  H        5.3615090000    -0.2922600000     0.1013130000
| 27>  H        7.0745000000    -2.8074320000     1.7918230000
| 28>  H        7.2352620000    -1.3826930000     0.7967900000
| 29> *
| 30>
| 31>                          ****END OF INPUT****
 Total Charge           Charge          ....    0
 Multiplicity           Mult            ....    1
 Number of Electrons    NEL             ....   54
 Basis Dimension        Dim             ....  148

MULLIKEN ATOMIC CHARGES
-----------------------
   0 C :    0.051409
   1 C :   -0.202922
   2 C :    0.060141
   3 C :    0.030885
   4 C :   -0.051749
   5 N :   -0.092912
   6 N :   -0.053115
   7 H :    0.021066
   8 H :    0.021360
   9 H :    0.015886
  10 H :    0.022949
  11 H :    0.011999
  12 H :    0.020086
  13 H :   -0.026337
  14 H :   -0.043720
  15 H :    0.122572
  16 H :    0.092402
Sum of atomic charges:   -0.0000000

LOEWDIN ATOMIC CHARGES
----------------------
   0 C :   -0.055397
   1 C :   -0.051056
   2 C :   -0.059658
   3 C :   -0.065064
   4 C :   -0.072067
   5 N :   -0.036065
   6 N :    0.034643
   7 H :    0.031112
   8 H :    0.031109
   9 H :    0.029406
  10 H :    0.034509
  11 H :    0.024479
  12 H :    0.033860
  13 H :    0.028336
  14 H :   -0.010292
  15 H :    0.062506
  16 H :    0.039638

  Mayer bond orders larger than 0.1
B(  0-C ,  1-C ) :   1.0874 B(  0-C ,  7-H ) :   0.9449 B(  0-C ,  8-H ) :   0.9456
B(  0-C ,  9-H ) :   0.9545 B(  1-C ,  2-C ) :   1.1068 B(  1-C ,  3-C ) :   1.7285
B(  2-C , 10-H ) :   0.9396 B(  2-C , 11-H ) :   0.9446 B(  2-C , 12-H ) :   0.9406
B(  3-C ,  4-C ) :   1.1410 B(  3-C , 13-H ) :   0.9506 B(  4-C ,  5-N ) :   1.7447
B(  4-C ,  6-N ) :   0.1332 B(  4-C , 14-H ) :   0.9285 B(  5-N ,  6-N ) :   1.1501
B(  6-N , 15-H ) :   0.9629 B(  6-N , 16-H ) :   0.9357

FINAL SINGLE POINT ENERGY      -305.384732025700

DIPOLE MOMENT
-------------
                                X             Y             Z
Electronic contribution:      4.99617      -4.47380       2.93933
Nuclear contribution   :     -4.24292       4.68729      -3.11533
                        -----------------------------------------
Total Dipole Moment    :      0.75325       0.21349      -0.17600
                        -----------------------------------------
Magnitude (a.u.)       :      0.80246
Magnitude (Debye)      :      2.03969

                             ****ORCA TERMINATED NORMALLY****
TOTAL RUN TIME: 0 days 0 hours 0 minutes 7 seconds 669 msec
