                         Program Version 3.0.3 - RELEASE   -
|  1> ! RI PBE def2-SVP def2-SVP/J NBO PAL2
|  2> % maxcore 2000
|  3> % output
|  4>     # printlevel mini
|  5>     print[ P_Basis ] 0
|  6>     print[ P_SCFInfo ] 1
|  7>     print[ P_SCFIterInfo ] 1
|  8>     print[ P_OrbEn ] 0
|  9>     print[ P_Cartesian ] 0
| 10> end
| 11> *xyz 0 1
| 12>  C        1.0768730000     0.1395210000    -0.1778850000
| 13>  C        2.5596250000    -0.0488770000    -0.1166460000
| 14>  C        3.0207840000    -1.4686690000    -0.2121360000
| 15>  C        3.3715410000     1.0032000000     0.0286920000
| 16>  C        4.8484980000     0.9724570000     0.0892590000
| 17>  N        5.3818730000     1.8010500000     1.0477120000
| 18>  N        5.6350280000     0.3239340000    -0.6812230000
| 19>  H        0.6746060000    -0.2811630000    -1.1057620000
| 20>  H        0.7948440000     1.1915930000    -0.1266910000
| 21>  H        0.5845530000    -0.3935230000     0.6423090000
| 22>  H        2.4163960000    -2.1023040000     0.4443470000
| 23>  H        4.0715230000    -1.5881470000     0.0480570000
| 24>  H        2.8744790000    -1.8520520000    -1.2282600000
| 25>  H        2.9255690000     1.9893330000     0.1393270000
| 26>  H        4.8403700000     1.9597400000     1.8796900000
| 27>  H        6.3743460000     1.6951490000     1.1866490000
| 28>  H        5.1033020000    -0.1444300000    -1.4072400000
| 29> *
| 30>
| 31>                          ****END OF INPUT****
 Total Charge           Charge          ....    0
 Multiplicity           Mult            ....    1
 Number of Electrons    NEL             ....   54
 Basis Dimension        Dim             ....  148

MULLIKEN ATOMIC CHARGES
-----------------------
   0 C :    0.054316
   1 C :   -0.207501
   2 C :    0.053332
   3 C :   -0.029947
   4 C :   -0.121833
   5 N :   -0.067662
   6 N :   -0.117911
   7 H :    0.028399
   8 H :    0.016284
   9 H :    0.031506
  10 H :    0.019930
  11 H :    0.029832
  12 H :    0.033290
  13 H :   -0.009951
  14 H :    0.103564
  15 H :    0.105433
  16 H :    0.078920
Sum of atomic charges:   -0.0000000

LOEWDIN ATOMIC CHARGES
----------------------
   0 C :   -0.053236
   1 C :   -0.017651
   2 C :   -0.063352
   3 C :   -0.091216
   4 C :   -0.004116
   5 N :   -0.004986
   6 N :   -0.174664
   7 H :    0.036621
   8 H :    0.029828
   9 H :    0.036504
  10 H :    0.034862
  11 H :    0.031696
  12 H :    0.039797
  13 H :    0.026004
  14 H :    0.065804
  15 H :    0.067292
  16 H :    0.040815

  Mayer bond orders larger than 0.1
B(  0-C ,  1-C ) :   1.0826 B(  0-C ,  7-H ) :   0.9443 B(  0-C ,  8-H ) :   0.9544
B(  0-C ,  9-H ) :   0.9437 B(  1-C ,  2-C ) :   1.1102 B(  1-C ,  3-C ) :   1.8479
B(  2-C , 10-H ) :   0.9367 B(  2-C , 11-H ) :   0.9325 B(  2-C , 12-H ) :   0.9400
B(  3-C ,  4-C ) :   0.9728 B(  3-C , 13-H ) :   0.9331 B(  4-C ,  5-N ) :   1.2039
B(  4-C ,  6-N ) :   1.9105 B(  5-N , 14-H ) :   0.9515 B(  5-N , 15-H ) :   0.9420
B(  6-N , 16-H ) :   0.9306

FINAL SINGLE POINT ENERGY      -305.419040211873

DIPOLE MOMENT
-------------
                                X             Y             Z
Electronic contribution:      5.09831       3.08314       0.26130
Nuclear contribution   :     -6.00079      -3.12456       0.35521
                        -----------------------------------------
Total Dipole Moment    :     -0.90248      -0.04142       0.61651
                        -----------------------------------------
Magnitude (a.u.)       :      1.09374
Magnitude (Debye)      :      2.78007

                             ****ORCA TERMINATED NORMALLY****
TOTAL RUN TIME: 0 days 0 hours 0 minutes 8 seconds 218 msec
