                         Program Version 3.0.3 - RELEASE   -
|  1> ! RI PBE def2-SVP def2-SVP/J NBO PAL2
|  2> % maxcore 2000
|  3> % output
|  4>     # printlevel mini
|  5>     print[ P_Basis ] 0
|  6>     print[ P_SCFInfo ] 1
|  7>     print[ P_SCFIterInfo ] 1
|  8>     print[ P_OrbEn ] 0
|  9>     print[ P_Cartesian ] 0
| 10> end
| 11> *xyz 0 1
| 12>  C        1.0769640000    -0.0280980000    -0.0720700000
| 13>  C        2.6051870000     0.0605210000    -0.0020120000
| 14>  C        3.0270980000     0.6910190000     1.3177760000
| 15>  C        3.1905750000    -1.3510690000    -0.1157520000
| 16>  C        3.0871730000     0.8692490000    -1.1750590000
| 17>  N        3.7585460000     1.9382400000    -1.0470390000
| 18>  N        4.1533730000     2.6054120000    -2.1315690000
| 19>  H        0.6924510000    -0.6653850000     0.7293710000
| 20>  H        0.7484670000    -0.4548610000    -1.0244030000
| 21>  H        0.6236350000     0.9608920000     0.0295500000
| 22>  H        2.6649160000     0.0849160000     2.1527620000
| 23>  H        2.6221040000     1.6994730000     1.4186890000
| 24>  H        4.1136880000     0.7657730000     1.3879180000
| 25>  H        2.8091770000    -1.9903170000     0.6856140000
| 26>  H        4.2807830000    -1.3282440000    -0.0460180000
| 27>  H        2.9219770000    -1.8153140000    -1.0693280000
| 28>  H        2.8248130000     0.4828710000    -2.1716720000
| 29>  H        4.6803100000     3.4408880000    -1.9839420000
| 30>  H        3.9369500000     2.2884420000    -3.0642260000
| 31> *
| 32>
| 33>                          ****END OF INPUT****
 Total Charge           Charge          ....    0
 Multiplicity           Mult            ....    1
 Number of Electrons    NEL             ....   56
 Basis Dimension        Dim             ....  158

MULLIKEN ATOMIC CHARGES
-----------------------
   0 C :    0.062407
   1 C :   -0.306656
   2 C :    0.109570
   3 C :    0.046572
   4 C :   -0.023321
   5 N :   -0.074936
   6 N :   -0.065780
   7 H :    0.009394
   8 H :    0.004489
   9 H :    0.015839
  10 H :   -0.000167
  11 H :    0.006372
  12 H :    0.011171
  13 H :    0.011227
  14 H :    0.021543
  15 H :    0.007641
  16 H :   -0.044691
  17 H :    0.119698
  18 H :    0.089627
Sum of atomic charges:    0.0000000

LOEWDIN ATOMIC CHARGES
----------------------
   0 C :   -0.045094
   1 C :   -0.077202
   2 C :   -0.045211
   3 C :   -0.048207
   4 C :   -0.055411
   5 N :   -0.034935
   6 N :    0.017987
   7 H :    0.022286
   8 H :    0.020052
   9 H :    0.024359
  10 H :    0.020102
  11 H :    0.024722
  12 H :    0.025383
  13 H :    0.022687
  14 H :    0.025553
  15 H :    0.020574
  16 H :   -0.015358
  17 H :    0.059381
  18 H :    0.038333

  Mayer bond orders larger than 0.1
B(  0-C ,  1-C ) :   1.0346 B(  0-C ,  7-H ) :   0.9566 B(  0-C ,  8-H ) :   0.9592
B(  0-C ,  9-H ) :   0.9615 B(  1-C ,  2-C ) :   1.0917 B(  1-C ,  3-C ) :   1.0345
B(  1-C ,  4-C ) :   0.9664 B(  2-C , 10-H ) :   0.9543 B(  2-C , 11-H ) :   0.9445
B(  2-C , 12-H ) :   0.9469 B(  3-C , 13-H ) :   0.9551 B(  3-C , 14-H ) :   0.9617
B(  3-C , 15-H ) :   0.9586 B(  4-C ,  5-N ) :   1.8984 B(  4-C ,  6-N ) :   0.1522
B(  4-C , 16-H ) :   0.9386 B(  5-N ,  6-N ) :   1.1298 B(  6-N , 17-H ) :   0.9649
B(  6-N , 18-H ) :   0.9394

FINAL SINGLE POINT ENERGY      -306.589908739877

DIPOLE MOMENT
-------------
                                X             Y             Z
Electronic contribution:      2.93297       4.80545      -3.30012
Nuclear contribution   :     -2.82311      -4.60044       2.61747
                        -----------------------------------------
Total Dipole Moment    :      0.10985       0.20502      -0.68266
                        -----------------------------------------
Magnitude (a.u.)       :      0.72119
Magnitude (Debye)      :      1.83313

                             ****ORCA TERMINATED NORMALLY****
TOTAL RUN TIME: 0 days 0 hours 0 minutes 8 seconds 12 msec
