                         Program Version 3.0.3 - RELEASE   -
|  1> ! RI PBE def2-SVP def2-SVP/J NBO PAL2
|  2> % maxcore 2000
|  3> % output
|  4>     # printlevel mini
|  5>     print[ P_Basis ] 0
|  6>     print[ P_SCFInfo ] 1
|  7>     print[ P_SCFIterInfo ] 1
|  8>     print[ P_OrbEn ] 0
|  9>     print[ P_Cartesian ] 0
| 10> end
| 11> *xyz 0 1
| 12>  C        0.9511190000    -0.0153310000     0.0427760000
| 13>  C        2.4751540000     0.0783250000    -0.0660740000
| 14>  C        2.8576190000     1.5441510000    -0.2681190000
| 15>  C        3.1182730000    -0.4169320000     1.2317880000
| 16>  C        2.9362380000    -0.8341970000    -1.2145560000
| 17>  N        3.6077350000    -0.2410950000    -2.2366570000
| 18>  N        2.7331930000    -2.0931260000    -1.2701070000
| 19>  H        0.5949930000     0.6081340000     0.8675960000
| 20>  H        0.6243660000    -1.0396870000     0.2300680000
| 21>  H        0.4693150000     0.3262720000    -0.8765140000
| 22>  H        2.5017130000     2.1340500000     0.5797530000
| 23>  H        2.4004860000     1.9667500000    -1.1673300000
| 24>  H        3.9413470000     1.6812620000    -0.3218520000
| 25>  H        2.7907830000     0.2012040000     2.0723370000
| 26>  H        4.2082960000    -0.3665770000     1.1748790000
| 27>  H        2.8427220000    -1.4507890000     1.4470960000
| 28>  H        3.8027160000     0.7382720000    -2.2596370000
| 29>  H        3.9147090000    -0.8262060000    -2.9927980000
| 30>  H        2.2251020000    -2.4166700000    -0.4541380000
| 31> *
| 32>
| 33>                          ****END OF INPUT****
 Total Charge           Charge          ....    0
 Multiplicity           Mult            ....    1
 Number of Electrons    NEL             ....   56
 Basis Dimension        Dim             ....  158

MULLIKEN ATOMIC CHARGES
-----------------------
   0 C :    0.089048
   1 C :   -0.343180
   2 C :    0.043863
   3 C :    0.076883
   4 C :   -0.147012
   5 N :   -0.018680
   6 N :   -0.094693
   7 H :    0.009423
   8 H :    0.007261
   9 H :    0.019401
  10 H :    0.014906
  11 H :    0.017839
  12 H :    0.019276
  13 H :    0.009953
  14 H :    0.023043
  15 H :    0.008008
  16 H :    0.091089
  17 H :    0.105395
  18 H :    0.068178
Sum of atomic charges:    0.0000000

LOEWDIN ATOMIC CHARGES
----------------------
   0 C :   -0.039768
   1 C :   -0.083502
   2 C :   -0.057208
   3 C :   -0.042361
   4 C :    0.013981
   5 N :    0.014738
   6 N :   -0.193903
   7 H :    0.023333
   8 H :    0.021479
   9 H :    0.028057
  10 H :    0.029945
  11 H :    0.022488
  12 H :    0.022368
  13 H :    0.023591
  14 H :    0.028719
  15 H :    0.021859
  16 H :    0.061808
  17 H :    0.070501
  18 H :    0.033876

  Mayer bond orders larger than 0.1
B(  0-C ,  1-C ) :   1.0547 B(  0-C ,  7-H ) :   0.9564 B(  0-C ,  8-H ) :   0.9530
B(  0-C ,  9-H ) :   0.9579 B(  1-C ,  2-C ) :   1.0645 B(  1-C ,  3-C ) :   1.0557
B(  1-C ,  4-C ) :   0.8784 B(  2-C , 10-H ) :   0.9441 B(  2-C , 11-H ) :   0.9481
B(  2-C , 12-H ) :   0.9498 B(  3-C , 13-H ) :   0.9552 B(  3-C , 14-H ) :   0.9576
B(  3-C , 15-H ) :   0.9507 B(  4-C ,  5-N ) :   1.3002 B(  4-C ,  6-N ) :   1.9776
B(  5-N , 16-H ) :   0.9309 B(  5-N , 17-H ) :   0.9327 B(  6-N , 18-H ) :   0.9328

FINAL SINGLE POINT ENERGY      -306.628881508474

DIPOLE MOMENT
-------------
                                X             Y             Z
Electronic contribution:      1.73219      -3.40937      -4.31706
Nuclear contribution   :     -1.62629       4.46784       4.47483
                        -----------------------------------------
Total Dipole Moment    :      0.10590       1.05846       0.15777
                        -----------------------------------------
Magnitude (a.u.)       :      1.07538
Magnitude (Debye)      :      2.73341

                             ****ORCA TERMINATED NORMALLY****
TOTAL RUN TIME: 0 days 0 hours 0 minutes 8 seconds 541 msec
