                         Program Version 3.0.3 - RELEASE   -
|  1> ! RI PBE def2-SVP def2-SVP/J NBO PAL2
|  2> % maxcore 2000
|  3> % output
|  4>     # printlevel mini
|  5>     print[ P_Basis ] 0
|  6>     print[ P_SCFInfo ] 1
|  7>     print[ P_SCFIterInfo ] 1
|  8>     print[ P_OrbEn ] 0
|  9>     print[ P_Cartesian ] 0
| 10> end
| 11> *xyz 0 1
| 12>  C        1.0384480000     0.3060820000    -0.0941940000
| 13>  C        2.4955010000    -0.1142290000     0.1126850000
| 14>  C        2.8487970000    -0.1243520000     1.5893660000
| 15>  C        2.7640720000    -1.4302300000    -0.5724350000
| 16>  C        2.7268240000    -1.4713180000    -2.0714270000
| 17>  N        2.9900060000    -2.4592730000     0.1428740000
| 18>  N        3.1490220000    -3.6648010000    -0.4823050000
| 19>  H        0.8634010000     1.3033180000     0.3172720000
| 20>  H        0.3687010000    -0.3929180000     0.4139680000
| 21>  H        0.7611770000     0.3287430000    -1.1507970000
| 22>  H        3.1262220000     0.6336450000    -0.3897640000
| 23>  H        2.2422420000    -0.8548420000     2.1276220000
| 24>  H        2.6707800000     0.8620750000     2.0252140000
| 25>  H        3.8949320000    -0.3915660000     1.7470090000
| 26>  H        2.5076000000    -0.4914680000    -2.4945530000
| 27>  H        1.9713290000    -2.1796720000    -2.4276350000
| 28>  H        3.6906860000    -1.7960690000    -2.4836510000
| 29>  H        3.6462680000    -4.2958680000     0.1265380000
| 30>  H        3.5799930000    -3.6263470000    -1.4008760000
| 31> *
| 32>
| 33>                          ****END OF INPUT****
 Total Charge           Charge          ....    0
 Multiplicity           Mult            ....    1
 Number of Electrons    NEL             ....   56
 Basis Dimension        Dim             ....  158

MULLIKEN ATOMIC CHARGES
-----------------------
   0 C :    0.013583
   1 C :   -0.088471
   2 C :    0.066119
   3 C :   -0.210148
   4 C :    0.042099
   5 N :   -0.123522
   6 N :   -0.057430
   7 H :    0.015607
   8 H :    0.021425
   9 H :    0.007587
  10 H :    0.005407
  11 H :    0.019128
  12 H :    0.001385
  13 H :    0.007813
  14 H :    0.018203
  15 H :    0.043333
  16 H :    0.026417
  17 H :    0.111569
  18 H :    0.079897
Sum of atomic charges:    0.0000000

LOEWDIN ATOMIC CHARGES
----------------------
   0 C :   -0.053950
   1 C :   -0.051625
   2 C :   -0.054651
   3 C :   -0.062878
   4 C :   -0.081358
   5 N :   -0.061636
   6 N :   -0.005380
   7 H :    0.024299
   8 H :    0.027442
   9 H :    0.020378
  10 H :    0.027660
  11 H :    0.026965
  12 H :    0.020317
  13 H :    0.025121
  14 H :    0.033011
  15 H :    0.038395
  16 H :    0.032798
  17 H :    0.057641
  18 H :    0.037450

  Mayer bond orders larger than 0.1
B(  0-C ,  1-C ) :   1.0704 B(  0-C ,  7-H ) :   0.9607 B(  0-C ,  8-H ) :   0.9594
B(  0-C ,  9-H ) :   0.9585 B(  1-C ,  2-C ) :   1.1170 B(  1-C ,  3-C ) :   1.0093
B(  1-C , 10-H ) :   0.8903 B(  2-C , 11-H ) :   0.9491 B(  2-C , 12-H ) :   0.9547
B(  2-C , 13-H ) :   0.9535 B(  3-C ,  4-C ) :   1.0782 B(  3-C ,  5-N ) :   1.9358
B(  4-C , 14-H ) :   0.9408 B(  4-C , 15-H ) :   0.9418 B(  4-C , 16-H ) :   0.9289
B(  5-N ,  6-N ) :   1.0955 B(  6-N , 17-H ) :   0.9662 B(  6-N , 18-H ) :   0.9373

FINAL SINGLE POINT ENERGY      -306.596446643596

DIPOLE MOMENT
-------------
                                X             Y             Z
Electronic contribution:      1.92015      -4.56190       0.39719
Nuclear contribution   :     -1.50038       4.45587      -1.02765
                        -----------------------------------------
Total Dipole Moment    :      0.41977      -0.10603      -0.63046
                        -----------------------------------------
Magnitude (a.u.)       :      0.76481
Magnitude (Debye)      :      1.94398

                             ****ORCA TERMINATED NORMALLY****
TOTAL RUN TIME: 0 days 0 hours 0 minutes 8 seconds 884 msec
