                         Program Version 3.0.3 - RELEASE   -
|  1> ! RI PBE def2-SVP def2-SVP/J NBO PAL2
|  2> % maxcore 2000
|  3> % output
|  4>     # printlevel mini
|  5>     print[ P_Basis ] 0
|  6>     print[ P_SCFInfo ] 1
|  7>     print[ P_SCFIterInfo ] 1
|  8>     print[ P_OrbEn ] 0
|  9>     print[ P_Cartesian ] 0
| 10> end
| 11> *xyz 0 1
| 12>  C        0.9561590000    -0.2242840000    -0.2042850000
| 13>  C        2.4117990000     0.1282590000     0.0634900000
| 14>  C        2.6312220000     1.6326530000     0.0006570000
| 15>  C        2.8842740000    -0.4275440000     1.4123870000
| 16>  C        2.8972940000    -1.9150350000     1.4820940000
| 17>  N        2.1803300000    -2.5480500000     2.3197910000
| 18>  N        2.2224770000    -3.8796880000     2.3502790000
| 19>  H        0.6398620000     0.1299200000    -1.1888400000
| 20>  H        0.3050850000     0.2395920000     0.5436110000
| 21>  H        0.7893300000    -1.3026640000    -0.1593060000
| 22>  H        3.0258000000    -0.3362410000    -0.7205490000
| 23>  H        2.0468230000     2.1407690000     0.7744930000
| 24>  H        2.3229540000     2.0387720000    -0.9662170000
| 25>  H        3.6823830000     1.8911490000     0.1544210000
| 26>  H        2.2424900000    -0.0507810000     2.2149910000
| 27>  H        3.8968950000    -0.0488380000     1.6053560000
| 28>  H        3.5476880000    -2.4545640000     0.7780950000
| 29>  H        1.6415660000    -4.3364740000     3.0222180000
| 30>  H        2.8068790000    -4.4134510000     1.7250150000
| 31> *
| 32>
| 33>                          ****END OF INPUT****
 Total Charge           Charge          ....    0
 Multiplicity           Mult            ....    1
 Number of Electrons    NEL             ....   56
 Basis Dimension        Dim             ....  158

MULLIKEN ATOMIC CHARGES
-----------------------
   0 C :    0.033635
   1 C :   -0.183334
   2 C :    0.038165
   3 C :    0.122336
   4 C :   -0.111664
   5 N :   -0.074596
   6 N :   -0.071069
   7 H :    0.007791
   8 H :    0.009818
   9 H :    0.022254
  10 H :    0.004129
  11 H :    0.009865
  12 H :    0.010440
  13 H :    0.009232
  14 H :   -0.000086
  15 H :    0.002106
  16 H :   -0.039228
  17 H :    0.119596
  18 H :    0.090610
Sum of atomic charges:   -0.0000000

LOEWDIN ATOMIC CHARGES
----------------------
   0 C :   -0.058485
   1 C :   -0.047730
   2 C :   -0.058075
   3 C :   -0.044612
   4 C :   -0.071534
   5 N :   -0.037948
   6 N :    0.019043
   7 H :    0.021973
   8 H :    0.024159
   9 H :    0.024431
  10 H :    0.020470
  11 H :    0.023474
  12 H :    0.023125
  13 H :    0.022234
  14 H :    0.029481
  15 H :    0.027000
  16 H :   -0.015403
  17 H :    0.059796
  18 H :    0.038603

  Mayer bond orders larger than 0.1
B(  0-C ,  1-C ) :   1.0784 B(  0-C ,  7-H ) :   0.9611 B(  0-C ,  8-H ) :   0.9578
B(  0-C ,  9-H ) :   0.9559 B(  1-C ,  2-C ) :   1.0822 B(  1-C ,  3-C ) :   1.0488
B(  1-C , 10-H ) :   0.9151 B(  2-C , 11-H ) :   0.9589 B(  2-C , 12-H ) :   0.9614
B(  2-C , 13-H ) :   0.9593 B(  3-C ,  4-C ) :   1.0569 B(  3-C , 14-H ) :   0.9150
B(  3-C , 15-H ) :   0.9114 B(  4-C ,  5-N ) :   1.8453 B(  4-C ,  6-N ) :   0.1561
B(  4-C , 16-H ) :   0.9289 B(  5-N ,  6-N ) :   1.1359 B(  6-N , 17-H ) :   0.9654
B(  6-N , 18-H ) :   0.9391

FINAL SINGLE POINT ENERGY      -306.589945673230

DIPOLE MOMENT
-------------
                                X             Y             Z
Electronic contribution:      0.79772      -6.50362       4.46589
Nuclear contribution   :     -0.60766       5.81962      -4.63622
                        -----------------------------------------
Total Dipole Moment    :      0.19005      -0.68400      -0.17033
                        -----------------------------------------
Magnitude (a.u.)       :      0.73006
Magnitude (Debye)      :      1.85566

                             ****ORCA TERMINATED NORMALLY****
TOTAL RUN TIME: 0 days 0 hours 0 minutes 7 seconds 303 msec
