                         Program Version 3.0.3 - RELEASE   -
|  1> ! RI PBE def2-SVP def2-SVP/J NBO PAL2
|  2> % maxcore 2000
|  3> % output
|  4>     # printlevel mini
|  5>     print[ P_Basis ] 0
|  6>     print[ P_SCFInfo ] 1
|  7>     print[ P_SCFIterInfo ] 1
|  8>     print[ P_OrbEn ] 0
|  9>     print[ P_Cartesian ] 0
| 10> end
| 11> *xyz 0 1
| 12>  C        0.9909300000    -0.4574220000     0.1783190000
| 13>  C        2.4154650000    -0.1329870000    -0.2463270000
| 14>  C        2.7690360000    -0.8212250000    -1.5569090000
| 15>  C        2.6362570000     1.3795960000    -0.3700920000
| 16>  C        2.3848920000     2.1539600000     0.8997190000
| 17>  N        3.3075290000     1.9418380000     1.8901840000
| 18>  N        1.4345060000     2.9791620000     1.1009410000
| 19>  H        0.8525910000    -1.5355990000     0.2899910000
| 20>  H        0.2772640000    -0.1070140000    -0.5743810000
| 21>  H        0.7316200000     0.0197370000     1.1258080000
| 22>  H        3.0955250000    -0.5195140000     0.5248200000
| 23>  H        2.1196240000    -0.4707330000    -2.3652930000
| 24>  H        2.6441150000    -1.9040100000    -1.4790770000
| 25>  H        3.8029340000    -0.6214700000    -1.8502750000
| 26>  H        1.9730740000     1.7715580000    -1.1467010000
| 27>  H        3.6641090000     1.5670560000    -0.7006000000
| 28>  H        3.8499710000     1.0974570000     1.8759580000
| 29>  H        3.0626690000     2.3005080000     2.7982320000
| 30>  H        0.8672880000     3.0722800000     0.2647950000
| 31> *
| 32>
| 33>                          ****END OF INPUT****
 Total Charge           Charge          ....    0
 Multiplicity           Mult            ....    1
 Number of Electrons    NEL             ....   56
 Basis Dimension        Dim             ....  158

MULLIKEN ATOMIC CHARGES
-----------------------
   0 C :    0.022526
   1 C :   -0.190460
   2 C :    0.027255
   3 C :    0.117399
   4 C :   -0.222111
   5 N :   -0.046991
   6 N :   -0.109307
   7 H :    0.020113
   8 H :    0.011749
   9 H :    0.032996
  10 H :    0.004434
  11 H :    0.014789
  12 H :    0.024200
  13 H :    0.013557
  14 H :   -0.013281
  15 H :    0.013914
  16 H :    0.096264
  17 H :    0.108562
  18 H :    0.074393
Sum of atomic charges:   -0.0000000

LOEWDIN ATOMIC CHARGES
----------------------
   0 C :   -0.060895
   1 C :   -0.045942
   2 C :   -0.059180
   3 C :   -0.051144
   4 C :   -0.001005
   5 N :   -0.003155
   6 N :   -0.183009
   7 H :    0.026411
   8 H :    0.025118
   9 H :    0.029475
  10 H :    0.017752
  11 H :    0.025711
  12 H :    0.027213
  13 H :    0.024566
  14 H :    0.027679
  15 H :    0.031292
  16 H :    0.061243
  17 H :    0.068642
  18 H :    0.039230

  Mayer bond orders larger than 0.1
B(  0-C ,  1-C ) :   1.0807 B(  0-C ,  7-H ) :   0.9599 B(  0-C ,  8-H ) :   0.9575
B(  0-C ,  9-H ) :   0.9507 B(  1-C ,  2-C ) :   1.0890 B(  1-C ,  3-C ) :   1.0572
B(  1-C , 10-H ) :   0.9092 B(  2-C , 11-H ) :   0.9570 B(  2-C , 12-H ) :   0.9609
B(  2-C , 13-H ) :   0.9571 B(  3-C ,  4-C ) :   0.9996 B(  3-C , 14-H ) :   0.8998
B(  3-C , 15-H ) :   0.9100 B(  4-C ,  5-N ) :   1.2455 B(  4-C ,  6-N ) :   1.9393
B(  5-N , 16-H ) :   0.9498 B(  5-N , 17-H ) :   0.9408 B(  6-N , 18-H ) :   0.9254

FINAL SINGLE POINT ENERGY      -306.632348497308

DIPOLE MOMENT
-------------
                                X             Y             Z
Electronic contribution:      0.86124       5.81187       4.00805
Nuclear contribution   :     -0.35674      -6.74322      -4.23709
                        -----------------------------------------
Total Dipole Moment    :      0.50451      -0.93135      -0.22903
                        -----------------------------------------
Magnitude (a.u.)       :      1.08369
Magnitude (Debye)      :      2.75453

                             ****ORCA TERMINATED NORMALLY****
TOTAL RUN TIME: 0 days 0 hours 0 minutes 8 seconds 363 msec
