                         Program Version 3.0.3 - RELEASE   -
|  1> ! RI PBE def2-SVP def2-SVP/J NBO PAL2
|  2> % maxcore 2000
|  3> % output
|  4>     # printlevel mini
|  5>     print[ P_Basis ] 0
|  6>     print[ P_SCFInfo ] 1
|  7>     print[ P_SCFIterInfo ] 1
|  8>     print[ P_OrbEn ] 0
|  9>     print[ P_Cartesian ] 0
| 10> end
| 11> *xyz 0 1
| 12>  C        1.1530270000    -0.2926250000     0.0268700000
| 13>  C        2.6407280000     0.0824100000    -0.0584050000
| 14>  C        2.9688050000     0.5624680000    -1.3908490000
| 15>  C        3.2155020000     0.9603460000    -2.4959640000
| 16>  C        3.0166160000     1.1038870000     1.0170400000
| 17>  N        3.0552340000     0.5707120000     2.2799760000
| 18>  N        3.3020360000     2.3250680000     0.8310310000
| 19>  H        0.9045570000    -1.0252020000    -0.7416000000
| 20>  H        0.5323780000     0.5915520000    -0.1246680000
| 21>  H        0.9065840000    -0.7242390000     0.9989480000
| 22>  H        3.2382590000    -0.8184950000     0.1299300000
| 23>  H        3.4436360000     1.3082680000    -3.4757980000
| 24>  H        2.5158500000    -0.2531950000     2.4760560000
| 25>  H        3.1058430000     1.2471910000     3.0241900000
| 26>  H        3.3011450000     2.5421520000    -0.1619580000
| 27> *
| 28>
| 29>                          ****END OF INPUT****
 Total Charge           Charge          ....    0
 Multiplicity           Mult            ....    1
 Number of Electrons    NEL             ....   52
 Basis Dimension        Dim             ....  138

MULLIKEN ATOMIC CHARGES
-----------------------
   0 C :    0.033078
   1 C :    0.010824
   2 C :    0.376561
   3 C :   -0.514574
   4 C :   -0.212063
   5 N :   -0.042996
   6 N :   -0.078322
   7 H :    0.043244
   8 H :    0.037362
   9 H :    0.009575
  10 H :    0.039365
  11 H :    0.002043
  12 H :    0.097350
  13 H :    0.112761
  14 H :    0.085792
Sum of atomic charges:    0.0000000

LOEWDIN ATOMIC CHARGES
----------------------
   0 C :   -0.038420
   1 C :   -0.071351
   2 C :   -0.013474
   3 C :   -0.077502
   4 C :    0.005965
   5 N :   -0.003619
   6 N :   -0.163972
   7 H :    0.035247
   8 H :    0.036004
   9 H :    0.021028
  10 H :    0.052368
  11 H :    0.037266
  12 H :    0.062223
  13 H :    0.072262
  14 H :    0.045974

  Mayer bond orders larger than 0.1
B(  0-C ,  1-C ) :   1.0572 B(  0-C ,  7-H ) :   0.9635 B(  0-C ,  8-H ) :   0.9575
B(  0-C ,  9-H ) :   0.9531 B(  1-C ,  2-C ) :   0.9972 B(  1-C ,  4-C ) :   0.8723
B(  1-C , 10-H ) :   0.8640 B(  2-C ,  3-C ) :   2.3022 B(  2-C , 11-H ) :  -0.1174
B(  3-C , 11-H ) :   1.1071 B(  4-C ,  5-N ) :   1.2401 B(  4-C ,  6-N ) :   2.0258
B(  5-N , 12-H ) :   0.9439 B(  5-N , 13-H ) :   0.9413 B(  6-N , 14-H ) :   0.9150

FINAL SINGLE POINT ENERGY      -304.162881437515

DIPOLE MOMENT
-------------
                                X             Y             Z
Electronic contribution:      3.11518       2.04344      -1.03410
Nuclear contribution   :     -3.70673      -2.96012       1.16092
                        -----------------------------------------
Total Dipole Moment    :     -0.59155      -0.91667       0.12682
                        -----------------------------------------
Magnitude (a.u.)       :      1.09832
Magnitude (Debye)      :      2.79170

                             ****ORCA TERMINATED NORMALLY****
TOTAL RUN TIME: 0 days 0 hours 0 minutes 6 seconds 993 msec
