                         Program Version 3.0.3 - RELEASE   -
|  1> ! RI PBE def2-SVP def2-SVP/J NBO PAL2
|  2> % maxcore 2000
|  3> % output
|  4>     # printlevel mini
|  5>     print[ P_Basis ] 0
|  6>     print[ P_SCFInfo ] 1
|  7>     print[ P_SCFIterInfo ] 1
|  8>     print[ P_OrbEn ] 0
|  9>     print[ P_Cartesian ] 0
| 10> end
| 11> *xyz 0 1
| 12>  C        1.2482750000     0.0436360000     0.3653700000
| 13>  C        2.4465940000    -0.2855810000    -0.4611120000
| 14>  C        3.7782300000     0.2618480000    -0.0025730000
| 15>  C        4.4699500000    -0.6703680000     0.9453930000
| 16>  C        4.7899910000    -0.3779070000     2.1980730000
| 17>  N        2.2812120000    -1.0102320000    -1.4950040000
| 18>  N        3.3588930000    -1.2955050000    -2.2915470000
| 19>  H        1.3926270000    -0.2763450000     1.4025310000
| 20>  H        0.3652070000    -0.4488080000    -0.0395290000
| 21>  H        1.0746690000     1.1250390000     0.3864840000
| 22>  H        3.6195260000     1.2234950000     0.4927510000
| 23>  H        4.4100970000     0.4527650000    -0.8783370000
| 24>  H        4.6956530000    -1.6663560000     0.5673840000
| 25>  H        4.5773030000     0.5980990000     2.6235780000
| 26>  H        5.2778590000    -1.1003750000     2.8419050000
| 27>  H        3.1347900000    -2.0846650000    -2.8770540000
| 28>  H        4.2349250000    -1.4488300000    -1.8051130000
| 29> *
| 30>
| 31>                          ****END OF INPUT****
 Total Charge           Charge          ....    0
 Multiplicity           Mult            ....    1
 Number of Electrons    NEL             ....   54
 Basis Dimension        Dim             ....  148

MULLIKEN ATOMIC CHARGES
-----------------------
   0 C :    0.084211
   1 C :   -0.241011
   2 C :    0.089684
   3 C :   -0.068612
   4 C :   -0.041662
   5 N :   -0.110341
   6 N :   -0.061239
   7 H :    0.023795
   8 H :    0.018845
   9 H :    0.024887
  10 H :    0.002348
  11 H :    0.028765
  12 H :   -0.001722
  13 H :    0.019234
  14 H :    0.028470
  15 H :    0.113289
  16 H :    0.091061
Sum of atomic charges:    0.0000000

LOEWDIN ATOMIC CHARGES
----------------------
   0 C :   -0.063518
   1 C :   -0.058730
   2 C :   -0.056954
   3 C :   -0.026880
   4 C :   -0.067012
   5 N :   -0.061139
   6 N :   -0.005898
   7 H :    0.034048
   8 H :    0.033799
   9 H :    0.032712
  10 H :    0.036184
  11 H :    0.035448
  12 H :    0.020472
  13 H :    0.022455
  14 H :    0.026188
  15 H :    0.059680
  16 H :    0.039146

  Mayer bond orders larger than 0.1
B(  0-C ,  1-C ) :   1.0918 B(  0-C ,  7-H ) :   0.9425 B(  0-C ,  8-H ) :   0.9455
B(  0-C ,  9-H ) :   0.9410 B(  1-C ,  2-C ) :   1.0050 B(  1-C ,  5-N ) :   1.9339
B(  2-C ,  3-C ) :   1.0590 B(  2-C , 10-H ) :   0.9055 B(  2-C , 11-H ) :   0.8943
B(  3-C ,  4-C ) :   2.0130 B(  3-C , 12-H ) :   0.9464 B(  4-C , 13-H ) :   0.9486
B(  4-C , 14-H ) :   0.9435 B(  5-N ,  6-N ) :   1.0851 B(  6-N , 15-H ) :   0.9652
B(  6-N , 16-H ) :   0.9410

FINAL SINGLE POINT ENERGY      -305.370635349524

DIPOLE MOMENT
-------------
                                X             Y             Z
Electronic contribution:     -0.28267      -1.43989      -3.65212
Nuclear contribution   :      0.83061       1.20807       3.83955
                        -----------------------------------------
Total Dipole Moment    :      0.54793      -0.23181       0.18742
                        -----------------------------------------
Magnitude (a.u.)       :      0.62378
Magnitude (Debye)      :      1.58551

                             ****ORCA TERMINATED NORMALLY****
TOTAL RUN TIME: 0 days 0 hours 0 minutes 7 seconds 677 msec
