                         Program Version 3.0.3 - RELEASE   -
|  1> ! RI PBE def2-SVP def2-SVP/J NBO PAL2
|  2> % maxcore 2000
|  3> % output
|  4>     # printlevel mini
|  5>     print[ P_Basis ] 0
|  6>     print[ P_SCFInfo ] 1
|  7>     print[ P_SCFIterInfo ] 1
|  8>     print[ P_OrbEn ] 0
|  9>     print[ P_Cartesian ] 0
| 10> end
| 11> *xyz 0 1
| 12>  C        1.1185720000     0.0657900000    -0.2331360000
| 13>  C        2.5991260000    -0.0017560000    -0.0736230000
| 14>  C        3.2270640000     0.7385970000     1.0913240000
| 15>  C        3.7680590000    -0.1447610000     2.1143410000
| 16>  C        4.2202200000    -0.8944900000     2.9366810000
| 17>  N        3.2822460000    -0.6502300000    -0.9283540000
| 18>  N        4.6418300000    -0.6778580000    -0.7864940000
| 19>  H        0.7795510000     1.1035090000    -0.3251230000
| 20>  H        0.6114720000    -0.3594200000     0.6394590000
| 21>  H        0.8147200000    -0.4865770000    -1.1212260000
| 22>  H        2.4899070000     1.4055400000     1.5455600000
| 23>  H        4.0389310000     1.3676290000     0.7022790000
| 24>  H        4.6123360000    -1.5533370000     3.6750020000
| 25>  H        5.0185580000    -1.4103800000    -1.3676700000
| 26>  H        4.9668970000    -0.7764640000     0.1713810000
| 27> *
| 28>
| 29>                          ****END OF INPUT****
 Total Charge           Charge          ....    0
 Multiplicity           Mult            ....    1
 Number of Electrons    NEL             ....   52
 Basis Dimension        Dim             ....  138

MULLIKEN ATOMIC CHARGES
-----------------------
   0 C :    0.072133
   1 C :   -0.238714
   2 C :    0.119018
   3 C :    0.301935
   4 C :   -0.476674
   5 N :   -0.099402
   6 N :   -0.059962
   7 H :    0.025375
   8 H :    0.031933
   9 H :    0.026159
  10 H :    0.030538
  11 H :    0.054692
  12 H :    0.001025
  13 H :    0.114272
  14 H :    0.097672
Sum of atomic charges:    0.0000000

LOEWDIN ATOMIC CHARGES
----------------------
   0 C :   -0.063149
   1 C :   -0.059745
   2 C :   -0.062761
   3 C :   -0.027076
   4 C :   -0.090132
   5 N :   -0.054827
   6 N :   -0.003025
   7 H :    0.032259
   8 H :    0.036139
   9 H :    0.036569
  10 H :    0.054099
  11 H :    0.057777
  12 H :    0.035983
  13 H :    0.060509
  14 H :    0.047380

  Mayer bond orders larger than 0.1
B(  0-C ,  1-C ) :   1.0988 B(  0-C ,  7-H ) :   0.9427 B(  0-C ,  8-H ) :   0.9426
B(  0-C ,  9-H ) :   0.9482 B(  1-C ,  2-C ) :   0.9813 B(  1-C ,  5-N ) :   1.9438
B(  2-C ,  3-C ) :   1.0744 B(  2-C , 10-H ) :   0.8783 B(  2-C , 11-H ) :   0.8755
B(  3-C ,  4-C ) :   2.3274 B(  3-C , 12-H ) :  -0.1135 B(  4-C , 12-H ) :   1.1048
B(  5-N ,  6-N ) :   1.1066 B(  6-N , 13-H ) :   0.9645 B(  6-N , 14-H ) :   0.9331

FINAL SINGLE POINT ENERGY      -304.129450800676

DIPOLE MOMENT
-------------
                                X             Y             Z
Electronic contribution:      2.81498      -1.10758       0.65718
Nuclear contribution   :     -2.60746       1.05967      -0.24325
                        -----------------------------------------
Total Dipole Moment    :      0.20752      -0.04791       0.41393
                        -----------------------------------------
Magnitude (a.u.)       :      0.46551
Magnitude (Debye)      :      1.18324

                             ****ORCA TERMINATED NORMALLY****
TOTAL RUN TIME: 0 days 0 hours 0 minutes 7 seconds 169 msec
