                         Program Version 3.0.3 - RELEASE   -
|  1> ! RI PBE def2-SVP def2-SVP/J NBO PAL2
|  2> % maxcore 2000
|  3> % output
|  4>     # printlevel mini
|  5>     print[ P_Basis ] 0
|  6>     print[ P_SCFInfo ] 1
|  7>     print[ P_SCFIterInfo ] 1
|  8>     print[ P_OrbEn ] 0
|  9>     print[ P_Cartesian ] 0
| 10> end
| 11> *xyz 0 1
| 12>  C        1.0144600000     0.1149940000    -0.0414850000
| 13>  C        2.4634630000     0.0876990000    -0.0511300000
| 14>  C        3.6682990000     0.0406800000    -0.0676280000
| 15>  C        5.0897460000     0.0654110000    -0.0564010000
| 16>  C        5.7888740000     1.3156560000     0.3935910000
| 17>  N        5.7161560000    -0.9935860000    -0.4358410000
| 18>  N        7.0425190000    -0.9857700000    -0.4314470000
| 19>  H        0.6067300000    -0.8021740000    -0.4740330000
| 20>  H        0.6302270000     0.9582360000    -0.6220420000
| 21>  H        0.6259660000     0.2058050000     0.9767630000
| 22>  H        5.0700340000     2.0842060000     0.6687370000
| 23>  H        6.4282490000     1.7180280000    -0.4016060000
| 24>  H        6.4260310000     1.1195630000     1.2645920000
| 25>  H        7.4910490000    -1.8277320000    -0.7311980000
| 26>  H        7.5928080000    -0.1927050000    -0.1438650000
| 27> *
| 28>
| 29>                          ****END OF INPUT****
 Total Charge           Charge          ....    0
 Multiplicity           Mult            ....    1
 Number of Electrons    NEL             ....   52
 Basis Dimension        Dim             ....  138

MULLIKEN ATOMIC CHARGES
-----------------------
   0 C :    0.056392
   1 C :   -0.238899
   2 C :    0.078923
   3 C :   -0.260402
   4 C :    0.046953
   5 N :   -0.071785
   6 N :   -0.059245
   7 H :    0.047491
   8 H :    0.043770
   9 H :    0.042020
  10 H :    0.026248
  11 H :    0.034529
  12 H :    0.033676
  13 H :    0.126241
  14 H :    0.094088
Sum of atomic charges:   -0.0000000

LOEWDIN ATOMIC CHARGES
----------------------
   0 C :   -0.067912
   1 C :   -0.065316
   2 C :   -0.061395
   3 C :   -0.100924
   4 C :   -0.076575
   5 N :   -0.029254
   6 N :    0.040296
   7 H :    0.051324
   8 H :    0.048076
   9 H :    0.047572
  10 H :    0.042533
  11 H :    0.032975
  12 H :    0.032898
  13 H :    0.065084
  14 H :    0.040618

  Mayer bond orders larger than 0.1
B(  0-C ,  1-C ) :   1.1338 B(  0-C ,  7-H ) :   0.9322 B(  0-C ,  8-H ) :   0.9325
B(  0-C ,  9-H ) :   0.9319 B(  1-C ,  2-C ) :   2.4611 B(  2-C ,  3-C ) :   1.0109
B(  3-C ,  4-C ) :   1.0857 B(  3-C ,  5-N ) :   1.7877 B(  3-C ,  6-N ) :   0.1308
B(  4-C , 10-H ) :   0.9400 B(  4-C , 11-H ) :   0.9370 B(  4-C , 12-H ) :   0.9359
B(  5-N ,  6-N ) :   1.1484 B(  6-N , 13-H ) :   0.9623 B(  6-N , 14-H ) :   0.9333

FINAL SINGLE POINT ENERGY      -304.143340421863

DIPOLE MOMENT
-------------
                                X             Y             Z
Electronic contribution:      1.55669      -3.10615      -1.11816
Nuclear contribution   :     -0.86317       3.43561       1.24066
                        -----------------------------------------
Total Dipole Moment    :      0.69352       0.32946       0.12250
                        -----------------------------------------
Magnitude (a.u.)       :      0.77751
Magnitude (Debye)      :      1.97627

                             ****ORCA TERMINATED NORMALLY****
TOTAL RUN TIME: 0 days 0 hours 0 minutes 6 seconds 615 msec
