                         Program Version 3.0.3 - RELEASE   -
|  1> ! RI PBE def2-SVP def2-SVP/J NBO PAL2
|  2> % maxcore 2000
|  3> % output
|  4>     # printlevel mini
|  5>     print[ P_Basis ] 0
|  6>     print[ P_SCFInfo ] 1
|  7>     print[ P_SCFIterInfo ] 1
|  8>     print[ P_OrbEn ] 0
|  9>     print[ P_Cartesian ] 0
| 10> end
| 11> *xyz 0 1
| 12>  C        0.9587550000    -0.0355560000    -0.0348400000
| 13>  C        2.4094480000    -0.0709380000    -0.0538510000
| 14>  C        3.6115790000    -0.0903700000    -0.0668940000
| 15>  C        5.0680950000    -0.1334290000    -0.0958570000
| 16>  C        5.5973540000    -0.9885350000    -1.2068910000
| 17>  N        6.4509950000    -0.5267180000    -2.0189790000
| 18>  N        6.9705810000    -1.3567960000    -2.9624880000
| 19>  H        0.5626850000     0.3780830000    -0.9656960000
| 20>  H        0.5934880000     0.5834320000     0.7885740000
| 21>  H        0.5420190000    -1.0380760000     0.0910940000
| 22>  H        5.4312030000    -0.5177500000     0.8666430000
| 23>  H        5.4827750000     0.8713890000    -0.2128100000
| 24>  H        5.2212630000    -2.0166710000    -1.2783890000
| 25>  H        7.2778320000    -0.8289990000    -3.7638830000
| 26>  H        6.3762280000    -2.1385560000    -3.2241440000
| 27> *
| 28>
| 29>                          ****END OF INPUT****
 Total Charge           Charge          ....    0
 Multiplicity           Mult            ....    1
 Number of Electrons    NEL             ....   52
 Basis Dimension        Dim             ....  138

MULLIKEN ATOMIC CHARGES
-----------------------
   0 C :    0.053151
   1 C :   -0.220382
   2 C :   -0.130947
   3 C :    0.168994
   4 C :   -0.085679
   5 N :   -0.117552
   6 N :   -0.055262
   7 H :    0.044851
   8 H :    0.046838
   9 H :    0.043089
  10 H :    0.039018
  11 H :    0.032477
  12 H :   -0.018597
  13 H :    0.116503
  14 H :    0.083497
Sum of atomic charges:   -0.0000000

LOEWDIN ATOMIC CHARGES
----------------------
   0 C :   -0.068429
   1 C :   -0.072407
   2 C :   -0.067471
   3 C :   -0.051689
   4 C :   -0.040951
   5 N :   -0.045584
   6 N :    0.001627
   7 H :    0.048837
   8 H :    0.049981
   9 H :    0.048516
  10 H :    0.052288
  11 H :    0.052826
  12 H :   -0.007183
  13 H :    0.059668
  14 H :    0.039970

  Mayer bond orders larger than 0.1
B(  0-C ,  1-C ) :   1.1348 B(  0-C ,  7-H ) :   0.9326 B(  0-C ,  8-H ) :   0.9345
B(  0-C ,  9-H ) :   0.9330 B(  1-C ,  2-C ) :   2.6410 B(  2-C ,  3-C ) :   1.0324
B(  3-C ,  4-C ) :   1.0270 B(  3-C , 10-H ) :   0.8913 B(  3-C , 11-H ) :   0.8887
B(  4-C ,  5-N ) :   1.9002 B(  4-C ,  6-N ) :   0.1291 B(  4-C , 12-H ) :   0.9314
B(  5-N ,  6-N ) :   1.1086 B(  6-N , 13-H ) :   0.9637 B(  6-N , 14-H ) :   0.9434

FINAL SINGLE POINT ENERGY      -304.133681745389

DIPOLE MOMENT
-------------
                                X             Y             Z
Electronic contribution:      3.71659       0.35003      -0.64428
Nuclear contribution   :     -4.13676      -0.75421       0.18179
                        -----------------------------------------
Total Dipole Moment    :     -0.42017      -0.40418      -0.46249
                        -----------------------------------------
Magnitude (a.u.)       :      0.74417
Magnitude (Debye)      :      1.89154

                             ****ORCA TERMINATED NORMALLY****
TOTAL RUN TIME: 0 days 0 hours 0 minutes 6 seconds 893 msec
