                         Program Version 3.0.3 - RELEASE   -
|  1> ! RI PBE def2-SVP def2-SVP/J NBO PAL2
|  2> % maxcore 2000
|  3> % output
|  4>     # printlevel mini
|  5>     print[ P_Basis ] 0
|  6>     print[ P_SCFInfo ] 1
|  7>     print[ P_SCFIterInfo ] 1
|  8>     print[ P_OrbEn ] 0
|  9>     print[ P_Cartesian ] 0
| 10> end
| 11> *xyz 0 1
| 12>  C        1.0442690000    -0.1536370000     0.3993380000
| 13>  C        2.4743950000    -0.0650950000     0.1692800000
| 14>  C        3.6578880000    -0.0035670000    -0.0374140000
| 15>  C        5.0895650000     0.0885880000    -0.2724960000
| 16>  C        5.7617590000     1.3373780000     0.2867990000
| 17>  N        5.2158420000     1.8036400000     1.4433670000
| 18>  N        6.8026960000     1.8759420000    -0.2084800000
| 19>  H        0.5650770000    -0.7579850000    -0.3748480000
| 20>  H        0.5807200000     0.8358670000     0.3848840000
| 21>  H        0.8277890000    -0.6147270000     1.3661100000
| 22>  H        5.2964480000     0.0442230000    -1.3446970000
| 23>  H        5.5860840000    -0.7773720000     0.1813810000
| 24>  H        4.2482250000     1.5929600000     1.6204470000
| 25>  H        5.5622810000     2.6923670000     1.7636350000
| 26>  H        7.1081720000     1.3788190000    -1.0388870000
| 27> *
| 28>
| 29>                          ****END OF INPUT****
 Total Charge           Charge          ....    0
 Multiplicity           Mult            ....    1
 Number of Electrons    NEL             ....   52
 Basis Dimension        Dim             ....  138

MULLIKEN ATOMIC CHARGES
-----------------------
   0 C :    0.054050
   1 C :   -0.231295
   2 C :   -0.152950
   3 C :    0.201239
   4 C :   -0.246572
   5 N :   -0.043320
   6 N :   -0.110083
   7 H :    0.053316
   8 H :    0.047485
   9 H :    0.046930
  10 H :    0.028082
  11 H :    0.057442
  12 H :    0.112195
  13 H :    0.110153
  14 H :    0.073327
Sum of atomic charges:   -0.0000000

LOEWDIN ATOMIC CHARGES
----------------------
   0 C :   -0.068014
   1 C :   -0.067637
   2 C :   -0.077613
   3 C :   -0.061454
   4 C :    0.002312
   5 N :    0.005292
   6 N :   -0.183391
   7 H :    0.053768
   8 H :    0.050589
   9 H :    0.050504
  10 H :    0.051933
  11 H :    0.064098
  12 H :    0.067618
  13 H :    0.070974
  14 H :    0.041022

  Mayer bond orders larger than 0.1
B(  0-C ,  1-C ) :   1.1402 B(  0-C ,  7-H ) :   0.9323 B(  0-C ,  8-H ) :   0.9311
B(  0-C ,  9-H ) :   0.9308 B(  1-C ,  2-C ) :   2.6106 B(  2-C ,  3-C ) :   1.0321
B(  3-C ,  4-C ) :   0.9264 B(  3-C , 10-H ) :   0.8858 B(  3-C , 11-H ) :   0.8794
B(  4-C ,  5-N ) :   1.2634 B(  4-C ,  6-N ) :   1.9587 B(  5-N , 12-H ) :   0.9292
B(  5-N , 13-H ) :   0.9408 B(  6-N , 14-H ) :   0.9242

FINAL SINGLE POINT ENERGY      -304.177129140863

DIPOLE MOMENT
-------------
                                X             Y             Z
Electronic contribution:      3.34165       0.93894      -0.19241
Nuclear contribution   :     -4.43909      -1.36374       0.34036
                        -----------------------------------------
Total Dipole Moment    :     -1.09744      -0.42479       0.14795
                        -----------------------------------------
Magnitude (a.u.)       :      1.18605
Magnitude (Debye)      :      3.01469

                             ****ORCA TERMINATED NORMALLY****
TOTAL RUN TIME: 0 days 0 hours 0 minutes 6 seconds 971 msec
