                         Program Version 3.0.3 - RELEASE   -
|  1> ! RI PBE def2-SVP def2-SVP/J NBO PAL2
|  2> % maxcore 2000
|  3> % output
|  4>     # printlevel mini
|  5>     print[ P_Basis ] 0
|  6>     print[ P_SCFInfo ] 1
|  7>     print[ P_SCFIterInfo ] 1
|  8>     print[ P_OrbEn ] 0
|  9>     print[ P_Cartesian ] 0
| 10> end
| 11> *xyz 0 1
| 12>  C        2.9157060000    -0.7446870000     1.7751320000
| 13>  C        3.3601740000    -0.0167280000     0.5098500000
| 14>  C        3.1640820000    -0.8316900000    -0.7221090000
| 15>  C        4.1315290000    -1.1934850000    -1.5686170000
| 16>  C        3.9084300000    -1.9900030000    -2.7504260000
| 17>  N        4.8744630000    -2.2988660000    -3.5251570000
| 18>  N        4.6171010000    -3.1049520000    -4.5805110000
| 19>  H        3.0386470000    -0.1113270000     2.6567130000
| 20>  H        3.4988390000    -1.6559050000     1.9259000000
| 21>  H        1.8623520000    -1.0311860000     1.7145170000
| 22>  H        4.4120290000     0.2726300000     0.5927290000
| 23>  H        2.7867910000     0.9150080000     0.4208700000
| 24>  H        2.1441910000    -1.1603580000    -0.9246660000
| 25>  H        5.1601460000    -0.8879180000    -1.3926630000
| 26>  H        2.8829000000    -2.3247720000    -2.9583260000
| 27>  H        5.2967480000    -2.9746680000    -5.3121990000
| 28>  H        3.6608720000    -3.0952940000    -4.9241370000
| 29> *
| 30>
| 31>                          ****END OF INPUT****
 Total Charge           Charge          ....    0
 Multiplicity           Mult            ....    1
 Number of Electrons    NEL             ....   54
 Basis Dimension        Dim             ....  148

MULLIKEN ATOMIC CHARGES
-----------------------
   0 C :   -0.042548
   1 C :    0.047814
   2 C :   -0.090806
   3 C :    0.039742
   4 C :   -0.028466
   5 N :   -0.121204
   6 N :   -0.041094
   7 H :    0.022915
   8 H :    0.027221
   9 H :    0.020363
  10 H :    0.006599
  11 H :    0.023676
  12 H :   -0.013407
  13 H :   -0.012655
  14 H :   -0.041203
  15 H :    0.118564
  16 H :    0.084487
Sum of atomic charges:   -0.0000000

LOEWDIN ATOMIC CHARGES
----------------------
   0 C :   -0.063651
   1 C :   -0.044931
   2 C :   -0.037426
   3 C :   -0.050193
   4 C :   -0.055519
   5 N :   -0.046381
   6 N :    0.016009
   7 H :    0.026282
   8 H :    0.026930
   9 H :    0.024539
  10 H :    0.028323
  11 H :    0.034049
  12 H :    0.018605
  13 H :    0.029927
  14 H :   -0.007687
  15 H :    0.061224
  16 H :    0.039900

  Mayer bond orders larger than 0.1
B(  0-C ,  1-C ) :   1.0967 B(  0-C ,  7-H ) :   0.9607 B(  0-C ,  8-H ) :   0.9691
B(  0-C ,  9-H ) :   0.9684 B(  1-C ,  2-C ) :   1.0663 B(  1-C , 10-H ) :   0.9328
B(  1-C , 11-H ) :   0.9147 B(  2-C ,  3-C ) :   1.7585 B(  2-C ,  5-N ) :   0.1029
B(  2-C , 12-H ) :   0.9543 B(  3-C ,  4-C ) :   1.1360 B(  3-C , 13-H ) :   0.9634
B(  4-C ,  5-N ) :   1.7715 B(  4-C ,  6-N ) :   0.1128 B(  4-C , 14-H ) :   0.9335
B(  5-N ,  6-N ) :   1.1210 B(  6-N , 15-H ) :   0.9622 B(  6-N , 16-H ) :   0.9403

FINAL SINGLE POINT ENERGY      -305.381826881485

DIPOLE MOMENT
-------------
                                X             Y             Z
Electronic contribution:      3.04121      -2.50181      -7.59552
Nuclear contribution   :     -3.51892       2.55844       7.08564
                        -----------------------------------------
Total Dipole Moment    :     -0.47772       0.05663      -0.50988
                        -----------------------------------------
Magnitude (a.u.)       :      0.70100
Magnitude (Debye)      :      1.78180

                             ****ORCA TERMINATED NORMALLY****
TOTAL RUN TIME: 0 days 0 hours 0 minutes 7 seconds 292 msec
