                         Program Version 3.0.3 - RELEASE   -
|  1> ! RI PBE def2-SVP def2-SVP/J NBO PAL2
|  2> % maxcore 2000
|  3> % output
|  4>     # printlevel mini
|  5>     print[ P_Basis ] 0
|  6>     print[ P_SCFInfo ] 1
|  7>     print[ P_SCFIterInfo ] 1
|  8>     print[ P_OrbEn ] 0
|  9>     print[ P_Cartesian ] 0
| 10> end
| 11> *xyz 0 1
| 12>  C        1.9065370000     0.4713500000     0.6340660000
| 13>  C        3.3291650000     0.0878860000     0.2386130000
| 14>  C        3.3696960000    -1.0741000000    -0.6939000000
| 15>  C        4.0124570000    -2.2167780000    -0.4633740000
| 16>  C        4.0825060000    -3.3666390000    -1.3824840000
| 17>  N        3.1682740000    -3.3928320000    -2.4097780000
| 18>  N        4.9607870000    -4.2916990000    -1.3035720000
| 19>  H        1.9052770000     1.3468630000     1.2867490000
| 20>  H        1.4131990000    -0.3470680000     1.1632340000
| 21>  H        1.3036140000     0.7111350000    -0.2457280000
| 22>  H        3.9223950000    -0.1344960000     1.1302040000
| 23>  H        3.8044800000     0.9481030000    -0.2488410000
| 24>  H        2.8369480000    -0.9484310000    -1.6356260000
| 25>  H        4.5749970000    -2.3375930000     0.4593550000
| 26>  H        2.2510490000    -3.0323030000    -2.2085620000
| 27>  H        3.1753050000    -4.2582100000    -2.9266120000
| 28>  H        5.6102050000    -4.0966070000    -0.5472450000
| 29> *
| 30>
| 31>                          ****END OF INPUT****
 Total Charge           Charge          ....    0
 Multiplicity           Mult            ....    1
 Number of Electrons    NEL             ....   54
 Basis Dimension        Dim             ....  148

MULLIKEN ATOMIC CHARGES
-----------------------
   0 C :   -0.049605
   1 C :    0.030633
   2 C :   -0.080871
   3 C :    0.030117
   4 C :   -0.164783
   5 N :   -0.067275
   6 N :   -0.097109
   7 H :    0.030597
   8 H :    0.031084
   9 H :    0.024498
  10 H :    0.013644
  11 H :    0.032483
  12 H :   -0.002295
  13 H :   -0.021073
  14 H :    0.108547
  15 H :    0.107759
  16 H :    0.073648
Sum of atomic charges:   -0.0000000

LOEWDIN ATOMIC CHARGES
----------------------
   0 C :   -0.063762
   1 C :   -0.044295
   2 C :   -0.015969
   3 C :   -0.068333
   4 C :   -0.008344
   5 N :   -0.011919
   6 N :   -0.165305
   7 H :    0.029906
   8 H :    0.027771
   9 H :    0.026227
  10 H :    0.029784
  11 H :    0.038566
  12 H :    0.022347
  13 H :    0.027874
  14 H :    0.064140
  15 H :    0.069539
  16 H :    0.041774

  Mayer bond orders larger than 0.1
B(  0-C ,  1-C ) :   1.0977 B(  0-C ,  7-H ) :   0.9603 B(  0-C ,  8-H ) :   0.9689
B(  0-C ,  9-H ) :   0.9672 B(  1-C ,  2-C ) :   1.0655 B(  1-C , 10-H ) :   0.9352
B(  1-C , 11-H ) :   0.9145 B(  2-C ,  3-C ) :   1.8136 B(  2-C , 12-H ) :   0.9425
B(  3-C ,  4-C ) :   1.0210 B(  3-C , 13-H ) :   0.9466 B(  4-C ,  5-N ) :   1.2404
B(  4-C ,  6-N ) :   1.9041 B(  5-N , 14-H ) :   0.9384 B(  5-N , 15-H ) :   0.9401
B(  6-N , 16-H ) :   0.9271

FINAL SINGLE POINT ENERGY      -305.416106438828

DIPOLE MOMENT
-------------
                                X             Y             Z
Electronic contribution:      3.35584      -6.25720      -3.34471
Nuclear contribution   :     -4.12542       7.04248       3.69752
                        -----------------------------------------
Total Dipole Moment    :     -0.76958       0.78528       0.35281
                        -----------------------------------------
Magnitude (a.u.)       :      1.15473
Magnitude (Debye)      :      2.93508

                             ****ORCA TERMINATED NORMALLY****
TOTAL RUN TIME: 0 days 0 hours 0 minutes 7 seconds 964 msec
