                         Program Version 3.0.3 - RELEASE   -
|  1> ! RI PBE def2-SVP def2-SVP/J NBO PAL2
|  2> % maxcore 2000
|  3> % output
|  4>     # printlevel mini
|  5>     print[ P_Basis ] 0
|  6>     print[ P_SCFInfo ] 1
|  7>     print[ P_SCFIterInfo ] 1
|  8>     print[ P_OrbEn ] 0
|  9>     print[ P_Cartesian ] 0
| 10> end
| 11> *xyz 0 1
| 12>  C        2.5418450000     1.4868240000    -0.4167770000
| 13>  C        2.5733770000     0.0438260000     0.0789690000
| 14>  C        3.0374260000    -0.0772450000     1.5017580000
| 15>  C        2.1923810000    -0.3103240000     2.5117210000
| 16>  C        4.4559250000     0.0758260000     1.7862550000
| 17>  N        5.3137520000     0.2375890000     0.8573780000
| 18>  N        6.6064240000     0.4278950000     1.2008950000
| 19>  H        2.1910780000     1.5302410000    -1.4506960000
| 20>  H        3.5362850000     1.9331190000    -0.3775400000
| 21>  H        1.8695660000     2.0940260000     0.1940900000
| 22>  H        3.2410600000    -0.5387070000    -0.5620140000
| 23>  H        1.5755860000    -0.3956560000    -0.0009130000
| 24>  H        1.1306270000    -0.4442370000     2.3408350000
| 25>  H        2.5401370000    -0.3736510000     3.5375200000
| 26>  H        4.7619220000     0.0398810000     2.8403780000
| 27>  H        7.2277970000     0.1590740000     0.4555480000
| 28>  H        6.8860140000     0.0568100000     2.1044910000
| 29> *
| 30>
| 31>                          ****END OF INPUT****
 Total Charge           Charge          ....    0
 Multiplicity           Mult            ....    1
 Number of Electrons    NEL             ....   54
 Basis Dimension        Dim             ....  148

MULLIKEN ATOMIC CHARGES
-----------------------
   0 C :   -0.021579
   1 C :    0.074567
   2 C :   -0.096442
   3 C :   -0.048966
   4 C :   -0.017954
   5 N :   -0.111005
   6 N :   -0.038026
   7 H :    0.016761
   8 H :    0.031476
   9 H :    0.015233
  10 H :    0.015780
  11 H :   -0.004991
  12 H :    0.012717
  13 H :    0.007039
  14 H :   -0.042711
  15 H :    0.120126
  16 H :    0.087976
Sum of atomic charges:    0.0000000

LOEWDIN ATOMIC CHARGES
----------------------
   0 C :   -0.059478
   1 C :   -0.033958
   2 C :   -0.037642
   3 C :   -0.067508
   4 C :   -0.049103
   5 N :   -0.040345
   6 N :    0.018504
   7 H :    0.025226
   8 H :    0.026285
   9 H :    0.023244
  10 H :    0.032117
  11 H :    0.025490
  12 H :    0.020835
  13 H :    0.017827
  14 H :   -0.005638
  15 H :    0.062209
  16 H :    0.041936

  Mayer bond orders larger than 0.1
B(  0-C ,  1-C ) :   1.1085 B(  0-C ,  7-H ) :   0.9599 B(  0-C ,  8-H ) :   0.9655
B(  0-C ,  9-H ) :   0.9647 B(  1-C ,  2-C ) :   1.0773 B(  1-C , 10-H ) :   0.9022
B(  1-C , 11-H ) :   0.9168 B(  2-C ,  3-C ) :   1.8645 B(  2-C ,  4-C ) :   1.1136
B(  3-C ,  5-N ) :   0.1031 B(  3-C , 12-H ) :   0.9326 B(  3-C , 13-H ) :   0.9377
B(  4-C ,  5-N ) :   1.7871 B(  4-C ,  6-N ) :   0.1176 B(  4-C , 14-H ) :   0.9311
B(  5-N ,  6-N ) :   1.1278 B(  6-N , 15-H ) :   0.9613 B(  6-N , 16-H ) :   0.9392

FINAL SINGLE POINT ENERGY      -305.380688027339

DIPOLE MOMENT
-------------
                                X             Y             Z
Electronic contribution:      4.17962      -1.46794       1.63097
Nuclear contribution   :     -3.49941       1.12865      -1.38169
                        -----------------------------------------
Total Dipole Moment    :      0.68021      -0.33928       0.24927
                        -----------------------------------------
Magnitude (a.u.)       :      0.79996
Magnitude (Debye)      :      2.03334

                             ****ORCA TERMINATED NORMALLY****
TOTAL RUN TIME: 0 days 0 hours 0 minutes 7 seconds 644 msec
