                         Program Version 3.0.3 - RELEASE   -
|  1> ! RI PBE def2-SVP def2-SVP/J NBO PAL2
|  2> % maxcore 2000
|  3> % output
|  4>     # printlevel mini
|  5>     print[ P_Basis ] 0
|  6>     print[ P_SCFInfo ] 1
|  7>     print[ P_SCFIterInfo ] 1
|  8>     print[ P_OrbEn ] 0
|  9>     print[ P_Cartesian ] 0
| 10> end
| 11> *xyz 0 1
| 12>  C        2.9103390000    -0.0833730000    -1.5882820000
| 13>  C        3.0173110000    -0.0534450000    -0.0640490000
| 14>  C        3.3451740000     1.3097220000     0.4825270000
| 15>  C        2.3804870000     2.1747660000     0.7947310000
| 16>  C        4.7840870000     1.6794640000     0.6160610000
| 17>  N        5.0537080000     2.7744470000     1.4032780000
| 18>  N        5.7551190000     1.0884280000     0.0343160000
| 19>  H        2.6878000000    -1.0933980000    -1.9401240000
| 20>  H        3.8335380000     0.2447870000    -2.0707100000
| 21>  H        2.1122920000     0.5794780000    -1.9294460000
| 22>  H        3.7663380000    -0.7770020000     0.2710050000
| 23>  H        2.0641200000    -0.3754020000     0.3630820000
| 24>  H        1.3350450000     1.9008370000     0.6994660000
| 25>  H        2.5934980000     3.1870610000     1.1156280000
| 26>  H        4.4702550000     2.9085750000     2.2112030000
| 27>  H        6.0389060000     2.9114360000     1.5661560000
| 28>  H        5.4210830000     0.3486200000    -0.5732520000
| 29> *
| 30>
| 31>                          ****END OF INPUT****
 Total Charge           Charge          ....    0
 Multiplicity           Mult            ....    1
 Number of Electrons    NEL             ....   54
 Basis Dimension        Dim             ....  148

MULLIKEN ATOMIC CHARGES
-----------------------
   0 C :   -0.001338
   1 C :    0.003900
   2 C :   -0.075967
   3 C :   -0.048937
   4 C :   -0.154488
   5 N :   -0.060155
   6 N :   -0.083130
   7 H :    0.025966
   8 H :    0.021675
   9 H :    0.020585
  10 H :    0.020473
  11 H :    0.009717
  12 H :    0.018939
  13 H :    0.016904
  14 H :    0.108765
  15 H :    0.106095
  16 H :    0.070997
Sum of atomic charges:   -0.0000000

LOEWDIN ATOMIC CHARGES
----------------------
   0 C :   -0.056993
   1 C :   -0.042111
   2 C :   -0.046944
   3 C :   -0.049479
   4 C :    0.001779
   5 N :   -0.004424
   6 N :   -0.159382
   7 H :    0.028474
   8 H :    0.023143
   9 H :    0.027784
  10 H :    0.027360
  11 H :    0.033832
  12 H :    0.023544
  13 H :    0.020763
  14 H :    0.065287
  15 H :    0.069434
  16 H :    0.037934

  Mayer bond orders larger than 0.1
B(  0-C ,  1-C ) :   1.1064 B(  0-C ,  7-H ) :   0.9605 B(  0-C ,  8-H ) :   0.9624
B(  0-C ,  9-H ) :   0.9616 B(  1-C ,  2-C ) :   1.0510 B(  1-C , 10-H ) :   0.9234
B(  1-C , 11-H ) :   0.9132 B(  2-C ,  3-C ) :   1.9537 B(  2-C ,  4-C ) :   0.9591
B(  3-C , 12-H ) :   0.9290 B(  3-C , 13-H ) :   0.9237 B(  4-C ,  5-N ) :   1.2373
B(  4-C ,  6-N ) :   1.9405 B(  5-N , 14-H ) :   0.9390 B(  5-N , 15-H ) :   0.9397
B(  6-N , 16-H ) :   0.9283

FINAL SINGLE POINT ENERGY      -305.412248804518

DIPOLE MOMENT
-------------
                                X             Y             Z
Electronic contribution:      3.69571       2.63582       2.90007
Nuclear contribution   :     -4.43314      -2.65693      -2.43768
                        -----------------------------------------
Total Dipole Moment    :     -0.73743      -0.02111       0.46239
                        -----------------------------------------
Magnitude (a.u.)       :      0.87066
Magnitude (Debye)      :      2.21305

                             ****ORCA TERMINATED NORMALLY****
TOTAL RUN TIME: 0 days 0 hours 0 minutes 8 seconds 179 msec
