                         Program Version 3.0.3 - RELEASE   -
|  1> ! RI PBE def2-SVP def2-SVP/J NBO PAL2
|  2> % maxcore 2000
|  3> % output
|  4>     # printlevel mini
|  5>     print[ P_Basis ] 0
|  6>     print[ P_SCFInfo ] 1
|  7>     print[ P_SCFIterInfo ] 1
|  8>     print[ P_OrbEn ] 0
|  9>     print[ P_Cartesian ] 0
| 10> end
| 11> *xyz 0 1
| 12>  C        2.0414110000     1.1223720000    -1.0444140000
| 13>  C        2.4636880000     0.2234940000     0.1131950000
| 14>  C        3.0499830000     0.9742230000     1.2744630000
| 15>  C        2.2011900000     1.8330120000     2.1001600000
| 16>  C        0.8742950000     1.7566150000     2.1941960000
| 17>  N        4.3140760000     0.8474250000     1.4588680000
| 18>  N        4.9140140000     1.5087530000     2.4848480000
| 19>  H        1.6149860000     0.5314500000    -1.8584240000
| 20>  H        2.9015350000     1.6683160000    -1.4384970000
| 21>  H        1.2941000000     1.8551880000    -0.7334110000
| 22>  H        3.2194630000    -0.4885220000    -0.2228330000
| 23>  H        1.6042560000    -0.3654180000     0.4538640000
| 24>  H        2.7089090000     2.6225460000     2.6494920000
| 25>  H        0.3007140000     1.0005480000     1.6697390000
| 26>  H        0.3159360000     2.4534000000     2.8081370000
| 27>  H        5.8226350000     1.1097140000     2.6579750000
| 28>  H        4.3747190000     1.5827020000     3.3396640000
| 29> *
| 30>
| 31>                          ****END OF INPUT****
 Total Charge           Charge          ....    0
 Multiplicity           Mult            ....    1
 Number of Electrons    NEL             ....   54
 Basis Dimension        Dim             ....  148

MULLIKEN ATOMIC CHARGES
-----------------------
   0 C :   -0.028809
   1 C :    0.055073
   2 C :   -0.138743
   3 C :   -0.046616
   4 C :   -0.022530
   5 N :   -0.120588
   6 N :   -0.047475
   7 H :    0.020597
   8 H :    0.026251
   9 H :    0.022389
  10 H :    0.007592
  11 H :    0.009390
  12 H :   -0.002592
  13 H :    0.025377
  14 H :    0.026856
  15 H :    0.116516
  16 H :    0.097313
Sum of atomic charges:   -0.0000000

LOEWDIN ATOMIC CHARGES
----------------------
   0 C :   -0.063811
   1 C :   -0.044039
   2 C :   -0.067515
   3 C :   -0.056879
   4 C :   -0.040214
   5 N :   -0.048785
   6 N :    0.007656
   7 H :    0.025857
   8 H :    0.028198
   9 H :    0.023495
  10 H :    0.031408
  11 H :    0.026509
  12 H :    0.025587
  13 H :    0.022980
  14 H :    0.026073
  15 H :    0.061304
  16 H :    0.042176

  Mayer bond orders larger than 0.1
B(  0-C ,  1-C ) :   1.1142 B(  0-C ,  7-H ) :   0.9622 B(  0-C ,  8-H ) :   0.9632
B(  0-C ,  9-H ) :   0.9669 B(  1-C ,  2-C ) :   1.0783 B(  1-C , 10-H ) :   0.9131
B(  1-C , 11-H ) :   0.9076 B(  2-C ,  3-C ) :   1.0679 B(  2-C ,  5-N ) :   1.8299
B(  3-C ,  4-C ) :   1.9126 B(  3-C , 12-H ) :   0.9364 B(  4-C , 13-H ) :   0.9429
B(  4-C , 14-H ) :   0.9366 B(  5-N ,  6-N ) :   1.1230 B(  6-N , 15-H ) :   0.9640
B(  6-N , 16-H ) :   0.9351

FINAL SINGLE POINT ENERGY      -305.375637111818

DIPOLE MOMENT
-------------
                                X             Y             Z
Electronic contribution:      4.10456      -0.13672       3.40869
Nuclear contribution   :     -4.20484       0.13696      -2.74577
                        -----------------------------------------
Total Dipole Moment    :     -0.10028       0.00024       0.66292
                        -----------------------------------------
Magnitude (a.u.)       :      0.67046
Magnitude (Debye)      :      1.70417

                             ****ORCA TERMINATED NORMALLY****
TOTAL RUN TIME: 0 days 0 hours 0 minutes 7 seconds 933 msec
