                         Program Version 3.0.3 - RELEASE   -
|  1> ! RI PBE def2-SVP def2-SVP/J NBO PAL2
|  2> % maxcore 2000
|  3> % output
|  4>     # printlevel mini
|  5>     print[ P_Basis ] 0
|  6>     print[ P_SCFInfo ] 1
|  7>     print[ P_SCFIterInfo ] 1
|  8>     print[ P_OrbEn ] 0
|  9>     print[ P_Cartesian ] 0
| 10> end
| 11> *xyz 0 1
| 12>  C        2.9481250000     0.2441070000    -1.2038380000
| 13>  C        2.5529310000    -0.1253470000     0.2152130000
| 14>  C        3.0269390000     0.8784560000     1.2709920000
| 15>  C        2.4467980000     0.5396820000     2.6417050000
| 16>  C        4.5194180000     0.9251900000     1.3353860000
| 17>  N        5.1716130000     1.9803040000     1.0776620000
| 18>  N        6.5335330000     1.9257880000     1.0938480000
| 19>  H        2.5915060000    -0.5000290000    -1.9197110000
| 20>  H        4.0327790000     0.3207570000    -1.3096460000
| 21>  H        2.5259440000     1.2116580000    -1.4885530000
| 22>  H        2.9487860000    -1.1172660000     0.4677350000
| 23>  H        1.4629830000    -0.2104670000     0.2859390000
| 24>  H        2.6933790000     1.8795790000     0.9777940000
| 25>  H        2.7879520000    -0.4439270000     2.9798000000
| 26>  H        1.3547110000     0.5155660000     2.6048310000
| 27>  H        2.7466540000     1.2750490000     3.3913410000
| 28>  H        5.0363420000    -0.0064930000     1.6162960000
| 29>  H        6.9170060000     2.8352890000     1.2970680000
| 30>  H        6.9263130000     1.2066760000     1.6956260000
| 31> *
| 32>
| 33>                          ****END OF INPUT****
 Total Charge           Charge          ....    0
 Multiplicity           Mult            ....    1
 Number of Electrons    NEL             ....   56
 Basis Dimension        Dim             ....  158

MULLIKEN ATOMIC CHARGES
-----------------------
   0 C :   -0.002752
   1 C :   -0.037274
   2 C :   -0.044517
   3 C :    0.014111
   4 C :   -0.058549
   5 N :   -0.108322
   6 N :   -0.057269
   7 H :    0.018815
   8 H :    0.032954
   9 H :    0.017081
  10 H :    0.000984
  11 H :    0.011446
  12 H :   -0.001184
  13 H :    0.009057
  14 H :    0.021733
  15 H :    0.025556
  16 H :   -0.036914
  17 H :    0.113114
  18 H :    0.081930
Sum of atomic charges:   -0.0000000

LOEWDIN ATOMIC CHARGES
----------------------
   0 C :   -0.068027
   1 C :   -0.040411
   2 C :   -0.052223
   3 C :   -0.057695
   4 C :   -0.042316
   5 N :   -0.046780
   6 N :   -0.003399
   7 H :    0.026073
   8 H :    0.027923
   9 H :    0.026595
  10 H :    0.019337
  11 H :    0.023247
  12 H :    0.029266
  13 H :    0.022441
  14 H :    0.026187
  15 H :    0.027019
  16 H :   -0.013414
  17 H :    0.057994
  18 H :    0.038182

  Mayer bond orders larger than 0.1
B(  0-C ,  1-C ) :   1.1185 B(  0-C ,  7-H ) :   0.9592 B(  0-C ,  8-H ) :   0.9602
B(  0-C ,  9-H ) :   0.9611 B(  1-C ,  2-C ) :   1.0467 B(  1-C , 10-H ) :   0.9330
B(  1-C , 11-H ) :   0.9354 B(  2-C ,  3-C ) :   1.0675 B(  2-C ,  4-C ) :   1.0145
B(  2-C , 12-H ) :   0.9023 B(  3-C , 13-H ) :   0.9587 B(  3-C , 14-H ) :   0.9575
B(  3-C , 15-H ) :   0.9602 B(  4-C ,  5-N ) :   1.8825 B(  4-C ,  6-N ) :   0.1267
B(  4-C , 16-H ) :   0.9213 B(  5-N ,  6-N ) :   1.0984 B(  6-N , 17-H ) :   0.9635
B(  6-N , 18-H ) :   0.9430

FINAL SINGLE POINT ENERGY      -306.590784913538

DIPOLE MOMENT
-------------
                                X             Y             Z
Electronic contribution:      5.00678       3.49935       0.92887
Nuclear contribution   :     -4.65825      -3.71533      -0.42453
                        -----------------------------------------
Total Dipole Moment    :      0.34852      -0.21598       0.50433
                        -----------------------------------------
Magnitude (a.u.)       :      0.64998
Magnitude (Debye)      :      1.65211

                             ****ORCA TERMINATED NORMALLY****
TOTAL RUN TIME: 0 days 0 hours 0 minutes 8 seconds 448 msec
