                         Program Version 3.0.3 - RELEASE   -
|  1> ! RI PBE def2-SVP def2-SVP/J NBO PAL2
|  2> % maxcore 2000
|  3> % output
|  4>     # printlevel mini
|  5>     print[ P_Basis ] 0
|  6>     print[ P_SCFInfo ] 1
|  7>     print[ P_SCFIterInfo ] 1
|  8>     print[ P_OrbEn ] 0
|  9>     print[ P_Cartesian ] 0
| 10> end
| 11> *xyz 0 1
| 12>  C        3.4983860000     0.6357880000     1.1202390000
| 13>  C        2.9224650000     0.2746670000    -0.2377700000
| 14>  C        3.3856570000    -1.0810140000    -0.7648710000
| 15>  C        2.6844070000    -1.4455040000    -2.0702680000
| 16>  C        4.8933940000    -1.1259240000    -0.9602240000
| 17>  N        5.5129250000    -2.2054200000    -0.3914680000
| 18>  N        5.5823650000    -0.2996630000    -1.6429230000
| 19>  H        3.1304700000     1.6063840000     1.4597030000
| 20>  H        4.5892830000     0.6886160000     1.0838520000
| 21>  H        3.2208890000    -0.1042610000     1.8768240000
| 22>  H        3.1819440000     1.0496510000    -0.9680020000
| 23>  H        1.8283230000     0.2638650000    -0.1883540000
| 24>  H        3.1192220000    -1.8381090000    -0.0161210000
| 25>  H        2.9027890000    -0.7065920000    -2.8453010000
| 26>  H        1.6012250000    -1.4758200000    -1.9288970000
| 27>  H        3.0108190000    -2.4206220000    -2.4370770000
| 28>  H        5.0844140000    -2.6445630000     0.4028550000
| 29>  H        6.5199160000    -2.1889670000    -0.4077610000
| 30>  H        4.9861260000     0.4105970000    -2.0578250000
| 31> *
| 32>
| 33>                          ****END OF INPUT****
 Total Charge           Charge          ....    0
 Multiplicity           Mult            ....    1
 Number of Electrons    NEL             ....   56
 Basis Dimension        Dim             ....  158

MULLIKEN ATOMIC CHARGES
-----------------------
   0 C :   -0.004105
   1 C :   -0.025485
   2 C :   -0.073166
   3 C :    0.050876
   4 C :   -0.205221
   5 N :   -0.041812
   6 N :   -0.101707
   7 H :    0.019036
   8 H :    0.037607
   9 H :    0.012741
  10 H :    0.004348
  11 H :    0.012739
  12 H :   -0.026302
  13 H :    0.015283
  14 H :    0.022932
  15 H :    0.022198
  16 H :    0.101149
  17 H :    0.107886
  18 H :    0.071004
Sum of atomic charges:   -0.0000000

LOEWDIN ATOMIC CHARGES
----------------------
   0 C :   -0.069761
   1 C :   -0.039360
   2 C :   -0.061875
   3 C :   -0.049542
   4 C :    0.007920
   5 N :    0.001619
   6 N :   -0.187119
   7 H :    0.028865
   8 H :    0.029815
   9 H :    0.022778
  10 H :    0.019863
  11 H :    0.025849
  12 H :    0.020060
  13 H :    0.024720
  14 H :    0.026232
  15 H :    0.030511
  16 H :    0.063189
  17 H :    0.068387
  18 H :    0.037848

  Mayer bond orders larger than 0.1
B(  0-C ,  1-C ) :   1.1201 B(  0-C ,  7-H ) :   0.9562 B(  0-C ,  8-H ) :   0.9568
B(  0-C ,  9-H ) :   0.9602 B(  1-C ,  2-C ) :   1.0636 B(  1-C , 10-H ) :   0.9240
B(  1-C , 11-H ) :   0.9327 B(  2-C ,  3-C ) :   1.0882 B(  2-C ,  4-C ) :   0.9446
B(  2-C , 12-H ) :   0.8790 B(  3-C , 13-H ) :   0.9551 B(  3-C , 14-H ) :   0.9576
B(  3-C , 15-H ) :   0.9540 B(  4-C ,  5-N ) :   1.2361 B(  4-C ,  6-N ) :   1.9669
B(  5-N , 16-H ) :   0.9431 B(  5-N , 17-H ) :   0.9395 B(  6-N , 18-H ) :   0.9298

FINAL SINGLE POINT ENERGY      -306.631802355739

DIPOLE MOMENT
-------------
                                X             Y             Z
Electronic contribution:      4.68055      -1.97367      -1.48314
Nuclear contribution   :     -5.30529       1.56898       2.16078
                        -----------------------------------------
Total Dipole Moment    :     -0.62474      -0.40469       0.67765
                        -----------------------------------------
Magnitude (a.u.)       :      1.00662
Magnitude (Debye)      :      2.55862

                             ****ORCA TERMINATED NORMALLY****
TOTAL RUN TIME: 0 days 0 hours 0 minutes 8 seconds 879 msec
