                         Program Version 3.0.3 - RELEASE   -
|  1> ! RI PBE def2-SVP def2-SVP/J NBO PAL2
|  2> % maxcore 2000
|  3> % output
|  4>     # printlevel mini
|  5>     print[ P_Basis ] 0
|  6>     print[ P_SCFInfo ] 1
|  7>     print[ P_SCFIterInfo ] 1
|  8>     print[ P_OrbEn ] 0
|  9>     print[ P_Cartesian ] 0
| 10> end
| 11> *xyz 0 1
| 12>  C        1.6404390000     1.3722780000    -0.0054910000
| 13>  C        2.3070870000     0.0253280000    -0.2674040000
| 14>  C        3.0858430000    -0.0131560000    -1.5487100000
| 15>  C        2.3239320000    -0.0497540000    -2.8454320000
| 16>  C        2.2517230000    -1.4600560000    -3.4305860000
| 17>  N        4.3574670000    -0.0419590000    -1.4562110000
| 18>  N        5.1091570000    -0.1356730000    -2.5946110000
| 19>  H        1.0626090000     1.3468600000     0.9213150000
| 20>  H        0.9559360000     1.6522230000    -0.8107860000
| 21>  H        2.3902250000     2.1615360000     0.0848510000
| 22>  H        1.5389370000    -0.7585060000    -0.2913150000
| 23>  H        2.9916800000    -0.2166670000     0.5478110000
| 24>  H        2.7761650000     0.6308830000    -3.5786070000
| 25>  H        1.3129460000     0.3302130000    -2.6777210000
| 26>  H        3.2501270000    -1.8646850000    -3.6052690000
| 27>  H        1.7075440000    -1.4639360000    -4.3778200000
| 28>  H        1.7355820000    -2.1357820000    -2.7448500000
| 29>  H        6.0364740000     0.2144600000    -2.4107090000
| 30>  H        4.7104170000     0.3025820000    -3.4200460000
| 31> *
| 32>
| 33>                          ****END OF INPUT****
 Total Charge           Charge          ....    0
 Multiplicity           Mult            ....    1
 Number of Electrons    NEL             ....   56
 Basis Dimension        Dim             ....  158

MULLIKEN ATOMIC CHARGES
-----------------------
   0 C :   -0.039542
   1 C :    0.072953
   2 C :   -0.236143
   3 C :    0.008443
   4 C :   -0.012141
   5 N :   -0.111804
   6 N :   -0.054330
   7 H :    0.022558
   8 H :    0.019993
   9 H :    0.026805
  10 H :    0.009470
  11 H :    0.005975
  12 H :    0.010048
  13 H :    0.003147
  14 H :    0.033191
  15 H :    0.021948
  16 H :    0.025063
  17 H :    0.113273
  18 H :    0.081092
Sum of atomic charges:   -0.0000000

LOEWDIN ATOMIC CHARGES
----------------------
   0 C :   -0.065563
   1 C :   -0.045728
   2 C :   -0.061704
   3 C :   -0.062135
   4 C :   -0.059545
   5 N :   -0.060453
   6 N :   -0.006210
   7 H :    0.026901
   8 H :    0.020774
   9 H :    0.027192
  10 H :    0.026634
  11 H :    0.030570
  12 H :    0.022907
  13 H :    0.029493
  14 H :    0.027501
  15 H :    0.025931
  16 H :    0.028416
  17 H :    0.058599
  18 H :    0.036419

  Mayer bond orders larger than 0.1
B(  0-C ,  1-C ) :   1.1067 B(  0-C ,  7-H ) :   0.9596 B(  0-C ,  8-H ) :   0.9650
B(  0-C ,  9-H ) :   0.9637 B(  1-C ,  2-C ) :   1.0676 B(  1-C , 10-H ) :   0.9170
B(  1-C , 11-H ) :   0.9153 B(  2-C ,  3-C ) :   1.0334 B(  2-C ,  5-N ) :   1.9296
B(  3-C ,  4-C ) :   1.1171 B(  3-C , 12-H ) :   0.9072 B(  3-C , 13-H ) :   0.9071
B(  4-C , 14-H ) :   0.9607 B(  4-C , 15-H ) :   0.9596 B(  4-C , 16-H ) :   0.9629
B(  5-N ,  6-N ) :   1.0992 B(  6-N , 17-H ) :   0.9641 B(  6-N , 18-H ) :   0.9359

FINAL SINGLE POINT ENERGY      -306.594524431225

DIPOLE MOMENT
-------------
                                X             Y             Z
Electronic contribution:      5.27056      -0.23226       0.55858
Nuclear contribution   :     -5.42371       0.61262      -1.14085
                        -----------------------------------------
Total Dipole Moment    :     -0.15314       0.38036      -0.58227
                        -----------------------------------------
Magnitude (a.u.)       :      0.71216
Magnitude (Debye)      :      1.81015

                             ****ORCA TERMINATED NORMALLY****
TOTAL RUN TIME: 0 days 0 hours 0 minutes 8 seconds 859 msec
