                         Program Version 3.0.3 - RELEASE   -
|  1> ! RI PBE def2-SVP def2-SVP/J NBO PAL2
|  2> % maxcore 2000
|  3> % output
|  4>     # printlevel mini
|  5>     print[ P_Basis ] 0
|  6>     print[ P_SCFInfo ] 1
|  7>     print[ P_SCFIterInfo ] 1
|  8>     print[ P_OrbEn ] 0
|  9>     print[ P_Cartesian ] 0
| 10> end
| 11> *xyz 0 1
| 12>  C        1.0387090000    -0.0893520000     0.0401290000
| 13>  C        2.5532880000     0.1090170000     0.0516230000
| 14>  C        2.9930340000     1.1862220000    -0.8179320000
| 15>  C        3.3232360000     2.0992630000    -1.5337720000
| 16>  C        3.7697490000     3.1127180000    -2.4146160000
| 17>  N        3.3620640000     4.3203890000    -2.3142700000
| 18>  N        3.7858720000     5.2062480000    -3.2332360000
| 19>  H        0.7570530000    -0.9041100000     0.7105590000
| 20>  H        0.6868750000    -0.3314990000    -0.9639640000
| 21>  H        0.5272850000     0.8178160000     0.3655790000
| 22>  H        3.0523390000    -0.8177820000    -0.2513340000
| 23>  H        2.8912910000     0.3160780000     1.0732670000
| 24>  H        4.4805460000     2.8179240000    -3.1967560000
| 25>  H        3.7351210000     6.1514570000    -2.8913680000
| 26>  H        4.6559370000     4.9899110000    -3.7107080000
| 27> *
| 28>
| 29>                          ****END OF INPUT****
 Total Charge           Charge          ....    0
 Multiplicity           Mult            ....    1
 Number of Electrons    NEL             ....   52
 Basis Dimension        Dim             ....  138

MULLIKEN ATOMIC CHARGES
-----------------------
   0 C :   -0.033096
   1 C :    0.040370
   2 C :   -0.122169
   3 C :    0.003985
   4 C :   -0.117210
   5 N :   -0.106311
   6 N :   -0.039764
   7 H :    0.021770
   8 H :    0.033841
   9 H :    0.039452
  10 H :    0.032150
  11 H :    0.037112
  12 H :   -0.001491
  13 H :    0.122821
  14 H :    0.088540
Sum of atomic charges:    0.0000000

LOEWDIN ATOMIC CHARGES
----------------------
   0 C :   -0.053509
   1 C :   -0.050568
   2 C :   -0.040619
   3 C :   -0.070358
   4 C :   -0.076048
   5 N :   -0.025839
   6 N :    0.024171
   7 H :    0.026899
   8 H :    0.030364
   9 H :    0.032210
  10 H :    0.046508
  11 H :    0.047468
  12 H :    0.003788
  13 H :    0.063916
  14 H :    0.041618

  Mayer bond orders larger than 0.1
B(  0-C ,  1-C ) :   1.1025 B(  0-C ,  7-H ) :   0.9599 B(  0-C ,  8-H ) :   0.9699
B(  0-C ,  9-H ) :   0.9702 B(  1-C ,  2-C ) :   1.0807 B(  1-C , 10-H ) :   0.9030
B(  1-C , 11-H ) :   0.9028 B(  2-C ,  3-C ) :   2.4625 B(  3-C ,  4-C ) :   1.0311
B(  4-C ,  5-N ) :   1.7879 B(  4-C ,  6-N ) :   0.1278 B(  4-C , 12-H ) :   0.9276
B(  5-N ,  6-N ) :   1.1422 B(  6-N , 13-H ) :   0.9616 B(  6-N , 14-H ) :   0.9358

FINAL SINGLE POINT ENERGY      -304.138265253088

DIPOLE MOMENT
-------------
                                X             Y             Z
Electronic contribution:      3.34138       5.34527      -3.00402
Nuclear contribution   :     -2.77099      -5.20207       2.81688
                        -----------------------------------------
Total Dipole Moment    :      0.57039       0.14320      -0.18715
                        -----------------------------------------
Magnitude (a.u.)       :      0.61715
Magnitude (Debye)      :      1.56868

                             ****ORCA TERMINATED NORMALLY****
TOTAL RUN TIME: 0 days 0 hours 0 minutes 6 seconds 637 msec
