                         Program Version 3.0.3 - RELEASE   -
|  1> ! RI PBE def2-SVP def2-SVP/J NBO PAL2
|  2> % maxcore 2000
|  3> % output
|  4>     # printlevel mini
|  5>     print[ P_Basis ] 0
|  6>     print[ P_SCFInfo ] 1
|  7>     print[ P_SCFIterInfo ] 1
|  8>     print[ P_OrbEn ] 0
|  9>     print[ P_Cartesian ] 0
| 10> end
| 11> *xyz 0 1
| 12>  C        0.9257520000     0.0181210000     0.1655670000
| 13>  C        2.3951630000    -0.1858790000    -0.1942930000
| 14>  C        2.9197120000     0.8456560000    -1.0721120000
| 15>  C        3.3477200000     1.7078090000    -1.7964090000
| 16>  C        3.9013370000     2.7074630000    -2.6730800000
| 17>  N        3.0431140000     3.7226190000    -3.0036470000
| 18>  N        5.1033190000     2.7062200000    -3.1042760000
| 19>  H        0.5835100000    -0.7796660000     0.8274300000
| 20>  H        0.3018330000     0.0120890000    -0.7296810000
| 21>  H        0.7791730000     0.9725540000     0.6736520000
| 22>  H        2.5316640000    -1.1599080000    -0.6765810000
| 23>  H        3.0036690000    -0.2112650000     0.7162550000
| 24>  H        2.0568640000     3.5438270000    -2.9451920000
| 25>  H        3.3538570000     4.3164400000    -3.7553380000
| 26>  H        5.6140230000     1.9193100000    -2.7190060000
| 27> *
| 28>
| 29>                          ****END OF INPUT****
 Total Charge           Charge          ....    0
 Multiplicity           Mult            ....    1
 Number of Electrons    NEL             ....   52
 Basis Dimension        Dim             ....  138

MULLIKEN ATOMIC CHARGES
-----------------------
   0 C :   -0.043270
   1 C :    0.035462
   2 C :   -0.140091
   3 C :   -0.024303
   4 C :   -0.186971
   5 N :   -0.049131
   6 N :   -0.088761
   7 H :    0.029243
   8 H :    0.037680
   9 H :    0.039071
  10 H :    0.040463
  11 H :    0.044265
  12 H :    0.109230
  13 H :    0.112811
  14 H :    0.084302
Sum of atomic charges:   -0.0000000

LOEWDIN ATOMIC CHARGES
----------------------
   0 C :   -0.054962
   1 C :   -0.050704
   2 C :   -0.027669
   3 C :   -0.089540
   4 C :   -0.013622
   5 N :    0.005724
   6 N :   -0.158802
   7 H :    0.030232
   8 H :    0.031367
   9 H :    0.032058
  10 H :    0.050641
  11 H :    0.052280
  12 H :    0.071559
  13 H :    0.071168
  14 H :    0.050269

  Mayer bond orders larger than 0.1
B(  0-C ,  1-C ) :   1.1034 B(  0-C ,  7-H ) :   0.9598 B(  0-C ,  8-H ) :   0.9697
B(  0-C ,  9-H ) :   0.9708 B(  1-C ,  2-C ) :   1.0888 B(  1-C , 10-H ) :   0.9009
B(  1-C , 11-H ) :   0.8974 B(  2-C ,  3-C ) :   2.5491 B(  3-C ,  4-C ) :   0.8835
B(  4-C ,  5-N ) :   1.2534 B(  4-C ,  6-N ) :   1.9473 B(  5-N , 12-H ) :   0.9423
B(  5-N , 13-H ) :   0.9377 B(  6-N , 14-H ) :   0.9279

FINAL SINGLE POINT ENERGY      -304.175910941149

DIPOLE MOMENT
-------------
                                X             Y             Z
Electronic contribution:      4.81718       3.85581      -4.08891
Nuclear contribution   :     -5.88372      -4.38635       4.48899
                        -----------------------------------------
Total Dipole Moment    :     -1.06654      -0.53054       0.40008
                        -----------------------------------------
Magnitude (a.u.)       :      1.25660
Magnitude (Debye)      :      3.19401

                             ****ORCA TERMINATED NORMALLY****
TOTAL RUN TIME: 0 days 0 hours 0 minutes 6 seconds 590 msec
