                         Program Version 3.0.3 - RELEASE   -
|  1> ! RI PBE def2-SVP def2-SVP/J NBO PAL2
|  2> % maxcore 2000
|  3> % output
|  4>     # printlevel mini
|  5>     print[ P_Basis ] 0
|  6>     print[ P_SCFInfo ] 1
|  7>     print[ P_SCFIterInfo ] 1
|  8>     print[ P_OrbEn ] 0
|  9>     print[ P_Cartesian ] 0
| 10> end
| 11> *xyz 0 1
| 12>  C        1.5942580000     0.5102070000     0.2670880000
| 13>  C        3.0961340000     0.3133680000     0.1514110000
| 14>  C        3.4624740000    -0.9486700000    -0.6268600000
| 15>  C        4.9371830000    -1.1434520000    -0.7942830000
| 16>  C        5.7059610000    -0.1936940000    -1.6632570000
| 17>  N        5.4787060000    -2.1254380000    -0.1874590000
| 18>  N        6.8189670000    -2.3354560000    -0.3703690000
| 19>  H        1.3509900000     1.4120770000     0.8335250000
| 20>  H        1.1244200000    -0.3376090000     0.7731610000
| 21>  H        1.1310570000     0.6017150000    -0.7195560000
| 22>  H        3.5423350000     0.2524540000     1.1496610000
| 23>  H        3.5434330000     1.1897420000    -0.3312590000
| 24>  H        2.9901310000    -0.9017000000    -1.6178370000
| 25>  H        3.0614750000    -1.8280930000    -0.1170540000
| 26>  H        5.0434110000     0.5000180000    -2.1804500000
| 27>  H        6.2845690000    -0.7463500000    -2.4111950000
| 28>  H        6.4192560000     0.4060570000    -1.0838520000
| 29>  H        7.1706620000    -2.9145520000     0.3759890000
| 30>  H        7.3798990000    -1.4958030000    -0.4748940000
| 31> *
| 32>
| 33>                          ****END OF INPUT****
 Total Charge           Charge          ....    0
 Multiplicity           Mult            ....    1
 Number of Electrons    NEL             ....   56
 Basis Dimension        Dim             ....  158

MULLIKEN ATOMIC CHARGES
-----------------------
   0 C :   -0.001717
   1 C :   -0.064386
   2 C :    0.094662
   3 C :   -0.243804
   4 C :    0.030429
   5 N :   -0.115528
   6 N :   -0.062878
   7 H :    0.018491
   8 H :    0.019681
   9 H :    0.013432
  10 H :    0.014993
  11 H :    0.004262
  12 H :    0.002614
  13 H :    0.001953
  14 H :    0.019337
  15 H :    0.039887
  16 H :    0.033391
  17 H :    0.110900
  18 H :    0.084282
Sum of atomic charges:   -0.0000000

LOEWDIN ATOMIC CHARGES
----------------------
   0 C :   -0.066151
   1 C :   -0.045331
   2 C :   -0.042311
   3 C :   -0.065928
   4 C :   -0.084286
   5 N :   -0.064738
   6 N :   -0.007119
   7 H :    0.025941
   8 H :    0.025517
   9 H :    0.023489
  10 H :    0.024381
  11 H :    0.018726
  12 H :    0.025592
  13 H :    0.029917
  14 H :    0.033647
  15 H :    0.037886
  16 H :    0.034009
  17 H :    0.057688
  18 H :    0.039071

  Mayer bond orders larger than 0.1
B(  0-C ,  1-C ) :   1.1192 B(  0-C ,  7-H ) :   0.9620 B(  0-C ,  8-H ) :   0.9660
B(  0-C ,  9-H ) :   0.9633 B(  1-C ,  2-C ) :   1.0878 B(  1-C , 10-H ) :   0.9361
B(  1-C , 11-H ) :   0.9361 B(  2-C ,  3-C ) :   1.0724 B(  2-C , 12-H ) :   0.9063
B(  2-C , 13-H ) :   0.9138 B(  3-C ,  4-C ) :   1.0600 B(  3-C ,  5-N ) :   1.9213
B(  4-C , 14-H ) :   0.9407 B(  4-C , 15-H ) :   0.9366 B(  4-C , 16-H ) :   0.9364
B(  5-N ,  6-N ) :   1.0938 B(  6-N , 17-H ) :   0.9664 B(  6-N , 18-H ) :   0.9374

FINAL SINGLE POINT ENERGY      -306.596263461029

DIPOLE MOMENT
-------------
                                X             Y             Z
Electronic contribution:      4.75647      -5.22470       0.35403
Nuclear contribution   :     -4.26282       5.79584      -0.30833
                        -----------------------------------------
Total Dipole Moment    :      0.49365       0.57115       0.04570
                        -----------------------------------------
Magnitude (a.u.)       :      0.75630
Magnitude (Debye)      :      1.92236

                             ****ORCA TERMINATED NORMALLY****
TOTAL RUN TIME: 0 days 0 hours 0 minutes 8 seconds 699 msec
