                         Program Version 3.0.3 - RELEASE   -
|  1> ! RI PBE def2-SVP def2-SVP/J NBO PAL2
|  2> % maxcore 2000
|  3> % output
|  4>     # printlevel mini
|  5>     print[ P_Basis ] 0
|  6>     print[ P_SCFInfo ] 1
|  7>     print[ P_SCFIterInfo ] 1
|  8>     print[ P_OrbEn ] 0
|  9>     print[ P_Cartesian ] 0
| 10> end
| 11> *xyz 0 1
| 12>  C        0.9549310000     0.1446430000     0.1450760000
| 13>  C        2.4704320000     0.0664020000     0.0791380000
| 14>  C        2.9645720000    -1.0348970000    -0.8460570000
| 15>  C        4.4881200000    -1.1380730000    -0.9208310000
| 16>  C        5.1106140000    -1.5716140000     0.3616160000
| 17>  N        5.9500810000    -0.8471940000     0.9755670000
| 18>  N        6.4249570000    -1.2773940000     2.1784660000
| 19>  H        0.6236610000     0.9459940000     0.8094860000
| 20>  H        0.5268470000    -0.7912570000     0.5157820000
| 21>  H        0.5244060000     0.3333560000    -0.8427140000
| 22>  H        2.8785860000    -0.0902620000     1.0831470000
| 23>  H        2.8766000000     1.0262550000    -0.2600640000
| 24>  H        2.5719280000    -0.8654720000    -1.8550170000
| 25>  H        2.5504680000    -1.9977800000    -0.5201510000
| 26>  H        4.9229980000    -0.1759010000    -1.2045160000
| 27>  H        4.7535120000    -1.8585930000    -1.7045390000
| 28>  H        4.8045760000    -2.5475610000     0.7688150000
| 29>  H        7.3355890000    -0.8837610000     2.3553410000
| 30>  H        6.4178310000    -2.2859100000     2.3061560000
| 31> *
| 32>
| 33>                          ****END OF INPUT****
 Total Charge           Charge          ....    0
 Multiplicity           Mult            ....    1
 Number of Electrons    NEL             ....   56
 Basis Dimension        Dim             ....  158

MULLIKEN ATOMIC CHARGES
-----------------------
   0 C :   -0.001271
   1 C :   -0.045874
   2 C :   -0.048137
   3 C :    0.108645
   4 C :   -0.095328
   5 N :   -0.117839
   6 N :   -0.055577
   7 H :    0.019006
   8 H :    0.012900
   9 H :    0.012217
  10 H :    0.023404
  11 H :    0.008038
  12 H :    0.004218
  13 H :    0.001473
  14 H :    0.002112
  15 H :    0.013631
  16 H :   -0.035500
  17 H :    0.113203
  18 H :    0.080681
Sum of atomic charges:   -0.0000000

LOEWDIN ATOMIC CHARGES
----------------------
   0 C :   -0.065768
   1 C :   -0.047595
   2 C :   -0.040710
   3 C :   -0.048827
   4 C :   -0.051556
   5 N :   -0.049210
   6 N :   -0.002679
   7 H :    0.026047
   8 H :    0.022870
   9 H :    0.022552
  10 H :    0.025323
  11 H :    0.024035
  12 H :    0.022132
  13 H :    0.018913
  14 H :    0.030370
  15 H :    0.031945
  16 H :   -0.013598
  17 H :    0.058084
  18 H :    0.037674

  Mayer bond orders larger than 0.1
B(  0-C ,  1-C ) :   1.1172 B(  0-C ,  7-H ) :   0.9630 B(  0-C ,  8-H ) :   0.9653
B(  0-C ,  9-H ) :   0.9646 B(  1-C ,  2-C ) :   1.0875 B(  1-C , 10-H ) :   0.9363
B(  1-C , 11-H ) :   0.9365 B(  2-C ,  3-C ) :   1.0855 B(  2-C , 12-H ) :   0.9303
B(  2-C , 13-H ) :   0.9373 B(  3-C ,  4-C ) :   1.0517 B(  3-C , 14-H ) :   0.9162
B(  3-C , 15-H ) :   0.9121 B(  4-C ,  5-N ) :   1.8818 B(  4-C ,  6-N ) :   0.1266
B(  4-C , 16-H ) :   0.9234 B(  5-N ,  6-N ) :   1.0978 B(  6-N , 17-H ) :   0.9636
B(  6-N , 18-H ) :   0.9434

FINAL SINGLE POINT ENERGY      -306.590399518837

DIPOLE MOMENT
-------------
                                X             Y             Z
Electronic contribution:      7.67113      -1.12664       2.26656
Nuclear contribution   :     -7.39892       0.53088      -2.15966
                        -----------------------------------------
Total Dipole Moment    :      0.27221      -0.59576       0.10691
                        -----------------------------------------
Magnitude (a.u.)       :      0.66367
Magnitude (Debye)      :      1.68692

                             ****ORCA TERMINATED NORMALLY****
TOTAL RUN TIME: 0 days 0 hours 0 minutes 8 seconds 568 msec
