                         Program Version 3.0.3 - RELEASE   -
|  1> ! RI PBE def2-SVP def2-SVP/J NBO PAL2
|  2> % maxcore 2000
|  3> % output
|  4>     # printlevel mini
|  5>     print[ P_Basis ] 0
|  6>     print[ P_SCFInfo ] 1
|  7>     print[ P_SCFIterInfo ] 1
|  8>     print[ P_OrbEn ] 0
|  9>     print[ P_Cartesian ] 0
| 10> end
| 11> *xyz 0 1
| 12>  C        3.3041100000    -2.0580470000     0.3985750000
| 13>  C        2.6402270000    -0.6902110000     0.4068820000
| 14>  C        3.5720600000     0.4573670000     0.7785950000
| 15>  C        4.6934650000     0.6902480000    -0.2344220000
| 16>  C        5.5339090000     1.9014160000     0.0847930000
| 17>  N        6.3965360000     1.7377420000     1.1377580000
| 18>  N        5.5161810000     3.0121450000    -0.5395780000
| 19>  H        2.5777620000    -2.8461760000     0.1883630000
| 20>  H        3.7599640000    -2.2795460000     1.3683430000
| 21>  H        4.0876800000    -2.1287980000    -0.3594020000
| 22>  H        1.8052440000    -0.7011290000     1.1148220000
| 23>  H        2.1997170000    -0.4891540000    -0.5766040000
| 24>  H        3.9965550000     0.2621510000     1.7708930000
| 25>  H        2.9907810000     1.3801620000     0.8719480000
| 26>  H        4.2585700000     0.8290020000    -1.2277510000
| 27>  H        5.3430060000    -0.1892640000    -0.2876680000
| 28>  H        6.1929230000     1.0308940000     1.8210210000
| 29>  H        6.8149820000     2.5837460000     1.4882730000
| 30>  H        4.8768070000     2.9651520000    -1.3263400000
| 31> *
| 32>
| 33>                          ****END OF INPUT****
 Total Charge           Charge          ....    0
 Multiplicity           Mult            ....    1
 Number of Electrons    NEL             ....   56
 Basis Dimension        Dim             ....  158

MULLIKEN ATOMIC CHARGES
-----------------------
   0 C :   -0.042068
   1 C :   -0.018951
   2 C :   -0.025777
   3 C :    0.060099
   4 C :   -0.211764
   5 N :   -0.050026
   6 N :   -0.118979
   7 H :    0.025480
   8 H :    0.015687
   9 H :    0.029066
  10 H :    0.018768
  11 H :    0.009945
  12 H :   -0.002231
  13 H :    0.015506
  14 H :   -0.008861
  15 H :    0.024597
  16 H :    0.096991
  17 H :    0.108825
  18 H :    0.073694
Sum of atomic charges:   -0.0000000

LOEWDIN ATOMIC CHARGES
----------------------
   0 C :   -0.070842
   1 C :   -0.047230
   2 C :   -0.037953
   3 C :   -0.057962
   4 C :    0.000198
   5 N :   -0.004425
   6 N :   -0.184959
   7 H :    0.029938
   8 H :    0.024077
   9 H :    0.023978
  10 H :    0.027864
  11 H :    0.024069
  12 H :    0.015616
  13 H :    0.028305
  14 H :    0.028995
  15 H :    0.029718
  16 H :    0.062057
  17 H :    0.068666
  18 H :    0.039891

  Mayer bond orders larger than 0.1
B(  0-C ,  1-C ) :   1.1155 B(  0-C ,  7-H ) :   0.9594 B(  0-C ,  8-H ) :   0.9653
B(  0-C ,  9-H ) :   0.9656 B(  1-C ,  2-C ) :   1.1048 B(  1-C , 10-H ) :   0.9354
B(  1-C , 11-H ) :   0.9324 B(  2-C ,  3-C ) :   1.0825 B(  2-C , 12-H ) :   0.9291
B(  2-C , 13-H ) :   0.9317 B(  3-C ,  4-C ) :   0.9989 B(  3-C , 14-H ) :   0.9081
B(  3-C , 15-H ) :   0.9109 B(  4-C ,  5-N ) :   1.2384 B(  4-C ,  6-N ) :   1.9569
B(  5-N , 16-H ) :   0.9496 B(  5-N , 17-H ) :   0.9419 B(  6-N , 18-H ) :   0.9274

FINAL SINGLE POINT ENERGY      -306.630022002169

DIPOLE MOMENT
-------------
                                X             Y             Z
Electronic contribution:      4.63136       6.63691      -0.58259
Nuclear contribution   :     -5.05255      -7.52151       1.11905
                        -----------------------------------------
Total Dipole Moment    :     -0.42119      -0.88460       0.53646
                        -----------------------------------------
Magnitude (a.u.)       :      1.11700
Magnitude (Debye)      :      2.83920

                             ****ORCA TERMINATED NORMALLY****
TOTAL RUN TIME: 0 days 0 hours 0 minutes 7 seconds 898 msec
