                         Program Version 3.0.3 - RELEASE   -
|  1> ! RI PBE def2-SVP def2-SVP/J NBO PAL2
|  2> % maxcore 2000
|  3> % output
|  4>     # printlevel mini
|  5>     print[ P_Basis ] 0
|  6>     print[ P_SCFInfo ] 1
|  7>     print[ P_SCFIterInfo ] 1
|  8>     print[ P_OrbEn ] 0
|  9>     print[ P_Cartesian ] 0
| 10> end
| 11> *xyz 0 1
| 12>  C        0.7814020000     0.4583860000     0.0419410000
| 13>  C        2.2764680000     0.2962490000    -0.1747130000
| 14>  C        2.8856190000    -0.7929530000     0.6934330000
| 15>  C        4.3772370000    -0.9578250000     0.4773410000
| 16>  N        4.9139320000    -2.0296220000     1.2917060000
| 17>  C        6.3328610000    -1.9720440000     1.5629020000
| 18>  C        5.3484920000    -1.6546750000     2.6208410000
| 19>  H        0.3659120000     1.2428800000    -0.5948060000
| 20>  H        0.5598480000     0.7210160000     1.0803020000
| 21>  H        0.2482460000    -0.4696530000    -0.1826220000
| 22>  H        2.7810160000     1.2485100000     0.0271190000
| 23>  H        2.4711010000     0.0692820000    -1.2295270000
| 24>  H        2.3950450000    -1.7511610000     0.4917060000
| 25>  H        2.6976840000    -0.5681860000     1.7503170000
| 26>  H        4.8913110000    -0.0004980000     0.6819520000
| 27>  H        4.5740250000    -1.2054540000    -0.5718550000
| 28>  H        6.8941050000    -1.1389950000     1.1448740000
| 29>  H        6.8560680000    -2.9223020000     1.5650990000
| 30>  H        5.2523790000    -0.6089650000     2.9068280000
| 31>  H        5.1399590000    -2.3675990000     3.4111720000
| 32> *
| 33>
| 34>                          ****END OF INPUT****
 Total Charge           Charge          ....    0
 Multiplicity           Mult            ....    1
 Number of Electrons    NEL             ....   56
 Basis Dimension        Dim             ....  163

MULLIKEN ATOMIC CHARGES
-----------------------
   0 C :    0.001073
   1 C :   -0.058021
   2 C :   -0.014418
   3 C :    0.111482
   4 N :   -0.284419
   5 C :    0.029697
   6 C :    0.026281
   7 H :    0.018323
   8 H :    0.015844
   9 H :    0.016971
  10 H :    0.007393
  11 H :    0.011933
  12 H :    0.013399
  13 H :    0.002746
  14 H :   -0.025744
  15 H :    0.008354
  16 H :    0.021627
  17 H :    0.037525
  18 H :    0.022440
  19 H :    0.037515
Sum of atomic charges:    0.0000000

LOEWDIN ATOMIC CHARGES
----------------------
   0 C :   -0.065310
   1 C :   -0.046397
   2 C :   -0.046594
   3 C :    0.013561
   4 N :   -0.107529
   5 C :    0.001106
   6 C :    0.000184
   7 H :    0.025959
   8 H :    0.024246
   9 H :    0.024804
  10 H :    0.021118
  11 H :    0.022583
  12 H :    0.026471
  13 H :    0.021427
  14 H :   -0.002207
  15 H :    0.021409
  16 H :    0.012347
  17 H :    0.020608
  18 H :    0.011286
  19 H :    0.020930

  Mayer bond orders larger than 0.1
B(  0-C ,  1-C ) :   1.1204 B(  0-C ,  7-H ) :   0.9610 B(  0-C ,  8-H ) :   0.9652
B(  0-C ,  9-H ) :   0.9650 B(  1-C ,  2-C ) :   1.0892 B(  1-C , 10-H ) :   0.9368
B(  1-C , 11-H ) :   0.9392 B(  2-C ,  3-C ) :   1.0949 B(  2-C , 12-H ) :   0.9262
B(  2-C , 13-H ) :   0.9341 B(  3-C ,  4-N ) :   1.0168 B(  3-C , 14-H ) :   0.9018
B(  3-C , 15-H ) :   0.9312 B(  4-N ,  5-C ) :   0.9684 B(  4-N ,  6-C ) :   0.9630
B(  5-C ,  6-C ) :   1.0985 B(  5-C , 16-H ) :   0.9293 B(  5-C , 17-H ) :   0.9498
B(  6-C , 18-H ) :   0.9296 B(  6-C , 19-H ) :   0.9498

FINAL SINGLE POINT ENERGY      -290.558153737307

DIPOLE MOMENT
-------------
                                X             Y             Z
Electronic contribution:      4.35625      -3.63453       1.45201
Nuclear contribution   :     -4.21355       4.00707      -1.40228
                        -----------------------------------------
Total Dipole Moment    :      0.14270       0.37255       0.04973
                        -----------------------------------------
Magnitude (a.u.)       :      0.40203
Magnitude (Debye)      :      1.02187

                             ****ORCA TERMINATED NORMALLY****
TOTAL RUN TIME: 0 days 0 hours 0 minutes 7 seconds 625 msec
