                         Program Version 3.0.3 - RELEASE   -
|  1> ! RI PBE def2-SVP def2-SVP/J NBO PAL2
|  2> % maxcore 2000
|  3> % output
|  4>     # printlevel mini
|  5>     print[ P_Basis ] 0
|  6>     print[ P_SCFInfo ] 1
|  7>     print[ P_SCFIterInfo ] 1
|  8>     print[ P_OrbEn ] 0
|  9>     print[ P_Cartesian ] 0
| 10> end
| 11> *xyz 0 1
| 12>  C        1.5786920000    -0.6153210000    -1.0218050000
| 13>  C        2.2993110000     0.1317570000    -0.1971690000
| 14>  C        3.1820850000     1.2621390000    -0.6074460000
| 15>  C        4.6367060000     1.0296600000    -0.2221930000
| 16>  N        5.4449560000     2.1922230000    -0.5258050000
| 17>  C        6.8619820000     1.9524110000    -0.6876080000
| 18>  C        6.0065670000     2.2398100000    -1.8599870000
| 19>  H        0.9568120000    -1.4253540000    -0.6585250000
| 20>  H        1.5805910000    -0.4383700000    -2.0932640000
| 21>  H        2.2654900000    -0.0835450000     0.8702780000
| 22>  H        2.8534960000     2.1886530000    -0.1226030000
| 23>  H        3.1072270000     1.4223560000    -1.6875380000
| 24>  H        5.0124850000     0.1247680000    -0.7312860000
| 25>  H        4.7074130000     0.8435970000     0.8550460000
| 26>  H        7.2170560000     0.9303830000    -0.5751620000
| 27>  H        7.5212840000     2.7149350000    -0.2873530000
| 28>  H        5.7913540000     1.4085260000    -2.5282460000
| 29>  H        6.0301010000     3.2154440000    -2.3328560000
| 30> *
| 31>
| 32>                          ****END OF INPUT****
 Total Charge           Charge          ....    0
 Multiplicity           Mult            ....    1
 Number of Electrons    NEL             ....   54
 Basis Dimension        Dim             ....  153

MULLIKEN ATOMIC CHARGES
-----------------------
   0 C :   -0.036782
   1 C :   -0.091330
   2 C :    0.081258
   3 C :    0.075379
   4 N :   -0.286197
   5 C :    0.031987
   6 C :    0.021035
   7 H :    0.022264
   8 H :    0.018624
   9 H :    0.006522
  10 H :    0.024497
  11 H :    0.003365
  12 H :   -0.012364
  13 H :    0.013352
  14 H :    0.023864
  15 H :    0.038502
  16 H :    0.027217
  17 H :    0.038808
Sum of atomic charges:   -0.0000000

LOEWDIN ATOMIC CHARGES
----------------------
   0 C :   -0.067622
   1 C :   -0.027949
   2 C :   -0.045172
   3 C :    0.016985
   4 N :   -0.109376
   5 C :    0.004480
   6 C :   -0.000353
   7 H :    0.024000
   8 H :    0.021404
   9 H :    0.025166
  10 H :    0.038255
  11 H :    0.027439
  12 H :    0.001481
  13 H :    0.022388
  14 H :    0.013186
  15 H :    0.021384
  16 H :    0.012942
  17 H :    0.021363

  Mayer bond orders larger than 0.1
B(  0-C ,  1-C ) :   2.0146 B(  0-C ,  7-H ) :   0.9434 B(  0-C ,  8-H ) :   0.9476
B(  1-C ,  2-C ) :   1.0617 B(  1-C ,  9-H ) :   0.9539 B(  2-C ,  3-C ) :   1.0762
B(  2-C , 10-H ) :   0.8995 B(  2-C , 11-H ) :   0.9280 B(  3-C ,  4-N ) :   1.0152
B(  3-C , 12-H ) :   0.9082 B(  3-C , 13-H ) :   0.9359 B(  4-N ,  5-C ) :   0.9681
B(  4-N ,  6-C ) :   0.9623 B(  5-C ,  6-C ) :   1.0949 B(  5-C , 14-H ) :   0.9324
B(  5-C , 15-H ) :   0.9497 B(  6-C , 16-H ) :   0.9294 B(  6-C , 17-H ) :   0.9508

FINAL SINGLE POINT ENERGY      -289.333813503297

DIPOLE MOMENT
-------------
                                X             Y             Z
Electronic contribution:      0.57193       1.60956       0.93336
Nuclear contribution   :     -0.33539      -1.85064      -1.07524
                        -----------------------------------------
Total Dipole Moment    :      0.23654      -0.24108      -0.14187
                        -----------------------------------------
Magnitude (a.u.)       :      0.36634
Magnitude (Debye)      :      0.93115

                             ****ORCA TERMINATED NORMALLY****
TOTAL RUN TIME: 0 days 0 hours 0 minutes 7 seconds 750 msec
