                         Program Version 3.0.3 - RELEASE   -
|  1> ! RI PBE def2-SVP def2-SVP/J NBO PAL2
|  2> % maxcore 2000
|  3> % output
|  4>     # printlevel mini
|  5>     print[ P_Basis ] 0
|  6>     print[ P_SCFInfo ] 1
|  7>     print[ P_SCFIterInfo ] 1
|  8>     print[ P_OrbEn ] 0
|  9>     print[ P_Cartesian ] 0
| 10> end
| 11> *xyz 0 1
| 12>  C        0.9322760000    -0.1650310000     0.0893080000
| 13>  C        2.1326520000    -0.1497100000     0.0702890000
| 14>  C        3.5844160000    -0.1256850000     0.0773420000
| 15>  C        4.1570690000     0.1433540000     1.4659220000
| 16>  N        5.6017950000     0.1744250000     1.4080810000
| 17>  C        6.2863420000    -0.0627540000     2.6599890000
| 18>  C        6.2682720000    -1.0980020000     1.6034080000
| 19>  H       -0.1317290000    -0.1782660000     0.0981250000
| 20>  H        3.9486580000     0.6434940000    -0.6103840000
| 21>  H        3.9666170000    -1.0827380000    -0.2939440000
| 22>  H        3.7850670000    -0.6192390000     2.1701640000
| 23>  H        3.8040240000     1.1147930000     1.8225500000
| 24>  H        5.6764440000    -0.2467660000     3.5414590000
| 25>  H        7.1770830000     0.5310220000     2.8328280000
| 26>  H        5.6450530000    -1.9720080000     1.7808780000
| 27>  H        7.1457670000    -1.2744900000     0.9914740000
| 28> *
| 29>
| 30>                          ****END OF INPUT****
 Total Charge           Charge          ....    0
 Multiplicity           Mult            ....    1
 Number of Electrons    NEL             ....   52
 Basis Dimension        Dim             ....  143

MULLIKEN ATOMIC CHARGES
-----------------------
   0 C :   -0.493861
   1 C :    0.326723
   2 C :    0.095930
   3 C :    0.076236
   4 N :   -0.285651
   5 C :    0.030403
   6 C :    0.023815
   7 H :   -0.004047
   8 H :    0.044470
   9 H :    0.030457
  10 H :   -0.003604
  11 H :    0.022502
  12 H :    0.028318
  13 H :    0.039110
  14 H :    0.029001
  15 H :    0.040197
Sum of atomic charges:    0.0000000

LOEWDIN ATOMIC CHARGES
----------------------
   0 C :   -0.091215
   1 C :   -0.021648
   2 C :   -0.049858
   3 C :    0.025876
   4 N :   -0.109652
   5 C :    0.006854
   6 C :    0.001212
   7 H :    0.033151
   8 H :    0.052797
   9 H :    0.047318
  10 H :    0.005243
  11 H :    0.027389
  12 H :    0.014661
  13 H :    0.022176
  14 H :    0.013520
  15 H :    0.022175

  Mayer bond orders larger than 0.1
B(  0-C ,  1-C ) :   2.3459 B(  0-C ,  7-H ) :   1.1043 B(  1-C ,  2-C ) :   1.0621
B(  1-C ,  7-H ) :  -0.1130 B(  2-C ,  3-C ) :   1.0730 B(  2-C ,  8-H ) :   0.8844
B(  2-C ,  9-H ) :   0.8945 B(  3-C ,  4-N ) :   1.0263 B(  3-C , 10-H ) :   0.9117
B(  3-C , 11-H ) :   0.9372 B(  4-N ,  5-C ) :   0.9669 B(  4-N ,  6-C ) :   0.9587
B(  5-C ,  6-C ) :   1.0878 B(  5-C , 12-H ) :   0.9342 B(  5-C , 13-H ) :   0.9509
B(  6-C , 14-H ) :   0.9313 B(  6-C , 15-H ) :   0.9510

FINAL SINGLE POINT ENERGY      -288.091401037216

DIPOLE MOMENT
-------------
                                X             Y             Z
Electronic contribution:     -2.76392       1.00071      -2.02499
Nuclear contribution   :      2.95569      -1.27852       2.35937
                        -----------------------------------------
Total Dipole Moment    :      0.19176      -0.27781       0.33438
                        -----------------------------------------
Magnitude (a.u.)       :      0.47514
Magnitude (Debye)      :      1.20770

                             ****ORCA TERMINATED NORMALLY****
TOTAL RUN TIME: 0 days 0 hours 0 minutes 7 seconds 225 msec
