                         Program Version 3.0.3 - RELEASE   -
|  1> ! RI PBE def2-SVP def2-SVP/J NBO PAL2
|  2> % maxcore 2000
|  3> % output
|  4>     # printlevel mini
|  5>     print[ P_Basis ] 0
|  6>     print[ P_SCFInfo ] 1
|  7>     print[ P_SCFIterInfo ] 1
|  8>     print[ P_OrbEn ] 0
|  9>     print[ P_Cartesian ] 0
| 10> end
| 11> *xyz 0 1
| 12>  C        2.2672110000     2.1597410000     0.4730770000
| 13>  C        3.2903310000     1.0770110000     0.4393040000
| 14>  C        3.2118940000    -0.0711070000     1.1005690000
| 15>  C        4.2372310000    -1.1528510000     1.0398790000
| 16>  N        4.7018300000    -1.5107020000     2.3700510000
| 17>  C        6.0016360000    -2.1424190000     2.4314370000
| 18>  C        5.8190180000    -0.7407450000     2.8714280000
| 19>  H        1.8673810000     2.3563420000    -0.5269730000
| 20>  H        2.7005830000     3.1008510000     0.8264060000
| 21>  H        1.4333060000     1.9005920000     1.1280700000
| 22>  H        4.1632860000     1.2555630000    -0.1883370000
| 23>  H        2.3546870000    -0.2674900000     1.7420850000
| 24>  H        5.0676370000    -0.8409270000     0.3833020000
| 25>  H        3.7990040000    -2.0569990000     0.5997570000
| 26>  H        6.5307420000    -2.3009820000     1.4943130000
| 27>  H        6.1100820000    -2.9391720000     3.1595120000
| 28>  H        6.2219620000     0.0379960000     2.2279150000
| 29>  H        5.7922690000    -0.4946830000     3.9272930000
| 30> *
| 31>
| 32>                          ****END OF INPUT****
 Total Charge           Charge          ....    0
 Multiplicity           Mult            ....    1
 Number of Electrons    NEL             ....   54
 Basis Dimension        Dim             ....  153

MULLIKEN ATOMIC CHARGES
-----------------------
   0 C :    0.042868
   1 C :   -0.109715
   2 C :   -0.051006
   3 C :    0.175090
   4 N :   -0.298356
   5 C :    0.020625
   6 C :    0.029123
   7 H :    0.030603
   8 H :    0.030318
   9 H :    0.022233
  10 H :   -0.005455
  11 H :   -0.004559
  12 H :   -0.022224
  13 H :    0.017944
  14 H :    0.021933
  15 H :    0.039284
  16 H :    0.026213
  17 H :    0.035081
Sum of atomic charges:   -0.0000000

LOEWDIN ATOMIC CHARGES
----------------------
   0 C :   -0.064249
   1 C :   -0.044460
   2 C :   -0.047634
   3 C :    0.014464
   4 N :   -0.109705
   5 C :    0.000380
   6 C :    0.002251
   7 H :    0.036417
   8 H :    0.036166
   9 H :    0.031685
  10 H :    0.019811
  11 H :    0.024603
  12 H :    0.003406
  13 H :    0.029905
  14 H :    0.012040
  15 H :    0.020882
  16 H :    0.013025
  17 H :    0.021015

  Mayer bond orders larger than 0.1
B(  0-C ,  1-C ) :   1.0882 B(  0-C ,  7-H ) :   0.9465 B(  0-C ,  8-H ) :   0.9478
B(  0-C ,  9-H ) :   0.9619 B(  1-C ,  2-C ) :   1.9155 B(  1-C , 10-H ) :   0.9511
B(  2-C ,  3-C ) :   1.0652 B(  2-C , 11-H ) :   0.9527 B(  3-C ,  4-N ) :   0.9871
B(  3-C , 12-H ) :   0.9032 B(  3-C , 13-H ) :   0.9130 B(  4-N ,  5-C ) :   0.9705
B(  4-N ,  6-C ) :   0.9669 B(  5-C ,  6-C ) :   1.0955 B(  5-C , 14-H ) :   0.9306
B(  5-C , 15-H ) :   0.9490 B(  6-C , 16-H ) :   0.9337 B(  6-C , 17-H ) :   0.9498

FINAL SINGLE POINT ENERGY      -289.338439983004

DIPOLE MOMENT
-------------
                                X             Y             Z
Electronic contribution:      0.64577      -2.92208       1.61445
Nuclear contribution   :     -0.40072       3.14454      -1.90286
                        -----------------------------------------
Total Dipole Moment    :      0.24504       0.22246      -0.28840
                        -----------------------------------------
Magnitude (a.u.)       :      0.43899
Magnitude (Debye)      :      1.11582

                             ****ORCA TERMINATED NORMALLY****
TOTAL RUN TIME: 0 days 0 hours 0 minutes 7 seconds 667 msec
