                         Program Version 3.0.3 - RELEASE   -
|  1> ! RI PBE def2-SVP def2-SVP/J NBO PAL2
|  2> % maxcore 2000
|  3> % output
|  4>     # printlevel mini
|  5>     print[ P_Basis ] 0
|  6>     print[ P_SCFInfo ] 1
|  7>     print[ P_SCFIterInfo ] 1
|  8>     print[ P_OrbEn ] 0
|  9>     print[ P_Cartesian ] 0
| 10> end
| 11> *xyz 0 1
| 12>  C        1.0862620000    -0.7025660000    -0.6947350000
| 13>  C        2.5753930000    -0.6397140000    -0.5640060000
| 14>  C        3.3958500000    -0.8081810000    -1.5941710000
| 15>  C        3.0682070000    -0.3613800000     0.8264130000
| 16>  N        4.5046610000    -0.3977420000     0.9619500000
| 17>  C        5.0003290000    -0.6034430000     2.3049240000
| 18>  C        5.0740450000    -1.6854560000     1.2991060000
| 19>  H        0.7848770000    -0.8765990000    -1.7280930000
| 20>  H        0.6219540000     0.2298230000    -0.3554040000
| 21>  H        0.6685520000    -1.5038190000    -0.0757440000
| 22>  H        3.0092390000    -1.0033910000    -2.5884280000
| 23>  H        4.4694690000    -0.7422640000    -1.4706650000
| 24>  H        2.5756260000    -1.0704640000     1.5200070000
| 25>  H        2.7235580000     0.6367450000     1.1276700000
| 26>  H        4.2691130000    -0.7183460000     3.1022400000
| 27>  H        5.8875220000    -0.0407550000     2.5743970000
| 28>  H        4.3890520000    -2.5218680000     1.4172070000
| 29>  H        6.0167810000    -1.9289670000     0.8215310000
| 30> *
| 31>
| 32>                          ****END OF INPUT****
 Total Charge           Charge          ....    0
 Multiplicity           Mult            ....    1
 Number of Electrons    NEL             ....   54
 Basis Dimension        Dim             ....  153

MULLIKEN ATOMIC CHARGES
-----------------------
   0 C :    0.058713
   1 C :   -0.230061
   2 C :   -0.014987
   3 C :    0.199039
   4 N :   -0.290538
   5 C :    0.035576
   6 C :    0.033619
   7 H :    0.015235
   8 H :    0.026528
   9 H :    0.027058
  10 H :    0.001077
  11 H :    0.022490
  12 H :   -0.020844
  13 H :    0.014426
  14 H :    0.020909
  15 H :    0.036476
  16 H :    0.027731
  17 H :    0.037553
Sum of atomic charges:   -0.0000000

LOEWDIN ATOMIC CHARGES
----------------------
   0 C :   -0.055366
   1 C :   -0.045319
   2 C :   -0.075602
   3 C :    0.018837
   4 N :   -0.101897
   5 C :    0.004943
   6 C :    0.005652
   7 H :    0.032088
   8 H :    0.034058
   9 H :    0.033580
  10 H :    0.018787
  11 H :    0.023468
  12 H :    0.006335
  13 H :    0.031794
  14 H :    0.012428
  15 H :    0.021247
  16 H :    0.013985
  17 H :    0.020984

  Mayer bond orders larger than 0.1
B(  0-C ,  1-C ) :   1.0820 B(  0-C ,  7-H ) :   0.9500 B(  0-C ,  8-H ) :   0.9491
B(  0-C ,  9-H ) :   0.9460 B(  1-C ,  2-C ) :   2.0151 B(  1-C ,  3-C ) :   1.0142
B(  2-C , 10-H ) :   0.9274 B(  2-C , 11-H ) :   0.9203 B(  3-C ,  4-N ) :   1.0402
B(  3-C , 12-H ) :   0.8903 B(  3-C , 13-H ) :   0.9099 B(  4-N ,  5-C ) :   0.9678
B(  4-N ,  6-C ) :   0.9510 B(  5-C ,  6-C ) :   1.0899 B(  5-C , 14-H ) :   0.9298
B(  5-C , 15-H ) :   0.9498 B(  6-C , 16-H ) :   0.9339 B(  6-C , 17-H ) :   0.9518

FINAL SINGLE POINT ENERGY      -289.338439525126

DIPOLE MOMENT
-------------
                                X             Y             Z
Electronic contribution:      2.74884       0.97758       0.25024
Nuclear contribution   :     -3.03211      -1.21052       0.17049
                        -----------------------------------------
Total Dipole Moment    :     -0.28326      -0.23294       0.42072
                        -----------------------------------------
Magnitude (a.u.)       :      0.55813
Magnitude (Debye)      :      1.41865

                             ****ORCA TERMINATED NORMALLY****
TOTAL RUN TIME: 0 days 0 hours 0 minutes 7 seconds 886 msec
