                         Program Version 3.0.3 - RELEASE   -
|  1> ! RI PBE def2-SVP def2-SVP/J NBO PAL2
|  2> % maxcore 2000
|  3> % output
|  4>     # printlevel mini
|  5>     print[ P_Basis ] 0
|  6>     print[ P_SCFInfo ] 1
|  7>     print[ P_SCFIterInfo ] 1
|  8>     print[ P_OrbEn ] 0
|  9>     print[ P_Cartesian ] 0
| 10> end
| 11> *xyz 0 1
| 12>  C        0.8637060000    -0.1904490000     0.1003970000
| 13>  C        2.3596460000     0.0040930000    -0.0975180000
| 14>  C        3.1076690000    -1.2725840000     0.1271670000
| 15>  C        3.9668820000    -1.4806610000     1.1137140000
| 16>  N        2.6006970000     0.4602010000    -1.4611150000
| 17>  C        2.4943810000     1.8873040000    -1.6783060000
| 18>  C        3.8139980000     1.2172280000    -1.6738280000
| 19>  H        0.6489550000    -0.5107780000     1.1212960000
| 20>  H        0.4863850000    -0.9474570000    -0.5906800000
| 21>  H        0.3274050000     0.7419480000    -0.0923880000
| 22>  H        2.7227650000     0.7513690000     0.6313360000
| 23>  H        2.8978300000    -2.0625410000    -0.5913460000
| 24>  H        4.1964970000    -0.7043940000     1.8377170000
| 25>  H        4.4689940000    -2.4330160000     1.2394310000
| 26>  H        2.2574800000     2.5134890000    -0.8205970000
| 27>  H        2.0337950000     2.1951100000    -2.6108430000
| 28>  H        4.4560990000     1.3918730000    -0.8136990000
| 29>  H        4.3371350000     1.0250550000    -2.6041390000
| 30> *
| 31>
| 32>                          ****END OF INPUT****
 Total Charge           Charge          ....    0
 Multiplicity           Mult            ....    1
 Number of Electrons    NEL             ....   54
 Basis Dimension        Dim             ....  153

MULLIKEN ATOMIC CHARGES
-----------------------
   0 C :    0.059301
   1 C :    0.002942
   2 C :   -0.019856
   3 C :   -0.031033
   4 N :   -0.281432
   5 C :    0.030566
   6 C :    0.042177
   7 H :    0.019889
   8 H :    0.023729
   9 H :    0.015099
  10 H :   -0.027421
  11 H :    0.005982
  12 H :    0.018330
  13 H :    0.024347
  14 H :    0.024450
  15 H :    0.035147
  16 H :    0.023597
  17 H :    0.034187
Sum of atomic charges:   -0.0000000

LOEWDIN ATOMIC CHARGES
----------------------
   0 C :   -0.054680
   1 C :    0.002200
   2 C :   -0.019994
   3 C :   -0.063177
   4 N :   -0.104392
   5 C :    0.002232
   6 C :    0.005174
   7 H :    0.029622
   8 H :    0.029842
   9 H :    0.026296
  10 H :    0.003757
  11 H :    0.028666
  12 H :    0.020854
  13 H :    0.025455
  14 H :    0.012477
  15 H :    0.020682
  16 H :    0.013839
  17 H :    0.021148

  Mayer bond orders larger than 0.1
B(  0-C ,  1-C ) :   1.0678 B(  0-C ,  7-H ) :   0.9581 B(  0-C ,  8-H ) :   0.9530
B(  0-C ,  9-H ) :   0.9518 B(  1-C ,  2-C ) :   1.0245 B(  1-C ,  4-N ) :   0.9553
B(  1-C , 10-H ) :   0.8912 B(  2-C ,  3-C ) :   2.0029 B(  2-C , 11-H ) :   0.9511
B(  3-C , 12-H ) :   0.9452 B(  3-C , 13-H ) :   0.9397 B(  4-N ,  5-C ) :   0.9622
B(  4-N ,  6-C ) :   0.9627 B(  5-C ,  6-C ) :   1.0939 B(  5-C , 14-H ) :   0.9259
B(  5-C , 15-H ) :   0.9503 B(  6-C , 16-H ) :   0.9291 B(  6-C , 17-H ) :   0.9502

FINAL SINGLE POINT ENERGY      -289.335934343594

DIPOLE MOMENT
-------------
                                X             Y             Z
Electronic contribution:      1.14333      -0.44124      -1.89806
Nuclear contribution   :     -1.09156       0.73640       2.12065
                        -----------------------------------------
Total Dipole Moment    :      0.05176       0.29515       0.22259
                        -----------------------------------------
Magnitude (a.u.)       :      0.37329
Magnitude (Debye)      :      0.94882

                             ****ORCA TERMINATED NORMALLY****
TOTAL RUN TIME: 0 days 0 hours 0 minutes 7 seconds 931 msec
