                         Program Version 3.0.3 - RELEASE   -
|  1> ! RI PBE def2-SVP def2-SVP/J NBO PAL2
|  2> % maxcore 2000
|  3> % output
|  4>     # printlevel mini
|  5>     print[ P_Basis ] 0
|  6>     print[ P_SCFInfo ] 1
|  7>     print[ P_SCFIterInfo ] 1
|  8>     print[ P_OrbEn ] 0
|  9>     print[ P_Cartesian ] 0
| 10> end
| 11> *xyz 0 1
| 12>  C        0.9431120000     0.0314310000    -0.2679130000
| 13>  C        2.3623670000    -0.0980340000     0.2655440000
| 14>  C        2.4102270000     0.1209300000     1.7702780000
| 15>  C        2.9466510000    -1.4507840000    -0.1195360000
| 16>  N        4.3440840000    -1.5649810000     0.2462800000
| 17>  C        5.1053000000    -2.5651250000    -0.4668960000
| 18>  C        5.2941450000    -1.1257410000    -0.7537620000
| 19>  H        0.5158000000     1.0043880000    -0.0137500000
| 20>  H        0.2934750000    -0.7363200000     0.1647730000
| 21>  H        0.9082350000    -0.0765760000    -1.3554160000
| 22>  H        2.9812300000     0.6720240000    -0.2140620000
| 23>  H        1.7696850000    -0.6038000000     2.2839510000
| 24>  H        2.0558470000     1.1211790000     2.0324290000
| 25>  H        3.4249540000    -0.0004300000     2.1516950000
| 26>  H        2.8035450000    -1.6167650000    -1.2027940000
| 27>  H        2.3969700000    -2.2442470000     0.4015320000
| 28>  H        4.5848250000    -3.1533870000    -1.2197810000
| 29>  H        5.8389990000    -3.1114590000     0.1160740000
| 30>  H        4.8973980000    -0.7550560000    -1.6968560000
| 31>  H        6.1687820000    -0.6008360000    -0.3852710000
| 32> *
| 33>
| 34>                          ****END OF INPUT****
 Total Charge           Charge          ....    0
 Multiplicity           Mult            ....    1
 Number of Electrons    NEL             ....   56
 Basis Dimension        Dim             ....  163

MULLIKEN ATOMIC CHARGES
-----------------------
   0 C :    0.007822
   1 C :   -0.131270
   2 C :    0.031638
   3 C :    0.125572
   4 N :   -0.280981
   5 C :    0.030973
   6 C :    0.030197
   7 H :    0.016675
   8 H :    0.014146
   9 H :    0.018210
  10 H :    0.003817
  11 H :    0.004530
  12 H :    0.008574
  13 H :    0.025344
  14 H :   -0.023330
  15 H :    0.000449
  16 H :    0.021255
  17 H :    0.036813
  18 H :    0.022918
  19 H :    0.036647
Sum of atomic charges:   -0.0000000

LOEWDIN ATOMIC CHARGES
----------------------
   0 C :   -0.059780
   1 C :   -0.053309
   2 C :   -0.056839
   3 C :    0.017440
   4 N :   -0.104362
   5 C :    0.003910
   6 C :    0.001280
   7 H :    0.026169
   8 H :    0.023982
   9 H :    0.023527
  10 H :    0.023866
  11 H :    0.022110
  12 H :    0.022053
  13 H :    0.026215
  14 H :   -0.001451
  15 H :    0.020053
  16 H :    0.012385
  17 H :    0.020678
  18 H :    0.011378
  19 H :    0.020695

  Mayer bond orders larger than 0.1
B(  0-C ,  1-C ) :   1.0811 B(  0-C ,  7-H ) :   0.9608 B(  0-C ,  8-H ) :   0.9596
B(  0-C ,  9-H ) :   0.9595 B(  1-C ,  2-C ) :   1.0775 B(  1-C ,  3-C ) :   1.0545
B(  1-C , 10-H ) :   0.9089 B(  2-C , 11-H ) :   0.9596 B(  2-C , 12-H ) :   0.9625
B(  2-C , 13-H ) :   0.9566 B(  3-C ,  4-N ) :   1.0250 B(  3-C , 14-H ) :   0.9081
B(  3-C , 15-H ) :   0.9244 B(  4-N ,  5-C ) :   0.9751 B(  4-N ,  6-C ) :   0.9599
B(  5-C ,  6-C ) :   1.0930 B(  5-C , 16-H ) :   0.9295 B(  5-C , 17-H ) :   0.9489
B(  6-C , 18-H ) :   0.9298 B(  6-C , 19-H ) :   0.9514

FINAL SINGLE POINT ENERGY      -290.559583620509

DIPOLE MOMENT
-------------
                                X             Y             Z
Electronic contribution:      4.15354      -2.03237      -0.21850
Nuclear contribution   :     -4.17120       1.98186      -0.19003
                        -----------------------------------------
Total Dipole Moment    :     -0.01765      -0.05052      -0.40854
                        -----------------------------------------
Magnitude (a.u.)       :      0.41202
Magnitude (Debye)      :      1.04728

                             ****ORCA TERMINATED NORMALLY****
TOTAL RUN TIME: 0 days 0 hours 0 minutes 8 seconds 129 msec
