                         Program Version 3.0.3 - RELEASE   -
|  1> ! RI PBE def2-SVP def2-SVP/J NBO PAL2
|  2> % maxcore 2000
|  3> % output
|  4>     # printlevel mini
|  5>     print[ P_Basis ] 0
|  6>     print[ P_SCFInfo ] 1
|  7>     print[ P_SCFIterInfo ] 1
|  8>     print[ P_OrbEn ] 0
|  9>     print[ P_Cartesian ] 0
| 10> end
| 11> *xyz 0 1
| 12>  C        1.3347200000    -0.8834480000    -0.2635410000
| 13>  C        2.6023040000    -0.2649020000     0.3279950000
| 14>  C        3.3062140000    -1.2952780000     1.2031140000
| 15>  C        2.2283110000     0.9588550000     1.1558610000
| 16>  N        3.6020640000     0.1927860000    -0.6473600000
| 17>  C        3.8503550000    -0.5357400000    -1.8665430000
| 18>  C        3.2108730000     0.8024670000    -1.8939650000
| 19>  H        1.5480700000    -1.7773850000    -0.8539110000
| 20>  H        0.7831730000    -0.1771860000    -0.8881840000
| 21>  H        0.6686020000    -1.1844550000     0.5478890000
| 22>  H        3.6023660000    -2.1662410000     0.6123070000
| 23>  H        2.6495540000    -1.6377720000     2.0063800000
| 24>  H        4.2058600000    -0.8628250000     1.6447910000
| 25>  H        1.5369080000     0.6898380000     1.9579330000
| 26>  H        1.7456010000     1.7151880000     0.5311350000
| 27>  H        3.1225120000     1.4030930000     1.5969200000
| 28>  H        3.2163580000    -1.3815890000    -2.1182650000
| 29>  H        4.8940360000    -0.6552460000    -2.1392390000
| 30>  H        2.1586750000     0.8316770000    -2.1637470000
| 31>  H        3.7781340000     1.6800430000    -2.1871590000
| 32> *
| 33>
| 34>                          ****END OF INPUT****
 Total Charge           Charge          ....    0
 Multiplicity           Mult            ....    1
 Number of Electrons    NEL             ....   56
 Basis Dimension        Dim             ....  163

MULLIKEN ATOMIC CHARGES
-----------------------
   0 C :    0.041369
   1 C :   -0.229560
   2 C :    0.086189
   3 C :    0.079799
   4 N :   -0.268683
   5 C :    0.036549
   6 C :    0.032941
   7 H :    0.015009
   8 H :    0.016446
   9 H :    0.015123
  10 H :    0.006476
  11 H :    0.009239
  12 H :    0.017056
  13 H :    0.011222
  14 H :    0.008712
  15 H :    0.018799
  16 H :    0.021308
  17 H :    0.030363
  18 H :    0.021082
  19 H :    0.030561
Sum of atomic charges:   -0.0000000

LOEWDIN ATOMIC CHARGES
----------------------
   0 C :   -0.064714
   1 C :   -0.021990
   2 C :   -0.049648
   3 C :   -0.051106
   4 N :   -0.099764
   5 C :    0.001731
   6 C :    0.001777
   7 H :    0.022950
   8 H :    0.023417
   9 H :    0.031252
  10 H :    0.023170
  11 H :    0.023944
  12 H :    0.027476
  13 H :    0.024267
  14 H :    0.023573
  15 H :    0.027807
  16 H :    0.009519
  17 H :    0.018381
  18 H :    0.009526
  19 H :    0.018431

  Mayer bond orders larger than 0.1
B(  0-C ,  1-C ) :   1.0513 B(  0-C ,  7-H ) :   0.9481 B(  0-C ,  8-H ) :   0.9474
B(  0-C ,  9-H ) :   0.9459 B(  1-C ,  2-C ) :   1.0525 B(  1-C ,  3-C ) :   1.0513
B(  1-C ,  4-N ) :   0.9701 B(  2-C , 10-H ) :   0.9527 B(  2-C , 11-H ) :   0.9579
B(  2-C , 12-H ) :   0.9520 B(  3-C , 13-H ) :   0.9584 B(  3-C , 14-H ) :   0.9534
B(  3-C , 15-H ) :   0.9510 B(  4-N ,  5-C ) :   0.9711 B(  4-N ,  6-C ) :   0.9731
B(  5-C ,  6-C ) :   1.0878 B(  5-C , 16-H ) :   0.9296 B(  5-C , 17-H ) :   0.9472
B(  6-C , 18-H ) :   0.9297 B(  6-C , 19-H ) :   0.9473

FINAL SINGLE POINT ENERGY      -290.558940372125

DIPOLE MOMENT
-------------
                                X             Y             Z
Electronic contribution:      2.65971       1.22750      -2.05666
Nuclear contribution   :     -3.01028      -1.39941       1.90475
                        -----------------------------------------
Total Dipole Moment    :     -0.35057      -0.17191      -0.15191
                        -----------------------------------------
Magnitude (a.u.)       :      0.41896
Magnitude (Debye)      :      1.06490

                             ****ORCA TERMINATED NORMALLY****
TOTAL RUN TIME: 0 days 0 hours 0 minutes 8 seconds 401 msec
