                         Program Version 3.0.3 - RELEASE   -
|  1> ! RI PBE def2-SVP def2-SVP/J NBO PAL2
|  2> % maxcore 2000
|  3> % output
|  4>     # printlevel mini
|  5>     print[ P_Basis ] 0
|  6>     print[ P_SCFInfo ] 1
|  7>     print[ P_SCFIterInfo ] 1
|  8>     print[ P_OrbEn ] 0
|  9>     print[ P_Cartesian ] 0
| 10> end
| 11> *xyz 0 1
| 12>  C        1.0523160000    -0.0255010000     0.0060760000
| 13>  C        2.5758730000    -0.0250770000    -0.0045420000
| 14>  C        3.1074460000    -0.6487180000     1.2118820000
| 15>  C        3.5462160000    -1.1739500000     2.1994240000
| 16>  N        3.0420080000    -0.6141730000    -1.2577520000
| 17>  C        4.3920930000    -1.1257610000    -1.3380260000
| 18>  C        3.2339370000    -2.0480520000    -1.3227730000
| 19>  H        0.6716750000     0.4849930000     0.8917340000
| 20>  H        0.6735620000    -1.0494080000     0.0098640000
| 21>  H        0.6856230000     0.4797030000    -0.8883780000
| 22>  H        2.9237790000     1.0146830000    -0.0152170000
| 23>  H        3.9304740000    -1.6307850000     3.0809160000
| 24>  H        5.0009500000    -1.1025480000    -0.4382230000
| 25>  H        4.9149430000    -0.9106480000    -2.2635910000
| 26>  H        3.0897830000    -2.6236030000    -0.4122570000
| 27>  H        2.8923230000    -2.5218540000    -2.2364350000
| 28> *
| 29>
| 30>                          ****END OF INPUT****
 Total Charge           Charge          ....    0
 Multiplicity           Mult            ....    1
 Number of Electrons    NEL             ....   52
 Basis Dimension        Dim             ....  143

MULLIKEN ATOMIC CHARGES
-----------------------
   0 C :    0.045678
   1 C :    0.101949
   2 C :    0.336522
   3 C :   -0.506912
   4 N :   -0.292492
   5 C :    0.023964
   6 C :    0.024602
   7 H :    0.030424
   8 H :    0.022334
   9 H :    0.030299
  10 H :    0.030431
  11 H :   -0.001386
  12 H :    0.040291
  13 H :    0.035591
  14 H :    0.043307
  15 H :    0.035397
Sum of atomic charges:   -0.0000000

LOEWDIN ATOMIC CHARGES
----------------------
   0 C :   -0.046446
   1 C :   -0.001939
   2 C :   -0.031204
   3 C :   -0.084103
   4 N :   -0.097793
   5 C :    0.003858
   6 C :    0.003189
   7 H :    0.032943
   8 H :    0.029557
   9 H :    0.032557
  10 H :    0.045882
  11 H :    0.036030
  12 H :    0.018130
  13 H :    0.020695
  14 H :    0.018066
  15 H :    0.020576

  Mayer bond orders larger than 0.1
B(  0-C ,  1-C ) :   1.0813 B(  0-C ,  7-H ) :   0.9607 B(  0-C ,  8-H ) :   0.9587
B(  0-C ,  9-H ) :   0.9507 B(  1-C ,  2-C ) :   0.9481 B(  1-C ,  4-N ) :   0.9974
B(  1-C , 10-H ) :   0.8839 B(  2-C ,  3-C ) :   2.3108 B(  2-C , 11-H ) :  -0.1186
B(  3-C , 11-H ) :   1.1081 B(  4-N ,  5-C ) :   0.9746 B(  4-N ,  6-C ) :   0.9642
B(  5-C ,  6-C ) :   1.0849 B(  5-C , 12-H ) :   0.9284 B(  5-C , 13-H ) :   0.9489
B(  6-C , 14-H ) :   0.9294 B(  6-C , 15-H ) :   0.9497

FINAL SINGLE POINT ENERGY      -288.091078149035

DIPOLE MOMENT
-------------
                                X             Y             Z
Electronic contribution:      1.91092       0.38736       1.39941
Nuclear contribution   :     -1.83516      -0.52627      -1.17241
                        -----------------------------------------
Total Dipole Moment    :      0.07576      -0.13891       0.22700
                        -----------------------------------------
Magnitude (a.u.)       :      0.27670
Magnitude (Debye)      :      0.70332

                             ****ORCA TERMINATED NORMALLY****
TOTAL RUN TIME: 0 days 0 hours 0 minutes 7 seconds 318 msec
