                         Program Version 3.0.3 - RELEASE   -
|  1> ! RI PBE def2-SVP def2-SVP/J NBO PAL2
|  2> % maxcore 2000
|  3> % output
|  4>     # printlevel mini
|  5>     print[ P_Basis ] 0
|  6>     print[ P_SCFInfo ] 1
|  7>     print[ P_SCFIterInfo ] 1
|  8>     print[ P_OrbEn ] 0
|  9>     print[ P_Cartesian ] 0
| 10> end
| 11> *xyz 0 1
| 12>  C        0.9910100000    -0.0732870000    -0.0769980000
| 13>  C        2.4412640000    -0.0842080000    -0.0435970000
| 14>  C        3.6424860000    -0.0926250000    -0.0068060000
| 15>  C        5.0981160000    -0.1068770000     0.0213270000
| 16>  N        5.6463130000     1.0994720000     0.6210210000
| 17>  C        6.9800030000     1.4501110000     0.1784470000
| 18>  C        5.8030260000     2.2221020000    -0.2783730000
| 19>  H        0.5766360000     0.0535950000     0.9262260000
| 20>  H        0.6036020000    -1.0109510000    -0.4834910000
| 21>  H        0.6173610000     0.7419460000    -0.7015630000
| 22>  H        5.4744000000    -0.2563280000    -1.0065550000
| 23>  H        5.4448360000    -0.9620260000     0.6114160000
| 24>  H        7.4594060000     0.8008640000    -0.5509570000
| 25>  H        7.6402090000     1.8491240000     0.9405540000
| 26>  H        5.4916620000     2.0876180000    -1.3115500000
| 27>  H        5.5869720000     3.1974490000     0.1427880000
| 28> *
| 29>
| 30>                          ****END OF INPUT****
 Total Charge           Charge          ....    0
 Multiplicity           Mult            ....    1
 Number of Electrons    NEL             ....   52
 Basis Dimension        Dim             ....  143

MULLIKEN ATOMIC CHARGES
-----------------------
   0 C :    0.051932
   1 C :   -0.248170
   2 C :   -0.064523
   3 C :    0.191501
   4 N :   -0.293664
   5 C :    0.015237
   6 C :    0.052367
   7 H :    0.048064
   8 H :    0.046283
   9 H :    0.047547
  10 H :    0.000865
  11 H :    0.026854
  12 H :    0.024083
  13 H :    0.041249
  14 H :    0.024389
  15 H :    0.035986
Sum of atomic charges:    0.0000000

LOEWDIN ATOMIC CHARGES
----------------------
   0 C :   -0.067762
   1 C :   -0.058649
   2 C :   -0.071304
   3 C :    0.010456
   4 N :   -0.105070
   5 C :    0.000961
   6 C :    0.007730
   7 H :    0.050760
   8 H :    0.050779
   9 H :    0.050016
  10 H :    0.018633
  11 H :    0.042186
  12 H :    0.012187
  13 H :    0.022186
  14 H :    0.014387
  15 H :    0.022503

  Mayer bond orders larger than 0.1
B(  0-C ,  1-C ) :   1.1331 B(  0-C ,  7-H ) :   0.9328 B(  0-C ,  8-H ) :   0.9344
B(  0-C ,  9-H ) :   0.9323 B(  1-C ,  2-C ) :   2.6092 B(  2-C ,  3-C ) :   1.0375
B(  3-C ,  4-N ) :   1.0090 B(  3-C , 10-H ) :   0.8855 B(  3-C , 11-H ) :   0.8896
B(  4-N ,  5-C ) :   0.9678 B(  4-N ,  6-C ) :   0.9554 B(  5-C ,  6-C ) :   1.0969
B(  5-C , 12-H ) :   0.9290 B(  5-C , 13-H ) :   0.9497 B(  6-C , 14-H ) :   0.9300
B(  6-C , 15-H ) :   0.9508

FINAL SINGLE POINT ENERGY      -288.098370396108

DIPOLE MOMENT
-------------
                                X             Y             Z
Electronic contribution:      0.55409      -0.66400       1.34317
Nuclear contribution   :     -0.60133       0.61986      -1.76557
                        -----------------------------------------
Total Dipole Moment    :     -0.04723      -0.04415      -0.42240
                        -----------------------------------------
Magnitude (a.u.)       :      0.42732
Magnitude (Debye)      :      1.08616

                             ****ORCA TERMINATED NORMALLY****
TOTAL RUN TIME: 0 days 0 hours 0 minutes 6 seconds 800 msec
