                         Program Version 3.0.3 - RELEASE   -
|  1> ! RI PBE def2-SVP def2-SVP/J NBO PAL2
|  2> % maxcore 2000
|  3> % output
|  4>     # printlevel mini
|  5>     print[ P_Basis ] 0
|  6>     print[ P_SCFInfo ] 1
|  7>     print[ P_SCFIterInfo ] 1
|  8>     print[ P_OrbEn ] 0
|  9>     print[ P_Cartesian ] 0
| 10> end
| 11> *xyz 0 1
| 12>  C        2.2626560000     0.3692520000     2.2727010000
| 13>  C        2.1815520000    -0.0179150000     0.8045200000
| 14>  C        2.9721310000     0.8789860000    -0.1454800000
| 15>  C        2.5279290000     2.3298900000    -0.1086790000
| 16>  N        4.3906860000     0.8044680000     0.1756380000
| 17>  C        5.1143820000    -0.3144000000    -0.3862820000
| 18>  C        5.3054360000     1.0544820000    -0.9149050000
| 19>  H        1.7552740000    -0.3718330000     2.8946250000
| 20>  H        1.7890830000     1.3345010000     2.4660610000
| 21>  H        3.3018660000     0.4353780000     2.6001150000
| 22>  H        1.1366490000    -0.0241470000     0.4757860000
| 23>  H        2.5456930000    -1.0437950000     0.6804430000
| 24>  H        2.8047060000     0.4948390000    -1.1698230000
| 25>  H        2.7206080000     2.7705890000     0.8710470000
| 26>  H        1.4601360000     2.4135650000    -0.3249010000
| 27>  H        3.0707430000     2.9187500000    -0.8517700000
| 28>  H        4.5620430000    -1.0102280000    -1.0150300000
| 29>  H        5.8636190000    -0.7698750000     0.2524030000
| 30>  H        4.8792120000     1.2649920000    -1.8940390000
| 31>  H        6.1982870000     1.6210100000    -0.6728090000
| 32> *
| 33>
| 34>                          ****END OF INPUT****
 Total Charge           Charge          ....    0
 Multiplicity           Mult            ....    1
 Number of Electrons    NEL             ....   56
 Basis Dimension        Dim             ....  163

MULLIKEN ATOMIC CHARGES
-----------------------
   0 C :   -0.019574
   1 C :    0.022994
   2 C :   -0.042072
   3 C :    0.043598
   4 N :   -0.274712
   5 C :    0.037945
   6 C :    0.030401
   7 H :    0.017262
   8 H :    0.014267
   9 H :    0.028851
  10 H :    0.004823
  11 H :   -0.001027
  12 H :   -0.029270
  13 H :    0.024781
  14 H :    0.015342
  15 H :    0.012087
  16 H :    0.022050
  17 H :    0.034200
  18 H :    0.023095
  19 H :    0.034959
Sum of atomic charges:    0.0000000

LOEWDIN ATOMIC CHARGES
----------------------
   0 C :   -0.067438
   1 C :   -0.044204
   2 C :    0.003961
   3 C :   -0.062223
   4 N :   -0.102592
   5 C :    0.001899
   6 C :    0.002644
   7 H :    0.026139
   8 H :    0.022707
   9 H :    0.027238
  10 H :    0.023837
  11 H :    0.022547
  12 H :   -0.000550
  13 H :    0.028230
  14 H :    0.028086
  15 H :    0.025569
  16 H :    0.011703
  17 H :    0.020168
  18 H :    0.012185
  19 H :    0.020094

  Mayer bond orders larger than 0.1
B(  0-C ,  1-C ) :   1.1104 B(  0-C ,  7-H ) :   0.9592 B(  0-C ,  8-H ) :   0.9634
B(  0-C ,  9-H ) :   0.9631 B(  1-C ,  2-C ) :   1.0687 B(  1-C , 10-H ) :   0.9316
B(  1-C , 11-H ) :   0.9250 B(  2-C ,  3-C ) :   1.0820 B(  2-C ,  4-N ) :   0.9703
B(  2-C , 12-H ) :   0.8876 B(  3-C , 13-H ) :   0.9493 B(  3-C , 14-H ) :   0.9566
B(  3-C , 15-H ) :   0.9528 B(  4-N ,  5-C ) :   0.9626 B(  4-N ,  6-C ) :   0.9678
B(  5-C ,  6-C ) :   1.0948 B(  5-C , 16-H ) :   0.9234 B(  5-C , 17-H ) :   0.9499
B(  6-C , 18-H ) :   0.9255 B(  6-C , 19-H ) :   0.9507

FINAL SINGLE POINT ENERGY      -290.560774208938

DIPOLE MOMENT
-------------
                                X             Y             Z
Electronic contribution:      3.30325      -0.55526      -1.32619
Nuclear contribution   :     -3.36829       0.43256       0.96014
                        -----------------------------------------
Total Dipole Moment    :     -0.06504      -0.12270      -0.36605
                        -----------------------------------------
Magnitude (a.u.)       :      0.39151
Magnitude (Debye)      :      0.99513

                             ****ORCA TERMINATED NORMALLY****
TOTAL RUN TIME: 0 days 0 hours 0 minutes 8 seconds 555 msec
