                         Program Version 3.0.3 - RELEASE   -
|  1> ! RI PBE def2-SVP def2-SVP/J NBO PAL2
|  2> % maxcore 2000
|  3> % output
|  4>     # printlevel mini
|  5>     print[ P_Basis ] 0
|  6>     print[ P_SCFInfo ] 1
|  7>     print[ P_SCFIterInfo ] 1
|  8>     print[ P_OrbEn ] 0
|  9>     print[ P_Cartesian ] 0
| 10> end
| 11> *xyz 0 1
| 12>  C        0.2535460000     0.2677870000    -0.1932910000
| 13>  C        1.7520200000     0.2930980000     0.0567330000
| 14>  C        2.4903810000     1.2515080000    -0.8637790000
| 15>  C        3.9861090000     1.2859570000    -0.6162180000
| 16>  N        4.6579120000     2.1821900000    -1.5326990000
| 17>  C        6.0822580000     2.2942970000    -1.2988710000
| 18>  C        6.7159050000     3.2936730000    -2.2436970000
| 19>  H       -0.2543710000    -0.4278620000     0.4786680000
| 20>  H        0.0306150000    -0.0381370000    -1.2192550000
| 21>  H       -0.1878790000     1.2570530000    -0.0425780000
| 22>  H        2.1617950000    -0.7156110000    -0.0702030000
| 23>  H        1.9454640000     0.5687490000     1.0998710000
| 24>  H        2.0796850000     2.2619710000    -0.7356300000
| 25>  H        2.3129180000     0.9789820000    -1.9097100000
| 26>  H        4.4020440000     0.2814470000    -0.7619020000
| 27>  H        4.1764150000     1.5448880000     0.4426390000
| 28>  H        4.2344940000     3.1020900000    -1.4759330000
| 29>  H        6.5261310000     1.3047640000    -1.4572060000
| 30>  H        6.3154740000     2.5710100000    -0.2541600000
| 31>  H        6.5326410000     3.0105350000    -3.2822110000
| 32>  H        7.7945620000     3.3530180000    -2.0837220000
| 33>  H        6.3038900000     4.2957820000    -2.0901350000
| 34> *
| 35>
| 36>                          ****END OF INPUT****
 Total Charge           Charge          ....    0
 Multiplicity           Mult            ....    1
 Number of Electrons    NEL             ....   58
 Basis Dimension        Dim             ....  173

MULLIKEN ATOMIC CHARGES
-----------------------
   0 C :    0.002180
   1 C :   -0.057098
   2 C :   -0.035583
   3 C :    0.110439
   4 N :   -0.265641
   5 C :    0.075259
   6 C :   -0.036250
   7 H :    0.019051
   8 H :    0.016027
   9 H :    0.013988
  10 H :    0.010496
  11 H :    0.009527
  12 H :    0.000757
  13 H :    0.011613
  14 H :   -0.001062
  15 H :   -0.021094
  16 H :    0.092241
  17 H :    0.004451
  18 H :   -0.019355
  19 H :    0.029352
  20 H :    0.024155
  21 H :    0.016546
Sum of atomic charges:    0.0000000

LOEWDIN ATOMIC CHARGES
----------------------
   0 C :   -0.065344
   1 C :   -0.046160
   2 C :   -0.048045
   3 C :    0.011659
   4 N :   -0.104572
   5 C :    0.008554
   6 C :   -0.073747
   7 H :    0.026151
   8 H :    0.024581
   9 H :    0.023384
  10 H :    0.022620
  11 H :    0.021548
  12 H :    0.018349
  13 H :    0.024208
  14 H :    0.017834
  15 H :   -0.004455
  16 H :    0.049746
  17 H :    0.018462
  18 H :   -0.004928
  19 H :    0.027843
  20 H :    0.029922
  21 H :    0.022391

  Mayer bond orders larger than 0.1
B(  0-C ,  1-C ) :   1.1194 B(  0-C ,  7-H ) :   0.9611 B(  0-C ,  8-H ) :   0.9650
B(  0-C ,  9-H ) :   0.9650 B(  1-C ,  2-C ) :   1.0876 B(  1-C , 10-H ) :   0.9397
B(  1-C , 11-H ) :   0.9377 B(  2-C ,  3-C ) :   1.0852 B(  2-C , 12-H ) :   0.9352
B(  2-C , 13-H ) :   0.9320 B(  3-C ,  4-N ) :   1.0425 B(  3-C , 14-H ) :   0.9271
B(  3-C , 15-H ) :   0.9157 B(  4-N ,  5-C ) :   1.0347 B(  4-N , 16-H ) :   0.9396
B(  5-C ,  6-C ) :   1.1135 B(  5-C , 17-H ) :   0.9373 B(  5-C , 18-H ) :   0.9198
B(  6-C , 19-H ) :   0.9633 B(  6-C , 20-H ) :   0.9580 B(  6-C , 21-H ) :   0.9657

FINAL SINGLE POINT ENERGY      -291.791095750385

DIPOLE MOMENT
-------------
                                X             Y             Z
Electronic contribution:      1.20721       0.28159      -0.68758
Nuclear contribution   :     -1.22302      -0.12426       0.93748
                        -----------------------------------------
Total Dipole Moment    :     -0.01581       0.15733       0.24990
                        -----------------------------------------
Magnitude (a.u.)       :      0.29572
Magnitude (Debye)      :      0.75167

                             ****ORCA TERMINATED NORMALLY****
TOTAL RUN TIME: 0 days 0 hours 0 minutes 8 seconds 468 msec
