                         Program Version 3.0.3 - RELEASE   -
|  1> ! RI PBE def2-SVP def2-SVP/J NBO PAL2
|  2> % maxcore 2000
|  3> % output
|  4>     # printlevel mini
|  5>     print[ P_Basis ] 0
|  6>     print[ P_SCFInfo ] 1
|  7>     print[ P_SCFIterInfo ] 1
|  8>     print[ P_OrbEn ] 0
|  9>     print[ P_Cartesian ] 0
| 10> end
| 11> *xyz 0 1
| 12>  C        0.9871430000    -0.2180070000     0.0963520000
| 13>  C        2.3045030000    -0.0183820000     0.1270480000
| 14>  C        2.9936340000     0.8636210000    -0.8930350000
| 15>  C        3.6304100000     2.0313610000    -0.2983780000
| 16>  N        4.1275190000     2.9592840000     0.1621150000
| 17>  C        3.1438020000    -0.6323260000     1.0973470000
| 18>  C        3.8930320000    -1.1302570000     1.8946690000
| 19>  H        0.3660840000     0.2628140000    -0.6500920000
| 20>  H        0.5033100000    -0.8640090000     0.8173550000
| 21>  H        2.2699350000     1.2040620000    -1.6370300000
| 22>  H        3.7643030000     0.2906230000    -1.4186000000
| 23>  H        4.5475460000    -1.5692950000     2.6104590000
| 24> *
| 25>
| 26>                          ****END OF INPUT****
 Total Charge           Charge          ....    0
 Multiplicity           Mult            ....    1
 Number of Electrons    NEL             ....   48
 Basis Dimension        Dim             ....  123

MULLIKEN ATOMIC CHARGES
-----------------------
   0 C :    0.023142
   1 C :   -0.175090
   2 C :    0.169877
   3 C :   -0.269721
   4 N :    0.052140
   5 C :    0.438771
   6 C :   -0.440220
   7 H :    0.028164
   8 H :    0.039758
   9 H :    0.047249
  10 H :    0.071269
  11 H :    0.014660
Sum of atomic charges:   -0.0000000

LOEWDIN ATOMIC CHARGES
----------------------
   0 C :   -0.011929
   1 C :   -0.042360
   2 C :   -0.036413
   3 C :   -0.039536
   4 N :   -0.057008
   5 C :   -0.015598
   6 C :   -0.037671
   7 H :    0.029777
   8 H :    0.037543
   9 H :    0.062099
  10 H :    0.069903
  11 H :    0.041193

  Mayer bond orders larger than 0.1
B(  0-C ,  1-C ) :   1.9282 B(  0-C ,  6-C ) :   0.1267 B(  0-C ,  7-H ) :   0.9285
B(  0-C ,  8-H ) :   0.9397 B(  1-C ,  2-C ) :   1.0447 B(  1-C ,  5-C ) :   0.9921
B(  2-C ,  3-C ) :   1.0981 B(  2-C ,  9-H ) :   0.8790 B(  2-C , 10-H ) :   0.8853
B(  3-C ,  4-N ) :   3.0601 B(  5-C ,  6-C ) :   2.2572 B(  5-C , 11-H ) :  -0.1042
B(  6-C , 11-H ) :   1.0943

FINAL SINGLE POINT ENERGY      -285.706650050561

DIPOLE MOMENT
-------------
                                X             Y             Z
Electronic contribution:      2.65938       2.12837       1.09173
Nuclear contribution   :     -3.30438      -3.27390      -1.61551
                        -----------------------------------------
Total Dipole Moment    :     -0.64500      -1.14553      -0.52377
                        -----------------------------------------
Magnitude (a.u.)       :      1.41513
Magnitude (Debye)      :      3.59697

                             ****ORCA TERMINATED NORMALLY****
TOTAL RUN TIME: 0 days 0 hours 0 minutes 5 seconds 452 msec
