                         Program Version 3.0.3 - RELEASE   -
|  1> ! RI PBE def2-SVP def2-SVP/J NBO PAL2
|  2> % maxcore 2000
|  3> % output
|  4>     # printlevel mini
|  5>     print[ P_Basis ] 0
|  6>     print[ P_SCFInfo ] 1
|  7>     print[ P_SCFIterInfo ] 1
|  8>     print[ P_OrbEn ] 0
|  9>     print[ P_Cartesian ] 0
| 10> end
| 11> *xyz 0 1
| 12>  C        0.9725790000     0.4463050000     0.2879110000
| 13>  C        2.3854870000    -0.0255670000     0.2708250000
| 14>  C        2.9049240000    -1.0806350000    -0.3676800000
| 15>  C        2.1180150000    -1.9830850000    -1.2817340000
| 16>  N        2.5658500000    -1.8074540000    -2.6588450000
| 17>  C        4.3316630000    -1.4150570000    -0.2632910000
| 18>  C        5.0898680000    -1.2741040000     0.8203890000
| 19>  H        0.9128290000     1.4941450000    -0.0235350000
| 20>  H        0.5654240000     0.4047080000     1.3042170000
| 21>  H        0.3133870000    -0.1351800000    -0.3562840000
| 22>  H        3.0777210000     0.5812870000     0.8512300000
| 23>  H        1.0421040000    -1.8246190000    -1.1397430000
| 24>  H        2.3191870000    -3.0233280000    -1.0025710000
| 25>  H        2.3278190000    -0.8799890000    -2.9881720000
| 26>  H        2.1154560000    -2.4750850000    -3.2717070000
| 27>  H        4.7646370000    -1.8421520000    -1.1651040000
| 28>  H        4.6878250000    -0.8984740000     1.7559330000
| 29>  H        6.1401250000    -1.5409170000     0.8079530000
| 30> *
| 31>
| 32>                          ****END OF INPUT****
 Total Charge           Charge          ....    0
 Multiplicity           Mult            ....    1
 Number of Electrons    NEL             ....   54
 Basis Dimension        Dim             ....  153

MULLIKEN ATOMIC CHARGES
-----------------------
   0 C :    0.043683
   1 C :   -0.132420
   2 C :   -0.089194
   3 C :    0.141304
   4 N :   -0.215102
   5 C :   -0.009857
   6 C :   -0.038007
   7 H :    0.029911
   8 H :    0.035440
   9 H :    0.015666
  10 H :   -0.005023
  11 H :   -0.009583
  12 H :    0.010725
  13 H :    0.088006
  14 H :    0.092187
  15 H :    0.004125
  16 H :    0.014507
  17 H :    0.023632
Sum of atomic charges:    0.0000000

LOEWDIN ATOMIC CHARGES
----------------------
   0 C :   -0.070047
   1 C :   -0.035673
   2 C :   -0.055658
   3 C :    0.014130
   4 N :   -0.103908
   5 C :   -0.021872
   6 C :   -0.061496
   7 H :    0.037320
   8 H :    0.040059
   9 H :    0.026138
  10 H :    0.025119
  11 H :    0.002125
  12 H :    0.027780
  13 H :    0.051784
  14 H :    0.053307
  15 H :    0.028589
  16 H :    0.018592
  17 H :    0.023711

  Mayer bond orders larger than 0.1
B(  0-C ,  1-C ) :   1.1005 B(  0-C ,  7-H ) :   0.9391 B(  0-C ,  8-H ) :   0.9405
B(  0-C ,  9-H ) :   0.9518 B(  1-C ,  2-C ) :   1.8590 B(  1-C , 10-H ) :   0.9363
B(  2-C ,  3-C ) :   1.0618 B(  2-C ,  5-C ) :   1.0555 B(  3-C ,  4-N ) :   1.0739
B(  3-C , 11-H ) :   0.9085 B(  3-C , 12-H ) :   0.9098 B(  4-N , 13-H ) :   0.9681
B(  4-N , 14-H ) :   0.9647 B(  5-C ,  6-C ) :   1.9506 B(  5-C , 15-H ) :   0.9408
B(  6-C , 16-H ) :   0.9429 B(  6-C , 17-H ) :   0.9424

FINAL SINGLE POINT ENERGY      -289.356443375783

DIPOLE MOMENT
-------------
                                X             Y             Z
Electronic contribution:      2.33787      -0.98163      -0.50689
Nuclear contribution   :     -3.03788       1.06005       0.27967
                        -----------------------------------------
Total Dipole Moment    :     -0.70001       0.07843      -0.22722
                        -----------------------------------------
Magnitude (a.u.)       :      0.74013
Magnitude (Debye)      :      1.88126

                             ****ORCA TERMINATED NORMALLY****
TOTAL RUN TIME: 0 days 0 hours 0 minutes 7 seconds 816 msec
