                         Program Version 3.0.3 - RELEASE   -
|  1> ! RI PBE def2-SVP def2-SVP/J NBO PAL2
|  2> % maxcore 2000
|  3> % output
|  4>     # printlevel mini
|  5>     print[ P_Basis ] 0
|  6>     print[ P_SCFInfo ] 1
|  7>     print[ P_SCFIterInfo ] 1
|  8>     print[ P_OrbEn ] 0
|  9>     print[ P_Cartesian ] 0
| 10> end
| 11> *xyz 0 1
| 12>  C        1.0538180000     0.3339830000    -0.0668070000
| 13>  C        2.5242630000     0.1866900000     0.1051660000
| 14>  C        3.1791350000    -0.6632460000     0.9102120000
| 15>  C        2.5145570000    -1.6599070000     1.8258640000
| 16>  N        2.7079990000    -3.0135710000     1.3298320000
| 17>  C        4.6045870000    -0.6610260000     0.9240190000
| 18>  C        5.8069550000    -0.6669380000     0.9707770000
| 19>  H        0.7844660000     0.2281580000    -1.1226460000
| 20>  H        0.7303260000     1.3366030000     0.2328170000
| 21>  H        0.4748740000    -0.3911750000     0.5039430000
| 22>  H        3.1336900000     0.8524000000    -0.5006550000
| 23>  H        1.4637480000    -1.3772970000     1.9691160000
| 24>  H        2.9956820000    -1.5933130000     2.8061800000
| 25>  H        2.2239170000    -3.1429880000     0.4503040000
| 26>  H        2.3440290000    -3.6924700000     1.9857840000
| 27>  H        6.8703520000    -0.6753520000     1.0023550000
| 28> *
| 29>
| 30>                          ****END OF INPUT****
 Total Charge           Charge          ....    0
 Multiplicity           Mult            ....    1
 Number of Electrons    NEL             ....   52
 Basis Dimension        Dim             ....  143

MULLIKEN ATOMIC CHARGES
-----------------------
   0 C :    0.047557
   1 C :   -0.087250
   2 C :   -0.164167
   3 C :    0.169095
   4 N :   -0.204438
   5 C :    0.443998
   6 C :   -0.472064
   7 H :    0.034917
   8 H :    0.038099
   9 H :    0.020660
  10 H :    0.001934
  11 H :   -0.015083
  12 H :    0.011697
  13 H :    0.086784
  14 H :    0.091528
  15 H :   -0.003267
Sum of atomic charges:   -0.0000000

LOEWDIN ATOMIC CHARGES
----------------------
   0 C :   -0.067500
   1 C :   -0.014955
   2 C :   -0.068488
   3 C :    0.020703
   4 N :   -0.101317
   5 C :   -0.003524
   6 C :   -0.078641
   7 H :    0.040753
   8 H :    0.042389
   9 H :    0.028309
  10 H :    0.032160
  11 H :    0.000398
  12 H :    0.032916
  13 H :    0.051131
  14 H :    0.053053
  15 H :    0.032611

  Mayer bond orders larger than 0.1
B(  0-C ,  1-C ) :   1.0950 B(  0-C ,  7-H ) :   0.9394 B(  0-C ,  8-H ) :   0.9405
B(  0-C ,  9-H ) :   0.9528 B(  1-C ,  2-C ) :   1.8220 B(  1-C ,  6-C ) :   0.1177
B(  1-C , 10-H ) :   0.9414 B(  2-C ,  3-C ) :   1.0655 B(  2-C ,  5-C ) :   1.0092
B(  3-C ,  4-N ) :   1.1082 B(  3-C , 11-H ) :   0.8996 B(  3-C , 12-H ) :   0.9027
B(  4-N , 13-H ) :   0.9658 B(  4-N , 14-H ) :   0.9663 B(  5-C ,  6-C ) :   2.2501
B(  5-C , 15-H ) :  -0.1074 B(  6-C , 15-H ) :   1.0980

FINAL SINGLE POINT ENERGY      -288.113455085843

DIPOLE MOMENT
-------------
                                X             Y             Z
Electronic contribution:      5.66014       0.07088       0.40562
Nuclear contribution   :     -6.50792      -0.10503      -0.40869
                        -----------------------------------------
Total Dipole Moment    :     -0.84778      -0.03414      -0.00307
                        -----------------------------------------
Magnitude (a.u.)       :      0.84847
Magnitude (Debye)      :      2.15665

                             ****ORCA TERMINATED NORMALLY****
TOTAL RUN TIME: 0 days 0 hours 0 minutes 7 seconds 206 msec
