                         Program Version 3.0.3 - RELEASE   -
|  1> ! RI PBE def2-SVP def2-SVP/J NBO PAL2
|  2> % maxcore 2000
|  3> % output
|  4>     # printlevel mini
|  5>     print[ P_Basis ] 0
|  6>     print[ P_SCFInfo ] 1
|  7>     print[ P_SCFIterInfo ] 1
|  8>     print[ P_OrbEn ] 0
|  9>     print[ P_Cartesian ] 0
| 10> end
| 11> *xyz 0 1
| 12>  C        0.8125630000    -1.3621070000    -0.1167790000
| 13>  C        2.1152540000    -0.8768630000    -0.6538860000
| 14>  C        3.2936010000    -1.4542000000    -0.4502540000
| 15>  C        4.6064230000    -0.9412540000    -0.9792060000
| 16>  N        5.5390870000    -0.5527830000     0.0702200000
| 17>  C        5.2213080000    -1.9480950000    -1.9093990000
| 18>  C        6.4745620000    -2.3767370000    -1.8663010000
| 19>  H        0.3322250000    -0.5996990000     0.5049260000
| 20>  H        0.9396460000    -2.2635520000     0.4857140000
| 21>  H        0.1127460000    -1.5899250000    -0.9272230000
| 22>  H        2.0811960000     0.0259900000    -1.2639080000
| 23>  H        3.3525890000    -2.3603920000     0.1541340000
| 24>  H        4.3916290000    -0.0409700000    -1.5719710000
| 25>  H        5.7737210000    -1.3617310000     0.6362890000
| 26>  H        5.0920010000     0.1147480000     0.6866750000
| 27>  H        4.5422710000    -2.3397620000    -2.6629090000
| 28>  H        7.1802630000    -1.9889130000    -1.1406590000
| 29>  H        6.8375050000    -3.1123350000    -2.5746640000
| 30> *
| 31>
| 32>                          ****END OF INPUT****
 Total Charge           Charge          ....    0
 Multiplicity           Mult            ....    1
 Number of Electrons    NEL             ....   54
 Basis Dimension        Dim             ....  153

MULLIKEN ATOMIC CHARGES
-----------------------
   0 C :    0.034889
   1 C :   -0.114136
   2 C :   -0.047669
   3 C :    0.084602
   4 N :   -0.160111
   5 C :   -0.063517
   6 C :   -0.031212
   7 H :    0.034164
   8 H :    0.019184
   9 H :    0.036532
  10 H :   -0.005335
  11 H :   -0.018183
  12 H :    0.010809
  13 H :    0.090502
  14 H :    0.089085
  15 H :   -0.001538
  16 H :    0.020513
  17 H :    0.021421
Sum of atomic charges:   -0.0000000

LOEWDIN ATOMIC CHARGES
----------------------
   0 C :   -0.067800
   1 C :   -0.049815
   2 C :   -0.059219
   3 C :   -0.003860
   4 N :   -0.078768
   5 C :   -0.032544
   6 C :   -0.066191
   7 H :    0.036357
   8 H :    0.030896
   9 H :    0.038185
  10 H :    0.021077
  11 H :    0.018327
  12 H :    0.036048
  13 H :    0.050778
  14 H :    0.053975
  15 H :    0.027154
  16 H :    0.021104
  17 H :    0.024297

  Mayer bond orders larger than 0.1
B(  0-C ,  1-C ) :   1.0840 B(  0-C ,  7-H ) :   0.9464 B(  0-C ,  8-H ) :   0.9588
B(  0-C ,  9-H ) :   0.9450 B(  1-C ,  2-C ) :   1.8909 B(  1-C , 10-H ) :   0.9529
B(  2-C ,  3-C ) :   1.0026 B(  2-C , 11-H ) :   0.9477 B(  3-C ,  4-N ) :   1.1049
B(  3-C ,  5-C ) :   0.9928 B(  3-C , 12-H ) :   0.8833 B(  4-N , 13-H ) :   0.9572
B(  4-N , 14-H ) :   0.9669 B(  5-C ,  6-C ) :   2.0076 B(  5-C , 15-H ) :   0.9600
B(  6-C , 16-H ) :   0.9279 B(  6-C , 17-H ) :   0.9410

FINAL SINGLE POINT ENERGY      -289.355451086190

DIPOLE MOMENT
-------------
                                X             Y             Z
Electronic contribution:      2.68077       0.59875      -0.81528
Nuclear contribution   :     -3.19399      -0.63946       1.14639
                        -----------------------------------------
Total Dipole Moment    :     -0.51322      -0.04071       0.33111
                        -----------------------------------------
Magnitude (a.u.)       :      0.61212
Magnitude (Debye)      :      1.55588

                             ****ORCA TERMINATED NORMALLY****
TOTAL RUN TIME: 0 days 0 hours 0 minutes 7 seconds 684 msec
