                         Program Version 3.0.3 - RELEASE   -
|  1> ! RI PBE def2-SVP def2-SVP/J NBO PAL2
|  2> % maxcore 2000
|  3> % output
|  4>     # printlevel mini
|  5>     print[ P_Basis ] 0
|  6>     print[ P_SCFInfo ] 1
|  7>     print[ P_SCFIterInfo ] 1
|  8>     print[ P_OrbEn ] 0
|  9>     print[ P_Cartesian ] 0
| 10> end
| 11> *xyz 0 1
| 12>  C        0.7654820000     0.1693370000     0.1149030000
| 13>  C        2.2503550000     0.2708480000     0.1719320000
| 14>  C        3.0241480000     0.7406860000    -0.7985750000
| 15>  C        4.5281070000     0.7906730000    -0.7262790000
| 16>  N        5.1986370000    -0.0966300000    -1.6790350000
| 17>  C        5.0028820000     2.1592200000    -0.9202520000
| 18>  C        5.3620750000     3.2906530000    -1.0967830000
| 19>  H        0.4348400000    -0.8645770000     0.2565050000
| 20>  H        0.3760130000     0.5252380000    -0.8406240000
| 21>  H        0.3017120000     0.7576790000     0.9130090000
| 22>  H        2.7243290000    -0.0663540000     1.0936360000
| 23>  H        2.5842500000     1.0957440000    -1.7294820000
| 24>  H        4.8284840000     0.4741320000     0.2803420000
| 25>  H        5.0734880000     0.2540730000    -2.6217110000
| 26>  H        4.7631090000    -1.0110460000    -1.6378100000
| 27>  H        5.6899880000     4.2922230000    -1.2449650000
| 28> *
| 29>
| 30>                          ****END OF INPUT****
 Total Charge           Charge          ....    0
 Multiplicity           Mult            ....    1
 Number of Electrons    NEL             ....   52
 Basis Dimension        Dim             ....  143

MULLIKEN ATOMIC CHARGES
-----------------------
   0 C :    0.044700
   1 C :   -0.109433
   2 C :   -0.019284
   3 C :    0.094045
   4 N :   -0.167825
   5 C :    0.387882
   6 C :   -0.502521
   7 H :    0.030489
   8 H :    0.020081
   9 H :    0.036762
  10 H :   -0.001865
  11 H :   -0.012925
  12 H :    0.016832
  13 H :    0.093307
  14 H :    0.091101
  15 H :   -0.001344
Sum of atomic charges:   -0.0000000

LOEWDIN ATOMIC CHARGES
----------------------
   0 C :   -0.062921
   1 C :   -0.042243
   2 C :   -0.053875
   3 C :   -0.005154
   4 N :   -0.080382
   5 C :   -0.012741
   6 C :   -0.079946
   7 H :    0.036308
   8 H :    0.031400
   9 H :    0.039126
  10 H :    0.022522
  11 H :    0.021453
  12 H :    0.044154
  13 H :    0.053732
  14 H :    0.053512
  15 H :    0.035055

  Mayer bond orders larger than 0.1
B(  0-C ,  1-C ) :   1.0853 B(  0-C ,  7-H ) :   0.9472 B(  0-C ,  8-H ) :   0.9621
B(  0-C ,  9-H ) :   0.9464 B(  1-C ,  2-C ) :   1.8928 B(  1-C , 10-H ) :   0.9500
B(  2-C ,  3-C ) :   1.0080 B(  2-C , 11-H ) :   0.9446 B(  3-C ,  4-N ) :   1.0699
B(  3-C ,  5-C ) :   0.9838 B(  3-C , 12-H ) :   0.8696 B(  4-N , 13-H ) :   0.9602
B(  4-N , 14-H ) :   0.9635 B(  5-C ,  6-C ) :   2.3471 B(  5-C , 15-H ) :  -0.1144
B(  6-C , 15-H ) :   1.1045

FINAL SINGLE POINT ENERGY      -288.107739278438

DIPOLE MOMENT
-------------
                                X             Y             Z
Electronic contribution:      5.39650       2.92117      -0.94859
Nuclear contribution   :     -6.04100      -3.16480       0.85704
                        -----------------------------------------
Total Dipole Moment    :     -0.64450      -0.24363      -0.09155
                        -----------------------------------------
Magnitude (a.u.)       :      0.69507
Magnitude (Debye)      :      1.76672

                             ****ORCA TERMINATED NORMALLY****
TOTAL RUN TIME: 0 days 0 hours 0 minutes 7 seconds 132 msec
