                         Program Version 3.0.3 - RELEASE   -
|  1> ! RI PBE def2-SVP def2-SVP/J NBO PAL2
|  2> % maxcore 2000
|  3> % output
|  4>     # printlevel mini
|  5>     print[ P_Basis ] 0
|  6>     print[ P_SCFInfo ] 1
|  7>     print[ P_SCFIterInfo ] 1
|  8>     print[ P_OrbEn ] 0
|  9>     print[ P_Cartesian ] 0
| 10> end
| 11> *xyz 0 1
| 12>  C        1.1742540000    -0.8014590000     0.5354010000
| 13>  C        2.4308420000    -0.0342530000     0.3060340000
| 14>  C        2.7134740000     0.6622480000    -0.7879340000
| 15>  C        3.9954250000     1.3889920000    -1.0289420000
| 16>  N        3.7915970000     2.7736880000    -1.4130160000
| 17>  C        3.2418100000     3.5618180000    -0.3352450000
| 18>  C        5.0043440000     3.3644870000    -1.9243720000
| 19>  H        1.3843970000    -1.8647110000     0.6905130000
| 20>  H        0.4905330000    -0.7103070000    -0.3107280000
| 21>  H        0.6561210000    -0.4521470000     1.4342870000
| 22>  H        3.1689060000    -0.0620620000     1.1074040000
| 23>  H        1.9861820000     0.7141120000    -1.5970780000
| 24>  H        4.5268830000     0.9027350000    -1.8561240000
| 25>  H        4.6473540000     1.2989920000    -0.1382430000
| 26>  H        2.3134470000     3.1130970000     0.0214370000
| 27>  H        3.0218350000     4.5710700000    -0.6907550000
| 28>  H        3.9325290000     3.6448350000     0.5250950000
| 29>  H        5.3713030000     2.7877790000    -2.7766900000
| 30>  H        5.8123340000     3.4125190000    -1.1704010000
| 31>  H        4.8051310000     4.3833640000    -2.2648340000
| 32> *
| 33>
| 34>                          ****END OF INPUT****
 Total Charge           Charge          ....    0
 Multiplicity           Mult            ....    1
 Number of Electrons    NEL             ....   56
 Basis Dimension        Dim             ....  163

MULLIKEN ATOMIC CHARGES
-----------------------
   0 C :    0.031243
   1 C :   -0.098140
   2 C :   -0.078561
   3 C :    0.174408
   4 N :   -0.349582
   5 C :    0.105939
   6 C :    0.100588
   7 H :    0.035515
   8 H :    0.024384
   9 H :    0.030613
  10 H :   -0.002543
  11 H :   -0.003401
  12 H :    0.011939
  13 H :   -0.023525
  14 H :    0.021445
  15 H :    0.015993
  16 H :   -0.016911
  17 H :    0.017313
  18 H :   -0.012221
  19 H :    0.015504
Sum of atomic charges:   -0.0000000

LOEWDIN ATOMIC CHARGES
----------------------
   0 C :   -0.067330
   1 C :   -0.043528
   2 C :   -0.051865
   3 C :    0.016904
   4 N :   -0.114171
   5 C :    0.001992
   6 C :    0.000947
   7 H :    0.037618
   8 H :    0.031671
   9 H :    0.036170
  10 H :    0.021445
  11 H :    0.023849
  12 H :    0.029170
  13 H :   -0.000119
  14 H :    0.021975
  15 H :    0.020518
  16 H :   -0.003895
  17 H :    0.020479
  18 H :   -0.002896
  19 H :    0.021066

  Mayer bond orders larger than 0.1
B(  0-C ,  1-C ) :   1.0886 B(  0-C ,  7-H ) :   0.9454 B(  0-C ,  8-H ) :   0.9618
B(  0-C ,  9-H ) :   0.9465 B(  1-C ,  2-C ) :   1.8968 B(  1-C , 10-H ) :   0.9504
B(  2-C ,  3-C ) :   1.0547 B(  2-C , 11-H ) :   0.9554 B(  3-C ,  4-N ) :   1.0094
B(  3-C , 12-H ) :   0.9143 B(  3-C , 13-H ) :   0.9078 B(  4-N ,  5-C ) :   1.0368
B(  4-N ,  6-C ) :   1.0394 B(  5-C , 14-H ) :   0.9602 B(  5-C , 15-H ) :   0.9667
B(  5-C , 16-H ) :   0.9347 B(  6-C , 17-H ) :   0.9651 B(  6-C , 18-H ) :   0.9363
B(  6-C , 19-H ) :   0.9659

FINAL SINGLE POINT ENERGY      -290.564012905907

DIPOLE MOMENT
-------------
                                X             Y             Z
Electronic contribution:     -0.30232      -0.97111      -1.33351
Nuclear contribution   :      0.35017       0.90334       1.48737
                        -----------------------------------------
Total Dipole Moment    :      0.04785      -0.06777       0.15386
                        -----------------------------------------
Magnitude (a.u.)       :      0.17480
Magnitude (Debye)      :      0.44430

                             ****ORCA TERMINATED NORMALLY****
TOTAL RUN TIME: 0 days 0 hours 0 minutes 8 seconds 222 msec
