                         Program Version 3.0.3 - RELEASE   -
|  1> ! RI PBE def2-SVP def2-SVP/J NBO PAL2
|  2> % maxcore 2000
|  3> % output
|  4>     # printlevel mini
|  5>     print[ P_Basis ] 0
|  6>     print[ P_SCFInfo ] 1
|  7>     print[ P_SCFIterInfo ] 1
|  8>     print[ P_OrbEn ] 0
|  9>     print[ P_Cartesian ] 0
| 10> end
| 11> *xyz 0 1
| 12>  C        3.1401020000     1.9932060000    -0.8678850000
| 13>  C        2.8648330000     0.7375290000    -0.1024010000
| 14>  C        2.1658910000     0.7316150000     1.0283440000
| 15>  C        3.4205140000    -0.5566790000    -0.6746880000
| 16>  N        2.9022880000    -0.9036080000    -1.9880660000
| 17>  C        4.9231350000    -0.5302360000    -0.6692020000
| 18>  C        5.7078310000    -0.8879370000    -1.6752230000
| 19>  H        2.7328670000     2.8657360000    -0.3562940000
| 20>  H        2.6979780000     1.9550420000    -1.8685070000
| 21>  H        4.2160300000     2.1391350000    -1.0050440000
| 22>  H        1.7597520000     1.6437310000     1.4528920000
| 23>  H        1.9773930000    -0.1897010000     1.5702020000
| 24>  H        3.1147980000    -1.3583510000     0.0107180000
| 25>  H        3.1836980000    -0.2142970000    -2.6755690000
| 26>  H        1.8902600000    -0.9153430000    -1.9675420000
| 27>  H        5.3648250000    -0.1849770000     0.2629310000
| 28>  H        5.2984060000    -1.2593010000    -2.6076880000
| 29>  H        6.7869090000    -0.8443530000    -1.5839710000
| 30> *
| 31>
| 32>                          ****END OF INPUT****
 Total Charge           Charge          ....    0
 Multiplicity           Mult            ....    1
 Number of Electrons    NEL             ....   54
 Basis Dimension        Dim             ....  153

MULLIKEN ATOMIC CHARGES
-----------------------
   0 C :    0.094082
   1 C :   -0.201928
   2 C :   -0.033920
   3 C :    0.098561
   4 N :   -0.160722
   5 C :   -0.068352
   6 C :   -0.024840
   7 H :    0.011739
   8 H :    0.009112
   9 H :    0.029208
  10 H :    0.005600
  11 H :    0.008771
  12 H :    0.007236
  13 H :    0.091214
  14 H :    0.092385
  15 H :   -0.001125
  16 H :    0.017743
  17 H :    0.025238
Sum of atomic charges:    0.0000000

LOEWDIN ATOMIC CHARGES
----------------------
   0 C :   -0.058806
   1 C :   -0.045183
   2 C :   -0.078476
   3 C :    0.003300
   4 N :   -0.075358
   5 C :   -0.031814
   6 C :   -0.064972
   7 H :    0.031998
   8 H :    0.027783
   9 H :    0.037217
  10 H :    0.018849
  11 H :    0.018558
  12 H :    0.037578
  13 H :    0.048418
  14 H :    0.056075
  15 H :    0.028264
  16 H :    0.021164
  17 H :    0.025406

  Mayer bond orders larger than 0.1
B(  0-C ,  1-C ) :   1.0774 B(  0-C ,  7-H ) :   0.9457 B(  0-C ,  8-H ) :   0.9312
B(  0-C ,  9-H ) :   0.9379 B(  1-C ,  2-C ) :   1.9729 B(  1-C ,  3-C ) :   0.9868
B(  2-C , 10-H ) :   0.9300 B(  2-C , 11-H ) :   0.9330 B(  3-C ,  4-N ) :   1.1269
B(  3-C ,  5-C ) :   1.0036 B(  3-C , 12-H ) :   0.8711 B(  4-N , 13-H ) :   0.9582
B(  4-N , 14-H ) :   0.9671 B(  5-C ,  6-C ) :   2.0012 B(  5-C , 15-H ) :   0.9574
B(  6-C , 16-H ) :   0.9248 B(  6-C , 17-H ) :   0.9400

FINAL SINGLE POINT ENERGY      -289.354506694351

DIPOLE MOMENT
-------------
                                X             Y             Z
Electronic contribution:      0.00610      -2.05678       0.47580
Nuclear contribution   :     -0.23918       2.46422      -0.55863
                        -----------------------------------------
Total Dipole Moment    :     -0.23309       0.40744      -0.08283
                        -----------------------------------------
Magnitude (a.u.)       :      0.47665
Magnitude (Debye)      :      1.21154

                             ****ORCA TERMINATED NORMALLY****
TOTAL RUN TIME: 0 days 0 hours 0 minutes 7 seconds 954 msec
