                         Program Version 3.0.3 - RELEASE   -
|  1> ! RI PBE def2-SVP def2-SVP/J NBO PAL2
|  2> % maxcore 2000
|  3> % output
|  4>     # printlevel mini
|  5>     print[ P_Basis ] 0
|  6>     print[ P_SCFInfo ] 1
|  7>     print[ P_SCFIterInfo ] 1
|  8>     print[ P_OrbEn ] 0
|  9>     print[ P_Cartesian ] 0
| 10> end
| 11> *xyz 0 1
| 12>  C        0.9154340000     0.2444070000     0.2011970000
| 13>  C        2.3714040000    -0.0477710000     0.0107110000
| 14>  C        2.9016180000    -1.2302410000     0.2984510000
| 15>  C        3.1896200000     1.1176540000    -0.5299770000
| 16>  N        3.2468380000     2.2766240000     0.3641690000
| 17>  C        4.5491090000     0.7406400000    -0.9062000000
| 18>  C        5.6696450000     0.4403460000    -1.2118770000
| 19>  H        0.3788200000    -0.6403400000     0.5441460000
| 20>  H        0.4579290000     0.5803710000    -0.7358360000
| 21>  H        0.7516210000     1.0376090000     0.9373890000
| 22>  H        2.2911930000    -2.0329070000     0.6978810000
| 23>  H        3.9540550000    -1.4316990000     0.1385340000
| 24>  H        2.6910420000     1.4643570000    -1.4460690000
| 25>  H        3.6469420000     1.9982330000     1.2529070000
| 26>  H        2.3135920000     2.6247330000     0.5443270000
| 27>  H        6.6645480000     0.1821840000    -1.4880510000
| 28> *
| 29>
| 30>                          ****END OF INPUT****
 Total Charge           Charge          ....    0
 Multiplicity           Mult            ....    1
 Number of Electrons    NEL             ....   52
 Basis Dimension        Dim             ....  143

MULLIKEN ATOMIC CHARGES
-----------------------
   0 C :    0.066876
   1 C :   -0.211841
   2 C :   -0.003690
   3 C :    0.145236
   4 N :   -0.165708
   5 C :    0.390414
   6 C :   -0.519131
   7 H :    0.021382
   8 H :    0.026664
   9 H :    0.016735
  10 H :    0.002730
  11 H :    0.023137
  12 H :    0.025950
  13 H :    0.094838
  14 H :    0.088023
  15 H :   -0.001614
Sum of atomic charges:   -0.0000000

LOEWDIN ATOMIC CHARGES
----------------------
   0 C :   -0.059833
   1 C :   -0.048548
   2 C :   -0.063531
   3 C :   -0.001231
   4 N :   -0.073920
   5 C :   -0.007475
   6 C :   -0.080286
   7 H :    0.035212
   8 H :    0.035660
   9 H :    0.027445
  10 H :    0.020752
  11 H :    0.026908
  12 H :    0.048233
  13 H :    0.056035
  14 H :    0.049585
  15 H :    0.034994

  Mayer bond orders larger than 0.1
B(  0-C ,  1-C ) :   1.0810 B(  0-C ,  7-H ) :   0.9482 B(  0-C ,  8-H ) :   0.9421
B(  0-C ,  9-H ) :   0.9385 B(  1-C ,  2-C ) :   2.0024 B(  1-C ,  3-C ) :   0.9374
B(  2-C , 10-H ) :   0.9268 B(  2-C , 11-H ) :   0.9115 B(  3-C ,  4-N ) :   1.0841
B(  3-C ,  5-C ) :   0.9829 B(  3-C , 12-H ) :   0.8566 B(  4-N , 13-H ) :   0.9630
B(  4-N , 14-H ) :   0.9653 B(  5-C ,  6-C ) :   2.3089 B(  5-C , 15-H ) :  -0.1144
B(  6-C , 15-H ) :   1.1039

FINAL SINGLE POINT ENERGY      -288.105571498601

DIPOLE MOMENT
-------------
                                X             Y             Z
Electronic contribution:      4.73827       0.83712      -1.91695
Nuclear contribution   :     -5.27643      -0.95844       2.20696
                        -----------------------------------------
Total Dipole Moment    :     -0.53816      -0.12132       0.29001
                        -----------------------------------------
Magnitude (a.u.)       :      0.62325
Magnitude (Debye)      :      1.58418

                             ****ORCA TERMINATED NORMALLY****
TOTAL RUN TIME: 0 days 0 hours 0 minutes 7 seconds 334 msec
