                         Program Version 3.0.3 - RELEASE   -
|  1> ! RI PBE def2-SVP def2-SVP/J NBO PAL2
|  2> % maxcore 2000
|  3> % output
|  4>     # printlevel mini
|  5>     print[ P_Basis ] 0
|  6>     print[ P_SCFInfo ] 1
|  7>     print[ P_SCFIterInfo ] 1
|  8>     print[ P_OrbEn ] 0
|  9>     print[ P_Cartesian ] 0
| 10> end
| 11> *xyz 0 1
| 12>  C        1.0628150000     0.0430230000    -0.0326850000
| 13>  C        2.5552960000     0.0767320000     0.0408940000
| 14>  C        3.2439020000     0.5587480000     1.0932210000
| 15>  C        2.6134780000     1.0870310000     2.2465180000
| 16>  N        2.1215050000     1.5215710000     3.1949950000
| 17>  C        3.2638670000    -0.4358930000    -1.0781570000
| 18>  C        3.8221260000    -0.8795740000    -2.0467030000
| 19>  H        0.6100270000     0.4558410000     0.8680990000
| 20>  H        0.7188910000    -0.9854570000    -0.1683320000
| 21>  H        0.7188890000     0.6116900000    -0.9003130000
| 22>  H        4.3273410000     0.5573950000     1.0903220000
| 23>  H        4.3276520000    -1.2698980000    -2.8987590000
| 24> *
| 25>
| 26>                          ****END OF INPUT****
 Total Charge           Charge          ....    0
 Multiplicity           Mult            ....    1
 Number of Electrons    NEL             ....   48
 Basis Dimension        Dim             ....  123

MULLIKEN ATOMIC CHARGES
-----------------------
   0 C :    0.105029
   1 C :   -0.178919
   2 C :   -0.080904
   3 C :   -0.102465
   4 N :    0.048571
   5 C :    0.421911
   6 C :   -0.424203
   7 H :    0.045030
   8 H :    0.048910
   9 H :    0.050920
  10 H :    0.047629
  11 H :    0.018490
Sum of atomic charges:   -0.0000000

LOEWDIN ATOMIC CHARGES
----------------------
   0 C :   -0.037522
   1 C :   -0.004921
   2 C :   -0.059742
   3 C :   -0.044776
   4 N :   -0.053348
   5 C :   -0.011523
   6 C :   -0.033519
   7 H :    0.043162
   8 H :    0.050781
   9 H :    0.051280
  10 H :    0.057604
  11 H :    0.042522

  Mayer bond orders larger than 0.1
B(  0-C ,  1-C ) :   1.0962 B(  0-C ,  7-H ) :   0.9327 B(  0-C ,  8-H ) :   0.9360
B(  0-C ,  9-H ) :   0.9352 B(  1-C ,  2-C ) :   1.7282 B(  1-C ,  5-C ) :   1.0390
B(  2-C ,  3-C ) :   1.1096 B(  2-C ,  6-C ) :   0.1167 B(  2-C , 10-H ) :   0.9502
B(  3-C ,  4-N ) :   2.9277 B(  5-C ,  6-C ) :   2.2486 B(  6-C , 11-H ) :   1.0882

FINAL SINGLE POINT ENERGY      -285.720245842012

DIPOLE MOMENT
-------------
                                X             Y             Z
Electronic contribution:      2.56126       1.29421       2.82235
Nuclear contribution   :     -2.28825      -1.92751      -4.20766
                        -----------------------------------------
Total Dipole Moment    :      0.27301      -0.63330      -1.38532
                        -----------------------------------------
Magnitude (a.u.)       :      1.54748
Magnitude (Debye)      :      3.93339

                             ****ORCA TERMINATED NORMALLY****
TOTAL RUN TIME: 0 days 0 hours 0 minutes 5 seconds 408 msec
