                         Program Version 3.0.3 - RELEASE   -
|  1> ! RI PBE def2-SVP def2-SVP/J NBO PAL2
|  2> % maxcore 2000
|  3> % output
|  4>     # printlevel mini
|  5>     print[ P_Basis ] 0
|  6>     print[ P_SCFInfo ] 1
|  7>     print[ P_SCFIterInfo ] 1
|  8>     print[ P_OrbEn ] 0
|  9>     print[ P_Cartesian ] 0
| 10> end
| 11> *xyz 0 1
| 12>  C        0.9154040000     0.1645850000     0.1341790000
| 13>  C        2.3950430000    -0.0146120000    -0.0522210000
| 14>  C        3.0725550000    -1.1646480000     0.0751260000
| 15>  C        2.5309740000    -2.5091170000     0.4203320000
| 16>  N        3.0571490000    -3.5042380000    -0.5058720000
| 17>  C        3.1073890000     1.1774450000    -0.3805250000
| 18>  C        3.6635740000     2.2087670000    -0.6558310000
| 19>  H        0.3970950000    -0.7833680000     0.2696950000
| 20>  H        0.4860410000     0.6792900000    -0.7287140000
| 21>  H        0.7167780000     0.7906610000     1.0085100000
| 22>  H        4.1453110000    -1.1446350000    -0.0952930000
| 23>  H        1.4351580000    -2.4892800000     0.4820600000
| 24>  H        2.8919290000    -2.7761070000     1.4219830000
| 25>  H        2.7020810000    -3.3375190000    -1.4394250000
| 26>  H        2.7671850000    -4.4347160000    -0.2334190000
| 27>  H        4.1707330000     3.1117030000    -0.9002820000
| 28> *
| 29>
| 30>                          ****END OF INPUT****
 Total Charge           Charge          ....    0
 Multiplicity           Mult            ....    1
 Number of Electrons    NEL             ....   52
 Basis Dimension        Dim             ....  143

MULLIKEN ATOMIC CHARGES
-----------------------
   0 C :    0.081998
   1 C :   -0.156744
   2 C :   -0.089995
   3 C :    0.160358
   4 N :   -0.229903
   5 C :    0.395422
   6 C :   -0.447772
   7 H :    0.008838
   8 H :    0.036582
   9 H :    0.040809
  10 H :    0.005864
  11 H :   -0.004624
  12 H :    0.017376
  13 H :    0.092444
  14 H :    0.088367
  15 H :    0.000981
Sum of atomic charges:   -0.0000000

LOEWDIN ATOMIC CHARGES
----------------------
   0 C :   -0.048475
   1 C :   -0.061624
   2 C :   -0.022649
   3 C :    0.004784
   4 N :   -0.108500
   5 C :   -0.008462
   6 C :   -0.078798
   7 H :    0.025813
   8 H :    0.040873
   9 H :    0.043234
  10 H :    0.034428
  11 H :    0.004514
  12 H :    0.035493
  13 H :    0.052369
  14 H :    0.052449
  15 H :    0.034552

  Mayer bond orders larger than 0.1
B(  0-C ,  1-C ) :   1.0862 B(  0-C ,  7-H ) :   0.9396 B(  0-C ,  8-H ) :   0.9421
B(  0-C ,  9-H ) :   0.9417 B(  1-C ,  2-C ) :   1.7765 B(  1-C ,  5-C ) :   1.0315
B(  2-C ,  3-C ) :   1.0642 B(  2-C ,  6-C ) :   0.1187 B(  2-C , 10-H ) :   0.9512
B(  3-C ,  4-N ) :   1.0513 B(  3-C , 11-H ) :   0.9216 B(  3-C , 12-H ) :   0.9001
B(  4-N , 13-H ) :   0.9722 B(  4-N , 14-H ) :   0.9634 B(  5-C ,  6-C ) :   2.2837
B(  5-C , 15-H ) :  -0.1016 B(  6-C , 15-H ) :   1.0921

FINAL SINGLE POINT ENERGY      -288.115087051830

DIPOLE MOMENT
-------------
                                X             Y             Z
Electronic contribution:      3.14325       3.93562      -0.89823
Nuclear contribution   :     -3.78631      -4.32629       0.93359
                        -----------------------------------------
Total Dipole Moment    :     -0.64306      -0.39067       0.03536
                        -----------------------------------------
Magnitude (a.u.)       :      0.75326
Magnitude (Debye)      :      1.91464

                             ****ORCA TERMINATED NORMALLY****
TOTAL RUN TIME: 0 days 0 hours 0 minutes 7 seconds 142 msec
