                         Program Version 3.0.3 - RELEASE   -
|  1> ! RI PBE def2-SVP def2-SVP/J NBO PAL2
|  2> % maxcore 2000
|  3> % output
|  4>     # printlevel mini
|  5>     print[ P_Basis ] 0
|  6>     print[ P_SCFInfo ] 1
|  7>     print[ P_SCFIterInfo ] 1
|  8>     print[ P_OrbEn ] 0
|  9>     print[ P_Cartesian ] 0
| 10> end
| 11> *xyz 0 1
| 12>  C        1.1798870000     0.2426510000    -0.1050780000
| 13>  C        2.6272760000    -0.2029090000     0.0844900000
| 14>  C        2.7143950000    -1.0089110000     1.3472860000
| 15>  C        3.3040530000    -0.6128810000     2.4653000000
| 16>  N        3.1045420000    -0.9945420000    -1.0461240000
| 17>  C        2.9140010000    -0.3475700000    -2.3244060000
| 18>  C        4.4924920000    -1.3701910000    -0.8851550000
| 19>  H        0.8224150000     0.7165570000     0.8100130000
| 20>  H        0.5424600000    -0.6192470000    -0.3195810000
| 21>  H        1.0743970000     0.9636660000    -0.9169090000
| 22>  H        3.2534350000     0.7033230000     0.2104650000
| 23>  H        2.2109060000    -1.9736840000     1.3074380000
| 24>  H        3.8202210000     0.3406800000     2.5260670000
| 25>  H        3.2918330000    -1.2232100000     3.3610110000
| 26>  H        1.8558090000    -0.2053570000    -2.5423070000
| 27>  H        3.3275120000    -0.9842240000    -3.1093090000
| 28>  H        3.4179020000     0.6350670000    -2.3901810000
| 29>  H        4.6370940000    -1.9031620000     0.0548290000
| 30>  H        5.1726700000    -0.4981190000    -0.8868730000
| 31>  H        4.7891110000    -2.0304160000    -1.7029880000
| 32> *
| 33>
| 34>                          ****END OF INPUT****
 Total Charge           Charge          ....    0
 Multiplicity           Mult            ....    1
 Number of Electrons    NEL             ....   56
 Basis Dimension        Dim             ....  163

MULLIKEN ATOMIC CHARGES
-----------------------
   0 C :    0.012824
   1 C :    0.050640
   2 C :   -0.060318
   3 C :   -0.022623
   4 N :   -0.340646
   5 C :    0.107812
   6 C :    0.108349
   7 H :    0.023827
   8 H :    0.026216
   9 H :    0.030631
  10 H :   -0.030980
  11 H :    0.003336
  12 H :    0.017349
  13 H :    0.025021
  14 H :    0.023801
  15 H :    0.014760
  16 H :   -0.018012
  17 H :    0.027358
  18 H :   -0.018052
  19 H :    0.018706
Sum of atomic charges:    0.0000000

LOEWDIN ATOMIC CHARGES
----------------------
   0 C :   -0.060159
   1 C :    0.009894
   2 C :   -0.022443
   3 C :   -0.064540
   4 N :   -0.113080
   5 C :    0.003670
   6 C :    0.003260
   7 H :    0.033177
   8 H :    0.029683
   9 H :    0.026300
  10 H :    0.000453
  11 H :    0.027064
  12 H :    0.021559
  13 H :    0.025064
  14 H :    0.020075
  15 H :    0.022726
  16 H :   -0.003188
  17 H :    0.023099
  18 H :   -0.003010
  19 H :    0.020395

  Mayer bond orders larger than 0.1
B(  0-C ,  1-C ) :   1.0698 B(  0-C ,  7-H ) :   0.9535 B(  0-C ,  8-H ) :   0.9497
B(  0-C ,  9-H ) :   0.9513 B(  1-C ,  2-C ) :   1.0290 B(  1-C ,  4-N ) :   0.9958
B(  1-C , 10-H ) :   0.8913 B(  2-C ,  3-C ) :   1.9842 B(  2-C , 11-H ) :   0.9498
B(  3-C , 12-H ) :   0.9426 B(  3-C , 13-H ) :   0.9425 B(  4-N ,  5-C ) :   1.0381
B(  4-N ,  6-C ) :   1.0337 B(  5-C , 14-H ) :   0.9623 B(  5-C , 15-H ) :   0.9640
B(  5-C , 16-H ) :   0.9332 B(  6-C , 17-H ) :   0.9576 B(  6-C , 18-H ) :   0.9334
B(  6-C , 19-H ) :   0.9670

FINAL SINGLE POINT ENERGY      -290.556615989891

DIPOLE MOMENT
-------------
                                X             Y             Z
Electronic contribution:     -0.29526      -1.49757       1.89918
Nuclear contribution   :      0.31666       1.63603      -1.99328
                        -----------------------------------------
Total Dipole Moment    :      0.02140       0.13846      -0.09411
                        -----------------------------------------
Magnitude (a.u.)       :      0.16878
Magnitude (Debye)      :      0.42900

                             ****ORCA TERMINATED NORMALLY****
TOTAL RUN TIME: 0 days 0 hours 0 minutes 8 seconds 848 msec
