                         Program Version 3.0.3 - RELEASE   -
|  1> ! RI PBE def2-SVP def2-SVP/J NBO PAL2
|  2> % maxcore 2000
|  3> % output
|  4>     # printlevel mini
|  5>     print[ P_Basis ] 0
|  6>     print[ P_SCFInfo ] 1
|  7>     print[ P_SCFIterInfo ] 1
|  8>     print[ P_OrbEn ] 0
|  9>     print[ P_Cartesian ] 0
| 10> end
| 11> *xyz 0 1
| 12>  C        1.1173370000    -0.1863580000     0.0942000000
| 13>  C        2.6443830000    -0.1054760000     0.0200800000
| 14>  C        3.2230210000    -1.4992530000    -0.1846610000
| 15>  C        3.0542710000     0.8080090000    -1.1539350000
| 16>  N        2.5872800000     0.3114670000    -2.4381880000
| 17>  C        3.1498270000     0.5486690000     1.2760930000
| 18>  C        4.0188100000     0.0601740000     2.1503220000
| 19>  H        0.7158980000    -0.5376550000    -0.8577860000
| 20>  H        0.6831960000     0.7957310000     0.3034220000
| 21>  H        0.8048410000    -0.8680850000     0.8887800000
| 22>  H        2.7971230000    -1.9564270000    -1.0805160000
| 23>  H        2.9840500000    -2.1507470000     0.6592600000
| 24>  H        4.3113360000    -1.4723910000    -0.2934730000
| 25>  H        4.1449120000     0.9489100000    -1.1084300000
| 26>  H        2.6040640000     1.7926000000    -0.9906580000
| 27>  H        3.1934560000    -0.4192330000    -2.7872620000
| 28>  H        2.5892070000     1.0501100000    -3.1282670000
| 29>  H        2.7334620000     1.5393380000     1.4608970000
| 30>  H        4.4714120000    -0.9182050000     2.0338180000
| 31>  H        4.3078040000     0.6285140000     3.0270240000
| 32> *
| 33>
| 34>                          ****END OF INPUT****
 Total Charge           Charge          ....    0
 Multiplicity           Mult            ....    1
 Number of Electrons    NEL             ....   56
 Basis Dimension        Dim             ....  163

MULLIKEN ATOMIC CHARGES
-----------------------
   0 C :    0.081702
   1 C :   -0.289119
   2 C :    0.045080
   3 C :    0.098870
   4 N :   -0.187353
   5 C :    0.011689
   6 C :   -0.035921
   7 H :    0.019263
   8 H :   -0.001721
   9 H :    0.013750
  10 H :    0.012453
  11 H :    0.024487
  12 H :    0.015708
  13 H :   -0.001898
  14 H :   -0.008610
  15 H :    0.089785
  16 H :    0.094414
  17 H :   -0.010843
  18 H :    0.012678
  19 H :    0.015584
Sum of atomic charges:   -0.0000000

LOEWDIN ATOMIC CHARGES
----------------------
   0 C :   -0.041864
   1 C :   -0.074293
   2 C :   -0.053117
   3 C :    0.019460
   4 N :   -0.101454
   5 C :   -0.012036
   6 C :   -0.072481
   7 H :    0.023704
   8 H :    0.020222
   9 H :    0.023368
  10 H :    0.024844
  11 H :    0.027778
  12 H :    0.023087
  13 H :    0.002220
  14 H :    0.017885
  15 H :    0.050385
  16 H :    0.055718
  17 H :    0.022696
  18 H :    0.020061
  19 H :    0.023817

  Mayer bond orders larger than 0.1
B(  0-C ,  1-C ) :   1.0272 B(  0-C ,  7-H ) :   0.9443 B(  0-C ,  8-H ) :   0.9563
B(  0-C ,  9-H ) :   0.9630 B(  1-C ,  2-C ) :   1.0816 B(  1-C ,  3-C ) :   0.9925
B(  1-C ,  5-C ) :   0.9800 B(  2-C , 10-H ) :   0.9473 B(  2-C , 11-H ) :   0.9466
B(  2-C , 12-H ) :   0.9465 B(  3-C ,  4-N ) :   1.1305 B(  3-C , 13-H ) :   0.9347
B(  3-C , 14-H ) :   0.9289 B(  4-N , 15-H ) :   0.9638 B(  4-N , 16-H ) :   0.9645
B(  5-C ,  6-C ) :   2.0224 B(  5-C , 17-H ) :   0.9455 B(  6-C , 18-H ) :   0.9297
B(  6-C , 19-H ) :   0.9358

FINAL SINGLE POINT ENERGY      -290.570679240402

DIPOLE MOMENT
-------------
                                X             Y             Z
Electronic contribution:      0.60973       1.42278       0.19355
Nuclear contribution   :     -0.28521      -1.25825      -0.59089
                        -----------------------------------------
Total Dipole Moment    :      0.32452       0.16453      -0.39734
                        -----------------------------------------
Magnitude (a.u.)       :      0.53876
Magnitude (Debye)      :      1.36941

                             ****ORCA TERMINATED NORMALLY****
TOTAL RUN TIME: 0 days 0 hours 0 minutes 8 seconds 942 msec
