                         Program Version 3.0.3 - RELEASE   -
|  1> ! RI PBE def2-SVP def2-SVP/J NBO PAL2
|  2> % maxcore 2000
|  3> % output
|  4>     # printlevel mini
|  5>     print[ P_Basis ] 0
|  6>     print[ P_SCFInfo ] 1
|  7>     print[ P_SCFIterInfo ] 1
|  8>     print[ P_OrbEn ] 0
|  9>     print[ P_Cartesian ] 0
| 10> end
| 11> *xyz 0 1
| 12>  C        1.0513990000     0.0397940000    -0.0536060000
| 13>  C        2.5819900000     0.0009730000    -0.0718650000
| 14>  C        3.0759030000    -1.4363840000     0.1148950000
| 15>  C        3.0757370000     0.5683610000    -1.4164540000
| 16>  N        4.5226150000     0.5988230000    -1.4914970000
| 17>  C        3.0985490000     0.8435030000     1.0085710000
| 18>  C        3.5282340000     1.5448940000     1.8848740000
| 19>  H        0.6549370000    -0.5740380000    -0.8670120000
| 20>  H        0.6810940000     1.0596540000    -0.1755920000
| 21>  H        0.6671220000    -0.3514870000     0.8898610000
| 22>  H        2.6488550000    -2.0745130000    -0.6637590000
| 23>  H        2.7690790000    -1.8258650000     1.0873270000
| 24>  H        4.1617270000    -1.4802390000     0.0391890000
| 25>  H        2.5990420000     1.5502500000    -1.5610140000
| 26>  H        2.7024900000    -0.0919110000    -2.2063220000
| 27>  H        4.8903720000     1.2645920000    -0.8214620000
| 28>  H        4.8272930000     0.8919160000    -2.4100830000
| 29>  H        3.9019610000     2.1579670000     2.6704600000
| 30> *
| 31>
| 32>                          ****END OF INPUT****
 Total Charge           Charge          ....    0
 Multiplicity           Mult            ....    1
 Number of Electrons    NEL             ....   54
 Basis Dimension        Dim             ....  153

MULLIKEN ATOMIC CHARGES
-----------------------
   0 C :    0.087118
   1 C :   -0.340123
   2 C :    0.088199
   3 C :    0.126502
   4 N :   -0.188847
   5 C :    0.494847
   6 C :   -0.554310
   7 H :    0.012986
   8 H :    0.020693
   9 H :    0.023958
  10 H :    0.006318
  11 H :    0.018527
  12 H :    0.031970
  13 H :   -0.006592
  14 H :    0.000743
  15 H :    0.095507
  16 H :    0.091022
  17 H :   -0.008518
Sum of atomic charges:   -0.0000000

LOEWDIN ATOMIC CHARGES
----------------------
   0 C :   -0.033654
   1 C :   -0.079900
   2 C :   -0.035486
   3 C :    0.026008
   4 N :   -0.101609
   5 C :   -0.000140
   6 C :   -0.101664
   7 H :    0.025574
   8 H :    0.026875
   9 H :    0.030292
  10 H :    0.024601
  11 H :    0.026502
  12 H :    0.029418
  13 H :    0.001120
  14 H :    0.020033
  15 H :    0.053772
  16 H :    0.054780
  17 H :    0.033480

  Mayer bond orders larger than 0.1
B(  0-C ,  1-C ) :   1.0468 B(  0-C ,  7-H ) :   0.9535 B(  0-C ,  8-H ) :   0.9551
B(  0-C ,  9-H ) :   0.9585 B(  1-C ,  2-C ) :   1.0340 B(  1-C ,  3-C ) :   1.0054
B(  1-C ,  5-C ) :   0.9416 B(  2-C , 10-H ) :   0.9524 B(  2-C , 11-H ) :   0.9586
B(  2-C , 12-H ) :   0.9492 B(  3-C ,  4-N ) :   1.1144 B(  3-C , 13-H ) :   0.9245
B(  3-C , 14-H ) :   0.9264 B(  4-N , 15-H ) :   0.9604 B(  4-N , 16-H ) :   0.9621
B(  5-C ,  6-C ) :   2.2532 B(  5-C , 17-H ) :  -0.1310 B(  6-C , 17-H ) :   1.1203

FINAL SINGLE POINT ENERGY      -289.329780575916

DIPOLE MOMENT
-------------
                                X             Y             Z
Electronic contribution:      2.20638       2.75918       2.66019
Nuclear contribution   :     -2.30523      -2.44335      -2.99934
                        -----------------------------------------
Total Dipole Moment    :     -0.09885       0.31582      -0.33915
                        -----------------------------------------
Magnitude (a.u.)       :      0.47385
Magnitude (Debye)      :      1.20443

                             ****ORCA TERMINATED NORMALLY****
TOTAL RUN TIME: 0 days 0 hours 0 minutes 8 seconds 625 msec
