                         Program Version 3.0.3 - RELEASE   -
|  1> ! RI PBE def2-SVP def2-SVP/J NBO PAL2
|  2> % maxcore 2000
|  3> % output
|  4>     # printlevel mini
|  5>     print[ P_Basis ] 0
|  6>     print[ P_SCFInfo ] 1
|  7>     print[ P_SCFIterInfo ] 1
|  8>     print[ P_OrbEn ] 0
|  9>     print[ P_Cartesian ] 0
| 10> end
| 11> *xyz 0 1
| 12>  C        1.1154130000    -0.7254000000    -0.1272820000
| 13>  C        2.5199030000    -0.1467160000    -0.2197970000
| 14>  C        3.0337000000    -0.1847170000    -1.6511480000
| 15>  C        2.6159590000     1.2778080000     0.3789980000
| 16>  N        1.8086370000     2.2947500000    -0.2676100000
| 17>  C        2.3567910000     1.2450400000     1.8566980000
| 18>  C        1.6189160000     2.1102980000     2.5371310000
| 19>  H        1.0984120000    -1.7601450000    -0.4778560000
| 20>  H        0.4142950000    -0.1637090000    -0.7524140000
| 21>  H        0.7378440000    -0.7095000000     0.8978430000
| 22>  H        3.1848510000    -0.7736100000     0.3891610000
| 23>  H        2.3917440000     0.3965170000    -2.3204460000
| 24>  H        3.0502590000    -1.2081130000    -2.0337510000
| 25>  H        4.0486990000     0.2161930000    -1.7245960000
| 26>  H        3.6643560000     1.5869830000     0.2517580000
| 27>  H        0.8256990000     2.0526700000    -0.2258330000
| 28>  H        2.0609680000     2.3923320000    -1.2418280000
| 29>  H        2.8373720000     0.4243440000     2.3864760000
| 30>  H        1.1437300000     2.9510760000     2.0449260000
| 31>  H        1.4889420000     2.0129990000     3.6087700000
| 32> *
| 33>
| 34>                          ****END OF INPUT****
 Total Charge           Charge          ....    0
 Multiplicity           Mult            ....    1
 Number of Electrons    NEL             ....   56
 Basis Dimension        Dim             ....  163

MULLIKEN ATOMIC CHARGES
-----------------------
   0 C :    0.025666
   1 C :   -0.148834
   2 C :    0.031075
   3 C :    0.049074
   4 N :   -0.155459
   5 C :   -0.065693
   6 C :   -0.021141
   7 H :    0.017115
   8 H :   -0.001574
   9 H :    0.019815
  10 H :    0.006194
  11 H :    0.002287
  12 H :    0.018388
  13 H :    0.008591
  14 H :    0.012769
  15 H :    0.091816
  16 H :    0.083348
  17 H :   -0.009249
  18 H :    0.016169
  19 H :    0.019643
Sum of atomic charges:   -0.0000000

LOEWDIN ATOMIC CHARGES
----------------------
   0 C :   -0.063057
   1 C :   -0.058895
   2 C :   -0.063566
   3 C :    0.000034
   4 N :   -0.077662
   5 C :   -0.035648
   6 C :   -0.065410
   7 H :    0.027351
   8 H :    0.015959
   9 H :    0.026822
  10 H :    0.024340
  11 H :    0.016364
  12 H :    0.027544
  13 H :    0.023834
  14 H :    0.032970
  15 H :    0.050135
  16 H :    0.050985
  17 H :    0.023928
  18 H :    0.020600
  19 H :    0.023371

  Mayer bond orders larger than 0.1
B(  0-C ,  1-C ) :   1.0743 B(  0-C ,  7-H ) :   0.9593 B(  0-C ,  8-H ) :   0.9502
B(  0-C ,  9-H ) :   0.9548 B(  1-C ,  2-C ) :   1.0843 B(  1-C ,  3-C ) :   0.9850
B(  1-C , 10-H ) :   0.8963 B(  2-C , 11-H ) :   0.9495 B(  2-C , 12-H ) :   0.9584
B(  2-C , 13-H ) :   0.9554 B(  3-C ,  4-N ) :   1.1459 B(  3-C ,  5-C ) :   1.0165
B(  3-C , 14-H ) :   0.8869 B(  4-N , 15-H ) :   0.9602 B(  4-N , 16-H ) :   0.9672
B(  5-C ,  6-C ) :   2.0067 B(  5-C , 17-H ) :   0.9512 B(  6-C , 18-H ) :   0.9235
B(  6-C , 19-H ) :   0.9374

FINAL SINGLE POINT ENERGY      -290.574400146258

DIPOLE MOMENT
-------------
                                X             Y             Z
Electronic contribution:      0.73881       2.79293       2.60265
Nuclear contribution   :     -0.76306      -3.18719      -2.98726
                        -----------------------------------------
Total Dipole Moment    :     -0.02426      -0.39425      -0.38460
                        -----------------------------------------
Magnitude (a.u.)       :      0.55131
Magnitude (Debye)      :      1.40132

                             ****ORCA TERMINATED NORMALLY****
TOTAL RUN TIME: 0 days 0 hours 0 minutes 8 seconds 853 msec
