                         Program Version 3.0.3 - RELEASE   -
|  1> ! RI PBE def2-SVP def2-SVP/J NBO PAL2
|  2> % maxcore 2000
|  3> % output
|  4>     # printlevel mini
|  5>     print[ P_Basis ] 0
|  6>     print[ P_SCFInfo ] 1
|  7>     print[ P_SCFIterInfo ] 1
|  8>     print[ P_OrbEn ] 0
|  9>     print[ P_Cartesian ] 0
| 10> end
| 11> *xyz 0 1
| 12>  C        1.0112790000    -0.2002620000    -0.1549360000
| 13>  C        2.5220440000    -0.0310750000    -0.1215720000
| 14>  C        2.9490680000     1.2668920000    -0.7869210000
| 15>  C        3.0676130000    -0.1695040000     1.3212730000
| 16>  N        4.5189910000    -0.2269640000     1.4426000000
| 17>  C        2.5533000000     0.8859700000     2.1914080000
| 18>  C        2.1273450000     1.7676020000     2.8859040000
| 19>  H        0.6424900000    -0.1954970000    -1.1833400000
| 20>  H        0.5188620000     0.6137550000     0.3833120000
| 21>  H        0.7030210000    -1.1421200000     0.3073020000
| 22>  H        2.9716680000    -0.8676740000    -0.6737910000
| 23>  H        2.5330510000     2.1280870000    -0.2571760000
| 24>  H        2.5945040000     1.3038770000    -1.8196110000
| 25>  H        4.0361930000     1.3764930000    -0.8116250000
| 26>  H        2.6796640000    -1.1200690000     1.7115190000
| 27>  H        4.9275250000     0.6765110000     1.2393090000
| 28>  H        4.8937140000    -0.8919480000     0.7760810000
| 29>  H        1.7535690000     2.5408260000     3.5145640000
| 30> *
| 31>
| 32>                          ****END OF INPUT****
 Total Charge           Charge          ....    0
 Multiplicity           Mult            ....    1
 Number of Electrons    NEL             ....   54
 Basis Dimension        Dim             ....  153

MULLIKEN ATOMIC CHARGES
-----------------------
   0 C :    0.025986
   1 C :   -0.116221
   2 C :    0.019114
   3 C :    0.054463
   4 N :   -0.150360
   5 C :    0.399606
   6 C :   -0.521143
   7 H :    0.014733
   8 H :    0.029437
   9 H :    0.010506
  10 H :   -0.001565
  11 H :    0.023528
  12 H :    0.018649
  13 H :   -0.001763
  14 H :    0.016142
  15 H :    0.095663
  16 H :    0.086539
  17 H :   -0.003314
Sum of atomic charges:    0.0000000

LOEWDIN ATOMIC CHARGES
----------------------
   0 C :   -0.057137
   1 C :   -0.052915
   2 C :   -0.063282
   3 C :   -0.004830
   4 N :   -0.079038
   5 C :   -0.010538
   6 C :   -0.085788
   7 H :    0.025903
   8 H :    0.029884
   9 H :    0.024342
  10 H :    0.020791
  11 H :    0.029483
  12 H :    0.028094
  13 H :    0.015724
  14 H :    0.040821
  15 H :    0.051973
  16 H :    0.051809
  17 H :    0.034703

  Mayer bond orders larger than 0.1
B(  0-C ,  1-C ) :   1.0674 B(  0-C ,  7-H ) :   0.9569 B(  0-C ,  8-H ) :   0.9605
B(  0-C ,  9-H ) :   0.9555 B(  1-C ,  2-C ) :   1.0658 B(  1-C ,  3-C ) :   0.9904
B(  1-C , 10-H ) :   0.9012 B(  2-C , 11-H ) :   0.9580 B(  2-C , 12-H ) :   0.9590
B(  2-C , 13-H ) :   0.9501 B(  3-C ,  4-N ) :   1.1178 B(  3-C ,  5-C ) :   0.9931
B(  3-C , 14-H ) :   0.8666 B(  4-N , 15-H ) :   0.9642 B(  4-N , 16-H ) :   0.9631
B(  5-C ,  6-C ) :   2.2990 B(  5-C , 17-H ) :  -0.1209 B(  6-C , 17-H ) :   1.1111

FINAL SINGLE POINT ENERGY      -289.328436458932

DIPOLE MOMENT
-------------
                                X             Y             Z
Electronic contribution:      1.38815       0.47343       5.71082
Nuclear contribution   :     -1.38539      -0.48082      -6.30118
                        -----------------------------------------
Total Dipole Moment    :      0.00276      -0.00739      -0.59036
                        -----------------------------------------
Magnitude (a.u.)       :      0.59041
Magnitude (Debye)      :      1.50071

                             ****ORCA TERMINATED NORMALLY****
TOTAL RUN TIME: 0 days 0 hours 0 minutes 8 seconds 291 msec
