                         Program Version 3.0.3 - RELEASE   -
|  1> ! RI PBE def2-SVP def2-SVP/J NBO PAL2
|  2> % maxcore 2000
|  3> % output
|  4>     # printlevel mini
|  5>     print[ P_Basis ] 0
|  6>     print[ P_SCFInfo ] 1
|  7>     print[ P_SCFIterInfo ] 1
|  8>     print[ P_OrbEn ] 0
|  9>     print[ P_Cartesian ] 0
| 10> end
| 11> *xyz 0 1
| 12>  C        2.2644020000    -1.7859200000    -0.3819650000
| 13>  C        3.4230200000    -0.8464210000    -0.6850940000
| 14>  C        3.0282900000     0.2071820000    -1.7082230000
| 15>  C        3.9159350000    -0.2086520000     0.6106700000
| 16>  N        5.0484330000     0.6824980000     0.4566370000
| 17>  C        5.2361190000     1.5013960000     1.6300780000
| 18>  C        6.2651730000    -0.0174300000     0.1201060000
| 19>  H        1.9124270000    -2.2811510000    -1.2900690000
| 20>  H        1.4184250000    -1.2360590000     0.0431880000
| 21>  H        2.5515270000    -2.5614970000     0.3332000000
| 22>  H        4.2349930000    -1.4510970000    -1.1070720000
| 23>  H        2.1852610000     0.8014030000    -1.3399140000
| 24>  H        2.7226690000    -0.2546880000    -2.6506160000
| 25>  H        3.8535220000     0.8928120000    -1.9061650000
| 26>  H        4.1376520000    -1.0085460000     1.3456110000
| 27>  H        3.0909590000     0.3781260000     1.0317530000
| 28>  H        4.3303730000     2.0774540000     1.8325100000
| 29>  H        6.0553870000     2.2052590000     1.4644990000
| 30>  H        5.4750630000     0.9120200000     2.5353930000
| 31>  H        6.1549920000    -0.5548400000    -0.8228410000
| 32>  H        6.5652320000    -0.7467420000     0.8963180000
| 33>  H        7.0798550000     0.6999720000    -0.0010230000
| 34> *
| 35>
| 36>                          ****END OF INPUT****
 Total Charge           Charge          ....    0
 Multiplicity           Mult            ....    1
 Number of Electrons    NEL             ....   58
 Basis Dimension        Dim             ....  173

MULLIKEN ATOMIC CHARGES
-----------------------
   0 C :    0.027940
   1 C :   -0.154867
   2 C :    0.031185
   3 C :    0.128526
   4 N :   -0.331844
   5 C :    0.102741
   6 C :    0.094538
   7 H :    0.012715
   8 H :    0.010211
   9 H :    0.014296
  10 H :    0.008891
  11 H :    0.004639
  12 H :    0.011242
  13 H :    0.022703
  14 H :   -0.028717
  15 H :   -0.006401
  16 H :    0.018606
  17 H :    0.018519
  18 H :   -0.016461
  19 H :    0.025413
  20 H :   -0.013111
  21 H :    0.019236
Sum of atomic charges:   -0.0000000

LOEWDIN ATOMIC CHARGES
----------------------
   0 C :   -0.055215
   1 C :   -0.056797
   2 C :   -0.058659
   3 C :    0.021082
   4 N :   -0.109819
   5 C :    0.003142
   6 C :    0.001207
   7 H :    0.025223
   8 H :    0.022725
   9 H :    0.023556
  10 H :    0.021296
  11 H :    0.022449
  12 H :    0.022605
  13 H :    0.024745
  14 H :   -0.004878
  15 H :    0.018729
  16 H :    0.021128
  17 H :    0.021028
  18 H :   -0.003825
  19 H :    0.020072
  20 H :   -0.002814
  21 H :    0.023018

  Mayer bond orders larger than 0.1
B(  0-C ,  1-C ) :   1.0877 B(  0-C ,  7-H ) :   0.9587 B(  0-C ,  8-H ) :   0.9608
B(  0-C ,  9-H ) :   0.9572 B(  1-C ,  2-C ) :   1.0765 B(  1-C ,  3-C ) :   1.0512
B(  1-C , 10-H ) :   0.9038 B(  2-C , 11-H ) :   0.9614 B(  2-C , 12-H ) :   0.9610
B(  2-C , 13-H ) :   0.9544 B(  3-C ,  4-N ) :   1.0395 B(  3-C , 14-H ) :   0.9094
B(  3-C , 15-H ) :   0.9289 B(  4-N ,  5-C ) :   1.0409 B(  4-N ,  6-C ) :   1.0306
B(  5-C , 16-H ) :   0.9655 B(  5-C , 17-H ) :   0.9668 B(  5-C , 18-H ) :   0.9353
B(  6-C , 19-H ) :   0.9634 B(  6-C , 20-H ) :   0.9339 B(  6-C , 21-H ) :   0.9644

FINAL SINGLE POINT ENERGY      -291.783251196569

DIPOLE MOMENT
-------------
                                X             Y             Z
Electronic contribution:      0.94138       1.02854       0.02153
Nuclear contribution   :     -0.84840      -1.10251       0.09625
                        -----------------------------------------
Total Dipole Moment    :      0.09298      -0.07397       0.11777
                        -----------------------------------------
Magnitude (a.u.)       :      0.16730
Magnitude (Debye)      :      0.42523

                             ****ORCA TERMINATED NORMALLY****
TOTAL RUN TIME: 0 days 0 hours 0 minutes 9 seconds 746 msec
