                         Program Version 3.0.3 - RELEASE   -
|  1> ! RI PBE def2-SVP def2-SVP/J NBO PAL2
|  2> % maxcore 2000
|  3> % output
|  4>     # printlevel mini
|  5>     print[ P_Basis ] 0
|  6>     print[ P_SCFInfo ] 1
|  7>     print[ P_SCFIterInfo ] 1
|  8>     print[ P_OrbEn ] 0
|  9>     print[ P_Cartesian ] 0
| 10> end
| 11> *xyz 0 1
| 12>  C        0.9110650000     0.2394070000    -0.0373970000
| 13>  C        2.4198940000     0.0274620000     0.0186970000
| 14>  C        2.9241720000     0.2110870000     1.3900230000
| 15>  C        3.3445620000     0.3245490000     2.5099720000
| 16>  N        2.8227400000    -1.2398700000    -0.5814710000
| 17>  C        4.2493040000    -1.3033360000    -0.8090250000
| 18>  C        2.3548330000    -2.4098130000     0.1295090000
| 19>  H        0.6686510000     1.2610310000     0.2587870000
| 20>  H        0.3827850000    -0.4333830000     0.6389770000
| 21>  H        0.5596980000     0.0688770000    -1.0564170000
| 22>  H        2.8824390000     0.8064240000    -0.5990930000
| 23>  H        3.7143570000     0.4350750000     3.5020050000
| 24>  H        4.5700090000    -0.4394950000    -1.3964830000
| 25>  H        4.4835440000    -2.2052450000    -1.3789150000
| 26>  H        4.8386090000    -1.3233360000     0.1228010000
| 27>  H        1.2675710000    -2.3996430000     0.2143220000
| 28>  H        2.7816530000    -2.5003460000     1.1419230000
| 29>  H        2.6327150000    -3.3005360000    -0.4378940000
| 30> *
| 31>
| 32>                          ****END OF INPUT****
 Total Charge           Charge          ....    0
 Multiplicity           Mult            ....    1
 Number of Electrons    NEL             ....   54
 Basis Dimension        Dim             ....  153

MULLIKEN ATOMIC CHARGES
-----------------------
   0 C :    0.048330
   1 C :    0.031322
   2 C :    0.397733
   3 C :   -0.538357
   4 N :   -0.323494
   5 C :    0.100097
   6 C :    0.102991
   7 H :    0.024582
   8 H :    0.029995
   9 H :    0.025818
  10 H :    0.026373
  11 H :   -0.005808
  12 H :    0.015544
  13 H :    0.020336
  14 H :    0.004953
  15 H :    0.020145
  16 H :    0.002960
  17 H :    0.016480
Sum of atomic charges:    0.0000000

LOEWDIN ATOMIC CHARGES
----------------------
   0 C :   -0.049511
   1 C :   -0.000491
   2 C :   -0.029953
   3 C :   -0.092412
   4 N :   -0.100879
   5 C :    0.003372
   6 C :    0.003074
   7 H :    0.034386
   8 H :    0.027928
   9 H :    0.030520
  10 H :    0.042978
  11 H :    0.033979
  12 H :    0.021419
  13 H :    0.022527
  14 H :    0.003881
  15 H :    0.021571
  16 H :    0.004291
  17 H :    0.023320

  Mayer bond orders larger than 0.1
B(  0-C ,  1-C ) :   1.0849 B(  0-C ,  7-H ) :   0.9544 B(  0-C ,  8-H ) :   0.9534
B(  0-C ,  9-H ) :   0.9519 B(  1-C ,  2-C ) :   0.9313 B(  1-C ,  4-N ) :   1.0437
B(  1-C , 10-H ) :   0.8876 B(  2-C ,  3-C ) :   2.2920 B(  2-C , 11-H ) :  -0.1245
B(  3-C , 11-H ) :   1.1139 B(  4-N ,  5-C ) :   1.0316 B(  4-N ,  6-C ) :   1.0255
B(  5-C , 12-H ) :   0.9621 B(  5-C , 13-H ) :   0.9673 B(  5-C , 14-H ) :   0.9412
B(  6-C , 15-H ) :   0.9625 B(  6-C , 16-H ) :   0.9400 B(  6-C , 17-H ) :   0.9652

FINAL SINGLE POINT ENERGY      -289.314603023699

DIPOLE MOMENT
-------------
                                X             Y             Z
Electronic contribution:      0.96514       2.72645       2.36756
Nuclear contribution   :     -0.94980      -2.78196      -2.38512
                        -----------------------------------------
Total Dipole Moment    :      0.01534      -0.05551      -0.01755
                        -----------------------------------------
Magnitude (a.u.)       :      0.06021
Magnitude (Debye)      :      0.15303

                             ****ORCA TERMINATED NORMALLY****
TOTAL RUN TIME: 0 days 0 hours 0 minutes 8 seconds 516 msec
