                         Program Version 3.0.3 - RELEASE   -
|  1> ! RI PBE def2-SVP def2-SVP/J NBO PAL2
|  2> % maxcore 2000
|  3> % output
|  4>     # printlevel mini
|  5>     print[ P_Basis ] 0
|  6>     print[ P_SCFInfo ] 1
|  7>     print[ P_SCFIterInfo ] 1
|  8>     print[ P_OrbEn ] 0
|  9>     print[ P_Cartesian ] 0
| 10> end
| 11> *xyz 0 1
| 12>  C        0.8970580000    -0.1529100000    -0.0168760000
| 13>  C        2.4187980000    -0.0872680000     0.0491090000
| 14>  C        2.9004060000     1.3226530000     0.4418350000
| 15>  C        2.4805430000     2.3449450000    -0.5029000000
| 16>  N        2.1446260000     3.1380050000    -1.2647620000
| 17>  C        2.9620670000    -1.0811070000     1.0281200000
| 18>  C        3.8016830000    -2.0613650000     0.7296890000
| 19>  H        0.5014620000     0.5811820000    -0.7223010000
| 20>  H        0.4559510000     0.0478220000     0.9641460000
| 21>  H        0.5710030000    -1.1448260000    -0.3334950000
| 22>  H        2.8288830000    -0.3152810000    -0.9401740000
| 23>  H        3.9915490000     1.3422620000     0.5077620000
| 24>  H        2.5138050000     1.5888440000     1.4314460000
| 25>  H        2.6150570000    -0.9699890000     2.0555080000
| 26>  H        4.1657650000    -2.2072160000    -0.2828310000
| 27>  H        4.1527320000    -2.7568490000     1.4830030000
| 28> *
| 29>
| 30>                          ****END OF INPUT****
 Total Charge           Charge          ....    0
 Multiplicity           Mult            ....    1
 Number of Electrons    NEL             ....   52
 Basis Dimension        Dim             ....  143

MULLIKEN ATOMIC CHARGES
-----------------------
   0 C :    0.023536
   1 C :   -0.126608
   2 C :    0.084244
   3 C :   -0.273571
   4 N :    0.064837
   5 C :   -0.023313
   6 C :   -0.023899
   7 H :    0.048145
   8 H :    0.017293
   9 H :    0.033042
  10 H :    0.017782
  11 H :    0.059030
  12 H :    0.042291
  13 H :    0.002897
  14 H :    0.022935
  15 H :    0.031361
Sum of atomic charges:    0.0000000

LOEWDIN ATOMIC CHARGES
----------------------
   0 C :   -0.051649
   1 C :   -0.032330
   2 C :   -0.050270
   3 C :   -0.044909
   4 N :   -0.068219
   5 C :   -0.024149
   6 C :   -0.054908
   7 H :    0.035539
   8 H :    0.026910
   9 H :    0.033840
  10 H :    0.035243
  11 H :    0.060103
  12 H :    0.055324
  13 H :    0.026136
  14 H :    0.024955
  15 H :    0.028385

  Mayer bond orders larger than 0.1
B(  0-C ,  1-C ) :   1.0559 B(  0-C ,  7-H ) :   0.9537 B(  0-C ,  8-H ) :   0.9614
B(  0-C ,  9-H ) :   0.9616 B(  1-C ,  2-C ) :   1.0437 B(  1-C ,  5-C ) :   1.0302
B(  1-C , 10-H ) :   0.9111 B(  2-C ,  3-C ) :   1.1416 B(  2-C , 11-H ) :   0.8908
B(  2-C , 12-H ) :   0.8815 B(  3-C ,  4-N ) :   3.0396 B(  5-C ,  6-C ) :   2.0176
B(  5-C , 13-H ) :   0.9442 B(  6-C , 14-H ) :   0.9489 B(  6-C , 15-H ) :   0.9402

FINAL SINGLE POINT ENERGY      -288.170816615972

DIPOLE MOMENT
-------------
                                X             Y             Z
Electronic contribution:      0.94288       6.35623      -2.38642
Nuclear contribution   :     -0.64844      -7.44369       3.25512
                        -----------------------------------------
Total Dipole Moment    :      0.29444      -1.08746       0.86870
                        -----------------------------------------
Magnitude (a.u.)       :      1.42263
Magnitude (Debye)      :      3.61605

                             ****ORCA TERMINATED NORMALLY****
TOTAL RUN TIME: 0 days 0 hours 0 minutes 6 seconds 732 msec
