                         Program Version 3.0.3 - RELEASE   -
|  1> ! RI PBE def2-SVP def2-SVP/J NBO PAL2
|  2> % maxcore 2000
|  3> % output
|  4>     # printlevel mini
|  5>     print[ P_Basis ] 0
|  6>     print[ P_SCFInfo ] 1
|  7>     print[ P_SCFIterInfo ] 1
|  8>     print[ P_OrbEn ] 0
|  9>     print[ P_Cartesian ] 0
| 10> end
| 11> *xyz 0 1
| 12>  C        1.0458640000    -0.0106130000    -0.0903160000
| 13>  C        2.5718160000     0.0469650000    -0.0438420000
| 14>  C        3.0393060000     1.4985720000     0.1755800000
| 15>  C        4.4794740000     1.6644930000     0.0701680000
| 16>  N        5.6163290000     1.7980850000    -0.0323410000
| 17>  C        3.1047120000    -0.8346770000     0.9860340000
| 18>  C        3.5302390000    -1.5512640000     1.8490480000
| 19>  H        0.6641800000     0.6159950000    -0.8996570000
| 20>  H        0.6174780000     0.3378160000     0.8518970000
| 21>  H        0.7078200000    -1.0335760000    -0.2563860000
| 22>  H        2.9659380000    -0.2868350000    -1.0104010000
| 23>  H        2.7172450000     1.8442680000     1.1618470000
| 24>  H        2.5663840000     2.1455180000    -0.5690920000
| 25>  H        3.9196160000    -2.1881460000     2.6079600000
| 26> *
| 27>
| 28>                          ****END OF INPUT****
 Total Charge           Charge          ....    0
 Multiplicity           Mult            ....    1
 Number of Electrons    NEL             ....   50
 Basis Dimension        Dim             ....  133

MULLIKEN ATOMIC CHARGES
-----------------------
   0 C :    0.057823
   1 C :   -0.128733
   2 C :    0.077933
   3 C :   -0.257124
   4 N :    0.070070
   5 C :    0.409809
   6 C :   -0.488271
   7 H :    0.023671
   8 H :    0.029302
   9 H :    0.041956
  10 H :    0.050254
  11 H :    0.055236
  12 H :    0.053824
  13 H :    0.004250
Sum of atomic charges:    0.0000000

LOEWDIN ATOMIC CHARGES
----------------------
   0 C :   -0.041234
   1 C :   -0.037855
   2 C :   -0.042192
   3 C :   -0.042401
   4 N :   -0.060133
   5 C :   -0.020981
   6 C :   -0.065923
   7 H :    0.029504
   8 H :    0.032792
   9 H :    0.038174
  10 H :    0.053668
  11 H :    0.060033
  12 H :    0.058348
  13 H :    0.038199

  Mayer bond orders larger than 0.1
B(  0-C ,  1-C ) :   1.0836 B(  0-C ,  7-H ) :   0.9536 B(  0-C ,  8-H ) :   0.9557
B(  0-C ,  9-H ) :   0.9611 B(  1-C ,  2-C ) :   1.0534 B(  1-C ,  5-C ) :   0.9947
B(  1-C , 10-H ) :   0.8827 B(  2-C ,  3-C ) :   1.1354 B(  2-C , 11-H ) :   0.8870
B(  2-C , 12-H ) :   0.8915 B(  3-C ,  4-N ) :   3.0580 B(  5-C ,  6-C ) :   2.3210
B(  5-C , 13-H ) :  -0.1158 B(  6-C , 13-H ) :   1.1064

FINAL SINGLE POINT ENERGY      -286.925093875402

DIPOLE MOMENT
-------------
                                X             Y             Z
Electronic contribution:      6.77274       1.02316       0.82076
Nuclear contribution   :     -8.30992      -1.21298      -0.83072
                        -----------------------------------------
Total Dipole Moment    :     -1.53718      -0.18982      -0.00996
                        -----------------------------------------
Magnitude (a.u.)       :      1.54889
Magnitude (Debye)      :      3.93696

                             ****ORCA TERMINATED NORMALLY****
TOTAL RUN TIME: 0 days 0 hours 0 minutes 6 seconds 114 msec
