                         Program Version 3.0.3 - RELEASE   -
|  1> ! RI PBE def2-SVP def2-SVP/J NBO PAL2
|  2> % maxcore 2000
|  3> % output
|  4>     # printlevel mini
|  5>     print[ P_Basis ] 0
|  6>     print[ P_SCFInfo ] 1
|  7>     print[ P_SCFIterInfo ] 1
|  8>     print[ P_OrbEn ] 0
|  9>     print[ P_Cartesian ] 0
| 10> end
| 11> *xyz 0 1
| 12>  C        1.1710470000    -0.2171850000    -0.4681820000
| 13>  C        2.6159960000    -0.1957710000     0.0261580000
| 14>  C        2.7266840000     0.6186010000     1.3168330000
| 15>  C        4.1494270000     0.8274150000     1.7992520000
| 16>  N        4.1596080000     1.5944060000     3.0359360000
| 17>  C        3.1168020000    -1.5933130000     0.2197430000
| 18>  C        4.1094220000    -2.1590050000    -0.4524620000
| 19>  H        0.7999890000     0.7984010000    -0.6295810000
| 20>  H        0.5171210000    -0.6975850000     0.2658980000
| 21>  H        1.0825480000    -0.7683810000    -1.4065800000
| 22>  H        3.2379670000     0.2830680000    -0.7409190000
| 23>  H        2.1521560000     0.1317210000     2.1131790000
| 24>  H        2.2563950000     1.5966520000     1.1529320000
| 25>  H        4.7369160000     1.2872960000     0.9868430000
| 26>  H        4.6099240000    -0.1444130000     1.9995000000
| 27>  H        3.8034330000     2.5291730000     2.8744570000
| 28>  H        5.1037820000     1.6972480000     3.3855930000
| 29>  H        2.5932300000    -2.1749510000     0.9795230000
| 30>  H        4.6569430000    -1.6152790000    -1.2167570000
| 31>  H        4.4113100000    -3.1835970000    -0.2674530000
| 32> *
| 33>
| 34>                          ****END OF INPUT****
 Total Charge           Charge          ....    0
 Multiplicity           Mult            ....    1
 Number of Electrons    NEL             ....   56
 Basis Dimension        Dim             ....  163

MULLIKEN ATOMIC CHARGES
-----------------------
   0 C :    0.046029
   1 C :   -0.092337
   2 C :   -0.006401
   3 C :    0.081563
   4 N :   -0.204588
   5 C :   -0.040195
   6 C :   -0.031708
   7 H :    0.014705
   8 H :    0.014496
   9 H :    0.019910
  10 H :   -0.005276
  11 H :    0.009137
  12 H :   -0.006131
  13 H :   -0.014575
  14 H :    0.007176
  15 H :    0.085279
  16 H :    0.087052
  17 H :   -0.000642
  18 H :    0.015475
  19 H :    0.021032
Sum of atomic charges:    0.0000000

LOEWDIN ATOMIC CHARGES
----------------------
   0 C :   -0.051468
   1 C :   -0.045470
   2 C :   -0.039163
   3 C :    0.004112
   4 N :   -0.112906
   5 C :   -0.017920
   6 C :   -0.070129
   7 H :    0.024944
   8 H :    0.025241
   9 H :    0.026850
  10 H :    0.024780
  11 H :    0.024540
  12 H :    0.019118
  13 H :   -0.002406
  14 H :    0.020448
  15 H :    0.048250
  16 H :    0.051919
  17 H :    0.025027
  18 H :    0.020522
  19 H :    0.023709

  Mayer bond orders larger than 0.1
B(  0-C ,  1-C ) :   1.0766 B(  0-C ,  7-H ) :   0.9544 B(  0-C ,  8-H ) :   0.9576
B(  0-C ,  9-H ) :   0.9594 B(  1-C ,  2-C ) :   1.0406 B(  1-C ,  5-C ) :   1.0213
B(  1-C , 10-H ) :   0.9036 B(  2-C ,  3-C ) :   1.0879 B(  2-C , 11-H ) :   0.9264
B(  2-C , 12-H ) :   0.9278 B(  3-C ,  4-N ) :   1.0995 B(  3-C , 13-H ) :   0.9227
B(  3-C , 14-H ) :   0.9233 B(  4-N , 15-H ) :   0.9683 B(  4-N , 16-H ) :   0.9636
B(  5-C ,  6-C ) :   1.9991 B(  5-C , 17-H ) :   0.9517 B(  6-C , 18-H ) :   0.9477
B(  6-C , 19-H ) :   0.9405

FINAL SINGLE POINT ENERGY      -290.570630641980

DIPOLE MOMENT
-------------
                                X             Y             Z
Electronic contribution:      1.26110      -0.69014       0.89760
Nuclear contribution   :     -1.04549       1.06725      -1.09090
                        -----------------------------------------
Total Dipole Moment    :      0.21560       0.37711      -0.19330
                        -----------------------------------------
Magnitude (a.u.)       :      0.47546
Magnitude (Debye)      :      1.20853

                             ****ORCA TERMINATED NORMALLY****
TOTAL RUN TIME: 0 days 0 hours 0 minutes 8 seconds 756 msec
