                         Program Version 3.0.3 - RELEASE   -
|  1> ! RI PBE def2-SVP def2-SVP/J NBO PAL2
|  2> % maxcore 2000
|  3> % output
|  4>     # printlevel mini
|  5>     print[ P_Basis ] 0
|  6>     print[ P_SCFInfo ] 1
|  7>     print[ P_SCFIterInfo ] 1
|  8>     print[ P_OrbEn ] 0
|  9>     print[ P_Cartesian ] 0
| 10> end
| 11> *xyz 0 1
| 12>  C        1.3997120000     0.4410290000    -0.8793610000
| 13>  C        2.5008620000    -0.0969180000     0.0369220000
| 14>  C        2.0679530000    -0.1811410000     1.5081480000
| 15>  C        0.8946080000    -1.1044490000     1.7791530000
| 16>  N        0.6202680000    -1.1442580000     3.2087360000
| 17>  C        3.0095400000    -1.3752190000    -0.4510400000
| 18>  C        3.4278280000    -2.4253820000    -0.8580520000
| 19>  H        1.0298480000     1.3969590000    -0.5006570000
| 20>  H        0.5605650000    -0.2533690000    -0.9421160000
| 21>  H        1.7801780000     0.5938620000    -1.8903940000
| 22>  H        3.3385750000     0.6102410000    -0.0031060000
| 23>  H        1.8154530000     0.8244180000     1.8584350000
| 24>  H        2.9262760000    -0.5156890000     2.1012340000
| 25>  H        1.1042620000    -2.0902320000     1.3373280000
| 26>  H       -0.0002410000    -0.7181680000     1.2823850000
| 27>  H        1.3962370000    -1.5712070000     3.7011880000
| 28>  H       -0.1942130000    -1.7141440000     3.3992860000
| 29>  H        3.8006890000    -3.3540340000    -1.2199900000
| 30> *
| 31>
| 32>                          ****END OF INPUT****
 Total Charge           Charge          ....    0
 Multiplicity           Mult            ....    1
 Number of Electrons    NEL             ....   54
 Basis Dimension        Dim             ....  153

MULLIKEN ATOMIC CHARGES
-----------------------
   0 C :    0.024530
   1 C :   -0.088465
   2 C :    0.011308
   3 C :    0.058211
   4 N :   -0.207761
   5 C :    0.407360
   6 C :   -0.521176
   7 H :    0.017233
   8 H :    0.037580
   9 H :    0.027945
  10 H :    0.036863
  11 H :    0.013457
  12 H :    0.010864
  13 H :    0.004832
  14 H :    0.002231
  15 H :    0.087181
  16 H :    0.085573
  17 H :   -0.007766
Sum of atomic charges:    0.0000000

LOEWDIN ATOMIC CHARGES
----------------------
   0 C :   -0.045647
   1 C :   -0.052163
   2 C :   -0.031642
   3 C :    0.004188
   4 N :   -0.111265
   5 C :   -0.013583
   6 C :   -0.099238
   7 H :    0.027932
   8 H :    0.029246
   9 H :    0.031823
  10 H :    0.050729
  11 H :    0.026710
  12 H :    0.025355
  13 H :    0.004652
  14 H :    0.018627
  15 H :    0.049328
  16 H :    0.051953
  17 H :    0.032994

  Mayer bond orders larger than 0.1
B(  0-C ,  1-C ) :   1.0715 B(  0-C ,  7-H ) :   0.9557 B(  0-C ,  8-H ) :   0.9616
B(  0-C ,  9-H ) :   0.9582 B(  1-C ,  2-C ) :   1.0448 B(  1-C ,  5-C ) :   0.9978
B(  1-C , 10-H ) :   0.8765 B(  2-C ,  3-C ) :   1.0836 B(  2-C , 11-H ) :   0.9221
B(  2-C , 12-H ) :   0.9332 B(  3-C ,  4-N ) :   1.0920 B(  3-C , 13-H ) :   0.9322
B(  3-C , 14-H ) :   0.9274 B(  4-N , 15-H ) :   0.9689 B(  4-N , 16-H ) :   0.9655
B(  5-C ,  6-C ) :   2.2891 B(  5-C , 17-H ) :  -0.1197 B(  6-C , 17-H ) :   1.1097

FINAL SINGLE POINT ENERGY      -289.326487797246

DIPOLE MOMENT
-------------
                                X             Y             Z
Electronic contribution:      3.21850      -2.34383      -1.33178
Nuclear contribution   :     -3.30566       2.10590       1.37380
                        -----------------------------------------
Total Dipole Moment    :     -0.08715      -0.23792       0.04202
                        -----------------------------------------
Magnitude (a.u.)       :      0.25684
Magnitude (Debye)      :      0.65284

                             ****ORCA TERMINATED NORMALLY****
TOTAL RUN TIME: 0 days 0 hours 0 minutes 8 seconds 119 msec
