                         Program Version 3.0.3 - RELEASE   -
|  1> ! RI PBE def2-SVP def2-SVP/J NBO PAL2
|  2> % maxcore 2000
|  3> % output
|  4>     # printlevel mini
|  5>     print[ P_Basis ] 0
|  6>     print[ P_SCFInfo ] 1
|  7>     print[ P_SCFIterInfo ] 1
|  8>     print[ P_OrbEn ] 0
|  9>     print[ P_Cartesian ] 0
| 10> end
| 11> *xyz 0 1
| 12>  C        0.9507440000    -0.0637330000    -0.0815180000
| 13>  C        2.4014840000    -0.0488360000    -0.0829330000
| 14>  C        3.6052850000    -0.0434170000    -0.0786540000
| 15>  C        5.0738580000    -0.0060060000    -0.0938110000
| 16>  N        5.6296880000     0.8527810000    -1.1428320000
| 17>  C        5.5926670000     0.4350710000     1.2470850000
| 18>  C        6.3187470000    -0.3211900000     2.0534420000
| 19>  H        0.5482920000     0.6947100000    -0.7578810000
| 20>  H        0.5582560000     0.1368980000     0.9186270000
| 21>  H        0.5684460000    -1.0359380000    -0.4026490000
| 22>  H        5.4426770000    -1.0209430000    -0.2785500000
| 23>  H        5.3088410000     1.8042160000    -0.9961800000
| 24>  H        5.2525270000     0.5665620000    -2.0396870000
| 25>  H        5.3225660000     1.4477270000     1.5402600000
| 26>  H        6.5929690000    -1.3361880000     1.7837840000
| 27>  H        6.6656720000     0.0443740000     3.0127870000
| 28> *
| 29>
| 30>                          ****END OF INPUT****
 Total Charge           Charge          ....    0
 Multiplicity           Mult            ....    1
 Number of Electrons    NEL             ....   52
 Basis Dimension        Dim             ....  143

MULLIKEN ATOMIC CHARGES
-----------------------
   0 C :    0.057106
   1 C :   -0.262836
   2 C :   -0.028934
   3 C :    0.056376
   4 N :   -0.163290
   5 C :   -0.013005
   6 C :   -0.023320
   7 H :    0.045270
   8 H :    0.047204
   9 H :    0.045999
  10 H :    0.014925
  11 H :    0.089152
  12 H :    0.089907
  13 H :    0.000911
  14 H :    0.020389
  15 H :    0.024146
Sum of atomic charges:   -0.0000000

LOEWDIN ATOMIC CHARGES
----------------------
   0 C :   -0.067923
   1 C :   -0.068597
   2 C :   -0.082407
   3 C :   -0.006309
   4 N :   -0.083115
   5 C :   -0.013267
   6 C :   -0.051797
   7 H :    0.049575
   8 H :    0.050679
   9 H :    0.050264
  10 H :    0.040990
  11 H :    0.051397
  12 H :    0.054251
  13 H :    0.026183
  14 H :    0.023872
  15 H :    0.026205

  Mayer bond orders larger than 0.1
B(  0-C ,  1-C ) :   1.1360 B(  0-C ,  7-H ) :   0.9303 B(  0-C ,  8-H ) :   0.9327
B(  0-C ,  9-H ) :   0.9335 B(  1-C ,  2-C ) :   2.6516 B(  2-C ,  3-C ) :   0.9098
B(  3-C ,  4-N ) :   1.0706 B(  3-C ,  5-C ) :   1.0168 B(  3-C , 10-H ) :   0.8887
B(  4-N , 11-H ) :   0.9671 B(  4-N , 12-H ) :   0.9669 B(  5-C ,  6-C ) :   2.0337
B(  5-C , 13-H ) :   0.9437 B(  6-C , 14-H ) :   0.9434 B(  6-C , 15-H ) :   0.9408

FINAL SINGLE POINT ENERGY      -288.113709029746

DIPOLE MOMENT
-------------
                                X             Y             Z
Electronic contribution:      1.07819      -0.01052      -0.73003
Nuclear contribution   :     -1.73623       0.09974       0.61394
                        -----------------------------------------
Total Dipole Moment    :     -0.65804       0.08923      -0.11608
                        -----------------------------------------
Magnitude (a.u.)       :      0.67413
Magnitude (Debye)      :      1.71351

                             ****ORCA TERMINATED NORMALLY****
TOTAL RUN TIME: 0 days 0 hours 0 minutes 7 seconds 211 msec
