                         Program Version 3.0.3 - RELEASE   -
|  1> ! RI PBE def2-SVP def2-SVP/J NBO PAL2
|  2> % maxcore 2000
|  3> % output
|  4>     # printlevel mini
|  5>     print[ P_Basis ] 0
|  6>     print[ P_SCFInfo ] 1
|  7>     print[ P_SCFIterInfo ] 1
|  8>     print[ P_OrbEn ] 0
|  9>     print[ P_Cartesian ] 0
| 10> end
| 11> *xyz 0 1
| 12>  C        0.8647730000    -0.0165780000     0.0299310000
| 13>  C        2.3148780000    -0.0176480000     0.0499920000
| 14>  C        3.5170270000    -0.0319240000     0.0691200000
| 15>  C        4.9865960000     0.0063690000     0.1004490000
| 16>  N        5.5495100000     1.0820790000     0.9170380000
| 17>  C        5.5268220000    -1.2838460000     0.5346530000
| 18>  C        5.9655820000    -2.3402400000     0.8932260000
| 19>  H        0.4708540000    -0.9845610000     0.3493590000
| 20>  H        0.4863590000     0.1863510000    -0.9749070000
| 21>  H        0.4639780000     0.7471710000     0.7010620000
| 22>  H        5.3380440000     0.1726550000    -0.9263450000
| 23>  H        5.2774240000     0.9398710000     1.8832930000
| 24>  H        5.1387720000     1.9611040000     0.6231630000
| 25>  H        6.3579720000    -3.2772040000     1.2106670000
| 26> *
| 27>
| 28>                          ****END OF INPUT****
 Total Charge           Charge          ....    0
 Multiplicity           Mult            ....    1
 Number of Electrons    NEL             ....   50
 Basis Dimension        Dim             ....  133

MULLIKEN ATOMIC CHARGES
-----------------------
   0 C :    0.056473
   1 C :   -0.254495
   2 C :   -0.044825
   3 C :    0.133079
   4 N :   -0.166912
   5 C :    0.386341
   6 C :   -0.493651
   7 H :    0.050984
   8 H :    0.047332
   9 H :    0.047476
  10 H :    0.043263
  11 H :    0.101522
  12 H :    0.093154
  13 H :    0.000258
Sum of atomic charges:    0.0000000

LOEWDIN ATOMIC CHARGES
----------------------
   0 C :   -0.067071
   1 C :   -0.056524
   2 C :   -0.080196
   3 C :   -0.008184
   4 N :   -0.075766
   5 C :   -0.008815
   6 C :   -0.069493
   7 H :    0.052699
   8 H :    0.050988
   9 H :    0.051129
  10 H :    0.061035
  11 H :    0.057731
  12 H :    0.056360
  13 H :    0.036108

  Mayer bond orders larger than 0.1
B(  0-C ,  1-C ) :   1.1358 B(  0-C ,  7-H ) :   0.9321 B(  0-C ,  8-H ) :   0.9334
B(  0-C ,  9-H ) :   0.9298 B(  1-C ,  2-C ) :   2.6871 B(  2-C ,  3-C ) :   0.9127
B(  3-C ,  4-N ) :   1.0938 B(  3-C ,  5-C ) :   0.9924 B(  3-C , 10-H ) :   0.8515
B(  4-N , 11-H ) :   0.9640 B(  4-N , 12-H ) :   0.9665 B(  5-C ,  6-C ) :   2.3633
B(  5-C , 13-H ) :  -0.1128 B(  6-C , 13-H ) :   1.1028

FINAL SINGLE POINT ENERGY      -286.866150439503

DIPOLE MOMENT
-------------
                                X             Y             Z
Electronic contribution:      3.94439      -1.61424      -0.11552
Nuclear contribution   :     -4.69718       1.83830       0.16177
                        -----------------------------------------
Total Dipole Moment    :     -0.75279       0.22406       0.04625
                        -----------------------------------------
Magnitude (a.u.)       :      0.78679
Magnitude (Debye)      :      1.99986

                             ****ORCA TERMINATED NORMALLY****
TOTAL RUN TIME: 0 days 0 hours 0 minutes 5 seconds 861 msec
