                         Program Version 3.0.3 - RELEASE   -
|  1> ! RI PBE def2-SVP def2-SVP/J NBO PAL2
|  2> % maxcore 2000
|  3> % output
|  4>     # printlevel mini
|  5>     print[ P_Basis ] 0
|  6>     print[ P_SCFInfo ] 1
|  7>     print[ P_SCFIterInfo ] 1
|  8>     print[ P_OrbEn ] 0
|  9>     print[ P_Cartesian ] 0
| 10> end
| 11> *xyz 0 1
| 12>  C        0.9547000000     0.1151400000     0.0643680000
| 13>  C        2.4049440000     0.0804670000     0.0804880000
| 14>  C        3.6064280000     0.0464900000     0.0992410000
| 15>  C        5.0627290000     0.0101330000     0.0914560000
| 16>  N        5.6489940000    -0.0395440000     1.4193820000
| 17>  C        7.0749070000    -0.2416220000     1.3335370000
| 18>  C        5.3278660000     1.1324640000     2.1998590000
| 19>  H        0.5864030000     0.7998490000    -0.7038260000
| 20>  H        0.5622110000     0.4518560000     1.0273360000
| 21>  H        0.5382870000    -0.8747430000    -0.1386190000
| 22>  H        5.4367470000     0.8811670000    -0.4836280000
| 23>  H        5.3910170000    -0.8814500000    -0.4537360000
| 24>  H        7.2904310000    -1.1665340000     0.7929770000
| 25>  H        7.4938870000    -0.3306210000     2.3380110000
| 26>  H        7.5985220000     0.5864150000     0.8193900000
| 27>  H        4.2450290000     1.2435660000     2.2709250000
| 28>  H        5.7427810000     2.0613040000     1.7651950000
| 29>  H        5.7310380000     1.0208660000     3.2086520000
| 30> *
| 31>
| 32>                          ****END OF INPUT****
 Total Charge           Charge          ....    0
 Multiplicity           Mult            ....    1
 Number of Electrons    NEL             ....   54
 Basis Dimension        Dim             ....  153

MULLIKEN ATOMIC CHARGES
-----------------------
   0 C :    0.053296
   1 C :   -0.251870
   2 C :   -0.069499
   3 C :    0.177906
   4 N :   -0.345040
   5 C :    0.112428
   6 C :    0.098990
   7 H :    0.047324
   8 H :    0.046325
   9 H :    0.046427
  10 H :    0.003391
  11 H :    0.025679
  12 H :    0.015847
  13 H :    0.020895
  14 H :   -0.016984
  15 H :    0.035771
  16 H :   -0.020376
  17 H :    0.019492
Sum of atomic charges:   -0.0000000

LOEWDIN ATOMIC CHARGES
----------------------
   0 C :   -0.067990
   1 C :   -0.063172
   2 C :   -0.069058
   3 C :    0.010564
   4 N :   -0.108982
   5 C :    0.002881
   6 C :    0.002003
   7 H :    0.050044
   8 H :    0.051194
   9 H :    0.049615
  10 H :    0.016105
  11 H :    0.041244
  12 H :    0.021069
  13 H :    0.023114
  14 H :   -0.003840
  15 H :    0.026888
  16 H :   -0.003726
  17 H :    0.022046

  Mayer bond orders larger than 0.1
B(  0-C ,  1-C ) :   1.1360 B(  0-C ,  7-H ) :   0.9335 B(  0-C ,  8-H ) :   0.9303
B(  0-C ,  9-H ) :   0.9336 B(  1-C ,  2-C ) :   2.6000 B(  2-C ,  3-C ) :   1.0264
B(  3-C ,  4-N ) :   1.0324 B(  3-C , 10-H ) :   0.8877 B(  3-C , 11-H ) :   0.8951
B(  4-N ,  5-C ) :   1.0399 B(  4-N ,  6-C ) :   1.0306 B(  5-C , 12-H ) :   0.9646
B(  5-C , 13-H ) :   0.9675 B(  5-C , 14-H ) :   0.9334 B(  6-C , 15-H ) :   0.9633
B(  6-C , 16-H ) :   0.9311 B(  6-C , 17-H ) :   0.9673

FINAL SINGLE POINT ENERGY      -289.324384415267

DIPOLE MOMENT
-------------
                                X             Y             Z
Electronic contribution:     -2.59477      -1.61877      -1.70672
Nuclear contribution   :      2.50216       1.75069       1.63501
                        -----------------------------------------
Total Dipole Moment    :     -0.09261       0.13192      -0.07171
                        -----------------------------------------
Magnitude (a.u.)       :      0.17641
Magnitude (Debye)      :      0.44840

                             ****ORCA TERMINATED NORMALLY****
TOTAL RUN TIME: 0 days 0 hours 0 minutes 8 seconds 98 msec
