                         Program Version 3.0.3 - RELEASE   -
|  1> ! RI PBE def2-SVP def2-SVP/J NBO PAL2
|  2> % maxcore 2000
|  3> % output
|  4>     # printlevel mini
|  5>     print[ P_Basis ] 0
|  6>     print[ P_SCFInfo ] 1
|  7>     print[ P_SCFIterInfo ] 1
|  8>     print[ P_OrbEn ] 0
|  9>     print[ P_Cartesian ] 0
| 10> end
| 11> *xyz 0 1
| 12>  C        2.9932430000    -0.3295340000     1.3607850000
| 13>  C        2.4732960000    -0.1615230000    -0.0563030000
| 14>  C        2.9574300000     1.0949140000    -0.7928720000
| 15>  C        2.4119320000     1.0683370000    -2.2222150000
| 16>  N        2.4680000000     2.2604810000    -0.0514750000
| 17>  C        4.4870710000     1.2098750000    -0.8032490000
| 18>  C        5.2439940000     0.0548030000    -1.4365120000
| 19>  H        2.4961100000    -1.1661990000     1.8573580000
| 20>  H        2.8141500000     0.5736090000     1.9466220000
| 21>  H        4.0668230000    -0.5327420000     1.3781580000
| 22>  H        1.3767690000    -0.1241860000    -0.0374170000
| 23>  H        2.7261850000    -1.0411120000    -0.6567960000
| 24>  H        1.3179200000     1.0538270000    -2.2091750000
| 25>  H        2.7450710000     0.1890770000    -2.7798340000
| 26>  H        2.7291780000     1.9594620000    -2.7724130000
| 27>  H        1.4553010000     2.3001280000    -0.0970050000
| 28>  H        2.8112060000     3.1126820000    -0.4811720000
| 29>  H        4.8191390000     1.3509150000     0.2289440000
| 30>  H        4.7454880000     2.1375900000    -1.3297970000
| 31>  H        5.0505240000    -0.8896170000    -0.9217670000
| 32>  H        6.3206020000     0.2341140000    -1.3901940000
| 33>  H        4.9831590000    -0.0805120000    -2.4885620000
| 34> *
| 35>
| 36>                          ****END OF INPUT****
 Total Charge           Charge          ....    0
 Multiplicity           Mult            ....    1
 Number of Electrons    NEL             ....   58
 Basis Dimension        Dim             ....  173

MULLIKEN ATOMIC CHARGES
-----------------------
   0 C :    0.007000
   1 C :    0.013309
   2 C :   -0.254286
   3 C :    0.069662
   4 N :   -0.134655
   5 C :    0.026069
   6 C :   -0.019898
   7 H :    0.010576
   8 H :    0.024756
   9 H :    0.016802
  10 H :   -0.004366
  11 H :    0.002076
  12 H :    0.005780
  13 H :    0.008822
  14 H :    0.002916
  15 H :    0.077424
  16 H :    0.079071
  17 H :    0.012546
  18 H :   -0.009486
  19 H :    0.021392
  20 H :    0.023816
  21 H :    0.020676
Sum of atomic charges:    0.0000000

LOEWDIN ATOMIC CHARGES
----------------------
   0 C :   -0.069679
   1 C :   -0.040539
   2 C :   -0.023382
   3 C :   -0.069182
   4 N :   -0.083235
   5 C :   -0.039528
   6 C :   -0.068727
   7 H :    0.025110
   8 H :    0.025867
   9 H :    0.022563
  10 H :    0.020845
  11 H :    0.020997
  12 H :    0.020730
  13 H :    0.021755
  14 H :    0.019673
  15 H :    0.046958
  16 H :    0.047132
  17 H :    0.024778
  18 H :    0.018638
  19 H :    0.024726
  20 H :    0.030384
  21 H :    0.024118

  Mayer bond orders larger than 0.1
B(  0-C ,  1-C ) :   1.1245 B(  0-C ,  7-H ) :   0.9546 B(  0-C ,  8-H ) :   0.9515
B(  0-C ,  9-H ) :   0.9551 B(  1-C ,  2-C ) :   1.0218 B(  1-C , 10-H ) :   0.9241
B(  1-C , 11-H ) :   0.9283 B(  2-C ,  3-C ) :   1.0505 B(  2-C ,  4-N ) :   1.0436
B(  2-C ,  5-C ) :   1.0302 B(  3-C , 12-H ) :   0.9493 B(  3-C , 13-H ) :   0.9402
B(  3-C , 14-H ) :   0.9520 B(  4-N , 15-H ) :   0.9606 B(  4-N , 16-H ) :   0.9596
B(  5-C ,  6-C ) :   1.1211 B(  5-C , 17-H ) :   0.9240 B(  5-C , 18-H ) :   0.9223
B(  6-C , 19-H ) :   0.9568 B(  6-C , 20-H ) :   0.9563 B(  6-C , 21-H ) :   0.9573

FINAL SINGLE POINT ENERGY      -291.798172470763

DIPOLE MOMENT
-------------
                                X             Y             Z
Electronic contribution:     -1.24771       2.18190       0.68976
Nuclear contribution   :      1.09925      -2.05705      -1.08131
                        -----------------------------------------
Total Dipole Moment    :     -0.14845       0.12486      -0.39155
                        -----------------------------------------
Magnitude (a.u.)       :      0.43696
Magnitude (Debye)      :      1.11067

                             ****ORCA TERMINATED NORMALLY****
TOTAL RUN TIME: 0 days 0 hours 0 minutes 9 seconds 598 msec
