                         Program Version 3.0.3 - RELEASE   -
|  1> ! RI PBE def2-SVP def2-SVP/J NBO PAL2
|  2> % maxcore 2000
|  3> % output
|  4>     # printlevel mini
|  5>     print[ P_Basis ] 0
|  6>     print[ P_SCFInfo ] 1
|  7>     print[ P_SCFIterInfo ] 1
|  8>     print[ P_OrbEn ] 0
|  9>     print[ P_Cartesian ] 0
| 10> end
| 11> *xyz 0 1
| 12>  C        2.8363110000    -0.1671630000    -1.4369290000
| 13>  C        2.4232320000     0.0442220000     0.0080480000
| 14>  C        2.9586620000    -1.0025330000     1.0031230000
| 15>  C        2.4566910000    -0.6386330000     2.4073500000
| 16>  N        2.4993640000    -2.3197370000     0.5790150000
| 17>  C        4.4634350000    -0.9619780000     1.0212480000
| 18>  C        5.2808200000    -1.9104830000     0.5881330000
| 19>  H        2.3863340000     0.5929510000    -2.0799730000
| 20>  H        2.5233610000    -1.1495970000    -1.7932910000
| 21>  H        3.9206310000    -0.1074580000    -1.5506470000
| 22>  H        1.3283150000     0.0407430000     0.0863790000
| 23>  H        2.7448540000     1.0335560000     0.3502620000
| 24>  H        1.3629050000    -0.6299380000     2.4263140000
| 25>  H        2.8072910000     0.3495370000     2.7192010000
| 26>  H        2.8077260000    -1.3683930000     3.1417220000
| 27>  H        1.4861820000    -2.3342210000     0.5525920000
| 28>  H        2.7871710000    -3.0199440000     1.2534700000
| 29>  H        4.8826240000    -0.0503230000     1.4437690000
| 30>  H        4.8991420000    -2.8219260000     0.1423350000
| 31>  H        6.3565620000    -1.7933930000     0.6516690000
| 32> *
| 33>
| 34>                          ****END OF INPUT****
 Total Charge           Charge          ....    0
 Multiplicity           Mult            ....    1
 Number of Electrons    NEL             ....   56
 Basis Dimension        Dim             ....  163

MULLIKEN ATOMIC CHARGES
-----------------------
   0 C :    0.030631
   1 C :   -0.000001
   2 C :   -0.207614
   3 C :    0.066294
   4 N :   -0.125257
   5 C :   -0.009568
   6 C :   -0.024339
   7 H :    0.012722
   8 H :    0.014474
   9 H :    0.020400
  10 H :    0.002729
  11 H :    0.000054
  12 H :    0.008896
  13 H :    0.006097
  14 H :    0.012174
  15 H :    0.083602
  16 H :    0.087256
  17 H :   -0.015926
  18 H :    0.015867
  19 H :    0.021509
Sum of atomic charges:    0.0000000

LOEWDIN ATOMIC CHARGES
----------------------
   0 C :   -0.066461
   1 C :   -0.034177
   2 C :   -0.028387
   3 C :   -0.063598
   4 N :   -0.074199
   5 C :   -0.022519
   6 C :   -0.067336
   7 H :    0.024462
   8 H :    0.024468
   9 H :    0.026934
  10 H :    0.020035
  11 H :    0.023412
  12 H :    0.020765
  13 H :    0.023477
  14 H :    0.022608
  15 H :    0.051097
  16 H :    0.050781
  17 H :    0.023839
  18 H :    0.020808
  19 H :    0.023993

  Mayer bond orders larger than 0.1
B(  0-C ,  1-C ) :   1.1206 B(  0-C ,  7-H ) :   0.9564 B(  0-C ,  8-H ) :   0.9528
B(  0-C ,  9-H ) :   0.9575 B(  1-C ,  2-C ) :   1.0151 B(  1-C , 10-H ) :   0.9259
B(  1-C , 11-H ) :   0.9325 B(  2-C ,  3-C ) :   1.0422 B(  2-C ,  4-N ) :   1.0919
B(  2-C ,  5-C ) :   0.9770 B(  3-C , 12-H ) :   0.9496 B(  3-C , 13-H ) :   0.9424
B(  3-C , 14-H ) :   0.9533 B(  4-N , 15-H ) :   0.9606 B(  4-N , 16-H ) :   0.9518
B(  5-C ,  6-C ) :   2.0140 B(  5-C , 17-H ) :   0.9542 B(  6-C , 18-H ) :   0.9206
B(  6-C , 19-H ) :   0.9380

FINAL SINGLE POINT ENERGY      -290.575952713660

DIPOLE MOMENT
-------------
                                X             Y             Z
Electronic contribution:      1.32986      -1.63595       0.72048
Nuclear contribution   :     -1.66205       1.67019      -0.32203
                        -----------------------------------------
Total Dipole Moment    :     -0.33220       0.03423       0.39844
                        -----------------------------------------
Magnitude (a.u.)       :      0.51989
Magnitude (Debye)      :      1.32145

                             ****ORCA TERMINATED NORMALLY****
TOTAL RUN TIME: 0 days 0 hours 0 minutes 8 seconds 625 msec
