                         Program Version 3.0.3 - RELEASE   -
|  1> ! RI PBE def2-SVP def2-SVP/J NBO PAL2
|  2> % maxcore 2000
|  3> % output
|  4>     # printlevel mini
|  5>     print[ P_Basis ] 0
|  6>     print[ P_SCFInfo ] 1
|  7>     print[ P_SCFIterInfo ] 1
|  8>     print[ P_OrbEn ] 0
|  9>     print[ P_Cartesian ] 0
| 10> end
| 11> *xyz 0 1
| 12>  C        2.8850490000     1.2728850000    -0.8202390000
| 13>  C        2.4360970000     0.0242800000    -0.0864550000
| 14>  C        2.9624920000    -1.2974390000    -0.6766470000
| 15>  C        2.5065340000    -2.4641190000     0.2117560000
| 16>  N        2.4772010000    -1.4138830000    -2.0545990000
| 17>  C        4.4286660000    -1.2882160000    -0.7095910000
| 18>  C        5.6289570000    -1.3103850000    -0.7126910000
| 19>  H        2.4315520000     2.1623060000    -0.3769370000
| 20>  H        2.6025320000     1.2265830000    -1.8726760000
| 21>  H        3.9701090000     1.3862690000    -0.7695230000
| 22>  H        1.3412020000    -0.0427450000    -0.0928070000
| 23>  H        2.7373350000     0.0710880000     0.9641340000
| 24>  H        1.4138000000    -2.4803160000     0.2611230000
| 25>  H        2.8965350000    -2.3690280000     1.2274670000
| 26>  H        2.8508690000    -3.4149680000    -0.1999290000
| 27>  H        1.4747200000    -1.5683360000    -2.0411750000
| 28>  H        2.9001020000    -2.2160090000    -2.5059810000
| 29>  H        6.6931600000    -1.3220650000    -0.7218190000
| 30> *
| 31>
| 32>                          ****END OF INPUT****
 Total Charge           Charge          ....    0
 Multiplicity           Mult            ....    1
 Number of Electrons    NEL             ....   54
 Basis Dimension        Dim             ....  153

MULLIKEN ATOMIC CHARGES
-----------------------
   0 C :    0.017438
   1 C :    0.014325
   2 C :   -0.232486
   3 C :    0.093762
   4 N :   -0.130085
   5 C :    0.501201
   6 C :   -0.552174
   7 H :    0.010701
   8 H :    0.021941
   9 H :    0.027157
  10 H :    0.005439
  11 H :    0.012928
  12 H :    0.010767
  13 H :    0.017307
  14 H :    0.012912
  15 H :    0.083866
  16 H :    0.091169
  17 H :   -0.006169
Sum of atomic charges:    0.0000000

LOEWDIN ATOMIC CHARGES
----------------------
   0 C :   -0.066672
   1 C :   -0.029708
   2 C :   -0.032278
   3 C :   -0.053560
   4 N :   -0.074260
   5 C :   -0.003376
   6 C :   -0.086990
   7 H :    0.024859
   8 H :    0.026460
   9 H :    0.029664
  10 H :    0.022595
  11 H :    0.027303
  12 H :    0.022399
  13 H :    0.029657
  14 H :    0.024718
  15 H :    0.050737
  16 H :    0.054261
  17 H :    0.034189

  Mayer bond orders larger than 0.1
B(  0-C ,  1-C ) :   1.1162 B(  0-C ,  7-H ) :   0.9555 B(  0-C ,  8-H ) :   0.9528
B(  0-C ,  9-H ) :   0.9586 B(  1-C ,  2-C ) :   1.0222 B(  1-C , 10-H ) :   0.9261
B(  1-C , 11-H ) :   0.9303 B(  2-C ,  3-C ) :   1.0485 B(  2-C ,  4-N ) :   1.0494
B(  2-C ,  5-C ) :   0.9318 B(  3-C , 12-H ) :   0.9487 B(  3-C , 13-H ) :   0.9440
B(  3-C , 14-H ) :   0.9513 B(  4-N , 15-H ) :   0.9602 B(  4-N , 16-H ) :   0.9569
B(  5-C ,  6-C ) :   2.2673 B(  5-C , 17-H ) :  -0.1319 B(  6-C , 17-H ) :   1.1214

FINAL SINGLE POINT ENERGY      -289.329617269424

DIPOLE MOMENT
-------------
                                X             Y             Z
Electronic contribution:      3.93504      -1.87033      -1.36060
Nuclear contribution   :     -4.26256       1.43956       1.52041
                        -----------------------------------------
Total Dipole Moment    :     -0.32753      -0.43077       0.15982
                        -----------------------------------------
Magnitude (a.u.)       :      0.56425
Magnitude (Debye)      :      1.43422

                             ****ORCA TERMINATED NORMALLY****
TOTAL RUN TIME: 0 days 0 hours 0 minutes 8 seconds 516 msec
