                         Program Version 3.0.3 - RELEASE   -
|  1> ! RI PBE def2-SVP def2-SVP/J NBO PAL2
|  2> % maxcore 2000
|  3> % output
|  4>     # printlevel mini
|  5>     print[ P_Basis ] 0
|  6>     print[ P_SCFInfo ] 1
|  7>     print[ P_SCFIterInfo ] 1
|  8>     print[ P_OrbEn ] 0
|  9>     print[ P_Cartesian ] 0
| 10> end
| 11> *xyz 0 1
| 12>  C        3.9126790000     0.0319790000    -1.5296400000
| 13>  C        2.9842710000    -0.7742150000    -0.6392760000
| 14>  C        3.3634380000    -0.7456240000     0.8393310000
| 15>  C        2.3123740000    -1.4697120000     1.6812950000
| 16>  N        4.7358570000    -1.2015450000     1.0517710000
| 17>  C        5.2965570000    -0.7705560000     2.3071360000
| 18>  C        4.9577870000    -2.6102690000     0.8332690000
| 19>  H        3.5952040000    -0.0113840000    -2.5741840000
| 20>  H        4.9366630000    -0.3388520000    -1.4640590000
| 21>  H        3.9266100000     1.0839380000    -1.2297100000
| 22>  H        2.9372500000    -1.8123770000    -0.9874880000
| 23>  H        1.9614700000    -0.3917950000    -0.7241870000
| 24>  H        3.3669770000     0.3087250000     1.1444390000
| 25>  H        2.1896990000    -2.5074970000     1.3599410000
| 26>  H        1.3415640000    -0.9783800000     1.5819370000
| 27>  H        2.5734560000    -1.4725720000     2.7421360000
| 28>  H        5.1726300000     0.3091710000     2.4203180000
| 29>  H        6.3679770000    -0.9890100000     2.3229200000
| 30>  H        4.8501900000    -1.2594650000     3.1920810000
| 31>  H        4.5764380000    -2.9149670000    -0.1428890000
| 32>  H        4.4954130000    -3.2585490000     1.5978540000
| 33>  H        6.0326050000    -2.8099650000     0.8425160000
| 34> *
| 35>
| 36>                          ****END OF INPUT****
 Total Charge           Charge          ....    0
 Multiplicity           Mult            ....    1
 Number of Electrons    NEL             ....   58
 Basis Dimension        Dim             ....  173

MULLIKEN ATOMIC CHARGES
-----------------------
   0 C :    0.012099
   1 C :   -0.003525
   2 C :   -0.046353
   3 C :    0.023896
   4 N :   -0.326428
   5 C :    0.100512
   6 C :    0.102323
   7 H :    0.014897
   8 H :    0.020282
   9 H :    0.009080
  10 H :    0.001447
  11 H :    0.000617
  12 H :   -0.006445
  13 H :    0.019164
  14 H :    0.012861
  15 H :    0.020312
  16 H :    0.018337
  17 H :    0.018037
  18 H :   -0.014631
  19 H :    0.014486
  20 H :   -0.008226
  21 H :    0.017261
Sum of atomic charges:   -0.0000000

LOEWDIN ATOMIC CHARGES
----------------------
   0 C :   -0.067097
   1 C :   -0.047541
   2 C :    0.006257
   3 C :   -0.075303
   4 N :   -0.108257
   5 C :    0.001104
   6 C :    0.001738
   7 H :    0.023822
   8 H :    0.024254
   9 H :    0.023865
  10 H :    0.018299
  11 H :    0.025191
  12 H :    0.020040
  13 H :    0.024765
  14 H :    0.027559
  15 H :    0.024755
  16 H :    0.021475
  17 H :    0.021505
  18 H :   -0.005997
  19 H :    0.019987
  20 H :   -0.002730
  21 H :    0.022309

  Mayer bond orders larger than 0.1
B(  0-C ,  1-C ) :   1.1167 B(  0-C ,  7-H ) :   0.9607 B(  0-C ,  8-H ) :   0.9577
B(  0-C ,  9-H ) :   0.9612 B(  1-C ,  2-C ) :   1.0573 B(  1-C , 10-H ) :   0.9229
B(  1-C , 11-H ) :   0.9286 B(  2-C ,  3-C ) :   1.0755 B(  2-C ,  4-N ) :   1.0269
B(  2-C , 12-H ) :   0.9111 B(  3-C , 13-H ) :   0.9494 B(  3-C , 14-H ) :   0.9505
B(  3-C , 15-H ) :   0.9543 B(  4-N ,  5-C ) :   1.0473 B(  4-N ,  6-C ) :   1.0355
B(  5-C , 16-H ) :   0.9636 B(  5-C , 17-H ) :   0.9645 B(  5-C , 18-H ) :   0.9337
B(  6-C , 19-H ) :   0.9624 B(  6-C , 20-H ) :   0.9362 B(  6-C , 21-H ) :   0.9648

FINAL SINGLE POINT ENERGY      -291.781632206482

DIPOLE MOMENT
-------------
                                X             Y             Z
Electronic contribution:      0.70237       0.59218      -0.01715
Nuclear contribution   :     -0.80723      -0.67308       0.16548
                        -----------------------------------------
Total Dipole Moment    :     -0.10486      -0.08090       0.14833
                        -----------------------------------------
Magnitude (a.u.)       :      0.19885
Magnitude (Debye)      :      0.50545

                             ****ORCA TERMINATED NORMALLY****
TOTAL RUN TIME: 0 days 0 hours 0 minutes 9 seconds 753 msec
