                         Program Version 3.0.3 - RELEASE   -
|  1> ! RI PBE def2-SVP def2-SVP/J NBO PAL2
|  2> % maxcore 2000
|  3> % output
|  4>     # printlevel mini
|  5>     print[ P_Basis ] 0
|  6>     print[ P_SCFInfo ] 1
|  7>     print[ P_SCFIterInfo ] 1
|  8>     print[ P_OrbEn ] 0
|  9>     print[ P_Cartesian ] 0
| 10> end
| 11> *xyz 0 1
| 12>  C        1.6995450000    -0.9943910000    -0.8605630000
| 13>  C        2.5141160000    -0.1860030000     0.1438920000
| 14>  C        3.0817070000    -1.0046870000     1.2720370000
| 15>  C        2.0778930000    -1.6867150000     2.1594660000
| 16>  N        1.1460540000    -0.7173100000     2.7295760000
| 17>  C        4.4026270000    -1.0955610000     1.4447970000
| 18>  C        5.1672060000    -1.8323960000     2.4935720000
| 19>  H        1.3687330000    -0.3599470000    -1.6862320000
| 20>  H        0.8050870000    -1.4202970000    -0.4009810000
| 21>  H        2.2889990000    -1.8137630000    -1.2808430000
| 22>  H        1.8705910000     0.5935300000     0.5638900000
| 23>  H        3.3365110000     0.3172610000    -0.3723510000
| 24>  H        2.5903130000    -2.2980640000     2.9112810000
| 25>  H        1.4891050000    -2.3820100000     1.5501440000
| 26>  H        1.6349630000    -0.0995290000     3.3663750000
| 27>  H        0.4261760000    -1.1881520000     3.2627280000
| 28>  H        5.0251230000    -0.5655860000     0.7245710000
| 29>  H        4.5343320000    -2.2779850000     3.2607910000
| 30>  H        5.8763110000    -1.1630560000     2.9911140000
| 31>  H        5.7630180000    -2.6361490000     2.0476460000
| 32> *
| 33>
| 34>                          ****END OF INPUT****
 Total Charge           Charge          ....    0
 Multiplicity           Mult            ....    1
 Number of Electrons    NEL             ....   56
 Basis Dimension        Dim             ....  163

MULLIKEN ATOMIC CHARGES
-----------------------
   0 C :   -0.040071
   1 C :    0.071405
   2 C :   -0.175835
   3 C :    0.170689
   4 N :   -0.221117
   5 C :   -0.132144
   6 C :    0.055191
   7 H :    0.017024
   8 H :    0.026469
   9 H :    0.016372
  10 H :    0.020593
  11 H :   -0.008499
  12 H :   -0.023522
  13 H :    0.004032
  14 H :    0.088599
  15 H :    0.087091
  16 H :   -0.020321
  17 H :    0.008877
  18 H :    0.025070
  19 H :    0.030095
Sum of atomic charges:   -0.0000000

LOEWDIN ATOMIC CHARGES
----------------------
   0 C :   -0.063710
   1 C :   -0.035800
   2 C :   -0.049852
   3 C :    0.012125
   4 N :   -0.107156
   5 C :   -0.057238
   6 C :   -0.069528
   7 H :    0.026619
   8 H :    0.024137
   9 H :    0.022958
  10 H :    0.030336
  11 H :    0.022192
  12 H :    0.001056
  13 H :    0.025663
  14 H :    0.051392
  15 H :    0.051616
  16 H :    0.019886
  17 H :    0.023845
  18 H :    0.034873
  19 H :    0.036586

  Mayer bond orders larger than 0.1
B(  0-C ,  1-C ) :   1.1075 B(  0-C ,  7-H ) :   0.9585 B(  0-C ,  8-H ) :   0.9643
B(  0-C ,  9-H ) :   0.9652 B(  1-C ,  2-C ) :   1.0587 B(  1-C , 10-H ) :   0.9074
B(  1-C , 11-H ) :   0.9216 B(  2-C ,  3-C ) :   1.0713 B(  2-C ,  5-C ) :   1.9010
B(  3-C ,  4-N ) :   1.0713 B(  3-C , 12-H ) :   0.9114 B(  3-C , 13-H ) :   0.9022
B(  4-N , 14-H ) :   0.9675 B(  4-N , 15-H ) :   0.9659 B(  5-C ,  6-C ) :   1.0938
B(  5-C , 16-H ) :   0.9312 B(  6-C , 17-H ) :   0.9507 B(  6-C , 18-H ) :   0.9420
B(  6-C , 19-H ) :   0.9444

FINAL SINGLE POINT ENERGY      -290.577239621450

DIPOLE MOMENT
-------------
                                X             Y             Z
Electronic contribution:     -0.11674       0.95121       1.21344
Nuclear contribution   :      0.17026      -1.17127      -0.73001
                        -----------------------------------------
Total Dipole Moment    :      0.05352      -0.22006       0.48344
                        -----------------------------------------
Magnitude (a.u.)       :      0.53386
Magnitude (Debye)      :      1.35696

                             ****ORCA TERMINATED NORMALLY****
TOTAL RUN TIME: 0 days 0 hours 0 minutes 8 seconds 642 msec
