                         Program Version 3.0.3 - RELEASE   -
|  1> ! RI PBE def2-SVP def2-SVP/J NBO PAL2
|  2> % maxcore 2000
|  3> % output
|  4>     # printlevel mini
|  5>     print[ P_Basis ] 0
|  6>     print[ P_SCFInfo ] 1
|  7>     print[ P_SCFIterInfo ] 1
|  8>     print[ P_OrbEn ] 0
|  9>     print[ P_Cartesian ] 0
| 10> end
| 11> *xyz 0 1
| 12>  C        3.0313100000     0.5584020000     1.1312920000
| 13>  C        2.6303380000     0.4512270000    -0.3294620000
| 14>  C        3.1816140000    -0.7924380000    -1.0316680000
| 15>  C        2.5188410000    -0.9954270000    -2.3978710000
| 16>  N        1.0892390000    -1.2297810000    -2.2626870000
| 17>  C        4.6662670000    -0.7169520000    -1.1938620000
| 18>  C        5.5477350000    -1.5603190000    -0.6751230000
| 19>  H        2.6235640000     1.4642540000     1.5860910000
| 20>  H        4.1172910000     0.5820670000     1.2513070000
| 21>  H        2.6560860000    -0.2951230000     1.7038130000
| 22>  H        2.9749450000     1.3387070000    -0.8754200000
| 23>  H        1.5416760000     0.4331490000    -0.4238250000
| 24>  H        2.9497870000    -1.6717100000    -0.4136150000
| 25>  H        3.0496070000    -1.8010910000    -2.9263820000
| 26>  H        2.6569390000    -0.0850340000    -2.9924520000
| 27>  H        0.9187990000    -2.1456550000    -1.8648230000
| 28>  H        0.6367140000    -1.2133370000    -3.1672820000
| 29>  H        5.0282130000     0.1173500000    -1.7961520000
| 30>  H        5.2339390000    -2.4016000000    -0.0642470000
| 31>  H        6.6130360000    -1.4421090000    -0.8378300000
| 32> *
| 33>
| 34>                          ****END OF INPUT****
 Total Charge           Charge          ....    0
 Multiplicity           Mult            ....    1
 Number of Electrons    NEL             ....   56
 Basis Dimension        Dim             ....  163

MULLIKEN ATOMIC CHARGES
-----------------------
   0 C :    0.007487
   1 C :   -0.016529
   2 C :   -0.078714
   3 C :    0.098671
   4 N :   -0.192009
   5 C :   -0.039200
   6 C :   -0.032006
   7 H :    0.014598
   8 H :    0.019738
   9 H :    0.010823
  10 H :   -0.003391
  11 H :    0.019494
  12 H :   -0.014408
  13 H :   -0.002225
  14 H :   -0.003870
  15 H :    0.086851
  16 H :    0.091314
  17 H :   -0.004562
  18 H :    0.014254
  19 H :    0.023684
Sum of atomic charges:   -0.0000000

LOEWDIN ATOMIC CHARGES
----------------------
   0 C :   -0.067866
   1 C :   -0.038937
   2 C :   -0.049704
   3 C :    0.014018
   4 N :   -0.103013
   5 C :   -0.017055
   6 C :   -0.069378
   7 H :    0.025585
   8 H :    0.023566
   9 H :    0.023069
  10 H :    0.019850
  11 H :    0.023374
  12 H :    0.022441
  13 H :    0.001588
  14 H :    0.019108
  15 H :    0.050922
  16 H :    0.054372
  17 H :    0.023720
  18 H :    0.020436
  19 H :    0.023904

  Mayer bond orders larger than 0.1
B(  0-C ,  1-C ) :   1.1170 B(  0-C ,  7-H ) :   0.9599 B(  0-C ,  8-H ) :   0.9612
B(  0-C ,  9-H ) :   0.9617 B(  1-C ,  2-C ) :   1.0382 B(  1-C , 10-H ) :   0.9330
B(  1-C , 11-H ) :   0.9203 B(  2-C ,  3-C ) :   1.0327 B(  2-C ,  5-C ) :   1.0196
B(  2-C , 12-H ) :   0.9060 B(  3-C ,  4-N ) :   1.1057 B(  3-C , 13-H ) :   0.9354
B(  3-C , 14-H ) :   0.9236 B(  4-N , 15-H ) :   0.9687 B(  4-N , 16-H ) :   0.9637
B(  5-C ,  6-C ) :   1.9996 B(  5-C , 17-H ) :   0.9507 B(  6-C , 18-H ) :   0.9460
B(  6-C , 19-H ) :   0.9407

FINAL SINGLE POINT ENERGY      -290.571348960249

DIPOLE MOMENT
-------------
                                X             Y             Z
Electronic contribution:      0.24976      -1.18143      -2.12357
Nuclear contribution   :     -0.37340       0.83074       1.72176
                        -----------------------------------------
Total Dipole Moment    :     -0.12364      -0.35069      -0.40181
                        -----------------------------------------
Magnitude (a.u.)       :      0.54747
Magnitude (Debye)      :      1.39156

                             ****ORCA TERMINATED NORMALLY****
TOTAL RUN TIME: 0 days 0 hours 0 minutes 8 seconds 714 msec
