                         Program Version 3.0.3 - RELEASE   -
|  1> ! RI PBE def2-SVP def2-SVP/J NBO PAL2
|  2> % maxcore 2000
|  3> % output
|  4>     # printlevel mini
|  5>     print[ P_Basis ] 0
|  6>     print[ P_SCFInfo ] 1
|  7>     print[ P_SCFIterInfo ] 1
|  8>     print[ P_OrbEn ] 0
|  9>     print[ P_Cartesian ] 0
| 10> end
| 11> *xyz 0 1
| 12>  C        2.9070450000    -1.2349740000     0.2189880000
| 13>  C        2.5892900000     0.2486640000     0.1938380000
| 14>  C        3.1227370000     0.9693140000    -1.0489680000
| 15>  C        2.5840830000     2.4037680000    -1.1557480000
| 16>  N        1.1438170000     2.3968980000    -1.3467740000
| 17>  C        4.5792280000     0.9777750000    -1.0850630000
| 18>  C        5.7802960000     1.0060420000    -1.0960340000
| 19>  H        2.5144350000    -1.7040310000     1.1239700000
| 20>  H        3.9849540000    -1.4117500000     0.1898480000
| 21>  H        2.4616930000    -1.7478720000    -0.6385490000
| 22>  H        3.0094020000     0.7373340000     1.0794700000
| 23>  H        1.5091540000     0.4116160000     0.2189540000
| 24>  H        2.7732920000     0.4203480000    -1.9357480000
| 25>  H        3.1370140000     2.9268740000    -1.9478130000
| 26>  H        2.8063050000     2.9236030000    -0.2191330000
| 27>  H        0.9099170000     2.1459160000    -2.2994770000
| 28>  H        0.7543180000     3.3144350000    -1.1776510000
| 29>  H        6.8441910000     1.0254990000    -1.1098580000
| 30> *
| 31>
| 32>                          ****END OF INPUT****
 Total Charge           Charge          ....    0
 Multiplicity           Mult            ....    1
 Number of Electrons    NEL             ....   54
 Basis Dimension        Dim             ....  153

MULLIKEN ATOMIC CHARGES
-----------------------
   0 C :    0.007748
   1 C :   -0.006841
   2 C :   -0.075845
   3 C :    0.089449
   4 N :   -0.188811
   5 C :    0.433395
   6 C :   -0.546264
   7 H :    0.017457
   8 H :    0.026269
   9 H :    0.010686
  10 H :    0.007056
  11 H :    0.020001
  12 H :    0.015963
  13 H :    0.007888
  14 H :    0.008135
  15 H :    0.088623
  16 H :    0.093311
  17 H :   -0.008220
Sum of atomic charges:   -0.0000000

LOEWDIN ATOMIC CHARGES
----------------------
   0 C :   -0.065774
   1 C :   -0.031406
   2 C :   -0.057571
   3 C :    0.021514
   4 N :   -0.101142
   5 C :   -0.008578
   6 C :   -0.098010
   7 H :    0.027130
   8 H :    0.027405
   9 H :    0.023622
  10 H :    0.024916
  11 H :    0.024694
  12 H :    0.041189
  13 H :    0.006638
  14 H :    0.024548
  15 H :    0.052314
  16 H :    0.056040
  17 H :    0.032471

  Mayer bond orders larger than 0.1
B(  0-C ,  1-C ) :   1.1179 B(  0-C ,  7-H ) :   0.9600 B(  0-C ,  8-H ) :   0.9622
B(  0-C ,  9-H ) :   0.9611 B(  1-C ,  2-C ) :   1.0434 B(  1-C , 10-H ) :   0.9312
B(  1-C , 11-H ) :   0.9212 B(  2-C ,  3-C ) :   1.0301 B(  2-C ,  5-C ) :   0.9823
B(  2-C , 12-H ) :   0.8729 B(  3-C ,  4-N ) :   1.1184 B(  3-C , 13-H ) :   0.9388
B(  3-C , 14-H ) :   0.9262 B(  4-N , 15-H ) :   0.9689 B(  4-N , 16-H ) :   0.9645
B(  5-C ,  6-C ) :   2.2765 B(  5-C , 17-H ) :  -0.1256 B(  6-C , 17-H ) :   1.1158

FINAL SINGLE POINT ENERGY      -289.329246391074

DIPOLE MOMENT
-------------
                                X             Y             Z
Electronic contribution:      3.41111       2.04885      -1.81096
Nuclear contribution   :     -3.70225      -1.61906       1.48719
                        -----------------------------------------
Total Dipole Moment    :     -0.29114       0.42979      -0.32377
                        -----------------------------------------
Magnitude (a.u.)       :      0.61181
Magnitude (Debye)      :      1.55509

                             ****ORCA TERMINATED NORMALLY****
TOTAL RUN TIME: 0 days 0 hours 0 minutes 8 seconds 338 msec
