                         Program Version 3.0.3 - RELEASE   -
|  1> ! RI PBE def2-SVP def2-SVP/J NBO PAL2
|  2> % maxcore 2000
|  3> % output
|  4>     # printlevel mini
|  5>     print[ P_Basis ] 0
|  6>     print[ P_SCFInfo ] 1
|  7>     print[ P_SCFIterInfo ] 1
|  8>     print[ P_OrbEn ] 0
|  9>     print[ P_Cartesian ] 0
| 10> end
| 11> *xyz 0 1
| 12>  C        1.0560400000     1.4405680000     0.7261530000
| 13>  C        2.4801600000     0.9884010000     0.4483830000
| 14>  C        3.4755240000     1.4995040000     1.4774350000
| 15>  C        4.9168760000     1.0322760000     1.2632270000
| 16>  N        5.5029040000     1.4295910000    -0.0117560000
| 17>  C        5.8167380000     1.5119950000     2.3976640000
| 18>  C        7.2039180000     0.8949890000     2.3821200000
| 19>  H        0.3602250000     1.0638230000    -0.0272080000
| 20>  H        0.9831680000     2.5318900000     0.7290840000
| 21>  H        0.7124560000     1.0868100000     1.7022110000
| 22>  H        2.7743600000     1.3270250000    -0.5512670000
| 23>  H        2.5187410000    -0.1075760000     0.4236990000
| 24>  H        3.1477460000     1.1829210000     2.4755760000
| 25>  H        3.4599440000     2.5984990000     1.4873670000
| 26>  H        4.9203940000    -0.0667550000     1.2745490000
| 27>  H        5.4419250000     2.4364770000    -0.1229660000
| 28>  H        5.0023920000     1.0158940000    -0.7875110000
| 29>  H        5.3225320000     1.2984990000     3.3513800000
| 30>  H        5.8943530000     2.6056760000     2.3361320000
| 31>  H        7.1508270000    -0.1882890000     2.5251360000
| 32>  H        7.8291680000     1.3039300000     3.1793510000
| 33>  H        7.6964100000     1.0789430000     1.4262420000
| 34> *
| 35>
| 36>                          ****END OF INPUT****
 Total Charge           Charge          ....    0
 Multiplicity           Mult            ....    1
 Number of Electrons    NEL             ....   58
 Basis Dimension        Dim             ....  173

MULLIKEN ATOMIC CHARGES
-----------------------
   0 C :   -0.013149
   1 C :   -0.027146
   2 C :    0.015627
   3 C :   -0.054385
   4 N :   -0.172400
   5 C :   -0.009809
   6 C :    0.013032
   7 H :    0.020141
   8 H :    0.020685
   9 H :    0.017300
  10 H :   -0.016581
  11 H :    0.011667
  12 H :   -0.007941
  13 H :   -0.006360
  14 H :   -0.002307
  15 H :    0.083786
  16 H :    0.084755
  17 H :    0.000030
  18 H :   -0.001600
  19 H :    0.009663
  20 H :    0.012600
  21 H :    0.022391
Sum of atomic charges:   -0.0000000

LOEWDIN ATOMIC CHARGES
----------------------
   0 C :   -0.067009
   1 C :   -0.052083
   2 C :   -0.055936
   3 C :   -0.002285
   4 N :   -0.086295
   5 C :   -0.046709
   6 C :   -0.068540
   7 H :    0.026507
   8 H :    0.025244
   9 H :    0.024470
  10 H :    0.010822
  11 H :    0.023247
  12 H :    0.021377
  13 H :    0.017632
  14 H :    0.019959
  15 H :    0.048663
  16 H :    0.047283
  17 H :    0.022003
  18 H :    0.020052
  19 H :    0.023433
  20 H :    0.023351
  21 H :    0.024815

  Mayer bond orders larger than 0.1
B(  0-C ,  1-C ) :   1.1209 B(  0-C ,  7-H ) :   0.9592 B(  0-C ,  8-H ) :   0.9649
B(  0-C ,  9-H ) :   0.9649 B(  1-C ,  2-C ) :   1.0927 B(  1-C , 10-H ) :   0.9172
B(  1-C , 11-H ) :   0.9366 B(  2-C ,  3-C ) :   1.0358 B(  2-C , 12-H ) :   0.9171
B(  2-C , 13-H ) :   0.9209 B(  3-C ,  4-N ) :   1.0825 B(  3-C ,  5-C ) :   1.0655
B(  3-C , 14-H ) :   0.9061 B(  4-N , 15-H ) :   0.9697 B(  4-N , 16-H ) :   0.9709
B(  5-C ,  6-C ) :   1.1204 B(  5-C , 17-H ) :   0.9341 B(  5-C , 18-H ) :   0.9249
B(  6-C , 19-H ) :   0.9608 B(  6-C , 20-H ) :   0.9588 B(  6-C , 21-H ) :   0.9546

FINAL SINGLE POINT ENERGY      -291.798964923070

DIPOLE MOMENT
-------------
                                X             Y             Z
Electronic contribution:      1.49891      -0.06759      -1.10040
Nuclear contribution   :     -1.94150       0.20539       0.99104
                        -----------------------------------------
Total Dipole Moment    :     -0.44259       0.13780      -0.10936
                        -----------------------------------------
Magnitude (a.u.)       :      0.47627
Magnitude (Debye)      :      1.21059

                             ****ORCA TERMINATED NORMALLY****
TOTAL RUN TIME: 0 days 0 hours 0 minutes 8 seconds 761 msec
