                         Program Version 3.0.3 - RELEASE   -
|  1> ! RI PBE def2-SVP def2-SVP/J NBO PAL2
|  2> % maxcore 2000
|  3> % output
|  4>     # printlevel mini
|  5>     print[ P_Basis ] 0
|  6>     print[ P_SCFInfo ] 1
|  7>     print[ P_SCFIterInfo ] 1
|  8>     print[ P_OrbEn ] 0
|  9>     print[ P_Cartesian ] 0
| 10> end
| 11> *xyz 0 1
| 12>  C        1.2021210000    -0.2581760000     0.9326280000
| 13>  C        2.5964690000    -0.6509840000     0.4733420000
| 14>  C        3.2321870000     0.3898030000    -0.4352440000
| 15>  C        4.6632220000     0.0600020000    -0.8529350000
| 16>  N        4.8318770000    -1.1944100000    -1.5821780000
| 17>  C        5.3277660000     1.1374920000    -1.6606490000
| 18>  C        4.8107710000     2.3049470000    -2.0174470000
| 19>  H        0.7625590000    -1.0211630000     1.5791950000
| 20>  H        0.5314720000    -0.1187320000     0.0800860000
| 21>  H        1.2209780000     0.6811530000     1.4922150000
| 22>  H        2.5432160000    -1.6144840000    -0.0454810000
| 23>  H        3.2392420000    -0.8085340000     1.3480260000
| 24>  H        3.2278760000     1.3559350000     0.0830030000
| 25>  H        2.6159650000     0.5173540000    -1.3345060000
| 26>  H        5.2581510000    -0.0496480000     0.0665950000
| 27>  H        4.2932310000    -1.1724880000    -2.4410730000
| 28>  H        4.4983590000    -1.9772150000    -1.0345420000
| 29>  H        6.3336500000     0.8782010000    -1.9829970000
| 30>  H        3.8089350000     2.6093830000    -1.7358440000
| 31>  H        5.3833510000     3.0088740000    -2.6104030000
| 32> *
| 33>
| 34>                          ****END OF INPUT****
 Total Charge           Charge          ....    0
 Multiplicity           Mult            ....    1
 Number of Electrons    NEL             ....   56
 Basis Dimension        Dim             ....  163

MULLIKEN ATOMIC CHARGES
-----------------------
   0 C :   -0.015161
   1 C :   -0.033534
   2 C :   -0.011763
   3 C :    0.039137
   4 N :   -0.186990
   5 C :   -0.050090
   6 C :   -0.034764
   7 H :    0.022605
   8 H :    0.018705
   9 H :    0.020740
  10 H :   -0.008206
  11 H :    0.007141
  12 H :    0.011702
  13 H :    0.004059
  14 H :    0.009615
  15 H :    0.085702
  16 H :    0.083628
  17 H :    0.001764
  18 H :    0.014004
  19 H :    0.021705
Sum of atomic charges:    0.0000000

LOEWDIN ATOMIC CHARGES
----------------------
   0 C :   -0.067951
   1 C :   -0.049261
   2 C :   -0.055077
   3 C :   -0.004303
   4 N :   -0.087732
   5 C :   -0.025871
   6 C :   -0.071419
   7 H :    0.026878
   8 H :    0.025621
   9 H :    0.025405
  10 H :    0.012977
  11 H :    0.022731
  12 H :    0.025078
  13 H :    0.019782
  14 H :    0.033168
  15 H :    0.050851
  16 H :    0.046401
  17 H :    0.027497
  18 H :    0.019523
  19 H :    0.025705

  Mayer bond orders larger than 0.1
B(  0-C ,  1-C ) :   1.1210 B(  0-C ,  7-H ) :   0.9604 B(  0-C ,  8-H ) :   0.9621
B(  0-C ,  9-H ) :   0.9642 B(  1-C ,  2-C ) :   1.0966 B(  1-C , 10-H ) :   0.9216
B(  1-C , 11-H ) :   0.9353 B(  2-C ,  3-C ) :   1.0500 B(  2-C , 12-H ) :   0.9099
B(  2-C , 13-H ) :   0.9130 B(  3-C ,  4-N ) :   1.0759 B(  3-C ,  5-C ) :   1.0210
B(  3-C , 14-H ) :   0.8797 B(  4-N , 15-H ) :   0.9695 B(  4-N , 16-H ) :   0.9706
B(  5-C ,  6-C ) :   1.9995 B(  5-C , 17-H ) :   0.9536 B(  6-C , 18-H ) :   0.9272
B(  6-C , 19-H ) :   0.9402

FINAL SINGLE POINT ENERGY      -290.572588592804

DIPOLE MOMENT
-------------
                                X             Y             Z
Electronic contribution:      4.52044       0.35214      -2.51081
Nuclear contribution   :     -4.96979      -0.49311       2.65783
                        -----------------------------------------
Total Dipole Moment    :     -0.44935      -0.14097       0.14702
                        -----------------------------------------
Magnitude (a.u.)       :      0.49336
Magnitude (Debye)      :      1.25403

                             ****ORCA TERMINATED NORMALLY****
TOTAL RUN TIME: 0 days 0 hours 0 minutes 8 seconds 628 msec
