                         Program Version 3.0.3 - RELEASE   -
|  1> ! RI PBE def2-SVP def2-SVP/J NBO PAL2
|  2> % maxcore 2000
|  3> % output
|  4>     # printlevel mini
|  5>     print[ P_Basis ] 0
|  6>     print[ P_SCFInfo ] 1
|  7>     print[ P_SCFIterInfo ] 1
|  8>     print[ P_OrbEn ] 0
|  9>     print[ P_Cartesian ] 0
| 10> end
| 11> *xyz 0 1
| 12>  C        1.0140330000    -0.1422460000     0.3315030000
| 13>  C        2.5124650000     0.1084650000     0.2948850000
| 14>  C        3.0911590000    -0.0318030000    -1.1020650000
| 15>  C        4.6093930000     0.2041140000    -1.2048490000
| 16>  N        5.0682280000     1.5382290000    -0.8313220000
| 17>  C        5.3468290000    -0.7977400000    -0.4374410000
| 18>  C        5.9282770000    -1.6320830000     0.2001770000
| 19>  H        0.6157290000    -0.0340480000     1.3428430000
| 20>  H        0.7749880000    -1.1521830000    -0.0129730000
| 21>  H        0.4778270000     0.5602400000    -0.3131220000
| 22>  H        3.0218820000    -0.5908330000     0.9658380000
| 23>  H        2.7199960000     1.1132010000     0.6792680000
| 24>  H        2.6018700000     0.6803400000    -1.7785310000
| 25>  H        2.8700860000    -1.0317310000    -1.4919640000
| 26>  H        4.8850510000     0.0613270000    -2.2573900000
| 27>  H        4.9544100000     1.6851620000     0.1639480000
| 28>  H        4.5123210000     2.2378160000    -1.3093670000
| 29>  H        6.4563570000    -2.3678370000     0.7591610000
| 30> *
| 31>
| 32>                          ****END OF INPUT****
 Total Charge           Charge          ....    0
 Multiplicity           Mult            ....    1
 Number of Electrons    NEL             ....   54
 Basis Dimension        Dim             ....  153

MULLIKEN ATOMIC CHARGES
-----------------------
   0 C :    0.001477
   1 C :   -0.049849
   2 C :    0.016332
   3 C :    0.049799
   4 N :   -0.168044
   5 C :    0.389584
   6 C :   -0.513735
   7 H :    0.018415
   8 H :    0.016328
   9 H :    0.016051
  10 H :    0.024717
  11 H :   -0.013810
  12 H :    0.000741
  13 H :    0.009132
  14 H :    0.022812
  15 H :    0.095446
  16 H :    0.087778
  17 H :   -0.003172
Sum of atomic charges:   -0.0000000

LOEWDIN ATOMIC CHARGES
----------------------
   0 C :   -0.063320
   1 C :   -0.051394
   2 C :   -0.044458
   3 C :   -0.006584
   4 N :   -0.081931
   5 C :   -0.013520
   6 C :   -0.085481
   7 H :    0.026536
   8 H :    0.024901
   9 H :    0.023673
  10 H :    0.029104
  11 H :    0.012458
  12 H :    0.019850
  13 H :    0.027477
  14 H :    0.044424
  15 H :    0.051482
  16 H :    0.052373
  17 H :    0.034409

  Mayer bond orders larger than 0.1
B(  0-C ,  1-C ) :   1.1195 B(  0-C ,  7-H ) :   0.9625 B(  0-C ,  8-H ) :   0.9650
B(  0-C ,  9-H ) :   0.9647 B(  1-C ,  2-C ) :   1.0735 B(  1-C , 10-H ) :   0.9372
B(  1-C , 11-H ) :   0.9259 B(  2-C ,  3-C ) :   1.0269 B(  2-C , 12-H ) :   0.9232
B(  2-C , 13-H ) :   0.9216 B(  3-C ,  4-N ) :   1.1021 B(  3-C ,  5-C ) :   1.0014
B(  3-C , 14-H ) :   0.8664 B(  4-N , 15-H ) :   0.9673 B(  4-N , 16-H ) :   0.9654
B(  5-C ,  6-C ) :   2.3193 B(  5-C , 17-H ) :  -0.1180 B(  6-C , 17-H ) :   1.1080

FINAL SINGLE POINT ENERGY      -289.327086346288

DIPOLE MOMENT
-------------
                                X             Y             Z
Electronic contribution:      7.49575      -1.46275      -0.93189
Nuclear contribution   :     -8.07387       1.60865       0.97797
                        -----------------------------------------
Total Dipole Moment    :     -0.57811       0.14589       0.04608
                        -----------------------------------------
Magnitude (a.u.)       :      0.59802
Magnitude (Debye)      :      1.52004

                             ****ORCA TERMINATED NORMALLY****
TOTAL RUN TIME: 0 days 0 hours 0 minutes 8 seconds 318 msec
