                         Program Version 3.0.3 - RELEASE   -
|  1> ! RI PBE def2-SVP def2-SVP/J NBO PAL2
|  2> % maxcore 2000
|  3> % output
|  4>     # printlevel mini
|  5>     print[ P_Basis ] 0
|  6>     print[ P_SCFInfo ] 1
|  7>     print[ P_SCFIterInfo ] 1
|  8>     print[ P_OrbEn ] 0
|  9>     print[ P_Cartesian ] 0
| 10> end
| 11> *xyz 0 1
| 12>  C        0.9940210000     1.2090750000     3.1902030000
| 13>  C        2.4902610000     0.9556910000     3.1223830000
| 14>  C        2.8758300000    -0.0030980000     2.0069690000
| 15>  C        4.3705030000    -0.2611590000     1.9029290000
| 16>  N        4.9663580000    -0.8175990000     3.1030430000
| 17>  C        4.5025160000    -2.1550820000     3.3848370000
| 18>  C        6.4070370000    -0.7800390000     3.0316660000
| 19>  H        0.7408800000     1.9036020000     3.9946810000
| 20>  H        0.4439150000     0.2807360000     3.3701270000
| 21>  H        0.6195720000     1.6348180000     2.2545200000
| 22>  H        2.8500950000     0.5592620000     4.0761060000
| 23>  H        3.0193670000     1.9048000000     2.9751310000
| 24>  H        2.5427060000     0.4012510000     1.0439480000
| 25>  H        2.3335870000    -0.9475950000     2.1296130000
| 26>  H        4.8745290000     0.6907340000     1.7030630000
| 27>  H        4.5683820000    -0.9108160000     1.0271360000
| 28>  H        3.4232830000    -2.1661980000     3.5448070000
| 29>  H        4.9761570000    -2.5220860000     4.2980570000
| 30>  H        4.7352190000    -2.8673820000     2.5704130000
| 31>  H        6.7471190000     0.2471820000     2.8816510000
| 32>  H        6.8137260000    -1.3976460000     2.2085880000
| 33>  H        6.8358180000    -1.1458330000     3.9677270000
| 34> *
| 35>
| 36>                          ****END OF INPUT****
 Total Charge           Charge          ....    0
 Multiplicity           Mult            ....    1
 Number of Electrons    NEL             ....   58
 Basis Dimension        Dim             ....  173

MULLIKEN ATOMIC CHARGES
-----------------------
   0 C :   -0.002915
   1 C :   -0.034998
   2 C :   -0.026004
   3 C :    0.126357
   4 N :   -0.346213
   5 C :    0.097459
   6 C :    0.108274
   7 H :    0.019345
   8 H :    0.012386
   9 H :    0.012529
  10 H :    0.012996
  11 H :    0.001550
  12 H :   -0.000232
  13 H :    0.005356
  14 H :   -0.006884
  15 H :   -0.021904
  16 H :    0.026902
  17 H :    0.014016
  18 H :   -0.013870
  19 H :    0.016909
  20 H :   -0.017189
  21 H :    0.016132
Sum of atomic charges:   -0.0000000

LOEWDIN ATOMIC CHARGES
----------------------
   0 C :   -0.067609
   1 C :   -0.045859
   2 C :   -0.050318
   3 C :    0.018179
   4 N :   -0.112896
   5 C :    0.001317
   6 C :    0.003864
   7 H :    0.025786
   8 H :    0.022971
   9 H :    0.022146
  10 H :    0.022731
  11 H :    0.022167
  12 H :    0.026132
  13 H :    0.019247
  14 H :    0.019263
  15 H :   -0.003832
  16 H :    0.020408
  17 H :    0.022241
  18 H :   -0.002978
  19 H :    0.020664
  20 H :   -0.003964
  21 H :    0.020340

  Mayer bond orders larger than 0.1
B(  0-C ,  1-C ) :   1.1176 B(  0-C ,  7-H ) :   0.9632 B(  0-C ,  8-H ) :   0.9628
B(  0-C ,  9-H ) :   0.9646 B(  1-C ,  2-C ) :   1.0897 B(  1-C , 10-H ) :   0.9349
B(  1-C , 11-H ) :   0.9363 B(  2-C ,  3-C ) :   1.0943 B(  2-C , 12-H ) :   0.9221
B(  2-C , 13-H ) :   0.9265 B(  3-C ,  4-N ) :   1.0276 B(  3-C , 14-H ) :   0.9249
B(  3-C , 15-H ) :   0.9117 B(  4-N ,  5-C ) :   1.0329 B(  4-N ,  6-C ) :   1.0402
B(  5-C , 16-H ) :   0.9640 B(  5-C , 17-H ) :   0.9639 B(  5-C , 18-H ) :   0.9341
B(  6-C , 19-H ) :   0.9664 B(  6-C , 20-H ) :   0.9353 B(  6-C , 21-H ) :   0.9672

FINAL SINGLE POINT ENERGY      -291.782328193029

DIPOLE MOMENT
-------------
                                X             Y             Z
Electronic contribution:      1.59638       0.04536       0.19697
Nuclear contribution   :     -1.50584      -0.14165      -0.28345
                        -----------------------------------------
Total Dipole Moment    :      0.09054      -0.09629      -0.08648
                        -----------------------------------------
Magnitude (a.u.)       :      0.15795
Magnitude (Debye)      :      0.40147

                             ****ORCA TERMINATED NORMALLY****
TOTAL RUN TIME: 0 days 0 hours 0 minutes 9 seconds 725 msec
