                         Program Version 3.0.3 - RELEASE   -
|  1> ! RI PBE def2-SVP def2-SVP/J NBO PAL2
|  2> % maxcore 2000
|  3> % output
|  4>     # printlevel mini
|  5>     print[ P_Basis ] 0
|  6>     print[ P_SCFInfo ] 1
|  7>     print[ P_SCFIterInfo ] 1
|  8>     print[ P_OrbEn ] 0
|  9>     print[ P_Cartesian ] 0
| 10> end
| 11> *xyz 0 1
| 12>  C        0.9927860000     0.1741660000    -0.2041490000
| 13>  C        2.3003830000     0.0311010000    -0.0065680000
| 14>  C        2.9692530000     0.3149620000     1.3187550000
| 15>  C        3.5086530000    -0.8837480000     1.9477500000
| 16>  N        3.9238700000    -1.8287400000     2.4518120000
| 17>  C        3.1543580000    -0.3858990000    -1.0743820000
| 18>  N        3.8656300000    -0.7044080000    -1.9219030000
| 19>  H        0.3412090000     0.4925510000     0.6009040000
| 20>  H        0.5456290000    -0.0242490000    -1.1696150000
| 21>  H        2.2461470000     0.7703870000     1.9988810000
| 22>  H        3.7880830000     1.0282660000     1.1816240000
| 23> *
| 24>
| 25>                          ****END OF INPUT****
 Total Charge           Charge          ....    0
 Multiplicity           Mult            ....    1
 Number of Electrons    NEL             ....   48
 Basis Dimension        Dim             ....  118

MULLIKEN ATOMIC CHARGES
-----------------------
   0 C :    0.056243
   1 C :   -0.259662
   2 C :    0.184217
   3 C :   -0.270147
   4 N :    0.069658
   5 C :   -0.103362
   6 N :    0.089806
   7 H :    0.043076
   8 H :    0.053624
   9 H :    0.052016
  10 H :    0.084531
Sum of atomic charges:   -0.0000000

LOEWDIN ATOMIC CHARGES
----------------------
   0 C :    0.018331
   1 C :   -0.059227
   2 C :   -0.034996
   3 C :   -0.042761
   4 N :   -0.041590
   5 C :   -0.034623
   6 N :   -0.029419
   7 H :    0.037514
   8 H :    0.045463
   9 H :    0.066617
  10 H :    0.074693

  Mayer bond orders larger than 0.1
B(  0-C ,  1-C ) :   1.9589 B(  0-C ,  6-N ) :   0.1129 B(  0-C ,  7-H ) :   0.9266
B(  0-C ,  8-H ) :   0.9360 B(  1-C ,  2-C ) :   1.0400 B(  1-C ,  5-C ) :   1.0992
B(  2-C ,  3-C ) :   1.1078 B(  2-C ,  9-H ) :   0.8662 B(  2-C , 10-H ) :   0.8850
B(  3-C ,  4-N ) :   3.0593 B(  5-C ,  6-N ) :   2.9992

FINAL SINGLE POINT ENERGY      -301.779832512488

DIPOLE MOMENT
-------------
                                X             Y             Z
Electronic contribution:      3.16363      -2.36750      -0.72120
Nuclear contribution   :     -4.55191       3.83728       1.06980
                        -----------------------------------------
Total Dipole Moment    :     -1.38829       1.46978       0.34860
                        -----------------------------------------
Magnitude (a.u.)       :      2.05161
Magnitude (Debye)      :      5.21478

                             ****ORCA TERMINATED NORMALLY****
TOTAL RUN TIME: 0 days 0 hours 0 minutes 5 seconds 713 msec
