                         Program Version 3.0.3 - RELEASE   -
|  1> ! RI PBE def2-SVP def2-SVP/J NBO PAL2
|  2> % maxcore 2000
|  3> % output
|  4>     # printlevel mini
|  5>     print[ P_Basis ] 0
|  6>     print[ P_SCFInfo ] 1
|  7>     print[ P_SCFIterInfo ] 1
|  8>     print[ P_OrbEn ] 0
|  9>     print[ P_Cartesian ] 0
| 10> end
| 11> *xyz 0 1
| 12>  C        1.1858990000    -0.3132830000     0.2138950000
| 13>  C        2.4942290000    -0.0986470000     0.0591070000
| 14>  C        3.0818440000     1.1499850000    -0.3546140000
| 15>  C        4.4040570000     1.3212940000    -0.4973870000
| 16>  N        5.0074340000     2.4921020000    -0.8887610000
| 17>  C        6.3599740000     2.7035630000    -1.0462650000
| 18>  N        7.3348290000     1.9135330000    -0.8790540000
| 19>  H        0.8051820000    -1.2766460000     0.5280410000
| 20>  H        0.4581440000     0.4704680000     0.0302220000
| 21>  H        3.1877270000    -0.9145680000     0.2547690000
| 22>  H        2.4067010000     1.9797620000    -0.5557110000
| 23>  H        5.0826250000     0.4993960000    -0.2988970000
| 24>  H        4.4069880000     3.2768110000    -1.0809400000
| 25>  H        6.5706320000     3.7254890000    -1.3654590000
| 26>  H        7.0498140000     0.9826410000    -0.5819470000
| 27> *
| 28>
| 29>                          ****END OF INPUT****
 Total Charge           Charge          ....    0
 Multiplicity           Mult            ....    1
 Number of Electrons    NEL             ....   52
 Basis Dimension        Dim             ....  138

MULLIKEN ATOMIC CHARGES
-----------------------
   0 C :   -0.047104
   1 C :   -0.015275
   2 C :   -0.012857
   3 C :    0.042421
   4 N :   -0.037192
   5 C :   -0.012523
   6 N :   -0.134317
   7 H :    0.021776
   8 H :    0.013892
   9 H :   -0.006987
  10 H :   -0.021158
  11 H :   -0.008114
  12 H :    0.120323
  13 H :    0.013858
  14 H :    0.083257
Sum of atomic charges:   -0.0000000

LOEWDIN ATOMIC CHARGES
----------------------
   0 C :   -0.073112
   1 C :   -0.033493
   2 C :   -0.078851
   3 C :    0.010002
   4 N :    0.036008
   5 C :    0.017350
   6 N :   -0.144569
   7 H :    0.024421
   8 H :    0.020884
   9 H :    0.029062
  10 H :    0.025244
  11 H :    0.022609
  12 H :    0.086272
  13 H :    0.017017
  14 H :    0.041157

  Mayer bond orders larger than 0.1
B(  0-C ,  1-C ) :   1.8675 B(  0-C ,  3-C ) :   0.1215 B(  0-C ,  7-H ) :   0.9416
B(  0-C ,  8-H ) :   0.9479 B(  1-C ,  2-C ) :   1.1711 B(  1-C ,  9-H ) :   0.9607
B(  2-C ,  3-C ) :   1.6717 B(  2-C , 10-H ) :   0.9611 B(  3-C ,  4-N ) :   1.1456
B(  3-C , 11-H ) :   0.9402 B(  4-N ,  5-C ) :   1.1105 B(  4-N , 12-H ) :   0.9199
B(  5-C ,  6-N ) :   2.0168 B(  5-C , 13-H ) :   0.9418 B(  6-N , 14-H ) :   0.9545

FINAL SINGLE POINT ENERGY      -304.195446191163

DIPOLE MOMENT
-------------
                                X             Y             Z
Electronic contribution:      3.37588       2.11821      -0.86709
Nuclear contribution   :     -4.15465      -1.75988       0.81446
                        -----------------------------------------
Total Dipole Moment    :     -0.77878       0.35832      -0.05262
                        -----------------------------------------
Magnitude (a.u.)       :      0.85887
Magnitude (Debye)      :      2.18307

                             ****ORCA TERMINATED NORMALLY****
TOTAL RUN TIME: 0 days 0 hours 0 minutes 6 seconds 727 msec
