                         Program Version 3.0.3 - RELEASE   -
|  1> ! RI PBE def2-SVP def2-SVP/J NBO PAL2
|  2> % maxcore 2000
|  3> % output
|  4>     # printlevel mini
|  5>     print[ P_Basis ] 0
|  6>     print[ P_SCFInfo ] 1
|  7>     print[ P_SCFIterInfo ] 1
|  8>     print[ P_OrbEn ] 0
|  9>     print[ P_Cartesian ] 0
| 10> end
| 11> *xyz 0 1
| 12>  C        1.3105670000    -0.0225150000     0.3966060000
| 13>  C        2.5319890000    -0.1175150000    -0.1163510000
| 14>  C        3.0612860000     0.7551350000    -1.1755420000
| 15>  C        2.3221200000     1.1340880000    -2.2253080000
| 16>  N        4.3921710000     1.1265420000    -0.9800780000
| 17>  C        5.3705310000     1.3520350000    -1.9273480000
| 18>  N        5.3293010000     1.2625120000    -3.1879770000
| 19>  H        0.9671900000    -0.7106600000     1.1595550000
| 20>  H        0.6207180000     0.7481290000     0.0704850000
| 21>  H        3.2182960000    -0.8719930000     0.2640860000
| 22>  H        1.3258250000     0.7323020000    -2.3445960000
| 23>  H        2.6726240000     1.8459680000    -2.9594970000
| 24>  H        4.7141850000     1.1101130000    -0.0271340000
| 25>  H        6.3135630000     1.6381990000    -1.4564230000
| 26>  H        4.4135260000     0.9662490000    -3.5188580000
| 27> *
| 28>
| 29>                          ****END OF INPUT****
 Total Charge           Charge          ....    0
 Multiplicity           Mult            ....    1
 Number of Electrons    NEL             ....   52
 Basis Dimension        Dim             ....  138

MULLIKEN ATOMIC CHARGES
-----------------------
   0 C :   -0.019630
   1 C :   -0.051431
   2 C :    0.020953
   3 C :   -0.080084
   4 N :   -0.063283
   5 C :   -0.012240
   6 N :   -0.136129
   7 H :    0.035288
   8 H :    0.035014
   9 H :    0.010841
  10 H :    0.021814
  11 H :    0.035316
  12 H :    0.114501
  13 H :    0.009937
  14 H :    0.079134
Sum of atomic charges:   -0.0000000

LOEWDIN ATOMIC CHARGES
----------------------
   0 C :   -0.029631
   1 C :   -0.043284
   2 C :   -0.001612
   3 C :   -0.097249
   4 N :    0.016210
   5 C :    0.021113
   6 N :   -0.144479
   7 H :    0.029793
   8 H :    0.028845
   9 H :    0.029827
  10 H :    0.029946
  11 H :    0.025934
  12 H :    0.079602
  13 H :    0.014638
  14 H :    0.040347

  Mayer bond orders larger than 0.1
B(  0-C ,  1-C ) :   1.9596 B(  0-C ,  7-H ) :   0.9425 B(  0-C ,  8-H ) :   0.9492
B(  1-C ,  2-C ) :   1.0378 B(  1-C ,  9-H ) :   0.9455 B(  2-C ,  3-C ) :   1.8642
B(  2-C ,  4-N ) :   1.0772 B(  3-C , 10-H ) :   0.9254 B(  3-C , 11-H ) :   0.9317
B(  4-N ,  5-C ) :   1.1173 B(  4-N , 12-H ) :   0.9191 B(  5-C ,  6-N ) :   2.0165
B(  5-C , 13-H ) :   0.9397 B(  6-N , 14-H ) :   0.9437

FINAL SINGLE POINT ENERGY      -304.182930695548

DIPOLE MOMENT
-------------
                                X             Y             Z
Electronic contribution:      2.92851       0.60255      -0.54632
Nuclear contribution   :     -3.46489      -0.82502       1.70936
                        -----------------------------------------
Total Dipole Moment    :     -0.53639      -0.22246       1.16303
                        -----------------------------------------
Magnitude (a.u.)       :      1.29994
Magnitude (Debye)      :      3.30418

                             ****ORCA TERMINATED NORMALLY****
TOTAL RUN TIME: 0 days 0 hours 0 minutes 6 seconds 921 msec
