                         Program Version 3.0.3 - RELEASE   -
|  1> ! RI PBE def2-SVP def2-SVP/J NBO PAL2
|  2> % maxcore 2000
|  3> % output
|  4>     # printlevel mini
|  5>     print[ P_Basis ] 0
|  6>     print[ P_SCFInfo ] 1
|  7>     print[ P_SCFIterInfo ] 1
|  8>     print[ P_OrbEn ] 0
|  9>     print[ P_Cartesian ] 0
| 10> end
| 11> *xyz 0 1
| 12>  C        1.5015720000     0.8562560000     0.5132250000
| 13>  C        2.3369390000     0.0330030000    -0.0942490000
| 14>  C        3.1083190000    -1.0388110000     0.6473340000
| 15>  C        2.7505020000    -2.3762520000     0.1643750000
| 16>  N        2.4357530000    -3.4120780000    -0.2179850000
| 17>  C        4.5541520000    -0.8236080000     0.5325750000
| 18>  N        5.6803560000    -0.6187300000     0.4438920000
| 19>  H        0.9633900000     1.6132740000    -0.0437650000
| 20>  H        1.3225900000     0.8083290000     1.5823380000
| 21>  H        2.5145250000     0.0826090000    -1.1631500000
| 22>  H        2.8516920000    -0.9931920000     1.7121010000
| 23> *
| 24>
| 25>                          ****END OF INPUT****
 Total Charge           Charge          ....    0
 Multiplicity           Mult            ....    1
 Number of Electrons    NEL             ....   48
 Basis Dimension        Dim             ....  118

MULLIKEN ATOMIC CHARGES
-----------------------
   0 C :   -0.008090
   1 C :   -0.012347
   2 C :   -0.000248
   3 C :   -0.196249
   4 N :    0.090559
   5 C :   -0.194701
   6 N :    0.090570
   7 H :    0.054486
   8 H :    0.042648
   9 H :    0.046641
  10 H :    0.086730
Sum of atomic charges:    0.0000000

LOEWDIN ATOMIC CHARGES
----------------------
   0 C :   -0.020068
   1 C :   -0.005087
   2 C :   -0.067776
   3 C :   -0.027391
   4 N :   -0.028310
   5 C :   -0.026907
   6 N :   -0.028420
   7 H :    0.040913
   8 H :    0.032974
   9 H :    0.044025
  10 H :    0.086046

  Mayer bond orders larger than 0.1
B(  0-C ,  1-C ) :   2.0076 B(  0-C ,  7-H ) :   0.9444 B(  0-C ,  8-H ) :   0.9483
B(  1-C ,  2-C ) :   1.0507 B(  1-C ,  9-H ) :   0.9500 B(  2-C ,  3-C ) :   1.0369
B(  2-C ,  5-C ) :   1.0360 B(  2-C , 10-H ) :   0.8482 B(  3-C ,  4-N ) :   3.0815
B(  5-C ,  6-N ) :   3.0823

FINAL SINGLE POINT ENERGY      -301.764758177348

DIPOLE MOMENT
-------------
                                X             Y             Z
Electronic contribution:      3.65963      -4.15202      -0.39955
Nuclear contribution   :     -4.73212       5.28439       0.87895
                        -----------------------------------------
Total Dipole Moment    :     -1.07249       1.13236       0.47940
                        -----------------------------------------
Magnitude (a.u.)       :      1.63166
Magnitude (Debye)      :      4.14734

                             ****ORCA TERMINATED NORMALLY****
TOTAL RUN TIME: 0 days 0 hours 0 minutes 5 seconds 342 msec
