                         Program Version 3.0.3 - RELEASE   -
|  1> ! RI PBE def2-SVP def2-SVP/J NBO PAL2
|  2> % maxcore 2000
|  3> % output
|  4>     # printlevel mini
|  5>     print[ P_Basis ] 0
|  6>     print[ P_SCFInfo ] 1
|  7>     print[ P_SCFIterInfo ] 1
|  8>     print[ P_OrbEn ] 0
|  9>     print[ P_Cartesian ] 0
| 10> end
| 11> *xyz 0 1
| 12>  C        2.1371870000     3.3847290000    -0.6407740000
| 13>  C        2.6432500000     2.2975620000    -0.0732780000
| 14>  C        3.0719690000     1.0704020000    -0.8083580000
| 15>  C        4.5578850000     0.7760390000    -0.6353840000
| 16>  N        5.3497450000     1.8671030000    -1.1356750000
| 17>  C        6.7118680000     1.8315570000    -1.1735080000
| 18>  N        7.4972410000     0.8601340000    -0.9357070000
| 19>  H        1.8482810000     4.2496110000    -0.0549310000
| 20>  H        1.9793270000     3.4411190000    -1.7138470000
| 21>  H        2.7824140000     2.2808720000     1.0070240000
| 22>  H        2.8420060000     1.1734970000    -1.8729290000
| 23>  H        2.5144110000     0.2042740000    -0.4361330000
| 24>  H        4.8085910000    -0.1354840000    -1.1883140000
| 25>  H        4.7778500000     0.5772860000     0.4246340000
| 26>  H        4.9111020000     2.7741290000    -1.1319300000
| 27>  H        7.1481810000     2.7853170000    -1.4787610000
| 28>  H        6.9911920000     0.0227620000    -0.6514310000
| 29> *
| 30>
| 31>                          ****END OF INPUT****
 Total Charge           Charge          ....    0
 Multiplicity           Mult            ....    1
 Number of Electrons    NEL             ....   54
 Basis Dimension        Dim             ....  148

MULLIKEN ATOMIC CHARGES
-----------------------
   0 C :   -0.027934
   1 C :   -0.124861
   2 C :    0.041331
   3 C :    0.082465
   4 N :   -0.151769
   5 C :   -0.008942
   6 N :   -0.167036
   7 H :    0.032434
   8 H :    0.025410
   9 H :    0.016714
  10 H :    0.019510
  11 H :    0.031370
  12 H :    0.024249
  13 H :    0.020949
  14 H :    0.113745
  15 H :    0.002486
  16 H :    0.069880
Sum of atomic charges:   -0.0000000

LOEWDIN ATOMIC CHARGES
----------------------
   0 C :   -0.061081
   1 C :   -0.037105
   2 C :   -0.042645
   3 C :    0.021793
   4 N :   -0.024933
   5 C :    0.009723
   6 N :   -0.174960
   7 H :    0.028184
   8 H :    0.024075
   9 H :    0.029583
  10 H :    0.032166
  11 H :    0.043302
  12 H :    0.023306
  13 H :    0.014138
  14 H :    0.068342
  15 H :    0.012053
  16 H :    0.034061

  Mayer bond orders larger than 0.1
B(  0-C ,  1-C ) :   1.9883 B(  0-C ,  7-H ) :   0.9453 B(  0-C ,  8-H ) :   0.9494
B(  1-C ,  2-C ) :   1.0644 B(  1-C ,  9-H ) :   0.9561 B(  2-C ,  3-C ) :   1.0738
B(  2-C , 10-H ) :   0.9315 B(  2-C , 11-H ) :   0.9090 B(  3-C ,  4-N ) :   1.0139
B(  3-C , 12-H ) :   0.9236 B(  3-C , 13-H ) :   0.9290 B(  4-N ,  5-C ) :   1.1849
B(  4-N ,  6-N ) :   0.1108 B(  4-N , 14-H ) :   0.9209 B(  5-C ,  6-N ) :   1.9768
B(  5-C , 15-H ) :   0.9433 B(  6-N , 16-H ) :   0.9526

FINAL SINGLE POINT ENERGY      -305.395984733449

DIPOLE MOMENT
-------------
                                X             Y             Z
Electronic contribution:      3.49193       0.03333      -0.45710
Nuclear contribution   :     -4.95361       0.22353       0.62103
                        -----------------------------------------
Total Dipole Moment    :     -1.46168       0.25687       0.16393
                        -----------------------------------------
Magnitude (a.u.)       :      1.49310
Magnitude (Debye)      :      3.79517

                             ****ORCA TERMINATED NORMALLY****
TOTAL RUN TIME: 0 days 0 hours 0 minutes 7 seconds 635 msec
