                         Program Version 3.0.3 - RELEASE   -
|  1> ! RI PBE def2-SVP def2-SVP/J NBO PAL2
|  2> % maxcore 2000
|  3> % output
|  4>     # printlevel mini
|  5>     print[ P_Basis ] 0
|  6>     print[ P_SCFInfo ] 1
|  7>     print[ P_SCFIterInfo ] 1
|  8>     print[ P_OrbEn ] 0
|  9>     print[ P_Cartesian ] 0
| 10> end
| 11> *xyz 0 1
| 12>  C        0.9196620000     0.0431540000    -0.0674100000
| 13>  C        2.1146770000     0.0822770000    -0.0732200000
| 14>  C        3.5760280000     0.1152660000    -0.0781080000
| 15>  C        4.1064840000     0.5766130000    -1.3688890000
| 16>  N        4.5241370000     0.9105190000    -2.3838900000
| 17>  C        4.1063700000     0.9319670000     1.0228430000
| 18>  N        4.5239440000     1.5465540000     1.8969550000
| 19>  H       -0.1453500000     0.0130440000    -0.0627790000
| 20>  H        3.9530480000    -0.9064040000     0.0736990000
| 21> *
| 22>
| 23>                          ****END OF INPUT****
 Total Charge           Charge          ....    0
 Multiplicity           Mult            ....    1
 Number of Electrons    NEL             ....   46
 Basis Dimension        Dim             ....  108

MULLIKEN ATOMIC CHARGES
-----------------------
   0 C :   -0.433415
   1 C :    0.385013
   2 C :    0.134979
   3 C :   -0.209467
   4 N :    0.097175
   5 C :   -0.207578
   6 N :    0.097566
   7 H :    0.024627
   8 H :    0.111101
Sum of atomic charges:   -0.0000000

LOEWDIN ATOMIC CHARGES
----------------------
   0 C :   -0.003722
   1 C :   -0.016934
   2 C :   -0.062597
   3 C :   -0.020525
   4 N :   -0.014797
   5 C :   -0.020416
   6 N :   -0.014864
   7 H :    0.048367
   8 H :    0.105489

  Mayer bond orders larger than 0.1
B(  0-C ,  1-C ) :   2.3761 B(  0-C ,  7-H ) :   1.1055 B(  1-C ,  2-C ) :   1.0037
B(  1-C ,  7-H ) :  -0.1154 B(  2-C ,  3-C ) :   1.0186 B(  2-C ,  5-C ) :   1.0173
B(  2-C ,  8-H ) :   0.8230 B(  3-C ,  4-N ) :   3.0833 B(  5-C ,  6-N ) :   3.0832

FINAL SINGLE POINT ENERGY      -300.510043768517

DIPOLE MOMENT
-------------
                                X             Y             Z
Electronic contribution:      1.84095       0.89886      -0.13461
Nuclear contribution   :     -2.84369      -1.96698       0.29235
                        -----------------------------------------
Total Dipole Moment    :     -1.00274      -1.06812       0.15774
                        -----------------------------------------
Magnitude (a.u.)       :      1.47351
Magnitude (Debye)      :      3.74537

                             ****ORCA TERMINATED NORMALLY****
TOTAL RUN TIME: 0 days 0 hours 0 minutes 4 seconds 919 msec
