                         Program Version 3.0.3 - RELEASE   -
|  1> ! RI PBE def2-SVP def2-SVP/J NBO PAL2
|  2> % maxcore 2000
|  3> % output
|  4>     # printlevel mini
|  5>     print[ P_Basis ] 0
|  6>     print[ P_SCFInfo ] 1
|  7>     print[ P_SCFIterInfo ] 1
|  8>     print[ P_OrbEn ] 0
|  9>     print[ P_Cartesian ] 0
| 10> end
| 11> *xyz 0 1
| 12>  C        1.0218880000     0.1132690000    -0.4025460000
| 13>  C        2.4551000000    -0.0617270000    -0.0036470000
| 14>  C        2.8943270000    -0.3644460000     1.2237760000
| 15>  C        1.9896640000    -0.5740090000     2.3918050000
| 16>  N        4.2635390000    -0.4991360000     1.4609120000
| 17>  C        4.8864140000    -0.8018230000     2.6392160000
| 18>  N        6.1329610000    -0.9249080000     2.8571020000
| 19>  H        0.9519140000     0.3564750000    -1.4633670000
| 20>  H        0.5295890000     0.9248660000     0.1426280000
| 21>  H        0.4276210000    -0.7923110000    -0.2443290000
| 22>  H        3.1993850000     0.0703540000    -0.7856770000
| 23>  H        0.9520230000    -0.4447820000     2.0922370000
| 24>  H        2.2015920000     0.1378460000     3.1951120000
| 25>  H        2.0994650000    -1.5799060000     2.8078240000
| 26>  H        4.8636340000    -0.3547580000     0.6626800000
| 27>  H        4.2037400000    -0.9495080000     3.4737450000
| 28>  H        6.6843550000    -0.7671770000     2.0126180000
| 29> *
| 30>
| 31>                          ****END OF INPUT****
 Total Charge           Charge          ....    0
 Multiplicity           Mult            ....    1
 Number of Electrons    NEL             ....   54
 Basis Dimension        Dim             ....  148

MULLIKEN ATOMIC CHARGES
-----------------------
   0 C :    0.017526
   1 C :   -0.155889
   2 C :   -0.065503
   3 C :    0.053835
   4 N :   -0.041442
   5 C :   -0.041459
   6 N :   -0.137613
   7 H :    0.019012
   8 H :    0.038427
   9 H :    0.039378
  10 H :   -0.022307
  11 H :    0.020335
  12 H :    0.049680
  13 H :    0.045517
  14 H :    0.097480
  15 H :    0.015110
  16 H :    0.067911
Sum of atomic charges:   -0.0000000

LOEWDIN ATOMIC CHARGES
----------------------
   0 C :   -0.070873
   1 C :   -0.112430
   2 C :   -0.002350
   3 C :   -0.061112
   4 N :    0.030417
   5 C :    0.011445
   6 N :   -0.166306
   7 H :    0.034518
   8 H :    0.033441
   9 H :    0.033645
  10 H :    0.017673
  11 H :    0.039500
  12 H :    0.042012
  13 H :    0.041248
  14 H :    0.074490
  15 H :    0.017641
  16 H :    0.037041

  Mayer bond orders larger than 0.1
B(  0-C ,  1-C ) :   1.0929 B(  0-C ,  7-H ) :   0.9497 B(  0-C ,  8-H ) :   0.9517
B(  0-C ,  9-H ) :   0.9519 B(  1-C ,  2-C ) :   1.7954 B(  1-C , 10-H ) :   0.9356
B(  2-C ,  3-C ) :   1.1145 B(  2-C ,  4-N ) :   1.1227 B(  3-C , 11-H ) :   0.9284
B(  3-C , 12-H ) :   0.9314 B(  3-C , 13-H ) :   0.9313 B(  4-N ,  5-C ) :   1.1499
B(  4-N , 14-H ) :   0.9123 B(  5-C ,  6-N ) :   1.9785 B(  5-C , 15-H ) :   0.9319
B(  6-N , 16-H ) :   0.9433

FINAL SINGLE POINT ENERGY      -305.409948996346

DIPOLE MOMENT
-------------
                                X             Y             Z
Electronic contribution:      6.34576      -0.75450       1.69421
Nuclear contribution   :     -7.12606       0.98124      -2.47610
                        -----------------------------------------
Total Dipole Moment    :     -0.78029       0.22674      -0.78189
                        -----------------------------------------
Magnitude (a.u.)       :      1.12766
Magnitude (Debye)      :      2.86629

                             ****ORCA TERMINATED NORMALLY****
TOTAL RUN TIME: 0 days 0 hours 0 minutes 7 seconds 629 msec
