                         Program Version 3.0.3 - RELEASE   -
|  1> ! RI PBE def2-SVP def2-SVP/J NBO PAL2
|  2> % maxcore 2000
|  3> % output
|  4>     # printlevel mini
|  5>     print[ P_Basis ] 0
|  6>     print[ P_SCFInfo ] 1
|  7>     print[ P_SCFIterInfo ] 1
|  8>     print[ P_OrbEn ] 0
|  9>     print[ P_Cartesian ] 0
| 10> end
| 11> *xyz 0 1
| 12>  C        1.0189660000     0.0067750000     0.1773820000
| 13>  C        2.4997830000    -0.0377990000     0.0898440000
| 14>  C        3.1850450000    -0.5643240000    -0.9408470000
| 15>  C        2.5056480000    -1.1364160000    -2.0595050000
| 16>  N        1.9266430000    -1.5891430000    -2.9454940000
| 17>  C        4.6127420000    -0.5743230000    -0.9583640000
| 18>  N        5.7636510000    -0.5775150000    -0.9631940000
| 19>  H        0.6896380000     0.4784580000     1.1011390000
| 20>  H        0.5966490000    -1.0014140000     0.1291870000
| 21>  H        0.5965530000     0.5588270000    -0.6675550000
| 22>  H        3.0858330000     0.3774330000     0.9035070000
| 23> *
| 24>
| 25>                          ****END OF INPUT****
 Total Charge           Charge          ....    0
 Multiplicity           Mult            ....    1
 Number of Electrons    NEL             ....   48
 Basis Dimension        Dim             ....  118

MULLIKEN ATOMIC CHARGES
-----------------------
   0 C :    0.061134
   1 C :   -0.019040
   2 C :   -0.269903
   3 C :   -0.123369
   4 N :    0.113250
   5 C :   -0.077642
   6 N :    0.103058
   7 H :    0.044657
   8 H :    0.070985
   9 H :    0.073154
  10 H :    0.023717
Sum of atomic charges:   -0.0000000

LOEWDIN ATOMIC CHARGES
----------------------
   0 C :   -0.060568
   1 C :    0.066491
   2 C :   -0.116633
   3 C :   -0.024905
   4 N :   -0.024929
   5 C :   -0.025910
   6 N :   -0.028492
   7 H :    0.044428
   8 H :    0.060875
   9 H :    0.061273
  10 H :    0.048369

  Mayer bond orders larger than 0.1
B(  0-C ,  1-C ) :   1.0988 B(  0-C ,  7-H ) :   0.9459 B(  0-C ,  8-H ) :   0.9313
B(  0-C ,  9-H ) :   0.9309 B(  1-C ,  2-C ) :   1.7943 B(  1-C ,  4-N ) :   0.1039
B(  1-C ,  6-N ) :   0.1029 B(  1-C , 10-H ) :   0.9393 B(  2-C ,  3-C ) :   1.1119
B(  2-C ,  5-C ) :   1.1005 B(  3-C ,  4-N ) :   2.9920 B(  5-C ,  6-N ) :   3.0110

FINAL SINGLE POINT ENERGY      -301.785373300150

DIPOLE MOMENT
-------------
                                X             Y             Z
Electronic contribution:      5.52335      -2.06164      -4.03212
Nuclear contribution   :     -6.68709       2.73089       5.34293
                        -----------------------------------------
Total Dipole Moment    :     -1.16375       0.66924       1.31081
                        -----------------------------------------
Magnitude (a.u.)       :      1.87628
Magnitude (Debye)      :      4.76912

                             ****ORCA TERMINATED NORMALLY****
TOTAL RUN TIME: 0 days 0 hours 0 minutes 5 seconds 528 msec
