                         Program Version 3.0.3 - RELEASE   -
|  1> ! RI PBE def2-SVP def2-SVP/J NBO PAL2
|  2> % maxcore 2000
|  3> % output
|  4>     # printlevel mini
|  5>     print[ P_Basis ] 0
|  6>     print[ P_SCFInfo ] 1
|  7>     print[ P_SCFIterInfo ] 1
|  8>     print[ P_OrbEn ] 0
|  9>     print[ P_Cartesian ] 0
| 10> end
| 11> *xyz 0 1
| 12>  C        1.6637650000     0.1811390000    -1.0157670000
| 13>  C        2.6601190000    -0.0060680000     0.0789230000
| 14>  C        3.9645190000     0.2472040000     0.0299820000
| 15>  C        4.7401880000     0.7990950000    -1.1354410000
| 16>  N        6.0945710000     0.2616750000    -1.0956740000
| 17>  C        4.6988490000     2.3349520000    -1.1368540000
| 18>  N        5.3230270000     2.8567560000     0.0696530000
| 19>  H        0.9147010000     0.9303670000    -0.7383140000
| 20>  H        1.1175640000    -0.7482130000    -1.2050500000
| 21>  H        2.1209970000     0.5014050000    -1.9526010000
| 22>  H        2.2607370000    -0.4026390000     1.0099650000
| 23>  H        4.5611290000     0.0402000000     0.9151640000
| 24>  H        4.2757380000     0.4583760000    -2.0663730000
| 25>  H        6.6101650000     0.7735770000    -0.3848890000
| 26>  H        6.5635410000     0.4480950000    -1.9743820000
| 27>  H        3.6591790000     2.6679810000    -1.2775970000
| 28>  H        5.2740330000     2.6925770000    -1.9976170000
| 29>  H        4.7115570000     2.7241750000     0.8663080000
| 30>  H        5.4976320000     3.8491460000    -0.0111250000
| 31> *
| 32>
| 33>                          ****END OF INPUT****
 Total Charge           Charge          ....    0
 Multiplicity           Mult            ....    1
 Number of Electrons    NEL             ....   56
 Basis Dimension        Dim             ....  158

MULLIKEN ATOMIC CHARGES
-----------------------
   0 C :    0.047823
   1 C :   -0.116822
   2 C :   -0.024965
   3 C :   -0.005224
   4 N :   -0.175643
   5 C :    0.123343
   6 N :   -0.221361
   7 H :    0.030157
   8 H :    0.030476
   9 H :    0.016809
  10 H :   -0.008192
  11 H :   -0.007494
  12 H :   -0.004358
  13 H :    0.084261
  14 H :    0.077605
  15 H :   -0.018583
  16 H :   -0.012680
  17 H :    0.090275
  18 H :    0.094571
Sum of atomic charges:   -0.0000000

LOEWDIN ATOMIC CHARGES
----------------------
   0 C :   -0.069779
   1 C :   -0.051637
   2 C :   -0.043281
   3 C :   -0.012261
   4 N :   -0.094080
   5 C :   -0.001684
   6 N :   -0.107583
   7 H :    0.037242
   8 H :    0.037556
   9 H :    0.025663
  10 H :    0.023614
  11 H :    0.025356
  12 H :    0.022221
  13 H :    0.043008
  14 H :    0.048305
  15 H :   -0.001515
  16 H :    0.012318
  17 H :    0.052064
  18 H :    0.054475

  Mayer bond orders larger than 0.1
B(  0-C ,  1-C ) :   1.0946 B(  0-C ,  7-H ) :   0.9431 B(  0-C ,  8-H ) :   0.9443
B(  0-C ,  9-H ) :   0.9501 B(  1-C ,  2-C ) :   1.9489 B(  1-C , 10-H ) :   0.9400
B(  2-C ,  3-C ) :   1.0175 B(  2-C , 11-H ) :   0.9414 B(  3-C ,  4-N ) :   1.0824
B(  3-C ,  5-C ) :   1.0081 B(  3-C , 12-H ) :   0.9033 B(  4-N , 13-H ) :   0.9587
B(  4-N , 14-H ) :   0.9660 B(  5-C ,  6-N ) :   1.0912 B(  5-C , 15-H ) :   0.9186
B(  5-C , 16-H ) :   0.9273 B(  6-N , 17-H ) :   0.9678 B(  6-N , 18-H ) :   0.9658

FINAL SINGLE POINT ENERGY      -306.590144191439

DIPOLE MOMENT
-------------
                                X             Y             Z
Electronic contribution:      2.31351      -0.95242       1.23045
Nuclear contribution   :     -2.65309       1.79048      -1.36436
                        -----------------------------------------
Total Dipole Moment    :     -0.33958       0.83807      -0.13392
                        -----------------------------------------
Magnitude (a.u.)       :      0.91411
Magnitude (Debye)      :      2.32349

                             ****ORCA TERMINATED NORMALLY****
TOTAL RUN TIME: 0 days 0 hours 0 minutes 8 seconds 322 msec
