                         Program Version 3.0.3 - RELEASE   -
|  1> ! RI PBE def2-SVP def2-SVP/J NBO PAL2
|  2> % maxcore 2000
|  3> % output
|  4>     # printlevel mini
|  5>     print[ P_Basis ] 0
|  6>     print[ P_SCFInfo ] 1
|  7>     print[ P_SCFIterInfo ] 1
|  8>     print[ P_OrbEn ] 0
|  9>     print[ P_Cartesian ] 0
| 10> end
| 11> *xyz 0 1
| 12>  C        0.9488700000    -1.0959820000     0.2828410000
| 13>  C        2.3454100000    -0.9790640000    -0.2205810000
| 14>  C        2.7956620000    -0.0207560000    -1.0216330000
| 15>  C        4.2069300000     0.0706750000    -1.5069270000
| 16>  N        4.2987630000     0.0353550000    -2.9479110000
| 17>  C        4.8503790000     1.0177630000    -3.7111290000
| 18>  N        4.9612570000     1.0932000000    -4.9749920000
| 19>  H        0.5059150000    -2.0544740000    -0.0052930000
| 20>  H        0.3153230000    -0.2954440000    -0.1029480000
| 21>  H        0.9220620000    -1.0564890000     1.3763860000
| 22>  H        3.0455350000    -1.7464410000     0.1097970000
| 23>  H        2.1169930000     0.7535840000    -1.3762320000
| 24>  H        4.8030360000    -0.7320740000    -1.0554560000
| 25>  H        4.6571840000     1.0152170000    -1.1840600000
| 26>  H        3.8784920000    -0.7499580000    -3.4184720000
| 27>  H        5.2460360000     1.8409800000    -3.1099360000
| 28>  H        4.5641430000     0.2763070000    -5.4401720000
| 29> *
| 30>
| 31>                          ****END OF INPUT****
 Total Charge           Charge          ....    0
 Multiplicity           Mult            ....    1
 Number of Electrons    NEL             ....   54
 Basis Dimension        Dim             ....  148

MULLIKEN ATOMIC CHARGES
-----------------------
   0 C :    0.030953
   1 C :   -0.106913
   2 C :   -0.081165
   3 C :    0.179255
   4 N :   -0.141864
   5 C :   -0.039516
   6 N :   -0.150178
   7 H :    0.034250
   8 H :    0.024328
   9 H :    0.043305
  10 H :   -0.000464
  11 H :   -0.004367
  12 H :    0.011206
  13 H :    0.025680
  14 H :    0.100309
  15 H :    0.008398
  16 H :    0.066783
Sum of atomic charges:   -0.0000000

LOEWDIN ATOMIC CHARGES
----------------------
   0 C :   -0.065995
   1 C :   -0.039759
   2 C :   -0.064343
   3 C :    0.027596
   4 N :   -0.014530
   5 C :    0.007003
   6 N :   -0.181199
   7 H :    0.038040
   8 H :    0.032891
   9 H :    0.040688
  10 H :    0.022597
  11 H :    0.023696
  12 H :    0.021813
  13 H :    0.036385
  14 H :    0.065739
  15 H :    0.012929
  16 H :    0.036450

  Mayer bond orders larger than 0.1
B(  0-C ,  1-C ) :   1.0873 B(  0-C ,  7-H ) :   0.9472 B(  0-C ,  8-H ) :   0.9610
B(  0-C ,  9-H ) :   0.9460 B(  1-C ,  2-C ) :   1.8995 B(  1-C , 10-H ) :   0.9521
B(  2-C ,  3-C ) :   1.0632 B(  2-C , 11-H ) :   0.9533 B(  3-C ,  4-N ) :   0.9960
B(  3-C , 12-H ) :   0.9280 B(  3-C , 13-H ) :   0.9113 B(  4-N ,  5-C ) :   1.1788
B(  4-N ,  6-N ) :   0.1152 B(  4-N , 14-H ) :   0.9328 B(  5-C ,  6-N ) :   1.9836
B(  5-C , 15-H ) :   0.9314 B(  6-N , 16-H ) :   0.9423

FINAL SINGLE POINT ENERGY      -305.399846060828

DIPOLE MOMENT
-------------
                                X             Y             Z
Electronic contribution:      3.80635       1.74599      -4.63071
Nuclear contribution   :     -4.47517      -2.66235       5.71961
                        -----------------------------------------
Total Dipole Moment    :     -0.66881      -0.91636       1.08890
                        -----------------------------------------
Magnitude (a.u.)       :      1.57249
Magnitude (Debye)      :      3.99695

                             ****ORCA TERMINATED NORMALLY****
TOTAL RUN TIME: 0 days 0 hours 0 minutes 7 seconds 371 msec
