                         Program Version 3.0.3 - RELEASE   -
|  1> ! RI PBE def2-SVP def2-SVP/J NBO PAL2
|  2> % maxcore 2000
|  3> % output
|  4>     # printlevel mini
|  5>     print[ P_Basis ] 0
|  6>     print[ P_SCFInfo ] 1
|  7>     print[ P_SCFIterInfo ] 1
|  8>     print[ P_OrbEn ] 0
|  9>     print[ P_Cartesian ] 0
| 10> end
| 11> *xyz 0 1
| 12>  C        3.3605460000     1.9492890000     1.0139450000
| 13>  C        2.9576400000     0.5647360000     0.6079850000
| 14>  C        2.2621260000    -0.2285620000     1.4186450000
| 15>  C        3.3767890000     0.0843140000    -0.7673240000
| 16>  N        2.9952390000     0.9649010000    -1.8642100000
| 17>  C        4.8812530000    -0.1580830000    -0.8464210000
| 18>  N        5.2905230000    -1.1793900000     0.0976840000
| 19>  H        3.0488490000     2.1659660000     2.0361650000
| 20>  H        2.9107400000     2.7021240000     0.3594190000
| 21>  H        4.4451480000     2.0875000000     0.9526390000
| 22>  H        1.9581040000     0.0918080000     2.4100550000
| 23>  H        1.9745080000    -1.2289090000     1.1127110000
| 24>  H        2.8946420000    -0.8829470000    -0.9392100000
| 25>  H        3.4778020000     1.8536580000    -1.7998990000
| 26>  H        2.0023700000     1.1613960000    -1.8318060000
| 27>  H        5.4018470000     0.8077960000    -0.7212000000
| 28>  H        5.0990750000    -0.5028170000    -1.8603410000
| 29>  H        5.0537510000    -0.9072040000     1.0443940000
| 30>  H        6.2899470000    -1.3285640000     0.0597490000
| 31> *
| 32>
| 33>                          ****END OF INPUT****
 Total Charge           Charge          ....    0
 Multiplicity           Mult            ....    1
 Number of Electrons    NEL             ....   56
 Basis Dimension        Dim             ....  158

MULLIKEN ATOMIC CHARGES
-----------------------
   0 C :    0.078702
   1 C :   -0.210507
   2 C :   -0.015824
   3 C :    0.025494
   4 N :   -0.167436
   5 C :    0.097855
   6 N :   -0.205417
   7 H :    0.010981
   8 H :    0.011020
   9 H :    0.024831
  10 H :    0.002219
  11 H :    0.012703
  12 H :   -0.005135
  13 H :    0.084350
  14 H :    0.089825
  15 H :   -0.023607
  16 H :    0.011403
  17 H :    0.087933
  18 H :    0.090610
Sum of atomic charges:   -0.0000000

LOEWDIN ATOMIC CHARGES
----------------------
   0 C :   -0.061996
   1 C :   -0.054041
   2 C :   -0.073938
   3 C :    0.000711
   4 N :   -0.082217
   5 C :    0.009511
   6 N :   -0.108259
   7 H :    0.032252
   8 H :    0.027905
   9 H :    0.032490
  10 H :    0.017115
  11 H :    0.021222
  12 H :    0.027444
  13 H :    0.044852
  14 H :    0.053302
  15 H :   -0.009725
  16 H :    0.022911
  17 H :    0.047127
  18 H :    0.053335

  Mayer bond orders larger than 0.1
B(  0-C ,  1-C ) :   1.0677 B(  0-C ,  7-H ) :   0.9425 B(  0-C ,  8-H ) :   0.9325
B(  0-C ,  9-H ) :   0.9427 B(  1-C ,  2-C ) :   1.9758 B(  1-C ,  3-C ) :   0.9905
B(  2-C , 10-H ) :   0.9275 B(  2-C , 11-H ) :   0.9296 B(  3-C ,  4-N ) :   1.0924
B(  3-C ,  5-C ) :   1.0471 B(  3-C , 12-H ) :   0.8840 B(  4-N , 13-H ) :   0.9645
B(  4-N , 14-H ) :   0.9687 B(  5-C ,  6-N ) :   1.1023 B(  5-C , 15-H ) :   0.9103
B(  5-C , 16-H ) :   0.9253 B(  6-N , 17-H ) :   0.9606 B(  6-N , 18-H ) :   0.9630

FINAL SINGLE POINT ENERGY      -306.591808668451

DIPOLE MOMENT
-------------
                                X             Y             Z
Electronic contribution:     -0.77901      -1.63816      -1.13489
Nuclear contribution   :      0.98374       2.31311       1.52452
                        -----------------------------------------
Total Dipole Moment    :      0.20473       0.67495       0.38963
                        -----------------------------------------
Magnitude (a.u.)       :      0.80578
Magnitude (Debye)      :      2.04813

                             ****ORCA TERMINATED NORMALLY****
TOTAL RUN TIME: 0 days 0 hours 0 minutes 8 seconds 132 msec
