                         Program Version 3.0.3 - RELEASE   -
|  1> ! RI PBE def2-SVP def2-SVP/J NBO PAL2
|  2> % maxcore 2000
|  3> % output
|  4>     # printlevel mini
|  5>     print[ P_Basis ] 0
|  6>     print[ P_SCFInfo ] 1
|  7>     print[ P_SCFIterInfo ] 1
|  8>     print[ P_OrbEn ] 0
|  9>     print[ P_Cartesian ] 0
| 10> end
| 11> *xyz 0 1
| 12>  C        2.8980460000    -2.5950370000     1.0387560000
| 13>  C        2.7322090000    -1.8468520000    -0.2443240000
| 14>  C        2.0162090000    -2.3053630000    -1.2657210000
| 15>  C        3.4279760000    -0.5133560000    -0.3370690000
| 16>  N        4.8650810000    -0.6092570000    -0.2318610000
| 17>  C        5.5849240000    -0.2040800000     0.8513870000
| 18>  N        6.8233210000    -0.3469730000     1.0972100000
| 19>  H        2.3989540000    -3.5637210000     1.0048540000
| 20>  H        2.4827800000    -2.0232980000     1.8758710000
| 21>  H        3.9552760000    -2.7579350000     1.2666680000
| 22>  H        1.5036340000    -3.2599420000    -1.2186380000
| 23>  H        1.9128350000    -1.7351850000    -2.1831240000
| 24>  H        3.0912730000     0.1371110000     0.4775420000
| 25>  H        3.1498680000    -0.0200460000    -1.2738280000
| 26>  H        5.3396020000    -1.1623260000    -0.9280490000
| 27>  H        4.9729440000     0.3305670000     1.5830680000
| 28>  H        7.3015770000    -0.8581280000     0.3545590000
| 29> *
| 30>
| 31>                          ****END OF INPUT****
 Total Charge           Charge          ....    0
 Multiplicity           Mult            ....    1
 Number of Electrons    NEL             ....   54
 Basis Dimension        Dim             ....  148

MULLIKEN ATOMIC CHARGES
-----------------------
   0 C :    0.075157
   1 C :   -0.221196
   2 C :   -0.031228
   3 C :    0.182784
   4 N :   -0.137773
   5 C :   -0.046284
   6 N :   -0.142363
   7 H :    0.016183
   8 H :    0.027789
   9 H :    0.039670
  10 H :    0.014396
  11 H :    0.011810
  12 H :    0.025773
  13 H :    0.005653
  14 H :    0.102628
  15 H :    0.009883
  16 H :    0.067117
Sum of atomic charges:    0.0000000

LOEWDIN ATOMIC CHARGES
----------------------
   0 C :   -0.057635
   1 C :   -0.049696
   2 C :   -0.070316
   3 C :    0.033390
   4 N :   -0.012118
   5 C :    0.004784
   6 N :   -0.178265
   7 H :    0.033300
   8 H :    0.038819
   9 H :    0.038502
  10 H :    0.022607
  11 H :    0.020514
  12 H :    0.035288
  13 H :    0.023725
  14 H :    0.067012
  15 H :    0.013042
  16 H :    0.037049

  Mayer bond orders larger than 0.1
B(  0-C ,  1-C ) :   1.0802 B(  0-C ,  7-H ) :   0.9477 B(  0-C ,  8-H ) :   0.9402
B(  0-C ,  9-H ) :   0.9414 B(  1-C ,  2-C ) :   1.9779 B(  1-C ,  3-C ) :   1.0511
B(  2-C , 10-H ) :   0.9328 B(  2-C , 11-H ) :   0.9341 B(  3-C ,  4-N ) :   1.0195
B(  3-C , 12-H ) :   0.9127 B(  3-C , 13-H ) :   0.9203 B(  4-N ,  5-C ) :   1.1685
B(  4-N ,  6-N ) :   0.1132 B(  4-N , 14-H ) :   0.9306 B(  5-C ,  6-N ) :   1.9892
B(  5-C , 15-H ) :   0.9310 B(  6-N , 16-H ) :   0.9407

FINAL SINGLE POINT ENERGY      -305.399448982010

DIPOLE MOMENT
-------------
                                X             Y             Z
Electronic contribution:      3.48827       2.26989      -0.37007
Nuclear contribution   :     -4.35928      -2.69561      -0.39752
                        -----------------------------------------
Total Dipole Moment    :     -0.87102      -0.42572      -0.76759
                        -----------------------------------------
Magnitude (a.u.)       :      1.23657
Magnitude (Debye)      :      3.14311

                             ****ORCA TERMINATED NORMALLY****
TOTAL RUN TIME: 0 days 0 hours 0 minutes 7 seconds 651 msec
