                         Program Version 3.0.3 - RELEASE   -
|  1> ! RI PBE def2-SVP def2-SVP/J NBO PAL2
|  2> % maxcore 2000
|  3> % output
|  4>     # printlevel mini
|  5>     print[ P_Basis ] 0
|  6>     print[ P_SCFInfo ] 1
|  7>     print[ P_SCFIterInfo ] 1
|  8>     print[ P_OrbEn ] 0
|  9>     print[ P_Cartesian ] 0
| 10> end
| 11> *xyz 0 1
| 12>  C        0.9704880000    -0.1729270000    -0.1488850000
| 13>  C        2.4549840000    -0.1060670000    -0.0174830000
| 14>  C        3.1203780000     0.4225560000     1.0225040000
| 15>  C        2.4580180000     0.9904550000     2.1399360000
| 16>  N        1.9376530000     1.4567400000     3.0564810000
| 17>  C        3.2188510000    -0.6533610000    -1.0937200000
| 18>  N        3.8025870000    -1.1033410000    -1.9787420000
| 19>  H        0.4811370000     0.2681860000     0.7184660000
| 20>  H        0.6485380000    -1.2121550000    -0.2532570000
| 21>  H        0.6485090000     0.3547820000    -1.0502090000
| 22>  H        4.2039460000     0.4323100000     1.0419110000
| 23> *
| 24>
| 25>                          ****END OF INPUT****
 Total Charge           Charge          ....    0
 Multiplicity           Mult            ....    1
 Number of Electrons    NEL             ....   48
 Basis Dimension        Dim             ....  118

MULLIKEN ATOMIC CHARGES
-----------------------
   0 C :    0.112890
   1 C :   -0.239460
   2 C :   -0.063525
   3 C :   -0.095917
   4 N :    0.074070
   5 C :   -0.110314
   6 N :    0.083309
   7 H :    0.052535
   8 H :    0.060959
   9 H :    0.062303
  10 H :    0.063151
Sum of atomic charges:   -0.0000000

LOEWDIN ATOMIC CHARGES
----------------------
   0 C :   -0.033810
   1 C :   -0.022901
   2 C :   -0.036680
   3 C :   -0.041387
   4 N :   -0.031229
   5 C :   -0.032315
   6 N :   -0.027127
   7 H :    0.047440
   8 H :    0.056402
   9 H :    0.056830
  10 H :    0.064775

  Mayer bond orders larger than 0.1
B(  0-C ,  1-C ) :   1.0976 B(  0-C ,  7-H ) :   0.9298 B(  0-C ,  8-H ) :   0.9342
B(  0-C ,  9-H ) :   0.9331 B(  1-C ,  2-C ) :   1.7737 B(  1-C ,  5-C ) :   1.1290
B(  2-C ,  3-C ) :   1.1206 B(  2-C , 10-H ) :   0.9399 B(  3-C ,  4-N ) :   2.9342
B(  5-C ,  6-N ) :   2.9816

FINAL SINGLE POINT ENERGY      -301.792450091936

DIPOLE MOMENT
-------------
                                X             Y             Z
Electronic contribution:      3.51155       0.47969       0.94363
Nuclear contribution   :     -3.88750      -0.57698      -1.13485
                        -----------------------------------------
Total Dipole Moment    :     -0.37596      -0.09728      -0.19123
                        -----------------------------------------
Magnitude (a.u.)       :      0.43287
Magnitude (Debye)      :      1.10027

                             ****ORCA TERMINATED NORMALLY****
TOTAL RUN TIME: 0 days 0 hours 0 minutes 5 seconds 524 msec
