                         Program Version 3.0.3 - RELEASE   -
|  1> ! RI PBE def2-SVP def2-SVP/J NBO PAL2
|  2> % maxcore 2000
|  3> % output
|  4>     # printlevel mini
|  5>     print[ P_Basis ] 0
|  6>     print[ P_SCFInfo ] 1
|  7>     print[ P_SCFIterInfo ] 1
|  8>     print[ P_OrbEn ] 0
|  9>     print[ P_Cartesian ] 0
| 10> end
| 11> *xyz 0 1
| 12>  C        0.8092020000     0.1812180000     0.1911120000
| 13>  C        2.2598190000    -0.1781640000     0.2335990000
| 14>  C        2.6259440000    -1.2669950000     1.1907860000
| 15>  C        3.1327920000     0.4602490000    -0.5511660000
| 16>  N        4.4974300000     0.2364070000    -0.6188230000
| 17>  C        5.3854710000     0.8982970000    -1.4308570000
| 18>  N        5.1951520000     1.8254360000    -2.2745330000
| 19>  H        0.4547120000     0.5122590000     1.1739650000
| 20>  H        0.1954530000    -0.6833090000    -0.0866500000
| 21>  H        0.6092890000     0.9798500000    -0.5251670000
| 22>  H        2.0831860000    -2.1884230000     0.9534200000
| 23>  H        2.3437980000    -0.9934020000     2.2132870000
| 24>  H        3.6892400000    -1.5130380000     1.2041110000
| 25>  H        2.7768510000     1.2381150000    -1.2157470000
| 26>  H        4.8859880000    -0.4732300000    -0.0233000000
| 27>  H        6.4045760000     0.5324520000    -1.2913280000
| 28>  H        4.2189950000     2.1054870000    -2.3415000000
| 29> *
| 30>
| 31>                          ****END OF INPUT****
 Total Charge           Charge          ....    0
 Multiplicity           Mult            ....    1
 Number of Electrons    NEL             ....   54
 Basis Dimension        Dim             ....  148

MULLIKEN ATOMIC CHARGES
-----------------------
   0 C :    0.041291
   1 C :   -0.216695
   2 C :    0.054377
   3 C :    0.035593
   4 N :   -0.048155
   5 C :   -0.014104
   6 N :   -0.146857
   7 H :    0.024550
   8 H :    0.026606
   9 H :    0.018007
  10 H :    0.031321
  11 H :    0.032349
  12 H :   -0.004996
  13 H :   -0.027576
  14 H :    0.110134
  15 H :    0.007551
  16 H :    0.076602
Sum of atomic charges:   -0.0000000

LOEWDIN ATOMIC CHARGES
----------------------
   0 C :   -0.052200
   1 C :   -0.086347
   2 C :   -0.057339
   3 C :   -0.018404
   4 N :    0.024671
   5 C :    0.013208
   6 N :   -0.158771
   7 H :    0.031085
   8 H :    0.031557
   9 H :    0.030461
  10 H :    0.037849
  11 H :    0.037786
  12 H :    0.020540
  13 H :    0.018436
  14 H :    0.075654
  15 H :    0.014077
  16 H :    0.037735

  Mayer bond orders larger than 0.1
B(  0-C ,  1-C ) :   1.1005 B(  0-C ,  7-H ) :   0.9463 B(  0-C ,  8-H ) :   0.9461
B(  0-C ,  9-H ) :   0.9525 B(  1-C ,  2-C ) :   1.1032 B(  1-C ,  3-C ) :   1.7922
B(  2-C , 10-H ) :   0.9407 B(  2-C , 11-H ) :   0.9425 B(  2-C , 12-H ) :   0.9461
B(  3-C ,  4-N ) :   1.1277 B(  3-C , 13-H ) :   0.9247 B(  4-N ,  5-C ) :   1.1286
B(  4-N , 14-H ) :   0.9163 B(  5-C ,  6-N ) :   2.0024 B(  5-C , 15-H ) :   0.9419
B(  6-N , 16-H ) :   0.9590

FINAL SINGLE POINT ENERGY      -305.412458308742

DIPOLE MOMENT
-------------
                                X             Y             Z
Electronic contribution:      5.40963       2.43947      -3.43257
Nuclear contribution   :     -5.99292      -3.26795       4.33521
                        -----------------------------------------
Total Dipole Moment    :     -0.58329      -0.82849       0.90264
                        -----------------------------------------
Magnitude (a.u.)       :      1.35697
Magnitude (Debye)      :      3.44915

                             ****ORCA TERMINATED NORMALLY****
TOTAL RUN TIME: 0 days 0 hours 0 minutes 8 seconds 66 msec
