                         Program Version 3.0.3 - RELEASE   -
|  1> ! RI PBE def2-SVP def2-SVP/J NBO PAL2
|  2> % maxcore 2000
|  3> % output
|  4>     # printlevel mini
|  5>     print[ P_Basis ] 0
|  6>     print[ P_SCFInfo ] 1
|  7>     print[ P_SCFIterInfo ] 1
|  8>     print[ P_OrbEn ] 0
|  9>     print[ P_Cartesian ] 0
| 10> end
| 11> *xyz 0 1
| 12>  C        0.9124210000     0.2249370000     0.0682660000
| 13>  C        2.4407670000     0.1843800000     0.0778300000
| 14>  C        3.0033480000     1.3516690000    -0.7336560000
| 15>  C        2.9428740000     0.2741040000     1.5130600000
| 16>  N        2.9227140000    -1.0892740000    -0.4551360000
| 17>  C        2.6929480000    -1.5565540000    -1.7107420000
| 18>  N        3.0749040000    -2.6466940000    -2.2455990000
| 19>  H        0.5515410000     1.1654010000     0.4917870000
| 20>  H        0.5035440000    -0.6001220000     0.6555000000
| 21>  H        0.5185630000     0.1447430000    -0.9471900000
| 22>  H        2.6654900000     2.3045170000    -0.3189180000
| 23>  H        2.6757130000     1.3072230000    -1.7745140000
| 24>  H        4.0952930000     1.3353290000    -0.7220570000
| 25>  H        2.6154890000     1.2082290000     1.9719290000
| 26>  H        4.0354800000     0.2464490000     1.5455860000
| 27>  H        2.5533960000    -0.5521980000     2.1140130000
| 28>  H        3.4703110000    -1.6685240000     0.1599300000
| 29>  H        2.0935710000    -0.8788960000    -2.3220030000
| 30>  H        3.6267220000    -3.2083190000    -1.5951850000
| 31> *
| 32>
| 33>                          ****END OF INPUT****
 Total Charge           Charge          ....    0
 Multiplicity           Mult            ....    1
 Number of Electrons    NEL             ....   56
 Basis Dimension        Dim             ....  158

MULLIKEN ATOMIC CHARGES
-----------------------
   0 C :    0.084864
   1 C :   -0.260895
   2 C :    0.073772
   3 C :    0.028139
   4 N :   -0.095512
   5 C :   -0.034487
   6 N :   -0.151826
   7 H :    0.012752
   8 H :    0.018972
   9 H :    0.020111
  10 H :    0.013562
  11 H :    0.022578
  12 H :    0.022823
  13 H :    0.025256
  14 H :    0.026146
  15 H :    0.023884
  16 H :    0.094298
  17 H :    0.012843
  18 H :    0.062721
Sum of atomic charges:   -0.0000000

LOEWDIN ATOMIC CHARGES
----------------------
   0 C :   -0.052747
   1 C :   -0.012475
   2 C :   -0.055044
   3 C :   -0.054451
   4 N :   -0.010658
   5 C :    0.010532
   6 N :   -0.181203
   7 H :    0.026974
   8 H :    0.027080
   9 H :    0.026320
  10 H :    0.027148
  11 H :    0.027073
  12 H :    0.027633
  13 H :    0.033189
  14 H :    0.026267
  15 H :    0.025959
  16 H :    0.062603
  17 H :    0.011782
  18 H :    0.034019

  Mayer bond orders larger than 0.1
B(  0-C ,  1-C ) :   1.0525 B(  0-C ,  7-H ) :   0.9557 B(  0-C ,  8-H ) :   0.9525
B(  0-C ,  9-H ) :   0.9536 B(  1-C ,  2-C ) :   1.0493 B(  1-C ,  3-C ) :   1.0629
B(  1-C ,  4-N ) :   0.9672 B(  2-C , 10-H ) :   0.9555 B(  2-C , 11-H ) :   0.9520
B(  2-C , 12-H ) :   0.9530 B(  3-C , 13-H ) :   0.9590 B(  3-C , 14-H ) :   0.9534
B(  3-C , 15-H ) :   0.9527 B(  4-N ,  5-C ) :   1.1799 B(  4-N ,  6-N ) :   0.1122
B(  4-N , 16-H ) :   0.9276 B(  5-C ,  6-N ) :   1.9784 B(  5-C , 17-H ) :   0.9321
B(  6-N , 18-H ) :   0.9421

FINAL SINGLE POINT ENERGY      -306.619612837987

DIPOLE MOMENT
-------------
                                X             Y             Z
Electronic contribution:      1.43067      -5.09830      -3.41566
Nuclear contribution   :     -1.37129       5.88314       4.69097
                        -----------------------------------------
Total Dipole Moment    :      0.05939       0.78484       1.27531
                        -----------------------------------------
Magnitude (a.u.)       :      1.49864
Magnitude (Debye)      :      3.80925

                             ****ORCA TERMINATED NORMALLY****
TOTAL RUN TIME: 0 days 0 hours 0 minutes 8 seconds 146 msec
