                         Program Version 3.0.3 - RELEASE   -
|  1> ! RI PBE def2-SVP def2-SVP/J NBO PAL2
|  2> % maxcore 2000
|  3> % output
|  4>     # printlevel mini
|  5>     print[ P_Basis ] 0
|  6>     print[ P_SCFInfo ] 1
|  7>     print[ P_SCFIterInfo ] 1
|  8>     print[ P_OrbEn ] 0
|  9>     print[ P_Cartesian ] 0
| 10> end
| 11> *xyz 0 1
| 12>  C        0.9204210000    -0.0820630000    -0.0013730000
| 13>  C        2.4588860000    -0.1042110000     0.0025680000
| 14>  C        2.9929450000    -1.5244490000     0.2578180000
| 15>  C        2.9531750000     0.3725720000    -1.2965090000
| 16>  N        3.3158130000     0.7068440000    -2.3339210000
| 17>  C        2.9532550000     0.7950530000     1.0543180000
| 18>  N        3.3156690000     1.4698750000     1.9103220000
| 19>  H        0.5527900000    -0.7447600000    -0.7854090000
| 20>  H        0.5446720000     0.9243980000    -0.1822830000
| 21>  H        0.5528470000    -0.4302110000     0.9644010000
| 22>  H        2.6313230000    -2.1912450000    -0.5255360000
| 23>  H        2.6313070000    -1.8768030000     1.2243060000
| 24>  H        4.0823060000    -1.5375890000     0.2601880000
| 25> *
| 26>
| 27>                          ****END OF INPUT****
 Total Charge           Charge          ....    0
 Multiplicity           Mult            ....    1
 Number of Electrons    NEL             ....   50
 Basis Dimension        Dim             ....  128

MULLIKEN ATOMIC CHARGES
-----------------------
   0 C :    0.079990
   1 C :   -0.397042
   2 C :    0.070110
   3 C :   -0.136267
   4 N :    0.093892
   5 C :   -0.135512
   6 N :    0.097801
   7 H :    0.051528
   8 H :    0.059168
   9 H :    0.049826
  10 H :    0.053365
  11 H :    0.049391
  12 H :    0.063753
Sum of atomic charges:   -0.0000000

LOEWDIN ATOMIC CHARGES
----------------------
   0 C :   -0.013887
   1 C :   -0.099388
   2 C :   -0.016175
   3 C :   -0.022747
   4 N :   -0.039113
   5 C :   -0.023297
   6 N :   -0.038605
   7 H :    0.041135
   8 H :    0.044018
   9 H :    0.040797
  10 H :    0.041423
  11 H :    0.040946
  12 H :    0.044892

  Mayer bond orders larger than 0.1
B(  0-C ,  1-C ) :   1.0871 B(  0-C ,  7-H ) :   0.9565 B(  0-C ,  8-H ) :   0.9518
B(  0-C ,  9-H ) :   0.9556 B(  1-C ,  2-C ) :   1.0909 B(  1-C ,  3-C ) :   1.0093
B(  1-C ,  5-C ) :   1.0120 B(  2-C , 10-H ) :   0.9550 B(  2-C , 11-H ) :   0.9549
B(  2-C , 12-H ) :   0.9503 B(  3-C ,  4-N ) :   3.0986 B(  5-C ,  6-N ) :   3.0978

FINAL SINGLE POINT ENERGY      -302.994884636550

DIPOLE MOMENT
-------------
                                X             Y             Z
Electronic contribution:      3.75584       5.23329      -0.94177
Nuclear contribution   :     -4.71642      -6.56462       1.17998
                        -----------------------------------------
Total Dipole Moment    :     -0.96057      -1.33133       0.23821
                        -----------------------------------------
Magnitude (a.u.)       :      1.65889
Magnitude (Debye)      :      4.21655

                             ****ORCA TERMINATED NORMALLY****
TOTAL RUN TIME: 0 days 0 hours 0 minutes 6 seconds 466 msec
