                         Program Version 3.0.3 - RELEASE   -
|  1> ! RI PBE def2-SVP def2-SVP/J NBO PAL2
|  2> % maxcore 2000
|  3> % output
|  4>     # printlevel mini
|  5>     print[ P_Basis ] 0
|  6>     print[ P_SCFInfo ] 1
|  7>     print[ P_SCFIterInfo ] 1
|  8>     print[ P_OrbEn ] 0
|  9>     print[ P_Cartesian ] 0
| 10> end
| 11> *xyz 0 1
| 12>  C        0.9718810000    -0.0041270000    -0.1413970000
| 13>  C        2.4945620000     0.0171090000    -0.0721600000
| 14>  C        2.9900110000     1.4557240000    -0.1999300000
| 15>  C        2.9628310000    -0.5909590000     1.2559270000
| 16>  N        2.5631030000     0.2120650000     2.4080290000
| 17>  C        3.0420730000    -0.8312100000    -1.2265640000
| 18>  N        4.4954980000    -0.8032930000    -1.3212150000
| 19>  H        0.5492490000     0.4945200000     0.7324040000
| 20>  H        0.5956170000    -1.0320540000    -0.1592610000
| 21>  H        0.6095710000     0.5008800000    -1.0415700000
| 22>  H        2.5199520000     2.0930370000     0.5524730000
| 23>  H        2.7365450000     1.8687490000    -1.1814890000
| 24>  H        4.0742970000     1.5213160000    -0.0705350000
| 25>  H        4.0452590000    -0.7597110000     1.1916500000
| 26>  H        2.4917370000    -1.5747210000     1.3589220000
| 27>  H        3.1952400000     0.9928870000     2.5321820000
| 28>  H        2.6215150000    -0.3391710000     3.2540370000
| 29>  H        2.5408570000    -0.5052940000    -2.1524780000
| 30>  H        2.7393600000    -1.8711730000    -1.0607050000
| 31>  H        4.8112990000     0.0733140000    -1.7164420000
| 32>  H        4.8238140000    -1.5353560000    -1.9369870000
| 33> *
| 34>
| 35>                          ****END OF INPUT****
 Total Charge           Charge          ....    0
 Multiplicity           Mult            ....    1
 Number of Electrons    NEL             ....   58
 Basis Dimension        Dim             ....  168

MULLIKEN ATOMIC CHARGES
-----------------------
   0 C :    0.080667
   1 C :   -0.310284
   2 C :    0.015583
   3 C :    0.107464
   4 N :   -0.188089
   5 C :    0.110854
   6 N :   -0.187667
   7 H :    0.019292
   8 H :   -0.003116
   9 H :    0.001100
  10 H :    0.021404
  11 H :    0.007605
  12 H :    0.015934
  13 H :   -0.000554
  14 H :   -0.017135
  15 H :    0.085811
  16 H :    0.087245
  17 H :   -0.014181
  18 H :   -0.009083
  19 H :    0.086696
  20 H :    0.090453
Sum of atomic charges:    0.0000000

LOEWDIN ATOMIC CHARGES
----------------------
   0 C :   -0.048557
   1 C :   -0.078443
   2 C :   -0.058975
   3 C :    0.014027
   4 N :   -0.105783
   5 C :    0.015500
   6 N :   -0.103430
   7 H :    0.024750
   8 H :    0.019249
   9 H :    0.017807
  10 H :    0.025994
  11 H :    0.022466
  12 H :    0.020676
  13 H :    0.000068
  14 H :    0.015424
  15 H :    0.048380
  16 H :    0.052575
  17 H :   -0.001471
  18 H :    0.017049
  19 H :    0.048776
  20 H :    0.053915

  Mayer bond orders larger than 0.1
B(  0-C ,  1-C ) :   1.0474 B(  0-C ,  7-H ) :   0.9486 B(  0-C ,  8-H ) :   0.9553
B(  0-C ,  9-H ) :   0.9556 B(  1-C ,  2-C ) :   1.0457 B(  1-C ,  3-C ) :   1.0026
B(  1-C ,  5-C ) :   1.0138 B(  2-C , 10-H ) :   0.9525 B(  2-C , 11-H ) :   0.9573
B(  2-C , 12-H ) :   0.9530 B(  3-C ,  4-N ) :   1.1187 B(  3-C , 13-H ) :   0.9270
B(  3-C , 14-H ) :   0.9281 B(  4-N , 15-H ) :   0.9649 B(  4-N , 16-H ) :   0.9650
B(  5-C ,  6-N ) :   1.1119 B(  5-C , 17-H ) :   0.9303 B(  5-C , 18-H ) :   0.9266
B(  6-N , 19-H ) :   0.9630 B(  6-N , 20-H ) :   0.9636

FINAL SINGLE POINT ENERGY      -307.808759400482

DIPOLE MOMENT
-------------
                                X             Y             Z
Electronic contribution:      1.36580      -1.02259       0.85695
Nuclear contribution   :     -0.92657       0.93138      -1.11456
                        -----------------------------------------
Total Dipole Moment    :      0.43923      -0.09121      -0.25761
                        -----------------------------------------
Magnitude (a.u.)       :      0.51731
Magnitude (Debye)      :      1.31489

                             ****ORCA TERMINATED NORMALLY****
TOTAL RUN TIME: 0 days 0 hours 0 minutes 8 seconds 796 msec
