                         Program Version 3.0.3 - RELEASE   -
|  1> ! RI PBE def2-SVP def2-SVP/J NBO PAL2
|  2> % maxcore 2000
|  3> % output
|  4>     # printlevel mini
|  5>     print[ P_Basis ] 0
|  6>     print[ P_SCFInfo ] 1
|  7>     print[ P_SCFIterInfo ] 1
|  8>     print[ P_OrbEn ] 0
|  9>     print[ P_Cartesian ] 0
| 10> end
| 11> *xyz 0 1
| 12>  C        1.7062840000    -0.9283590000     0.1216140000
| 13>  C        2.4858860000     0.2663260000    -0.4129930000
| 14>  C        1.5716090000     1.1904200000    -1.2054880000
| 15>  C        3.2446920000     1.0394660000     0.6843870000
| 16>  N        2.4182620000     1.6669370000     1.7051660000
| 17>  C        4.2871640000     0.1893950000     1.4027110000
| 18>  N        5.2240290000    -0.4318590000     0.4801510000
| 19>  H        1.2091450000    -1.4608520000    -0.6929270000
| 20>  H        0.9250750000    -0.6142290000     0.8213170000
| 21>  H        2.3461980000    -1.6471010000     0.6404610000
| 22>  H        3.2507860000    -0.1033980000    -1.1066810000
| 23>  H        2.1195250000     2.0497880000    -1.6020970000
| 24>  H        1.1191400000     0.6652100000    -2.0504490000
| 25>  H        0.7518410000     1.5686130000    -0.5865700000
| 26>  H        3.7915790000     1.8431530000     0.1773300000
| 27>  H        1.8530200000     0.9777870000     2.1870430000
| 28>  H        1.7855370000     2.3442920000     1.3002730000
| 29>  H        3.7686740000    -0.5297460000     2.0590080000
| 30>  H        4.8435180000     0.8575930000     2.0633140000
| 31>  H        4.8101780000    -1.2344680000     0.0226890000
| 32>  H        6.0375610000    -0.7686690000     0.9777330000
| 33> *
| 34>
| 35>                          ****END OF INPUT****
 Total Charge           Charge          ....    0
 Multiplicity           Mult            ....    1
 Number of Electrons    NEL             ....   58
 Basis Dimension        Dim             ....  168

MULLIKEN ATOMIC CHARGES
-----------------------
   0 C :    0.005037
   1 C :   -0.132130
   2 C :    0.030137
   3 C :    0.011494
   4 N :   -0.177241
   5 C :    0.079559
   6 N :   -0.200679
   7 H :    0.016764
   8 H :    0.000521
   9 H :    0.013996
  10 H :    0.003895
  11 H :    0.011711
  12 H :    0.014405
  13 H :   -0.003430
  14 H :   -0.008445
  15 H :    0.083239
  16 H :    0.083471
  17 H :   -0.018347
  18 H :    0.007984
  19 H :    0.088039
  20 H :    0.090019
Sum of atomic charges:   -0.0000000

LOEWDIN ATOMIC CHARGES
----------------------
   0 C :   -0.066319
   1 C :   -0.065609
   2 C :   -0.060745
   3 C :   -0.000847
   4 N :   -0.087557
   5 C :    0.002239
   6 N :   -0.107939
   7 H :    0.027763
   8 H :    0.015996
   9 H :    0.021061
  10 H :    0.023081
  11 H :    0.024981
  12 H :    0.025559
  13 H :    0.013731
  14 H :    0.020772
  15 H :    0.045106
  16 H :    0.049179
  17 H :   -0.006502
  18 H :    0.024366
  19 H :    0.046761
  20 H :    0.054919

  Mayer bond orders larger than 0.1
B(  0-C ,  1-C ) :   1.0632 B(  0-C ,  7-H ) :   0.9577 B(  0-C ,  8-H ) :   0.9502
B(  0-C ,  9-H ) :   0.9582 B(  1-C ,  2-C ) :   1.0934 B(  1-C ,  3-C ) :   1.0059
B(  1-C , 10-H ) :   0.8879 B(  2-C , 11-H ) :   0.9562 B(  2-C , 12-H ) :   0.9590
B(  2-C , 13-H ) :   0.9511 B(  3-C ,  4-N ) :   1.0903 B(  3-C ,  5-C ) :   1.0415
B(  3-C , 14-H ) :   0.8980 B(  4-N , 15-H ) :   0.9681 B(  4-N , 16-H ) :   0.9686
B(  5-C ,  6-N ) :   1.1144 B(  5-C , 17-H ) :   0.9212 B(  5-C , 18-H ) :   0.9296
B(  6-N , 19-H ) :   0.9620 B(  6-N , 20-H ) :   0.9623

FINAL SINGLE POINT ENERGY      -307.810341360837

DIPOLE MOMENT
-------------
                                X             Y             Z
Electronic contribution:      2.77505       1.20825       1.43304
Nuclear contribution   :     -3.05612      -1.74217      -1.43377
                        -----------------------------------------
Total Dipole Moment    :     -0.28108      -0.53392      -0.00073
                        -----------------------------------------
Magnitude (a.u.)       :      0.60339
Magnitude (Debye)      :      1.53369

                             ****ORCA TERMINATED NORMALLY****
TOTAL RUN TIME: 0 days 0 hours 0 minutes 8 seconds 724 msec
