                         Program Version 3.0.3 - RELEASE   -
|  1> ! RI PBE def2-SVP def2-SVP/J NBO PAL2
|  2> % maxcore 2000
|  3> % output
|  4>     # printlevel mini
|  5>     print[ P_Basis ] 0
|  6>     print[ P_SCFInfo ] 1
|  7>     print[ P_SCFIterInfo ] 1
|  8>     print[ P_OrbEn ] 0
|  9>     print[ P_Cartesian ] 0
| 10> end
| 11> *xyz 0 1
| 12>  C        0.8623510000    -0.1979670000    -0.1394770000
| 13>  C        2.3693860000    -0.0105120000    -0.2439190000
| 14>  C        2.7483290000     0.6574470000    -1.5572250000
| 15>  C        2.9224590000     0.7934180000     0.9261190000
| 16>  N        2.7502890000     0.1057330000     2.1798000000
| 17>  C        3.0536610000     0.6700840000     3.3831620000
| 18>  N        3.3900110000     1.8669970000     3.6483110000
| 19>  H        0.4900980000    -0.8241760000    -0.9536320000
| 20>  H        0.3527590000     0.7684850000    -0.2020110000
| 21>  H        0.5719590000    -0.6623650000     0.8048390000
| 22>  H        2.8473760000    -1.0004110000    -0.2193420000
| 23>  H        2.3124010000     1.6591580000    -1.6225170000
| 24>  H        2.3795910000     0.0818030000    -2.4090170000
| 25>  H        3.8316660000     0.7559770000    -1.6613640000
| 26>  H        2.3950930000     1.7547260000     0.9750250000
| 27>  H        3.9833890000     1.0231440000     0.7478370000
| 28>  H        2.7101550000    -0.8988140000     2.1486280000
| 29>  H        2.9595740000    -0.0351580000     4.2122990000
| 30>  H        3.4589640000     2.4382320000     2.8076050000
| 31> *
| 32>
| 33>                          ****END OF INPUT****
 Total Charge           Charge          ....    0
 Multiplicity           Mult            ....    1
 Number of Electrons    NEL             ....   56
 Basis Dimension        Dim             ....  158

MULLIKEN ATOMIC CHARGES
-----------------------
   0 C :    0.034031
   1 C :   -0.198228
   2 C :    0.017942
   3 C :    0.137669
   4 N :   -0.144143
   5 C :   -0.017585
   6 N :   -0.161575
   7 H :    0.022790
   8 H :    0.015886
   9 H :    0.010397
  10 H :    0.008753
  11 H :    0.016843
  12 H :    0.021531
  13 H :    0.023560
  14 H :    0.010056
  15 H :    0.011926
  16 H :    0.115407
  17 H :    0.004588
  18 H :    0.070151
Sum of atomic charges:    0.0000000

LOEWDIN ATOMIC CHARGES
----------------------
   0 C :   -0.057382
   1 C :   -0.053848
   2 C :   -0.055034
   3 C :    0.022710
   4 N :   -0.021777
   5 C :    0.007860
   6 N :   -0.173299
   7 H :    0.027298
   8 H :    0.027276
   9 H :    0.021517
  10 H :    0.022467
  11 H :    0.026567
  12 H :    0.028572
  13 H :    0.026912
  14 H :    0.020503
  15 H :    0.013653
  16 H :    0.069747
  17 H :    0.011901
  18 H :    0.034357

  Mayer bond orders larger than 0.1
B(  0-C ,  1-C ) :   1.0772 B(  0-C ,  7-H ) :   0.9635 B(  0-C ,  8-H ) :   0.9592
B(  0-C ,  9-H ) :   0.9559 B(  1-C ,  2-C ) :   1.0885 B(  1-C ,  3-C ) :   1.0534
B(  1-C , 10-H ) :   0.9095 B(  2-C , 11-H ) :   0.9595 B(  2-C , 12-H ) :   0.9603
B(  2-C , 13-H ) :   0.9579 B(  3-C ,  4-N ) :   1.0123 B(  3-C , 14-H ) :   0.9135
B(  3-C , 15-H ) :   0.9323 B(  4-N ,  5-C ) :   1.1797 B(  4-N ,  6-N ) :   0.1137
B(  4-N , 16-H ) :   0.9243 B(  5-C ,  6-N ) :   1.9834 B(  5-C , 17-H ) :   0.9437
B(  6-N , 18-H ) :   0.9548

FINAL SINGLE POINT ENERGY      -306.619691126679

DIPOLE MOMENT
-------------
                                X             Y             Z
Electronic contribution:      2.24556       0.64234       7.31530
Nuclear contribution   :     -2.46369      -1.50839      -8.53569
                        -----------------------------------------
Total Dipole Moment    :     -0.21812      -0.86605      -1.22039
                        -----------------------------------------
Magnitude (a.u.)       :      1.51228
Magnitude (Debye)      :      3.84390

                             ****ORCA TERMINATED NORMALLY****
TOTAL RUN TIME: 0 days 0 hours 0 minutes 7 seconds 976 msec
