                         Program Version 3.0.3 - RELEASE   -
|  1> ! RI PBE def2-SVP def2-SVP/J NBO PAL2
|  2> % maxcore 2000
|  3> % output
|  4>     # printlevel mini
|  5>     print[ P_Basis ] 0
|  6>     print[ P_SCFInfo ] 1
|  7>     print[ P_SCFIterInfo ] 1
|  8>     print[ P_OrbEn ] 0
|  9>     print[ P_Cartesian ] 0
| 10> end
| 11> *xyz 0 1
| 12>  C        1.0671920000    -0.0154390000     0.0686090000
| 13>  C        2.5930990000     0.0086950000     0.0030130000
| 14>  C        3.0754900000     0.3436330000    -1.4200990000
| 15>  C        4.5111540000     0.1949880000    -1.5927850000
| 16>  N        5.6434250000     0.0544380000    -1.7279500000
| 17>  C        3.1303250000     0.9627200000     0.9693310000
| 18>  N        3.5230840000     1.7298550000     1.7295660000
| 19>  H        0.6778210000    -0.7744340000    -0.6124110000
| 20>  H        0.6509550000     0.9534890000    -0.2133230000
| 21>  H        0.7289970000    -0.2499050000     1.0778390000
| 22>  H        2.9833060000    -0.9772770000     0.2752140000
| 23>  H        2.7890160000     1.3658780000    -1.6815920000
| 24>  H        2.5743270000    -0.3259530000    -2.1246120000
| 25> *
| 26>
| 27>                          ****END OF INPUT****
 Total Charge           Charge          ....    0
 Multiplicity           Mult            ....    1
 Number of Electrons    NEL             ....   50
 Basis Dimension        Dim             ....  128

MULLIKEN ATOMIC CHARGES
-----------------------
   0 C :    0.050986
   1 C :   -0.167140
   2 C :    0.082493
   3 C :   -0.259012
   4 N :    0.083988
   5 C :   -0.197716
   6 N :    0.076742
   7 H :    0.037065
   8 H :    0.041387
   9 H :    0.053901
  10 H :    0.068899
  11 H :    0.065341
  12 H :    0.063065
Sum of atomic charges:   -0.0000000

LOEWDIN ATOMIC CHARGES
----------------------
   0 C :   -0.036673
   1 C :   -0.050965
   2 C :   -0.038498
   3 C :   -0.046653
   4 N :   -0.045178
   5 C :   -0.040364
   6 N :   -0.046790
   7 H :    0.035117
   8 H :    0.037585
   9 H :    0.043208
  10 H :    0.062329
  11 H :    0.064022
  12 H :    0.062860

  Mayer bond orders larger than 0.1
B(  0-C ,  1-C ) :   1.0949 B(  0-C ,  7-H ) :   0.9562 B(  0-C ,  8-H ) :   0.9550
B(  0-C ,  9-H ) :   0.9590 B(  1-C ,  2-C ) :   1.0674 B(  1-C ,  5-C ) :   1.0560
B(  1-C , 10-H ) :   0.8814 B(  2-C ,  3-C ) :   1.1289 B(  2-C , 11-H ) :   0.8871
B(  2-C , 12-H ) :   0.8920 B(  3-C ,  4-N ) :   3.0596 B(  5-C ,  6-N ) :   3.0766

FINAL SINGLE POINT ENERGY      -303.001586050364

DIPOLE MOMENT
-------------
                                X             Y             Z
Electronic contribution:      6.90920       1.81441       0.77973
Nuclear contribution   :     -8.85943      -2.57086      -1.46011
                        -----------------------------------------
Total Dipole Moment    :     -1.95023      -0.75644      -0.68038
                        -----------------------------------------
Magnitude (a.u.)       :      2.19966
Magnitude (Debye)      :      5.59110

                             ****ORCA TERMINATED NORMALLY****
TOTAL RUN TIME: 0 days 0 hours 0 minutes 6 seconds 221 msec
