                         Program Version 3.0.3 - RELEASE   -
|  1> ! RI PBE def2-SVP def2-SVP/J NBO PAL2
|  2> % maxcore 2000
|  3> % output
|  4>     # printlevel mini
|  5>     print[ P_Basis ] 0
|  6>     print[ P_SCFInfo ] 1
|  7>     print[ P_SCFIterInfo ] 1
|  8>     print[ P_OrbEn ] 0
|  9>     print[ P_Cartesian ] 0
| 10> end
| 11> *xyz 0 1
| 12>  C        0.9993330000    -0.0154630000    -0.0030110000
| 13>  C        2.4486550000     0.0283980000    -0.0599260000
| 14>  C        3.6513720000     0.0573950000    -0.1101420000
| 15>  C        5.1119650000     0.1346680000    -0.1715940000
| 16>  N        5.6273230000     0.7486040000    -1.3948600000
| 17>  C        5.6762660000     0.9003220000     1.0381110000
| 18>  N        7.1187270000     0.9330000000     1.1118370000
| 19>  H        0.5579440000     0.3970680000    -0.9139270000
| 20>  H        0.6211280000     0.5628310000     0.8437190000
| 21>  H        0.6421050000    -1.0426190000     0.1060450000
| 22>  H        5.5173300000    -0.8840350000    -0.1319850000
| 23>  H        5.1591650000     1.6366990000    -1.5426730000
| 24>  H        5.4015650000     0.1716700000    -2.1958810000
| 25>  H        5.2718620000     0.4661400000     1.9553930000
| 26>  H        5.2975080000     1.9281070000     0.9890110000
| 27>  H        7.4847610000     1.1695350000     0.1955830000
| 28>  H        7.4814900000     0.0156720000     1.3423200000
| 29> *
| 30>
| 31>                          ****END OF INPUT****
 Total Charge           Charge          ....    0
 Multiplicity           Mult            ....    1
 Number of Electrons    NEL             ....   54
 Basis Dimension        Dim             ....  148

MULLIKEN ATOMIC CHARGES
-----------------------
   0 C :    0.057970
   1 C :   -0.279725
   2 C :   -0.019883
   3 C :    0.007104
   4 N :   -0.177935
   5 C :    0.076058
   6 N :   -0.172085
   7 H :    0.043955
   8 H :    0.047495
   9 H :    0.044845
  10 H :    0.003772
  11 H :    0.092020
  12 H :    0.094311
  13 H :    0.015487
  14 H :    0.002843
  15 H :    0.083254
  16 H :    0.080513
Sum of atomic charges:   -0.0000000

LOEWDIN ATOMIC CHARGES
----------------------
   0 C :   -0.068179
   1 C :   -0.073667
   2 C :   -0.085387
   3 C :   -0.028784
   4 N :   -0.081638
   5 C :    0.007011
   6 N :   -0.097768
   7 H :    0.049386
   8 H :    0.050104
   9 H :    0.049662
  10 H :    0.031703
  11 H :    0.053680
  12 H :    0.056045
  13 H :    0.024956
  14 H :    0.019242
  15 H :    0.044389
  16 H :    0.049245

  Mayer bond orders larger than 0.1
B(  0-C ,  1-C ) :   1.1343 B(  0-C ,  7-H ) :   0.9306 B(  0-C ,  8-H ) :   0.9323
B(  0-C ,  9-H ) :   0.9345 B(  1-C ,  2-C ) :   2.6209 B(  2-C ,  3-C ) :   0.9314
B(  3-C ,  4-N ) :   1.0701 B(  3-C ,  5-C ) :   1.0068 B(  3-C , 10-H ) :   0.8697
B(  4-N , 11-H ) :   0.9709 B(  4-N , 12-H ) :   0.9703 B(  5-C ,  6-N ) :   1.1650
B(  5-C , 13-H ) :   0.9449 B(  5-C , 14-H ) :   0.9244 B(  6-N , 15-H ) :   0.9602
B(  6-N , 16-H ) :   0.9715

FINAL SINGLE POINT ENERGY      -305.359842506718

DIPOLE MOMENT
-------------
                                X             Y             Z
Electronic contribution:      0.38909      -0.58047      -0.62886
Nuclear contribution   :     -1.01649       0.20590       0.12585
                        -----------------------------------------
Total Dipole Moment    :     -0.62740      -0.37456      -0.50301
                        -----------------------------------------
Magnitude (a.u.)       :      0.88710
Magnitude (Debye)      :      2.25483

                             ****ORCA TERMINATED NORMALLY****
TOTAL RUN TIME: 0 days 0 hours 0 minutes 7 seconds 432 msec
