                         Program Version 3.0.3 - RELEASE   -
|  1> ! RI PBE def2-SVP def2-SVP/J NBO PAL2
|  2> % maxcore 2000
|  3> % output
|  4>     # printlevel mini
|  5>     print[ P_Basis ] 0
|  6>     print[ P_SCFInfo ] 1
|  7>     print[ P_SCFIterInfo ] 1
|  8>     print[ P_OrbEn ] 0
|  9>     print[ P_Cartesian ] 0
| 10> end
| 11> *xyz 0 1
| 12>  C        0.8963480000     0.0221110000     0.0022550000
| 13>  C        2.3460590000     0.0576730000    -0.0166970000
| 14>  C        3.5473400000     0.0813100000    -0.0364360000
| 15>  C        5.0000160000     0.1152840000    -0.0566390000
| 16>  N        5.5054060000     1.2639340000     0.6687820000
| 17>  C        6.8327110000     1.5281780000     0.7993100000
| 18>  N        7.4090510000     2.4876420000     1.4010230000
| 19>  H        0.4927900000     0.9134190000     0.4887240000
| 20>  H        0.5322610000    -0.8520990000     0.5472020000
| 21>  H        0.4927790000    -0.0178630000    -1.0123090000
| 22>  H        5.3409920000     0.1393970000    -1.0999150000
| 23>  H        5.3839220000    -0.8152730000     0.3815080000
| 24>  H        4.8317300000     1.8818140000     1.0878910000
| 25>  H        7.4609350000     0.7844180000     0.3004800000
| 26>  H        6.7353690000     3.1225460000     1.8310220000
| 27> *
| 28>
| 29>                          ****END OF INPUT****
 Total Charge           Charge          ....    0
 Multiplicity           Mult            ....    1
 Number of Electrons    NEL             ....   52
 Basis Dimension        Dim             ....  138

MULLIKEN ATOMIC CHARGES
-----------------------
   0 C :    0.052618
   1 C :   -0.209600
   2 C :   -0.164197
   3 C :    0.247373
   4 N :   -0.179838
   5 C :   -0.019330
   6 N :   -0.145957
   7 H :    0.051510
   8 H :    0.053098
   9 H :    0.051376
  10 H :    0.039977
  11 H :    0.036473
  12 H :    0.113118
  13 H :    0.004734
  14 H :    0.068646
Sum of atomic charges:   -0.0000000

LOEWDIN ATOMIC CHARGES
----------------------
   0 C :   -0.066428
   1 C :   -0.049799
   2 C :   -0.083359
   3 C :    0.027335
   4 N :   -0.025526
   5 C :    0.010706
   6 N :   -0.175365
   7 H :    0.053850
   8 H :    0.052853
   9 H :    0.052875
  10 H :    0.041588
  11 H :    0.041089
  12 H :    0.069764
  13 H :    0.012962
  14 H :    0.037456

  Mayer bond orders larger than 0.1
B(  0-C ,  1-C ) :   1.1327 B(  0-C ,  7-H ) :   0.9306 B(  0-C ,  8-H ) :   0.9331
B(  0-C ,  9-H ) :   0.9326 B(  1-C ,  2-C ) :   2.6215 B(  2-C ,  3-C ) :   1.0415
B(  3-C ,  4-N ) :   0.9817 B(  3-C , 10-H ) :   0.9021 B(  3-C , 11-H ) :   0.9011
B(  4-N ,  5-C ) :   1.1815 B(  4-N ,  6-N ) :   0.1145 B(  4-N , 12-H ) :   0.9340
B(  5-C ,  6-N ) :   1.9835 B(  5-C , 13-H ) :   0.9319 B(  6-N , 14-H ) :   0.9425

FINAL SINGLE POINT ENERGY      -304.157047750955

DIPOLE MOMENT
-------------
                                X             Y             Z
Electronic contribution:      3.10294       0.85801       0.46162
Nuclear contribution   :     -4.68815      -1.35148      -0.73552
                        -----------------------------------------
Total Dipole Moment    :     -1.58520      -0.49346      -0.27391
                        -----------------------------------------
Magnitude (a.u.)       :      1.68268
Magnitude (Debye)      :      4.27703

                             ****ORCA TERMINATED NORMALLY****
TOTAL RUN TIME: 0 days 0 hours 0 minutes 6 seconds 558 msec
