                         Program Version 3.0.3 - RELEASE   -
|  1> ! RI PBE def2-SVP def2-SVP/J NBO PAL2
|  2> % maxcore 2000
|  3> % output
|  4>     # printlevel mini
|  5>     print[ P_Basis ] 0
|  6>     print[ P_SCFInfo ] 1
|  7>     print[ P_SCFIterInfo ] 1
|  8>     print[ P_OrbEn ] 0
|  9>     print[ P_Cartesian ] 0
| 10> end
| 11> *xyz 0 1
| 12>  C        1.9209650000     1.2433370000     0.3032550000
| 13>  C        2.8741600000     0.0724940000     0.0868690000
| 14>  C        3.1489410000    -0.1968270000    -1.3548430000
| 15>  C        4.3596400000    -0.1406420000    -1.9067720000
| 16>  N        4.6381250000    -0.3793210000    -3.2401920000
| 17>  C        5.8746000000    -0.3262190000    -3.8366560000
| 18>  N        7.0123310000    -0.0594900000    -3.3455780000
| 19>  H        1.7144530000     1.3922970000     1.3657860000
| 20>  H        0.9657970000     1.0704630000    -0.1999510000
| 21>  H        2.3424180000     2.1688230000    -0.0957060000
| 22>  H        2.4430700000    -0.8235000000     0.5508350000
| 23>  H        3.8185150000     0.2610280000     0.6074060000
| 24>  H        2.2910770000    -0.4408380000    -1.9811560000
| 25>  H        5.2245770000     0.1048990000    -1.3004920000
| 26>  H        3.8625340000    -0.6154320000    -3.8358190000
| 27>  H        5.8157510000    -0.5578740000    -4.9016900000
| 28>  H        6.9769360000     0.1446020000    -2.3490750000
| 29> *
| 30>
| 31>                          ****END OF INPUT****
 Total Charge           Charge          ....    0
 Multiplicity           Mult            ....    1
 Number of Electrons    NEL             ....   54
 Basis Dimension        Dim             ....  148

MULLIKEN ATOMIC CHARGES
-----------------------
   0 C :   -0.026642
   1 C :    0.017322
   2 C :   -0.101705
   3 C :    0.052244
   4 N :   -0.050606
   5 C :   -0.014907
   6 N :   -0.142950
   7 H :    0.022927
   8 H :    0.018816
   9 H :    0.021291
  10 H :    0.023778
  11 H :    0.008008
  12 H :   -0.018368
  13 H :   -0.009328
  14 H :    0.114196
  15 H :    0.011363
  16 H :    0.074562
Sum of atomic charges:    0.0000000

LOEWDIN ATOMIC CHARGES
----------------------
   0 C :   -0.063585
   1 C :   -0.042371
   2 C :   -0.081987
   3 C :   -0.005117
   4 N :    0.024443
   5 C :    0.014262
   6 N :   -0.155904
   7 H :    0.026644
   8 H :    0.024435
   9 H :    0.025348
  10 H :    0.031789
  11 H :    0.027770
  12 H :    0.018097
  13 H :    0.020302
  14 H :    0.082629
  15 H :    0.015481
  16 H :    0.037767

  Mayer bond orders larger than 0.1
B(  0-C ,  1-C ) :   1.0980 B(  0-C ,  7-H ) :   0.9597 B(  0-C ,  8-H ) :   0.9683
B(  0-C ,  9-H ) :   0.9686 B(  1-C ,  2-C ) :   1.0808 B(  1-C , 10-H ) :   0.9203
B(  1-C , 11-H ) :   0.9362 B(  2-C ,  3-C ) :   1.8143 B(  2-C , 12-H ) :   0.9528
B(  3-C ,  4-N ) :   1.1182 B(  3-C , 13-H ) :   0.9366 B(  4-N ,  5-C ) :   1.1269
B(  4-N , 14-H ) :   0.9219 B(  5-C ,  6-N ) :   2.0034 B(  5-C , 15-H ) :   0.9416
B(  6-N , 16-H ) :   0.9584

FINAL SINGLE POINT ENERGY      -305.408353807339

DIPOLE MOMENT
-------------
                                X             Y             Z
Electronic contribution:      5.44134      -2.23427      -6.06257
Nuclear contribution   :     -6.60472       2.11257       6.28405
                        -----------------------------------------
Total Dipole Moment    :     -1.16338      -0.12169       0.22148
                        -----------------------------------------
Magnitude (a.u.)       :      1.19051
Magnitude (Debye)      :      3.02604

                             ****ORCA TERMINATED NORMALLY****
TOTAL RUN TIME: 0 days 0 hours 0 minutes 7 seconds 645 msec
