                         Program Version 3.0.3 - RELEASE   -
|  1> ! RI PBE def2-SVP def2-SVP/J NBO PAL2
|  2> % maxcore 2000
|  3> % output
|  4>     # printlevel mini
|  5>     print[ P_Basis ] 0
|  6>     print[ P_SCFInfo ] 1
|  7>     print[ P_SCFIterInfo ] 1
|  8>     print[ P_OrbEn ] 0
|  9>     print[ P_Cartesian ] 0
| 10> end
| 11> *xyz 0 1
| 12>  C        2.2136070000    -0.7266270000    -1.1686840000
| 13>  C        2.3121830000    -0.1225810000     0.2294890000
| 14>  C        2.8710360000    -1.0636970000     1.2595420000
| 15>  C        2.1326190000    -1.5083760000     2.2803660000
| 16>  N        4.1949680000    -1.4246000000     1.0229050000
| 17>  C        5.1679050000    -1.8225420000     1.9155440000
| 18>  N        5.1387730000    -1.9270080000     3.1760940000
| 19>  H        1.7644560000    -0.0124920000    -1.8617370000
| 20>  H        1.5968950000    -1.6277420000    -1.1595100000
| 21>  H        3.1898540000    -0.9968610000    -1.5813810000
| 22>  H        1.3187270000     0.1865030000     0.5586330000
| 23>  H        2.9322880000     0.7811620000     0.1966140000
| 24>  H        1.1176330000    -1.1514520000     2.3908240000
| 25>  H        2.4779590000    -2.2477690000     2.9884820000
| 26>  H        4.5293350000    -1.2517980000     0.0902220000
| 27>  H        6.0994480000    -2.0628120000     1.3977250000
| 28>  H        4.2402140000    -1.6469180000     3.5606710000
| 29> *
| 30>
| 31>                          ****END OF INPUT****
 Total Charge           Charge          ....    0
 Multiplicity           Mult            ....    1
 Number of Electrons    NEL             ....   54
 Basis Dimension        Dim             ....  148

MULLIKEN ATOMIC CHARGES
-----------------------
   0 C :   -0.037247
   1 C :    0.032851
   2 C :   -0.060312
   3 C :   -0.084789
   4 N :   -0.049577
   5 C :   -0.018748
   6 N :   -0.135812
   7 H :    0.035908
   8 H :    0.035202
   9 H :    0.015270
  10 H :    0.008469
  11 H :    0.028532
  12 H :    0.008299
  13 H :    0.024865
  14 H :    0.109774
  15 H :    0.008258
  16 H :    0.079058
Sum of atomic charges:   -0.0000000

LOEWDIN ATOMIC CHARGES
----------------------
   0 C :   -0.063498
   1 C :   -0.041365
   2 C :    0.003871
   3 C :   -0.123210
   4 N :    0.019724
   5 C :    0.018652
   6 N :   -0.144885
   7 H :    0.033637
   8 H :    0.032854
   9 H :    0.019444
  10 H :    0.036396
  11 H :    0.032615
  12 H :    0.025803
  13 H :    0.021846
  14 H :    0.075515
  15 H :    0.013266
  16 H :    0.039335

  Mayer bond orders larger than 0.1
B(  0-C ,  1-C ) :   1.1111 B(  0-C ,  7-H ) :   0.9582 B(  0-C ,  8-H ) :   0.9634
B(  0-C ,  9-H ) :   0.9613 B(  1-C ,  2-C ) :   1.0673 B(  1-C , 10-H ) :   0.9140
B(  1-C , 11-H ) :   0.9200 B(  2-C ,  3-C ) :   1.8846 B(  2-C ,  4-N ) :   1.1005
B(  3-C , 12-H ) :   0.9174 B(  3-C , 13-H ) :   0.9370 B(  4-N ,  5-C ) :   1.1232
B(  4-N , 14-H ) :   0.9117 B(  5-C ,  6-N ) :   2.0162 B(  5-C , 15-H ) :   0.9395
B(  6-N , 16-H ) :   0.9469

FINAL SINGLE POINT ENERGY      -305.405101502297

DIPOLE MOMENT
-------------
                                X             Y             Z
Electronic contribution:      4.14864      -1.56848       3.99938
Nuclear contribution   :     -4.71964       2.05919      -5.25772
                        -----------------------------------------
Total Dipole Moment    :     -0.57100       0.49071      -1.25834
                        -----------------------------------------
Magnitude (a.u.)       :      1.46637
Magnitude (Debye)      :      3.72723

                             ****ORCA TERMINATED NORMALLY****
TOTAL RUN TIME: 0 days 0 hours 0 minutes 8 seconds 283 msec
