                         Program Version 3.0.3 - RELEASE   -
|  1> ! RI PBE def2-SVP def2-SVP/J NBO PAL2
|  2> % maxcore 2000
|  3> % output
|  4>     # printlevel mini
|  5>     print[ P_Basis ] 0
|  6>     print[ P_SCFInfo ] 1
|  7>     print[ P_SCFIterInfo ] 1
|  8>     print[ P_OrbEn ] 0
|  9>     print[ P_Cartesian ] 0
| 10> end
| 11> *xyz 0 1
| 12>  C        2.5260260000     0.3336250000     1.4107980000
| 13>  C        2.5770820000     0.1283270000    -0.0999900000
| 14>  C        3.0231430000    -1.2529190000    -0.4986070000
| 15>  C        2.1878030000    -2.2706200000    -0.7983220000
| 16>  N        0.8304140000    -2.2349160000    -0.7611820000
| 17>  C        4.4164630000    -1.5131340000    -0.5173560000
| 18>  N        5.5590610000    -1.6845730000    -0.5233960000
| 19>  H        2.2093200000     1.3498840000     1.6572530000
| 20>  H        3.5104920000     0.1702470000     1.8540960000
| 21>  H        1.8301900000    -0.3649960000     1.8812540000
| 22>  H        3.2581020000     0.8592550000    -0.5445020000
| 23>  H        1.5948990000     0.3373720000    -0.5388890000
| 24>  H        2.6065120000    -3.2351050000    -1.0639990000
| 25>  H        0.3626100000    -1.3498230000    -0.6718320000
| 26>  H        0.3211030000    -2.9475240000    -1.2504280000
| 27> *
| 28>
| 29>                          ****END OF INPUT****
 Total Charge           Charge          ....    0
 Multiplicity           Mult            ....    1
 Number of Electrons    NEL             ....   52
 Basis Dimension        Dim             ....  138

MULLIKEN ATOMIC CHARGES
-----------------------
   0 C :    0.000643
   1 C :    0.060110
   2 C :   -0.265319
   3 C :    0.040416
   4 N :   -0.062967
   5 C :   -0.153090
   6 N :    0.035610
   7 H :    0.023454
   8 H :    0.039032
   9 H :    0.017427
  10 H :    0.028803
  11 H :   -0.017226
  12 H :    0.011836
  13 H :    0.112150
  14 H :    0.129122
Sum of atomic charges:   -0.0000000

LOEWDIN ATOMIC CHARGES
----------------------
   0 C :   -0.060028
   1 C :   -0.028835
   2 C :   -0.153574
   3 C :    0.035218
   4 N :    0.021459
   5 C :   -0.051392
   6 N :   -0.096866
   7 H :    0.026861
   8 H :    0.033898
   9 H :    0.025711
  10 H :    0.039987
  11 H :    0.018355
  12 H :    0.037770
  13 H :    0.071760
  14 H :    0.079676

  Mayer bond orders larger than 0.1
B(  0-C ,  1-C ) :   1.1243 B(  0-C ,  7-H ) :   0.9620 B(  0-C ,  8-H ) :   0.9654
B(  0-C ,  9-H ) :   0.9617 B(  1-C ,  2-C ) :   1.0597 B(  1-C , 10-H ) :   0.9134
B(  1-C , 11-H ) :   0.9062 B(  2-C ,  3-C ) :   1.6751 B(  2-C ,  5-C ) :   1.1908
B(  3-C ,  4-N ) :   1.2956 B(  3-C , 12-H ) :   0.9378 B(  4-N , 13-H ) :   0.9522
B(  4-N , 14-H ) :   0.9513 B(  5-C ,  6-N ) :   2.9651

FINAL SINGLE POINT ENERGY      -304.213811930209

DIPOLE MOMENT
-------------
                                X             Y             Z
Electronic contribution:      4.87920      -4.11223      -3.26454
Nuclear contribution   :     -7.30986       4.11503       3.00948
                        -----------------------------------------
Total Dipole Moment    :     -2.43066       0.00280      -0.25506
                        -----------------------------------------
Magnitude (a.u.)       :      2.44400
Magnitude (Debye)      :      6.21217

                             ****ORCA TERMINATED NORMALLY****
TOTAL RUN TIME: 0 days 0 hours 0 minutes 6 seconds 475 msec
