                         Program Version 3.0.3 - RELEASE   -
|  1> ! RI PBE def2-SVP def2-SVP/J NBO PAL2
|  2> % maxcore 2000
|  3> % output
|  4>     # printlevel mini
|  5>     print[ P_Basis ] 0
|  6>     print[ P_SCFInfo ] 1
|  7>     print[ P_SCFIterInfo ] 1
|  8>     print[ P_OrbEn ] 0
|  9>     print[ P_Cartesian ] 0
| 10> end
| 11> *xyz 0 1
| 12>  C        3.0043710000     1.1464830000    -0.6705450000
| 13>  C        2.5019560000    -0.0736820000     0.0842320000
| 14>  C        3.0447330000    -1.4249980000    -0.4001350000
| 15>  C        2.5102240000    -2.5282570000     0.5106190000
| 16>  N        2.6374650000    -1.6019150000    -1.7949600000
| 17>  C        4.5774130000    -1.4424110000    -0.3963900000
| 18>  N        5.1325000000    -1.1752700000     0.9213250000
| 19>  H        2.4750460000     2.0455680000    -0.3462690000
| 20>  H        2.8539330000     1.0260490000    -1.7444600000
| 21>  H        4.0708830000     1.3238540000    -0.5050060000
| 22>  H        1.4080000000    -0.1170220000     0.0118360000
| 23>  H        2.7198350000     0.0216880000     1.1525750000
| 24>  H        1.4168920000    -2.4997560000     0.5466320000
| 25>  H        2.8973560000    -2.4223320000     1.5259410000
| 26>  H        2.8100110000    -3.5117840000     0.1355660000
| 27>  H        1.6252330000    -1.6320680000    -1.8536590000
| 28>  H        2.9698820000    -2.4952820000    -2.1419800000
| 29>  H        4.9234660000    -0.7538770000    -1.1787430000
| 30>  H        4.9000850000    -2.4457040000    -0.6971750000
| 31>  H        5.0901320000    -0.1863090000     1.1342330000
| 32>  H        6.1083550000    -1.4380640000     0.9545560000
| 33> *
| 34>
| 35>                          ****END OF INPUT****
 Total Charge           Charge          ....    0
 Multiplicity           Mult            ....    1
 Number of Electrons    NEL             ....   58
 Basis Dimension        Dim             ....  168

MULLIKEN ATOMIC CHARGES
-----------------------
   0 C :    0.010462
   1 C :   -0.016542
   2 C :   -0.249500
   3 C :    0.094611
   4 N :   -0.140084
   5 C :    0.112443
   6 N :   -0.194059
   7 H :    0.010331
   8 H :    0.026935
   9 H :    0.006898
  10 H :    0.002235
  11 H :    0.009507
  12 H :    0.000538
  13 H :    0.012646
  14 H :   -0.009900
  15 H :    0.079208
  16 H :    0.078890
  17 H :    0.004902
  18 H :   -0.018750
  19 H :    0.087412
  20 H :    0.091818
Sum of atomic charges:    0.0000000

LOEWDIN ATOMIC CHARGES
----------------------
   0 C :   -0.069730
   1 C :   -0.044072
   2 C :   -0.032734
   3 C :   -0.066465
   4 N :   -0.084020
   5 C :    0.009501
   6 N :   -0.102202
   7 H :    0.025202
   8 H :    0.026594
   9 H :    0.018028
  10 H :    0.021971
  11 H :    0.023370
  12 H :    0.016874
  13 H :    0.024224
  14 H :    0.016415
  15 H :    0.048128
  16 H :    0.047303
  17 H :    0.001741
  18 H :    0.015095
  19 H :    0.049520
  20 H :    0.055255

  Mayer bond orders larger than 0.1
B(  0-C ,  1-C ) :   1.1182 B(  0-C ,  7-H ) :   0.9541 B(  0-C ,  8-H ) :   0.9513
B(  0-C ,  9-H ) :   0.9553 B(  1-C ,  2-C ) :   1.0272 B(  1-C , 10-H ) :   0.9280
B(  1-C , 11-H ) :   0.9295 B(  2-C ,  3-C ) :   1.0448 B(  2-C ,  4-N ) :   1.0414
B(  2-C ,  5-C ) :   1.0046 B(  3-C , 12-H ) :   0.9532 B(  3-C , 13-H ) :   0.9354
B(  3-C , 14-H ) :   0.9496 B(  4-N , 15-H ) :   0.9608 B(  4-N , 16-H ) :   0.9597
B(  5-C ,  6-N ) :   1.1212 B(  5-C , 17-H ) :   0.9288 B(  5-C , 18-H ) :   0.9215
B(  6-N , 19-H ) :   0.9664 B(  6-N , 20-H ) :   0.9627

FINAL SINGLE POINT ENERGY      -307.813283706197

DIPOLE MOMENT
-------------
                                X             Y             Z
Electronic contribution:      0.89739      -1.18884      -0.52231
Nuclear contribution   :     -0.71506       1.08963       0.48692
                        -----------------------------------------
Total Dipole Moment    :      0.18233      -0.09921      -0.03540
                        -----------------------------------------
Magnitude (a.u.)       :      0.21057
Magnitude (Debye)      :      0.53523

                             ****ORCA TERMINATED NORMALLY****
TOTAL RUN TIME: 0 days 0 hours 0 minutes 8 seconds 809 msec
