                         Program Version 3.0.3 - RELEASE   -
|  1> ! RI PBE def2-SVP def2-SVP/J NBO PAL2
|  2> % maxcore 2000
|  3> % output
|  4>     # printlevel mini
|  5>     print[ P_Basis ] 0
|  6>     print[ P_SCFInfo ] 1
|  7>     print[ P_SCFIterInfo ] 1
|  8>     print[ P_OrbEn ] 0
|  9>     print[ P_Cartesian ] 0
| 10> end
| 11> *xyz 0 1
| 12>  C        2.9699060000     0.3671220000    -1.4356820000
| 13>  C        2.1550010000    -0.4454980000    -0.4465050000
| 14>  C        2.9729450000    -0.9946750000     0.7221440000
| 15>  C        2.0832780000    -1.6637600000     1.7607150000
| 16>  N        4.0114940000    -1.8966930000     0.2705950000
| 17>  C        5.3470980000    -1.6873280000     0.4198330000
| 18>  N        6.3253490000    -2.4275050000     0.0839340000
| 19>  H        2.3492030000     0.7214740000    -2.2611970000
| 20>  H        3.7844930000    -0.2245550000    -1.8586600000
| 21>  H        3.4124610000     1.2441250000    -0.9546430000
| 22>  H        1.6720930000    -1.2877960000    -0.9578470000
| 23>  H        1.3426430000     0.1657060000    -0.0395800000
| 24>  H        3.4936560000    -0.1552610000     1.1969710000
| 25>  H        1.5561510000    -2.5181400000     1.3246420000
| 26>  H        1.3296980000    -0.9680070000     2.1366790000
| 27>  H        2.6740050000    -2.0252210000     2.6042360000
| 28>  H        3.7194300000    -2.7674650000    -0.1457710000
| 29>  H        5.5691300000    -0.7307440000     0.9002030000
| 30>  H        6.0111770000    -3.2935680000    -0.3552560000
| 31> *
| 32>
| 33>                          ****END OF INPUT****
 Total Charge           Charge          ....    0
 Multiplicity           Mult            ....    1
 Number of Electrons    NEL             ....   56
 Basis Dimension        Dim             ....  158

MULLIKEN ATOMIC CHARGES
-----------------------
   0 C :   -0.002498
   1 C :   -0.017295
   2 C :   -0.034353
   3 C :    0.038518
   4 N :   -0.117942
   5 C :   -0.039674
   6 N :   -0.150661
   7 H :    0.023107
   8 H :    0.028977
   9 H :    0.015600
  10 H :    0.000662
  11 H :    0.014689
  12 H :    0.011041
  13 H :    0.011417
  14 H :    0.022533
  15 H :    0.026848
  16 H :    0.095009
  17 H :    0.010220
  18 H :    0.063804
Sum of atomic charges:    0.0000000

LOEWDIN ATOMIC CHARGES
----------------------
   0 C :   -0.067896
   1 C :   -0.050912
   2 C :    0.014263
   3 C :   -0.064775
   4 N :   -0.004971
   5 C :    0.006279
   6 N :   -0.184443
   7 H :    0.029248
   8 H :    0.027463
   9 H :    0.026292
  10 H :    0.020965
  11 H :    0.026941
  12 H :    0.026904
  13 H :    0.024115
  14 H :    0.029883
  15 H :    0.029622
  16 H :    0.063018
  17 H :    0.013129
  18 H :    0.034875

  Mayer bond orders larger than 0.1
B(  0-C ,  1-C ) :   1.1191 B(  0-C ,  7-H ) :   0.9598 B(  0-C ,  8-H ) :   0.9604
B(  0-C ,  9-H ) :   0.9634 B(  1-C ,  2-C ) :   1.0491 B(  1-C , 10-H ) :   0.9265
B(  1-C , 11-H ) :   0.9337 B(  2-C ,  3-C ) :   1.0895 B(  2-C ,  4-N ) :   0.9898
B(  2-C , 12-H ) :   0.9052 B(  3-C , 13-H ) :   0.9548 B(  3-C , 14-H ) :   0.9556
B(  3-C , 15-H ) :   0.9573 B(  4-N ,  5-C ) :   1.1765 B(  4-N ,  6-N ) :   0.1169
B(  4-N , 16-H ) :   0.9281 B(  5-C ,  6-N ) :   1.9816 B(  5-C , 17-H ) :   0.9308
B(  6-N , 18-H ) :   0.9402

FINAL SINGLE POINT ENERGY      -306.621249348543

DIPOLE MOMENT
-------------
                                X             Y             Z
Electronic contribution:      5.30434      -2.95187       0.60161
Nuclear contribution   :     -6.77025       3.00408      -0.62455
                        -----------------------------------------
Total Dipole Moment    :     -1.46591       0.05221      -0.02294
                        -----------------------------------------
Magnitude (a.u.)       :      1.46702
Magnitude (Debye)      :      3.72887

                             ****ORCA TERMINATED NORMALLY****
TOTAL RUN TIME: 0 days 0 hours 0 minutes 8 seconds 1 msec
