                         Program Version 3.0.3 - RELEASE   -
|  1> ! RI PBE def2-SVP def2-SVP/J NBO PAL2
|  2> % maxcore 2000
|  3> % output
|  4>     # printlevel mini
|  5>     print[ P_Basis ] 0
|  6>     print[ P_SCFInfo ] 1
|  7>     print[ P_SCFIterInfo ] 1
|  8>     print[ P_OrbEn ] 0
|  9>     print[ P_Cartesian ] 0
| 10> end
| 11> *xyz 0 1
| 12>  C        1.0460960000    -0.1983460000     0.0807680000
| 13>  C        2.5597880000    -0.1335990000     0.0299030000
| 14>  C        3.0691390000     0.8884650000    -1.0089530000
| 15>  C        4.5247580000     1.0184360000    -0.9542970000
| 16>  N        5.6654440000     1.1149150000    -0.8645530000
| 17>  C        2.6332590000     0.5445740000    -2.3631210000
| 18>  N        2.2548680000     0.2594650000    -3.4091470000
| 19>  H        0.7262990000    -0.9244050000     0.8296120000
| 20>  H        0.6260750000    -0.5021580000    -0.8804570000
| 21>  H        0.6141970000     0.7691890000     0.3495050000
| 22>  H        2.9852410000    -1.1098940000    -0.2124250000
| 23>  H        2.9701530000     0.1641740000     0.9975860000
| 24>  H        2.6451940000     1.8731750000    -0.7745200000
| 25> *
| 26>
| 27>                          ****END OF INPUT****
 Total Charge           Charge          ....    0
 Multiplicity           Mult            ....    1
 Number of Electrons    NEL             ....   50
 Basis Dimension        Dim             ....  128

MULLIKEN ATOMIC CHARGES
-----------------------
   0 C :    0.007819
   1 C :   -0.041752
   2 C :   -0.029315
   3 C :   -0.200733
   4 N :    0.095977
   5 C :   -0.210987
   6 N :    0.080354
   7 H :    0.042497
   8 H :    0.047988
   9 H :    0.025622
  10 H :    0.052908
  11 H :    0.048202
  12 H :    0.081419
Sum of atomic charges:   -0.0000000

LOEWDIN ATOMIC CHARGES
----------------------
   0 C :   -0.062131
   1 C :   -0.011385
   2 C :   -0.072266
   3 C :   -0.028523
   4 N :   -0.034193
   5 C :   -0.029270
   6 N :   -0.034644
   7 H :    0.039913
   8 H :    0.037516
   9 H :    0.030990
  10 H :    0.041405
  11 H :    0.040350
  12 H :    0.082238

  Mayer bond orders larger than 0.1
B(  0-C ,  1-C ) :   1.1288 B(  0-C ,  7-H ) :   0.9583 B(  0-C ,  8-H ) :   0.9556
B(  0-C ,  9-H ) :   0.9595 B(  1-C ,  2-C ) :   1.0826 B(  1-C , 10-H ) :   0.9253
B(  1-C , 11-H ) :   0.9342 B(  2-C ,  3-C ) :   1.0570 B(  2-C ,  5-C ) :   1.0292
B(  2-C , 12-H ) :   0.8450 B(  3-C ,  4-N ) :   3.0789 B(  5-C ,  6-N ) :   3.0662

FINAL SINGLE POINT ENERGY      -302.995077749464

DIPOLE MOMENT
-------------
                                X             Y             Z
Electronic contribution:      6.22504       2.46932      -5.59497
Nuclear contribution   :     -7.28569      -2.43458       6.86959
                        -----------------------------------------
Total Dipole Moment    :     -1.06065       0.03474       1.27462
                        -----------------------------------------
Magnitude (a.u.)       :      1.65857
Magnitude (Debye)      :      4.21574

                             ****ORCA TERMINATED NORMALLY****
TOTAL RUN TIME: 0 days 0 hours 0 minutes 6 seconds 27 msec
