                         Program Version 3.0.3 - RELEASE   -
|  1> ! RI PBE def2-SVP def2-SVP/J NBO PAL2
|  2> % maxcore 2000
|  3> % output
|  4>     # printlevel mini
|  5>     print[ P_Basis ] 0
|  6>     print[ P_SCFInfo ] 1
|  7>     print[ P_SCFIterInfo ] 1
|  8>     print[ P_OrbEn ] 0
|  9>     print[ P_Cartesian ] 0
| 10> end
| 11> *xyz 0 1
| 12>  C        2.8832800000    -1.2105400000     0.1680040000
| 13>  C        2.7917840000     0.2892370000     0.3994620000
| 14>  C        3.2570130000     1.1428980000    -0.7775840000
| 15>  C        2.7037390000     2.5611200000    -0.6858480000
| 16>  N        1.2576880000     2.5757380000    -0.8767120000
| 17>  C        4.7770970000     1.1717560000    -0.9000520000
| 18>  N        5.1980370000     1.7054640000    -2.1892430000
| 19>  H        2.5448140000    -1.7665770000     1.0456550000
| 20>  H        3.9041820000    -1.5366170000    -0.0487440000
| 21>  H        2.2545690000    -1.5126850000    -0.6746280000
| 22>  H        3.3769490000     0.5652060000     1.2865470000
| 23>  H        1.7544370000     0.5595450000     0.6149550000
| 24>  H        2.8596490000     0.6930230000    -1.7015170000
| 25>  H        3.2504490000     3.1941490000    -1.3962460000
| 26>  H        2.9119830000     2.9470390000     0.3194580000
| 27>  H        1.0360520000     2.3866030000    -1.8473490000
| 28>  H        0.8819290000     3.4921210000    -0.6686780000
| 29>  H        5.1768640000     0.1679340000    -0.6955850000
| 30>  H        5.1770100000     1.8278070000    -0.1176090000
| 31>  H        4.9729220000     1.0491700000    -2.9275500000
| 32>  H        6.2010640000     1.8378880000    -2.2120370000
| 33> *
| 34>
| 35>                          ****END OF INPUT****
 Total Charge           Charge          ....    0
 Multiplicity           Mult            ....    1
 Number of Electrons    NEL             ....   58
 Basis Dimension        Dim             ....  168

MULLIKEN ATOMIC CHARGES
-----------------------
   0 C :    0.000034
   1 C :    0.009412
   2 C :   -0.150446
   3 C :    0.103194
   4 N :   -0.197941
   5 C :    0.110606
   6 N :   -0.205496
   7 H :    0.016201
   8 H :    0.005449
   9 H :    0.014258
  10 H :   -0.007766
  11 H :    0.009645
  12 H :   -0.020071
  13 H :   -0.000544
  14 H :   -0.011866
  15 H :    0.083051
  16 H :    0.086159
  17 H :   -0.012580
  18 H :   -0.006646
  19 H :    0.086929
  20 H :    0.088419
Sum of atomic charges:   -0.0000000

LOEWDIN ATOMIC CHARGES
----------------------
   0 C :   -0.067245
   1 C :   -0.041765
   2 C :   -0.054764
   3 C :    0.009179
   4 N :   -0.107948
   5 C :    0.011122
   6 N :   -0.107987
   7 H :    0.026368
   8 H :    0.016154
   9 H :    0.023155
  10 H :    0.018675
  11 H :    0.024032
  12 H :    0.014904
  13 H :    0.000637
  14 H :    0.015873
  15 H :    0.048612
  16 H :    0.051484
  17 H :   -0.001027
  18 H :    0.018453
  19 H :    0.049625
  20 H :    0.052465

  Mayer bond orders larger than 0.1
B(  0-C ,  1-C ) :   1.1154 B(  0-C ,  7-H ) :   0.9579 B(  0-C ,  8-H ) :   0.9599
B(  0-C ,  9-H ) :   0.9637 B(  1-C ,  2-C ) :   1.0561 B(  1-C , 10-H ) :   0.9291
B(  1-C , 11-H ) :   0.9175 B(  2-C ,  3-C ) :   1.0487 B(  2-C ,  5-C ) :   1.0463
B(  2-C , 12-H ) :   0.9124 B(  3-C ,  4-N ) :   1.0889 B(  3-C , 13-H ) :   0.9254
B(  3-C , 14-H ) :   0.9231 B(  4-N , 15-H ) :   0.9704 B(  4-N , 16-H ) :   0.9647
B(  5-C ,  6-N ) :   1.0844 B(  5-C , 17-H ) :   0.9299 B(  5-C , 18-H ) :   0.9190
B(  6-N , 19-H ) :   0.9703 B(  6-N , 20-H ) :   0.9651

FINAL SINGLE POINT ENERGY      -307.807734375359

DIPOLE MOMENT
-------------
                                X             Y             Z
Electronic contribution:     -0.09875       2.59899      -1.36863
Nuclear contribution   :      0.47693      -2.55970       0.98779
                        -----------------------------------------
Total Dipole Moment    :      0.37817       0.03928      -0.38083
                        -----------------------------------------
Magnitude (a.u.)       :      0.53814
Magnitude (Debye)      :      1.36784

                             ****ORCA TERMINATED NORMALLY****
TOTAL RUN TIME: 0 days 0 hours 0 minutes 8 seconds 559 msec
