                         Program Version 3.0.3 - RELEASE   -
|  1> ! RI PBE def2-SVP def2-SVP/J NBO PAL2
|  2> % maxcore 2000
|  3> % output
|  4>     # printlevel mini
|  5>     print[ P_Basis ] 0
|  6>     print[ P_SCFInfo ] 1
|  7>     print[ P_SCFIterInfo ] 1
|  8>     print[ P_OrbEn ] 0
|  9>     print[ P_Cartesian ] 0
| 10> end
| 11> *xyz 0 1
| 12>  C        2.4329120000     2.5224790000     2.2988920000
| 13>  C        2.6914820000     1.4988370000     1.2027970000
| 14>  C        4.1738200000     1.1997870000     0.9476060000
| 15>  C        4.7216360000    -0.0711490000     1.6018090000
| 16>  N        6.1005930000    -0.3664750000     1.2259560000
| 17>  C        4.6462900000    -0.0516950000     3.1284830000
| 18>  N        5.0894930000    -1.2673980000     3.7831930000
| 19>  H        1.3622430000     2.6831340000     2.4475730000
| 20>  H        2.8787620000     3.4867510000     2.0392990000
| 21>  H        2.8580240000     2.2152760000     3.2570260000
| 22>  H        2.2343810000     1.8634410000     0.2780660000
| 23>  H        2.1687230000     0.5639790000     1.4380460000
| 24>  H        4.3476040000     1.1049870000    -0.1298060000
| 25>  H        4.7837030000     2.0531270000     1.2736950000
| 26>  H        4.1149830000    -0.9198320000     1.2561810000
| 27>  H        6.6885570000     0.4396910000     1.4126270000
| 28>  H        6.1716600000    -0.5548110000     0.2336200000
| 29>  H        3.6235710000     0.1626170000     3.4473290000
| 30>  H        5.2612220000     0.7840150000     3.4910210000
| 31>  H        5.9431350000    -1.5749840000     3.3278410000
| 32>  H        4.4093960000    -2.0045870000     3.6392360000
| 33> *
| 34>
| 35>                          ****END OF INPUT****
 Total Charge           Charge          ....    0
 Multiplicity           Mult            ....    1
 Number of Electrons    NEL             ....   58
 Basis Dimension        Dim             ....  168

MULLIKEN ATOMIC CHARGES
-----------------------
   0 C :   -0.028869
   1 C :   -0.032212
   2 C :    0.025707
   3 C :   -0.080743
   4 N :   -0.172137
   5 C :    0.100821
   6 N :   -0.190057
   7 H :    0.022291
   8 H :    0.018568
   9 H :    0.021097
  10 H :    0.006454
  11 H :    0.010412
  12 H :   -0.008973
  13 H :   -0.010180
  14 H :   -0.010425
  15 H :    0.084777
  16 H :    0.087107
  17 H :    0.007365
  18 H :   -0.010005
  19 H :    0.079719
  20 H :    0.079283
Sum of atomic charges:    0.0000000

LOEWDIN ATOMIC CHARGES
----------------------
   0 C :   -0.068184
   1 C :   -0.049436
   2 C :   -0.058026
   3 C :   -0.023391
   4 N :   -0.088829
   5 C :   -0.001458
   6 N :   -0.105447
   7 H :    0.026970
   8 H :    0.024358
   9 H :    0.022002
  10 H :    0.026159
  11 H :    0.021668
  12 H :    0.018939
  13 H :    0.017763
  14 H :    0.013267
  15 H :    0.049229
  16 H :    0.050968
  17 H :    0.019663
  18 H :    0.013931
  19 H :    0.041642
  20 H :    0.048212

  Mayer bond orders larger than 0.1
B(  0-C ,  1-C ) :   1.1196 B(  0-C ,  7-H ) :   0.9604 B(  0-C ,  8-H ) :   0.9613
B(  0-C ,  9-H ) :   0.9634 B(  1-C ,  2-C ) :   1.0618 B(  1-C , 10-H ) :   0.9313
B(  1-C , 11-H ) :   0.9407 B(  2-C ,  3-C ) :   1.0431 B(  2-C , 12-H ) :   0.9247
B(  2-C , 13-H ) :   0.9209 B(  3-C ,  4-N ) :   1.0747 B(  3-C ,  5-C ) :   1.0230
B(  3-C , 14-H ) :   0.9012 B(  4-N , 15-H ) :   0.9693 B(  4-N , 16-H ) :   0.9686
B(  5-C ,  6-N ) :   1.1446 B(  5-C , 17-H ) :   0.9359 B(  5-C , 18-H ) :   0.9217
B(  6-N , 19-H ) :   0.9616 B(  6-N , 20-H ) :   0.9726

FINAL SINGLE POINT ENERGY      -307.810468707077

DIPOLE MOMENT
-------------
                                X             Y             Z
Electronic contribution:      2.83339      -3.17567       0.18147
Nuclear contribution   :     -2.98588       3.38717      -1.02081
                        -----------------------------------------
Total Dipole Moment    :     -0.15249       0.21151      -0.83934
                        -----------------------------------------
Magnitude (a.u.)       :      0.87891
Magnitude (Debye)      :      2.23400

                             ****ORCA TERMINATED NORMALLY****
TOTAL RUN TIME: 0 days 0 hours 0 minutes 8 seconds 409 msec
