                         Program Version 3.0.3 - RELEASE   -
|  1> ! RI PBE def2-SVP def2-SVP/J NBO PAL2
|  2> % maxcore 2000
|  3> % output
|  4>     # printlevel mini
|  5>     print[ P_Basis ] 0
|  6>     print[ P_SCFInfo ] 1
|  7>     print[ P_SCFIterInfo ] 1
|  8>     print[ P_OrbEn ] 0
|  9>     print[ P_Cartesian ] 0
| 10> end
| 11> *xyz 0 1
| 12>  C        0.6145230000    -0.9248160000    -0.5554110000
| 13>  C        2.0518580000    -0.7206870000    -0.1079300000
| 14>  C        2.8072550000     0.2681870000    -0.9811160000
| 15>  C        4.2441840000     0.5158080000    -0.5386550000
| 16>  N        4.3651130000     1.1533420000     0.7496630000
| 17>  C        4.7601960000     0.5218840000     1.8886590000
| 18>  N        4.8216700000     0.9640940000     3.0791460000
| 19>  H        0.0958550000    -1.6425300000     0.0837860000
| 20>  H        0.5676500000    -1.2992420000    -1.5819270000
| 21>  H        0.0542560000     0.0138490000    -0.5220160000
| 22>  H        2.5794390000    -1.6819600000    -0.1171040000
| 23>  H        2.0683410000    -0.3754370000     0.9307570000
| 24>  H        2.2702100000     1.2250980000    -1.0044360000
| 25>  H        2.8251100000    -0.0917810000    -2.0168220000
| 26>  H        4.7613690000     1.1192520000    -1.2929600000
| 27>  H        4.7829010000    -0.4349330000    -0.4817630000
| 28>  H        4.0264470000     2.0982070000     0.8372360000
| 29>  H        5.0735040000    -0.5096360000     1.7067570000
| 30>  H        4.5075190000     1.9333000000     3.1396360000
| 31> *
| 32>
| 33>                          ****END OF INPUT****
 Total Charge           Charge          ....    0
 Multiplicity           Mult            ....    1
 Number of Electrons    NEL             ....   56
 Basis Dimension        Dim             ....  158

MULLIKEN ATOMIC CHARGES
-----------------------
   0 C :   -0.012677
   1 C :   -0.065057
   2 C :   -0.020256
   3 C :    0.107378
   4 N :   -0.146154
   5 C :   -0.022494
   6 N :   -0.156687
   7 H :    0.026960
   8 H :    0.017527
   9 H :    0.018369
  10 H :    0.011544
  11 H :    0.027408
  12 H :    0.003612
  13 H :    0.007616
  14 H :    0.019579
  15 H :    0.015346
  16 H :    0.099369
  17 H :    0.003973
  18 H :    0.064643
Sum of atomic charges:    0.0000000

LOEWDIN ATOMIC CHARGES
----------------------
   0 C :   -0.066564
   1 C :   -0.050349
   2 C :   -0.054708
   3 C :    0.023329
   4 N :   -0.015168
   5 C :    0.008608
   6 N :   -0.184392
   7 H :    0.029066
   8 H :    0.024472
   9 H :    0.024820
  10 H :    0.024014
  11 H :    0.026491
  12 H :    0.020366
  13 H :    0.026450
  14 H :    0.022446
  15 H :    0.029205
  16 H :    0.064532
  17 H :    0.012098
  18 H :    0.035283

  Mayer bond orders larger than 0.1
B(  0-C ,  1-C ) :   1.1218 B(  0-C ,  7-H ) :   0.9613 B(  0-C ,  8-H ) :   0.9641
B(  0-C ,  9-H ) :   0.9644 B(  1-C ,  2-C ) :   1.0867 B(  1-C , 10-H ) :   0.9409
B(  1-C , 11-H ) :   0.9363 B(  2-C ,  3-C ) :   1.0841 B(  2-C , 12-H ) :   0.9328
B(  2-C , 13-H ) :   0.9230 B(  3-C ,  4-N ) :   1.0326 B(  3-C , 14-H ) :   0.9363
B(  3-C , 15-H ) :   0.9228 B(  4-N ,  5-C ) :   1.1752 B(  4-N ,  6-N ) :   0.1150
B(  4-N , 16-H ) :   0.9319 B(  5-C ,  6-N ) :   1.9814 B(  5-C , 17-H ) :   0.9289
B(  6-N , 18-H ) :   0.9422

FINAL SINGLE POINT ENERGY      -306.618440599375

DIPOLE MOMENT
-------------
                                X             Y             Z
Electronic contribution:      5.77501       2.94215       4.59616
Nuclear contribution   :     -6.26809      -2.57408      -5.87770
                        -----------------------------------------
Total Dipole Moment    :     -0.49308       0.36807      -1.28154
                        -----------------------------------------
Magnitude (a.u.)       :      1.42160
Magnitude (Debye)      :      3.61342

                             ****ORCA TERMINATED NORMALLY****
TOTAL RUN TIME: 0 days 0 hours 0 minutes 7 seconds 859 msec
