                         Program Version 3.0.3 - RELEASE   -
|  1> ! RI PBE def2-SVP def2-SVP/J NBO PAL2
|  2> % maxcore 2000
|  3> % output
|  4>     # printlevel mini
|  5>     print[ P_Basis ] 0
|  6>     print[ P_SCFInfo ] 1
|  7>     print[ P_SCFIterInfo ] 1
|  8>     print[ P_OrbEn ] 0
|  9>     print[ P_Cartesian ] 0
| 10> end
| 11> *xyz 0 1
| 12>  C        1.5476090000     0.3416130000     1.1111300000
| 13>  C        2.1470680000     0.0631570000    -0.0371650000
| 14>  C        2.9261280000    -1.1879550000    -0.3134860000
| 15>  C        4.3614240000    -0.8896400000    -0.5866240000
| 16>  N        4.8879980000    -1.1667270000    -1.7085790000
| 17>  N        6.2342900000    -0.8009280000    -1.7584990000
| 18>  C        6.7673080000    -1.0893680000    -2.8702000000
| 19>  H        0.9966220000     1.2639760000     1.2528600000
| 20>  H        1.5810660000    -0.3468810000     1.9500390000
| 21>  H        2.0948810000     0.7770910000    -0.8562020000
| 22>  H        2.5166750000    -1.7148270000    -1.1798990000
| 23>  H        2.8607510000    -1.8525590000     0.5554320000
| 24>  H        4.9555020000    -0.4108220000     0.1973500000
| 25>  H        7.8159810000    -0.8446270000    -3.0100870000
| 26>  H        6.2077880000    -1.5691150000    -3.6753910000
| 27> *
| 28>
| 29>                          ****END OF INPUT****
 Total Charge           Charge          ....    0
 Multiplicity           Mult            ....    1
 Number of Electrons    NEL             ....   52
 Basis Dimension        Dim             ....  138

MULLIKEN ATOMIC CHARGES
-----------------------
   0 C :   -0.032267
   1 C :   -0.101785
   2 C :    0.136618
   3 C :   -0.036309
   4 N :   -0.095110
   5 N :   -0.105338
   6 C :    0.025972
   7 H :    0.031077
   8 H :    0.023573
   9 H :    0.020775
  10 H :    0.028051
  11 H :    0.029257
  12 H :    0.003686
  13 H :    0.047452
  14 H :    0.024348
Sum of atomic charges:   -0.0000000

LOEWDIN ATOMIC CHARGES
----------------------
   0 C :   -0.057741
   1 C :   -0.024969
   2 C :   -0.050156
   3 C :    0.030528
   4 N :   -0.059646
   5 N :   -0.042336
   6 C :    0.010238
   7 H :    0.028070
   8 H :    0.023491
   9 H :    0.030424
  10 H :    0.043060
  11 H :    0.044742
  12 H :    0.003100
  13 H :    0.021166
  14 H :    0.000030

  Mayer bond orders larger than 0.1
B(  0-C ,  1-C ) :   2.0082 B(  0-C ,  7-H ) :   0.9449 B(  0-C ,  8-H ) :   0.9494
B(  1-C ,  2-C ) :   1.0426 B(  1-C ,  9-H ) :   0.9566 B(  2-C ,  3-C ) :   1.0109
B(  2-C , 10-H ) :   0.9002 B(  2-C , 11-H ) :   0.9096 B(  3-C ,  4-N ) :   1.8731
B(  3-C ,  6-C ) :   0.1120 B(  3-C , 12-H ) :   0.9358 B(  4-N ,  5-N ) :   0.9752
B(  5-N ,  6-C ) :   1.9302 B(  6-C , 13-H ) :   0.9509 B(  6-C , 14-H ) :   0.9248

FINAL SINGLE POINT ENERGY      -304.146796473287

DIPOLE MOMENT
-------------
                                X             Y             Z
Electronic contribution:      3.66212      -0.72746      -2.14941
Nuclear contribution   :     -3.84176       0.70102       2.21451
                        -----------------------------------------
Total Dipole Moment    :     -0.17964      -0.02644       0.06509
                        -----------------------------------------
Magnitude (a.u.)       :      0.19289
Magnitude (Debye)      :      0.49029

                             ****ORCA TERMINATED NORMALLY****
TOTAL RUN TIME: 0 days 0 hours 0 minutes 6 seconds 273 msec
