                         Program Version 3.0.3 - RELEASE   -
|  1> ! RI PBE def2-SVP def2-SVP/J NBO PAL2
|  2> % maxcore 2000
|  3> % output
|  4>     # printlevel mini
|  5>     print[ P_Basis ] 0
|  6>     print[ P_SCFInfo ] 1
|  7>     print[ P_SCFIterInfo ] 1
|  8>     print[ P_OrbEn ] 0
|  9>     print[ P_Cartesian ] 0
| 10> end
| 11> *xyz 0 1
| 12>  C        1.4235110000     0.2226090000    -1.1774450000
| 13>  C        2.1419900000    -0.3306910000    -0.2105340000
| 14>  C        3.0357170000    -1.5141840000    -0.3750250000
| 15>  C        4.4902430000    -1.1776770000    -0.0689870000
| 16>  N        5.3435030000    -2.3453360000    -0.1431600000
| 17>  N        5.4948790000    -2.8691820000    -1.3718000000
| 18>  C        6.5097560000    -3.5899370000    -1.6196790000
| 19>  H        0.7925890000     1.0849650000    -0.9949540000
| 20>  H        1.4376500000    -0.1732950000    -2.1884100000
| 21>  H        2.0963730000     0.1020040000     0.7886450000
| 22>  H        2.9653520000    -1.9068370000    -1.3916010000
| 23>  H        2.7255670000    -2.3162570000     0.3048560000
| 24>  H        4.5734800000    -0.7949840000     0.9526080000
| 25>  H        4.8312570000    -0.3812860000    -0.7450050000
| 26>  H        6.1974760000    -2.2787940000     0.4033580000
| 27>  H        6.5877440000    -4.0394050000    -2.6019710000
| 28>  H        7.2978130000    -3.7859030000    -0.8845870000
| 29> *
| 30>
| 31>                          ****END OF INPUT****
 Total Charge           Charge          ....    0
 Multiplicity           Mult            ....    1
 Number of Electrons    NEL             ....   54
 Basis Dimension        Dim             ....  148

MULLIKEN ATOMIC CHARGES
-----------------------
   0 C :   -0.032030
   1 C :   -0.094345
   2 C :    0.066944
   3 C :    0.090657
   4 N :   -0.122813
   5 N :   -0.080364
   6 C :   -0.058676
   7 H :    0.023612
   8 H :    0.020252
   9 H :   -0.000899
  10 H :    0.019930
  11 H :    0.019692
  12 H :    0.003346
  13 H :    0.013841
  14 H :    0.089960
  15 H :    0.040572
  16 H :    0.000323
Sum of atomic charges:   -0.0000000

LOEWDIN ATOMIC CHARGES
----------------------
   0 C :   -0.063597
   1 C :   -0.030118
   2 C :   -0.045838
   3 C :    0.014612
   4 N :    0.005062
   5 N :   -0.024547
   6 C :   -0.078563
   7 H :    0.024055
   8 H :    0.022983
   9 H :    0.022440
  10 H :    0.031645
  11 H :    0.035273
  12 H :    0.022103
  13 H :    0.012992
  14 H :    0.043694
  15 H :    0.018361
  16 H :   -0.010557

  Mayer bond orders larger than 0.1
B(  0-C ,  1-C ) :   2.0162 B(  0-C ,  7-H ) :   0.9435 B(  0-C ,  8-H ) :   0.9475
B(  1-C ,  2-C ) :   1.0616 B(  1-C ,  9-H ) :   0.9511 B(  2-C ,  3-C ) :   1.0753
B(  2-C , 10-H ) :   0.9277 B(  2-C , 11-H ) :   0.9046 B(  3-C ,  4-N ) :   1.0375
B(  3-C , 12-H ) :   0.9338 B(  3-C , 13-H ) :   0.9322 B(  4-N ,  5-N ) :   1.1022
B(  4-N ,  6-C ) :   0.1477 B(  4-N , 14-H ) :   0.9174 B(  5-N ,  6-C ) :   1.8851
B(  6-C , 15-H ) :   0.9573 B(  6-C , 16-H ) :   0.9280

FINAL SINGLE POINT ENERGY      -305.356972838122

DIPOLE MOMENT
-------------
                                X             Y             Z
Electronic contribution:      1.91714      -1.89520      -0.12906
Nuclear contribution   :     -1.44823       2.10970       0.63908
                        -----------------------------------------
Total Dipole Moment    :      0.46891       0.21450       0.51003
                        -----------------------------------------
Magnitude (a.u.)       :      0.72527
Magnitude (Debye)      :      1.84348

                             ****ORCA TERMINATED NORMALLY****
TOTAL RUN TIME: 0 days 0 hours 0 minutes 7 seconds 677 msec
