                         Program Version 3.0.3 - RELEASE   -
|  1> ! RI PBE def2-SVP def2-SVP/J NBO PAL2
|  2> % maxcore 2000
|  3> % output
|  4>     # printlevel mini
|  5>     print[ P_Basis ] 0
|  6>     print[ P_SCFInfo ] 1
|  7>     print[ P_SCFIterInfo ] 1
|  8>     print[ P_OrbEn ] 0
|  9>     print[ P_Cartesian ] 0
| 10> end
| 11> *xyz 0 1
| 12>  C        0.7543430000    -0.1065750000     0.0754610000
| 13>  C        2.2310580000     0.0418490000     0.0871130000
| 14>  C        3.0966230000    -0.8878370000     0.5016480000
| 15>  C        4.5213800000    -0.6751690000     0.4849500000
| 16>  N        5.3300290000    -1.5810100000     0.8874320000
| 17>  N        6.6515170000    -1.1731340000     0.7878100000
| 18>  C        7.4659370000    -2.0613610000     1.1829680000
| 19>  H        0.3588460000     0.0167450000    -0.9381890000
| 20>  H        0.2805260000     0.6685310000     0.6868670000
| 21>  H        0.4431010000    -1.0820960000     0.4517260000
| 22>  H        2.6290700000     0.9893860000    -0.2737040000
| 23>  H        2.7511790000    -1.8496340000     0.8707160000
| 24>  H        4.9095440000     0.2806750000     0.1205570000
| 25>  H        8.5265280000    -1.8331730000     1.1429070000
| 26>  H        7.1299180000    -3.0307890000     1.5553180000
| 27> *
| 28>
| 29>                          ****END OF INPUT****
 Total Charge           Charge          ....    0
 Multiplicity           Mult            ....    1
 Number of Electrons    NEL             ....   52
 Basis Dimension        Dim             ....  138

MULLIKEN ATOMIC CHARGES
-----------------------
   0 C :    0.046251
   1 C :   -0.097675
   2 C :    0.045424
   3 C :    0.018389
   4 N :   -0.101003
   5 N :   -0.106439
   6 C :    0.021230
   7 H :    0.042318
   8 H :    0.045039
   9 H :    0.027624
  10 H :    0.008608
  11 H :   -0.003001
  12 H :   -0.014733
  13 H :    0.046183
  14 H :    0.021785
Sum of atomic charges:   -0.0000000

LOEWDIN ATOMIC CHARGES
----------------------
   0 C :   -0.062558
   1 C :   -0.000690
   2 C :   -0.053566
   3 C :    0.013366
   4 N :   -0.063247
   5 N :   -0.043796
   6 C :    0.004848
   7 H :    0.044146
   8 H :    0.044824
   9 H :    0.034999
  10 H :    0.027655
  11 H :    0.032138
  12 H :    0.003331
  13 H :    0.019514
  14 H :   -0.000963

  Mayer bond orders larger than 0.1
B(  0-C ,  1-C ) :   1.0899 B(  0-C ,  7-H ) :   0.9412 B(  0-C ,  8-H ) :   0.9408
B(  0-C ,  9-H ) :   0.9604 B(  1-C ,  2-C ) :   1.7676 B(  1-C ,  4-N ) :   0.1031
B(  1-C , 10-H ) :   0.9549 B(  2-C ,  3-C ) :   1.1077 B(  2-C , 11-H ) :   0.9572
B(  3-C ,  4-N ) :   1.7637 B(  3-C ,  6-C ) :   0.1013 B(  3-C , 12-H ) :   0.9467
B(  4-N ,  5-N ) :   0.9941 B(  5-N ,  6-C ) :   1.9062 B(  6-C , 13-H ) :   0.9525
B(  6-C , 14-H ) :   0.9234

FINAL SINGLE POINT ENERGY      -304.163008976047

DIPOLE MOMENT
-------------
                                X             Y             Z
Electronic contribution:      6.14793      -1.24024       0.79511
Nuclear contribution   :     -6.79760       1.44660      -0.90798
                        -----------------------------------------
Total Dipole Moment    :     -0.64967       0.20636      -0.11286
                        -----------------------------------------
Magnitude (a.u.)       :      0.69094
Magnitude (Debye)      :      1.75622

                             ****ORCA TERMINATED NORMALLY****
TOTAL RUN TIME: 0 days 0 hours 0 minutes 6 seconds 115 msec
