                         Program Version 3.0.3 - RELEASE   -
|  1> ! RI PBE def2-SVP def2-SVP/J NBO PAL2
|  2> % maxcore 2000
|  3> % output
|  4>     # printlevel mini
|  5>     print[ P_Basis ] 0
|  6>     print[ P_SCFInfo ] 1
|  7>     print[ P_SCFIterInfo ] 1
|  8>     print[ P_OrbEn ] 0
|  9>     print[ P_Cartesian ] 0
| 10> end
| 11> *xyz 0 1
| 12>  C        0.7850030000    -1.0101480000    -0.7854370000
| 13>  C        2.2719840000    -0.9271880000    -0.7699820000
| 14>  C        3.0652270000    -1.5395670000     0.1008900000
| 15>  C        4.5520570000    -1.4209510000     0.1079000000
| 16>  N        5.1639450000    -2.7265580000    -0.0291500000
| 17>  N        6.4703220000    -2.7891730000     0.2747850000
| 18>  C        7.1819490000    -3.7139390000    -0.2262190000
| 19>  H        0.3352030000    -0.0208620000    -0.6536510000
| 20>  H        0.4120860000    -1.6621470000     0.0065410000
| 21>  H        0.4217850000    -1.3920620000    -1.7447820000
| 22>  H        2.7308190000    -0.3015920000    -1.5354220000
| 23>  H        2.6336800000    -2.1787890000     0.8694460000
| 24>  H        4.9037200000    -1.0191800000     1.0628520000
| 25>  H        4.8767700000    -0.7221960000    -0.6772020000
| 26>  H        4.8812810000    -3.2323470000    -0.8655630000
| 27>  H        8.2197560000    -3.7771730000     0.0771690000
| 28>  H        6.7923230000    -4.4526580000    -0.9345750000
| 29> *
| 30>
| 31>                          ****END OF INPUT****
 Total Charge           Charge          ....    0
 Multiplicity           Mult            ....    1
 Number of Electrons    NEL             ....   54
 Basis Dimension        Dim             ....  148

MULLIKEN ATOMIC CHARGES
-----------------------
   0 C :    0.040854
   1 C :   -0.100982
   2 C :   -0.101277
   3 C :    0.221186
   4 N :   -0.155339
   5 N :   -0.078154
   6 C :   -0.064167
   7 H :    0.035183
   8 H :    0.024375
   9 H :    0.032355
  10 H :   -0.002425
  11 H :   -0.001420
  12 H :    0.020520
  13 H :    0.002218
  14 H :    0.086443
  15 H :    0.040626
  16 H :    0.000006
Sum of atomic charges:    0.0000000

LOEWDIN ATOMIC CHARGES
----------------------
   0 C :   -0.064132
   1 C :   -0.039055
   2 C :   -0.059847
   3 C :    0.016002
   4 N :    0.004545
   5 N :   -0.025913
   6 C :   -0.083557
   7 H :    0.038786
   8 H :    0.032407
   9 H :    0.037274
  10 H :    0.022171
  11 H :    0.024169
  12 H :    0.035625
  13 H :    0.012648
  14 H :    0.042070
  15 H :    0.017802
  16 H :   -0.010996

  Mayer bond orders larger than 0.1
B(  0-C ,  1-C ) :   1.0857 B(  0-C ,  7-H ) :   0.9461 B(  0-C ,  8-H ) :   0.9626
B(  0-C ,  9-H ) :   0.9477 B(  1-C ,  2-C ) :   1.8990 B(  1-C , 10-H ) :   0.9533
B(  2-C ,  3-C ) :   1.0598 B(  2-C , 11-H ) :   0.9564 B(  3-C ,  4-N ) :   0.9683
B(  3-C , 12-H ) :   0.9054 B(  3-C , 13-H ) :   0.9281 B(  4-N ,  5-N ) :   1.1020
B(  4-N ,  6-C ) :   0.1512 B(  4-N , 14-H ) :   0.9180 B(  5-N ,  6-C ) :   1.8826
B(  6-C , 15-H ) :   0.9569 B(  6-C , 16-H ) :   0.9291

FINAL SINGLE POINT ENERGY      -305.363062889225

DIPOLE MOMENT
-------------
                                X             Y             Z
Electronic contribution:      4.99018      -1.47320       1.64987
Nuclear contribution   :     -5.57967       1.47232      -2.21949
                        -----------------------------------------
Total Dipole Moment    :     -0.58950      -0.00088      -0.56962
                        -----------------------------------------
Magnitude (a.u.)       :      0.81974
Magnitude (Debye)      :      2.08362

                             ****ORCA TERMINATED NORMALLY****
TOTAL RUN TIME: 0 days 0 hours 0 minutes 7 seconds 529 msec
