                         Program Version 3.0.3 - RELEASE   -
|  1> ! RI PBE def2-SVP def2-SVP/J NBO PAL2
|  2> % maxcore 2000
|  3> % output
|  4>     # printlevel mini
|  5>     print[ P_Basis ] 0
|  6>     print[ P_SCFInfo ] 1
|  7>     print[ P_SCFIterInfo ] 1
|  8>     print[ P_OrbEn ] 0
|  9>     print[ P_Cartesian ] 0
| 10> end
| 11> *xyz 0 1
| 12>  C        0.8874020000     0.0079140000     0.1201210000
| 13>  C        2.3525170000    -0.2650700000     0.2146870000
| 14>  C        2.9122110000    -0.9433700000     1.2212330000
| 15>  C        3.2189780000     0.2319070000    -0.8424150000
| 16>  N        2.7519400000     0.8873200000    -1.8338270000
| 17>  N        3.7497940000     1.2647110000    -2.7222150000
| 18>  C        3.2972530000     1.9171560000    -3.7106440000
| 19>  H        0.3541800000    -0.4165510000     0.9711840000
| 20>  H        0.4782430000    -0.4090500000    -0.8031570000
| 21>  H        0.6993390000     1.0834180000     0.0797240000
| 22>  H        2.3204280000    -1.3391380000     2.0385700000
| 23>  H        3.9818460000    -1.1200500000     1.2520330000
| 24>  H        4.2916180000     0.0319560000    -0.7734530000
| 25>  H        4.0034270000     2.2566980000    -4.4620510000
| 26>  H        2.2345240000     2.1402390000    -3.8206790000
| 27> *
| 28>
| 29>                          ****END OF INPUT****
 Total Charge           Charge          ....    0
 Multiplicity           Mult            ....    1
 Number of Electrons    NEL             ....   52
 Basis Dimension        Dim             ....  138

MULLIKEN ATOMIC CHARGES
-----------------------
   0 C :    0.104238
   1 C :   -0.129818
   2 C :   -0.016285
   3 C :    0.029967
   4 N :   -0.094306
   5 N :   -0.100242
   6 C :    0.027009
   7 H :    0.009723
   8 H :    0.035908
   9 H :    0.036842
  10 H :    0.022802
  11 H :    0.025470
  12 H :   -0.019469
  13 H :    0.046631
  14 H :    0.021531
Sum of atomic charges:   -0.0000000

LOEWDIN ATOMIC CHARGES
----------------------
   0 C :   -0.051311
   1 C :   -0.046220
   2 C :   -0.025058
   3 C :    0.019912
   4 N :   -0.058880
   5 N :   -0.040588
   6 C :    0.010368
   7 H :    0.029123
   8 H :    0.042950
   9 H :    0.042930
  10 H :    0.026116
  11 H :    0.026106
  12 H :    0.004531
  13 H :    0.020744
  14 H :   -0.000724

  Mayer bond orders larger than 0.1
B(  0-C ,  1-C ) :   1.0979 B(  0-C ,  7-H ) :   0.9465 B(  0-C ,  8-H ) :   0.9351
B(  0-C ,  9-H ) :   0.9359 B(  1-C ,  2-C ) :   1.8680 B(  1-C ,  3-C ) :   1.0711
B(  2-C ,  4-N ) :   0.1023 B(  2-C , 10-H ) :   0.9338 B(  2-C , 11-H ) :   0.9401
B(  3-C ,  4-N ) :   1.8237 B(  3-C ,  6-C ) :   0.1031 B(  3-C , 12-H ) :   0.9474
B(  4-N ,  5-N ) :   0.9937 B(  5-N ,  6-C ) :   1.9142 B(  6-C , 13-H ) :   0.9517
B(  6-C , 14-H ) :   0.9253

FINAL SINGLE POINT ENERGY      -304.161401908326

DIPOLE MOMENT
-------------
                                X             Y             Z
Electronic contribution:      3.00472       1.23401      -2.84359
Nuclear contribution   :     -3.20076      -1.32154       3.03730
                        -----------------------------------------
Total Dipole Moment    :     -0.19604      -0.08753       0.19371
                        -----------------------------------------
Magnitude (a.u.)       :      0.28917
Magnitude (Debye)      :      0.73500

                             ****ORCA TERMINATED NORMALLY****
TOTAL RUN TIME: 0 days 0 hours 0 minutes 6 seconds 941 msec
