                         Program Version 3.0.3 - RELEASE   -
|  1> ! RI PBE def2-SVP def2-SVP/J NBO PAL2
|  2> % maxcore 2000
|  3> % output
|  4>     # printlevel mini
|  5>     print[ P_Basis ] 0
|  6>     print[ P_SCFInfo ] 1
|  7>     print[ P_SCFIterInfo ] 1
|  8>     print[ P_OrbEn ] 0
|  9>     print[ P_Cartesian ] 0
| 10> end
| 11> *xyz 0 1
| 12>  C        3.3044930000    -1.1419800000     1.0920570000
| 13>  C        2.6454940000     0.0319850000     0.4419300000
| 14>  C        1.8716280000     0.8844890000     1.1075470000
| 15>  C        2.9005840000     0.2235980000    -1.0311350000
| 16>  N        4.2712500000     0.5523000000    -1.3612650000
| 17>  N        5.1173480000    -0.4669880000    -1.5527210000
| 18>  C        6.3700750000    -0.2660660000    -1.4667580000
| 19>  H        3.0921870000    -1.1768780000     2.1614190000
| 20>  H        4.3881280000    -1.1177690000     0.9497890000
| 21>  H        2.9594900000    -2.0764580000     0.6377550000
| 22>  H        1.6780460000     0.7688940000     2.1686770000
| 23>  H        1.3979400000     1.7239880000     0.6090330000
| 24>  H        2.2555390000     1.0199380000    -1.4124510000
| 25>  H        2.6678970000    -0.6901420000    -1.5844400000
| 26>  H        4.6478510000     1.3639720000    -0.8785910000
| 27>  H        7.0316400000    -1.0957950000    -1.6816690000
| 28>  H        6.8046000000     0.7033120000    -1.2025800000
| 29> *
| 30>
| 31>                          ****END OF INPUT****
 Total Charge           Charge          ....    0
 Multiplicity           Mult            ....    1
 Number of Electrons    NEL             ....   54
 Basis Dimension        Dim             ....  148

MULLIKEN ATOMIC CHARGES
-----------------------
   0 C :    0.075889
   1 C :   -0.234200
   2 C :   -0.034557
   3 C :    0.216286
   4 N :   -0.126583
   5 N :   -0.083925
   6 C :   -0.066064
   7 H :    0.015371
   8 H :    0.038816
   9 H :    0.025749
  10 H :    0.012111
  11 H :    0.008053
  12 H :    0.001457
  13 H :    0.019038
  14 H :    0.087798
  15 H :    0.042190
  16 H :    0.002571
Sum of atomic charges:   -0.0000000

LOEWDIN ATOMIC CHARGES
----------------------
   0 C :   -0.058895
   1 C :   -0.050191
   2 C :   -0.075420
   3 C :    0.020044
   4 N :    0.020611
   5 N :   -0.026572
   6 C :   -0.089042
   7 H :    0.030571
   8 H :    0.037672
   9 H :    0.039479
  10 H :    0.020884
  11 H :    0.018703
  12 H :    0.025215
  13 H :    0.034970
  14 H :    0.043808
  15 H :    0.018079
  16 H :   -0.009916

  Mayer bond orders larger than 0.1
B(  0-C ,  1-C ) :   1.0876 B(  0-C ,  7-H ) :   0.9489 B(  0-C ,  8-H ) :   0.9378
B(  0-C ,  9-H ) :   0.9369 B(  1-C ,  2-C ) :   1.9679 B(  1-C ,  3-C ) :   1.0554
B(  2-C , 10-H ) :   0.9337 B(  2-C , 11-H ) :   0.9362 B(  3-C ,  4-N ) :   1.0253
B(  3-C , 12-H ) :   0.9213 B(  3-C , 13-H ) :   0.9094 B(  4-N ,  5-N ) :   1.1166
B(  4-N ,  6-C ) :   0.1556 B(  4-N , 14-H ) :   0.9172 B(  5-N ,  6-C ) :   1.8547
B(  6-C , 15-H ) :   0.9576 B(  6-C , 16-H ) :   0.9299

FINAL SINGLE POINT ENERGY      -305.363510039467

DIPOLE MOMENT
-------------
                                X             Y             Z
Electronic contribution:      1.09928       0.67584      -3.18974
Nuclear contribution   :     -1.10113      -0.29148       3.52876
                        -----------------------------------------
Total Dipole Moment    :     -0.00185       0.38436       0.33901
                        -----------------------------------------
Magnitude (a.u.)       :      0.51251
Magnitude (Debye)      :      1.30269

                             ****ORCA TERMINATED NORMALLY****
TOTAL RUN TIME: 0 days 0 hours 0 minutes 7 seconds 890 msec
