                         Program Version 3.0.3 - RELEASE   -
|  1> ! RI PBE def2-SVP def2-SVP/J NBO PAL2
|  2> % maxcore 2000
|  3> % output
|  4>     # printlevel mini
|  5>     print[ P_Basis ] 0
|  6>     print[ P_SCFInfo ] 1
|  7>     print[ P_SCFIterInfo ] 1
|  8>     print[ P_OrbEn ] 0
|  9>     print[ P_Cartesian ] 0
| 10> end
| 11> *xyz 0 1
| 12>  C        1.0590510000    -0.1159340000    -0.1047350000
| 13>  C        2.5035140000    -0.4472480000    -0.2898710000
| 14>  C        3.0249460000    -0.6933710000    -1.6334500000
| 15>  C        2.2813270000    -0.6413490000    -2.7368650000
| 16>  N        3.2123610000    -0.4940590000     0.7845310000
| 17>  N        4.5486360000    -0.8030040000     0.5870970000
| 18>  C        5.1955860000    -0.8331430000     1.6766590000
| 19>  H        0.4228710000    -0.9209350000    -0.4829190000
| 20>  H        0.7940730000     0.7925190000    -0.6527160000
| 21>  H        0.8550980000     0.0331590000     0.9536790000
| 22>  H        4.0800640000    -0.9278850000    -1.6905190000
| 23>  H        1.2222590000    -0.4095000000    -2.7158860000
| 24>  H        2.7169410000    -0.8323280000    -3.7107840000
| 25>  H        6.2552850000    -1.0663440000     1.6357210000
| 26>  H        4.7173770000    -0.6325780000     2.6376490000
| 27> *
| 28>
| 29>                          ****END OF INPUT****
 Total Charge           Charge          ....    0
 Multiplicity           Mult            ....    1
 Number of Electrons    NEL             ....   52
 Basis Dimension        Dim             ....  138

MULLIKEN ATOMIC CHARGES
-----------------------
   0 C :    0.051838
   1 C :   -0.164118
   2 C :    0.030406
   3 C :   -0.017925
   4 N :   -0.079931
   5 N :   -0.099712
   6 C :    0.030356
   7 H :    0.045904
   8 H :    0.042611
   9 H :    0.027876
  10 H :    0.006943
  11 H :    0.027586
  12 H :    0.032974
  13 H :    0.045844
  14 H :    0.019348
Sum of atomic charges:   -0.0000000

LOEWDIN ATOMIC CHARGES
----------------------
   0 C :   -0.065590
   1 C :   -0.004959
   2 C :   -0.041808
   3 C :   -0.021352
   4 N :   -0.061460
   5 N :   -0.041015
   6 C :    0.012041
   7 H :    0.042809
   8 H :    0.042191
   9 H :    0.037366
  10 H :    0.031152
  11 H :    0.023724
  12 H :    0.029367
  13 H :    0.019486
  14 H :   -0.001951

  Mayer bond orders larger than 0.1
B(  0-C ,  1-C ) :   1.1043 B(  0-C ,  7-H ) :   0.9358 B(  0-C ,  8-H ) :   0.9358
B(  0-C ,  9-H ) :   0.9382 B(  1-C ,  2-C ) :   1.0790 B(  1-C ,  4-N ) :   1.8117
B(  1-C ,  6-C ) :   0.1051 B(  2-C ,  3-C ) :   1.8758 B(  2-C , 10-H ) :   0.9421
B(  3-C , 11-H ) :   0.9360 B(  3-C , 12-H ) :   0.9415 B(  4-N ,  5-N ) :   1.0126
B(  5-N ,  6-C ) :   1.9182 B(  6-C , 13-H ) :   0.9513 B(  6-C , 14-H ) :   0.9222

FINAL SINGLE POINT ENERGY      -304.159550910655

DIPOLE MOMENT
-------------
                                X             Y             Z
Electronic contribution:      3.36262      -0.55557       1.80311
Nuclear contribution   :     -3.56341       0.57171      -2.05400
                        -----------------------------------------
Total Dipole Moment    :     -0.20079       0.01614      -0.25089
                        -----------------------------------------
Magnitude (a.u.)       :      0.32175
Magnitude (Debye)      :      0.81782

                             ****ORCA TERMINATED NORMALLY****
TOTAL RUN TIME: 0 days 0 hours 0 minutes 6 seconds 393 msec
