                         Program Version 3.0.3 - RELEASE   -
|  1> ! RI PBE def2-SVP def2-SVP/J NBO PAL2
|  2> % maxcore 2000
|  3> % output
|  4>     # printlevel mini
|  5>     print[ P_Basis ] 0
|  6>     print[ P_SCFInfo ] 1
|  7>     print[ P_SCFIterInfo ] 1
|  8>     print[ P_OrbEn ] 0
|  9>     print[ P_Cartesian ] 0
| 10> end
| 11> *xyz 0 1
| 12>  C        0.9494910000     0.1211940000     0.0936650000
| 13>  C        2.4681320000     0.1910800000     0.1564010000
| 14>  C        2.9654900000     1.4772900000    -0.5008440000
| 15>  C        2.9403990000     0.1295820000     1.6078960000
| 16>  N        2.9638040000    -0.9644030000    -0.5761130000
| 17>  N        4.2612220000    -1.1716710000    -0.6934080000
| 18>  C        4.7000690000    -2.1813100000    -1.3339030000
| 19>  H        0.5125610000     0.9658340000     0.6282900000
| 20>  H        0.5801550000    -0.7983720000     0.5563970000
| 21>  H        0.5979700000     0.1588380000    -0.9413000000
| 22>  H        2.6174040000     2.3538050000     0.0513400000
| 23>  H        2.6041320000     1.5480510000    -1.5297120000
| 24>  H        4.0565920000     1.4907460000    -0.5202660000
| 25>  H        2.5923190000     1.0026390000     2.1655370000
| 26>  H        4.0308080000     0.1057480000     1.6466870000
| 27>  H        2.5609060000    -0.7703860000     2.0979910000
| 28>  H        2.3077870000    -1.6102250000    -0.9975040000
| 29>  H        5.7721270000    -2.3114700000    -1.4043100000
| 30>  H        4.0435350000    -2.9157890000    -1.8112550000
| 31> *
| 32>
| 33>                          ****END OF INPUT****
 Total Charge           Charge          ....    0
 Multiplicity           Mult            ....    1
 Number of Electrons    NEL             ....   56
 Basis Dimension        Dim             ....  158

MULLIKEN ATOMIC CHARGES
-----------------------
   0 C :    0.033550
   1 C :   -0.211916
   2 C :    0.074019
   3 C :    0.069706
   4 N :   -0.111301
   5 N :   -0.047868
   6 C :   -0.073089
   7 H :    0.024138
   8 H :    0.018272
   9 H :    0.017859
  10 H :    0.008788
  11 H :    0.003910
  12 H :    0.033833
  13 H :    0.010633
  14 H :    0.034006
  15 H :    0.008011
  16 H :    0.082813
  17 H :    0.033184
  18 H :   -0.008550
Sum of atomic charges:   -0.0000000

LOEWDIN ATOMIC CHARGES
----------------------
   0 C :   -0.055074
   1 C :   -0.020421
   2 C :   -0.055877
   3 C :   -0.056583
   4 N :    0.029951
   5 N :   -0.016636
   6 C :   -0.102223
   7 H :    0.033885
   8 H :    0.024150
   9 H :    0.023729
  10 H :    0.024005
  11 H :    0.022545
  12 H :    0.029878
  13 H :    0.024245
  14 H :    0.029807
  15 H :    0.023062
  16 H :    0.040931
  17 H :    0.014659
  18 H :   -0.014034

  Mayer bond orders larger than 0.1
B(  0-C ,  1-C ) :   1.0530 B(  0-C ,  7-H ) :   0.9590 B(  0-C ,  8-H ) :   0.9540
B(  0-C ,  9-H ) :   0.9564 B(  1-C ,  2-C ) :   1.0540 B(  1-C ,  3-C ) :   1.0527
B(  1-C ,  4-N ) :   0.9788 B(  2-C , 10-H ) :   0.9561 B(  2-C , 11-H ) :   0.9491
B(  2-C , 12-H ) :   0.9506 B(  3-C , 13-H ) :   0.9570 B(  3-C , 14-H ) :   0.9508
B(  3-C , 15-H ) :   0.9512 B(  4-N ,  5-N ) :   1.1510 B(  4-N ,  6-C ) :   0.1709
B(  4-N , 16-H ) :   0.9229 B(  5-N ,  6-C ) :   1.8491 B(  6-C , 17-H ) :   0.9595
B(  6-C , 18-H ) :   0.9292

FINAL SINGLE POINT ENERGY      -306.586433552599

DIPOLE MOMENT
-------------
                                X             Y             Z
Electronic contribution:      2.95984      -3.12058      -1.95490
Nuclear contribution   :     -3.67549       3.06487       1.91431
                        -----------------------------------------
Total Dipole Moment    :     -0.71565      -0.05571      -0.04059
                        -----------------------------------------
Magnitude (a.u.)       :      0.71896
Magnitude (Debye)      :      1.82746

                             ****ORCA TERMINATED NORMALLY****
TOTAL RUN TIME: 0 days 0 hours 0 minutes 8 seconds 562 msec
