                         Program Version 3.0.3 - RELEASE   -
|  1> ! RI PBE def2-SVP def2-SVP/J NBO PAL2
|  2> % maxcore 2000
|  3> % output
|  4>     # printlevel mini
|  5>     print[ P_Basis ] 0
|  6>     print[ P_SCFInfo ] 1
|  7>     print[ P_SCFIterInfo ] 1
|  8>     print[ P_OrbEn ] 0
|  9>     print[ P_Cartesian ] 0
| 10> end
| 11> *xyz 0 1
| 12>  C        0.9145180000     0.0253080000     0.1158440000
| 13>  C        2.4393010000    -0.0107510000     0.0363350000
| 14>  C        2.9407230000    -1.4182550000    -0.2800360000
| 15>  C        2.9168180000     0.9442910000    -1.0023960000
| 16>  N        3.6714630000     1.9249740000    -0.7169480000
| 17>  N        3.9919880000     2.6842870000    -1.8436040000
| 18>  C        4.7451930000     3.6629780000    -1.5643980000
| 19>  H        0.5572520000    -0.6753570000     0.8743360000
| 20>  H        0.4651550000    -0.2610530000    -0.8398150000
| 21>  H        0.5524110000     1.0223930000     0.3745400000
| 22>  H        2.8587100000     0.3157360000     0.9923180000
| 23>  H        2.5672260000    -1.7586710000    -1.2505160000
| 24>  H        2.5915480000    -2.1246800000     0.4768780000
| 25>  H        4.0316550000    -1.4563810000    -0.3052160000
| 26>  H        2.5998710000     0.7847380000    -2.0398940000
| 27>  H        5.0522240000     4.3166740000    -2.3753040000
| 28>  H        5.0859640000     3.8606690000    -0.5464130000
| 29> *
| 30>
| 31>                          ****END OF INPUT****
 Total Charge           Charge          ....    0
 Multiplicity           Mult            ....    1
 Number of Electrons    NEL             ....   54
 Basis Dimension        Dim             ....  148

MULLIKEN ATOMIC CHARGES
-----------------------
   0 C :    0.011401
   1 C :   -0.064573
   2 C :   -0.006958
   3 C :    0.007698
   4 N :   -0.096954
   5 N :   -0.107709
   6 C :    0.025703
   7 H :    0.024574
   8 H :    0.018800
   9 H :    0.032128
  10 H :    0.009031
  11 H :    0.019367
  12 H :    0.028338
  13 H :    0.038187
  14 H :   -0.007212
  15 H :    0.046501
  16 H :    0.021678
Sum of atomic charges:   -0.0000000

LOEWDIN ATOMIC CHARGES
----------------------
   0 C :   -0.049575
   1 C :   -0.058243
   2 C :   -0.052907
   3 C :    0.035432
   4 N :   -0.061756
   5 N :   -0.043954
   6 C :    0.007760
   7 H :    0.029353
   8 H :    0.025446
   9 H :    0.030254
  10 H :    0.031468
  11 H :    0.025958
  12 H :    0.030173
  13 H :    0.031248
  14 H :   -0.000219
  15 H :    0.020342
  16 H :   -0.000780

  Mayer bond orders larger than 0.1
B(  0-C ,  1-C ) :   1.0648 B(  0-C ,  7-H ) :   0.9603 B(  0-C ,  8-H ) :   0.9627
B(  0-C ,  9-H ) :   0.9630 B(  1-C ,  2-C ) :   1.0624 B(  1-C ,  3-C ) :   0.9847
B(  1-C , 10-H ) :   0.9011 B(  2-C , 11-H ) :   0.9621 B(  2-C , 12-H ) :   0.9590
B(  2-C , 13-H ) :   0.9632 B(  3-C ,  4-N ) :   1.8823 B(  3-C ,  6-C ) :   0.1119
B(  3-C , 14-H ) :   0.9340 B(  4-N ,  5-N ) :   0.9763 B(  5-N ,  6-C ) :   1.9318
B(  6-C , 15-H ) :   0.9510 B(  6-C , 16-H ) :   0.9242

FINAL SINGLE POINT ENERGY      -305.372397952132

DIPOLE MOMENT
-------------
                                X             Y             Z
Electronic contribution:      3.93053       6.19690      -2.45594
Nuclear contribution   :     -4.08338      -6.44836       2.61079
                        -----------------------------------------
Total Dipole Moment    :     -0.15285      -0.25146       0.15485
                        -----------------------------------------
Magnitude (a.u.)       :      0.33252
Magnitude (Debye)      :      0.84520

                             ****ORCA TERMINATED NORMALLY****
TOTAL RUN TIME: 0 days 0 hours 0 minutes 7 seconds 449 msec
