                         Program Version 3.0.3 - RELEASE   -
|  1> ! RI PBE def2-SVP def2-SVP/J NBO PAL2
|  2> % maxcore 2000
|  3> % output
|  4>     # printlevel mini
|  5>     print[ P_Basis ] 0
|  6>     print[ P_SCFInfo ] 1
|  7>     print[ P_SCFIterInfo ] 1
|  8>     print[ P_OrbEn ] 0
|  9>     print[ P_Cartesian ] 0
| 10> end
| 11> *xyz 0 1
| 12>  C        0.8618150000     0.1748710000    -0.2873020000
| 13>  C        2.3830340000     0.1543640000    -0.2908100000
| 14>  C        2.9557680000     1.5435040000    -0.0505330000
| 15>  C        2.9360950000    -0.8207980000     0.7404850000
| 16>  N        2.5629640000    -2.1849090000     0.4408680000
| 17>  N        2.6873470000    -3.0603450000     1.4507930000
| 18>  C        2.8399670000    -4.2940980000     1.1904790000
| 19>  H        0.4762710000     0.8210690000    -1.0798060000
| 20>  H        0.4871560000     0.5581590000     0.6671860000
| 21>  H        0.4507110000    -0.8261490000    -0.4278490000
| 22>  H        2.7208530000    -0.1812050000    -1.2820790000
| 23>  H        2.6631670000     1.9171060000     0.9358780000
| 24>  H        2.5867660000     2.2534370000    -0.7943070000
| 25>  H        4.0478420000     1.5444130000    -0.0972250000
| 26>  H        2.5302410000    -0.5931130000     1.7298920000
| 27>  H        4.0291420000    -0.7054060000     0.8070660000
| 28>  H        2.8894560000    -2.5196750000    -0.4632550000
| 29>  H        2.8806930000    -4.9877380000     2.0211730000
| 30>  H        2.9171320000    -4.6856880000     0.1704560000
| 31> *
| 32>
| 33>                          ****END OF INPUT****
 Total Charge           Charge          ....    0
 Multiplicity           Mult            ....    1
 Number of Electrons    NEL             ....   56
 Basis Dimension        Dim             ....  158

MULLIKEN ATOMIC CHARGES
-----------------------
   0 C :    0.034706
   1 C :   -0.172501
   2 C :    0.008249
   3 C :    0.164786
   4 N :   -0.136600
   5 N :   -0.075603
   6 C :   -0.064619
   7 H :    0.015465
   8 H :    0.010045
   9 H :    0.019343
  10 H :   -0.001837
  11 H :    0.017109
  12 H :    0.021403
  13 H :    0.021964
  14 H :    0.008201
  15 H :    0.002943
  16 H :    0.087339
  17 H :    0.041375
  18 H :   -0.001770
Sum of atomic charges:   -0.0000000

LOEWDIN ATOMIC CHARGES
----------------------
   0 C :   -0.057211
   1 C :   -0.057556
   2 C :   -0.058218
   3 C :    0.017709
   4 N :    0.009063
   5 N :   -0.024690
   6 C :   -0.083931
   7 H :    0.024364
   8 H :    0.024785
   9 H :    0.023822
  10 H :    0.019806
  11 H :    0.025844
  12 H :    0.027652
  13 H :    0.025138
  14 H :    0.027119
  15 H :    0.008280
  16 H :    0.041703
  17 H :    0.018072
  18 H :   -0.011749

  Mayer bond orders larger than 0.1
B(  0-C ,  1-C ) :   1.0805 B(  0-C ,  7-H ) :   0.9630 B(  0-C ,  8-H ) :   0.9617
B(  0-C ,  9-H ) :   0.9546 B(  1-C ,  2-C ) :   1.0830 B(  1-C ,  3-C ) :   1.0462
B(  1-C , 10-H ) :   0.9105 B(  2-C , 11-H ) :   0.9615 B(  2-C , 12-H ) :   0.9593
B(  2-C , 13-H ) :   0.9578 B(  3-C ,  4-N ) :   1.0083 B(  3-C , 14-H ) :   0.9195
B(  3-C , 15-H ) :   0.9337 B(  4-N ,  5-N ) :   1.1053 B(  4-N ,  6-C ) :   0.1509
B(  4-N , 16-H ) :   0.9133 B(  5-N ,  6-C ) :   1.8801 B(  6-C , 17-H ) :   0.9581
B(  6-C , 18-H ) :   0.9282

FINAL SINGLE POINT ENERGY      -306.582792374434

DIPOLE MOMENT
-------------
                                X             Y             Z
Electronic contribution:      1.03406      -6.33399       2.28793
Nuclear contribution   :     -0.77508       6.51083      -2.92654
                        -----------------------------------------
Total Dipole Moment    :      0.25898       0.17684      -0.63861
                        -----------------------------------------
Magnitude (a.u.)       :      0.71146
Magnitude (Debye)      :      1.80838

                             ****ORCA TERMINATED NORMALLY****
TOTAL RUN TIME: 0 days 0 hours 0 minutes 8 seconds 372 msec
