                         Program Version 3.0.3 - RELEASE   -
|  1> ! RI PBE def2-SVP def2-SVP/J NBO PAL2
|  2> % maxcore 2000
|  3> % output
|  4>     # printlevel mini
|  5>     print[ P_Basis ] 0
|  6>     print[ P_SCFInfo ] 1
|  7>     print[ P_SCFIterInfo ] 1
|  8>     print[ P_OrbEn ] 0
|  9>     print[ P_Cartesian ] 0
| 10> end
| 11> *xyz 0 1
| 12>  C        0.8772860000     0.1649270000    -0.0099410000
| 13>  C        2.3178720000     0.0509430000     0.0508500000
| 14>  C        3.5159390000    -0.0624460000     0.1186790000
| 15>  C        4.9279210000    -0.1301670000     0.1412750000
| 16>  N        5.5486970000    -0.9845670000     0.8634490000
| 17>  N        6.9234930000    -0.8562960000     0.7175020000
| 18>  C        7.5605810000    -1.6947970000     1.4241620000
| 19>  H        0.5705020000     0.9065800000    -0.7509270000
| 20>  H        0.4740030000     0.4650330000     0.9608200000
| 21>  H        0.4253450000    -0.7938460000    -0.2769000000
| 22>  H        5.4899170000     0.5722750000    -0.4797880000
| 23>  H        8.6451510000    -1.6758710000     1.3798920000
| 24>  H        7.0521040000    -2.4195680000     2.0621270000
| 25> *
| 26>
| 27>                          ****END OF INPUT****
 Total Charge           Charge          ....    0
 Multiplicity           Mult            ....    1
 Number of Electrons    NEL             ....   50
 Basis Dimension        Dim             ....  128

MULLIKEN ATOMIC CHARGES
-----------------------
   0 C :    0.049885
   1 C :   -0.162088
   2 C :    0.064644
   3 C :   -0.053016
   4 N :   -0.097654
   5 N :   -0.107678
   6 C :    0.024356
   7 H :    0.057575
   8 H :    0.060773
   9 H :    0.061222
  10 H :    0.024345
  11 H :    0.050290
  12 H :    0.027347
Sum of atomic charges:   -0.0000000

LOEWDIN ATOMIC CHARGES
----------------------
   0 C :   -0.064652
   1 C :   -0.008984
   2 C :   -0.065729
   3 C :    0.001286
   4 N :   -0.043081
   5 N :   -0.043470
   6 C :    0.012770
   7 H :    0.054711
   8 H :    0.059290
   9 H :    0.058959
  10 H :    0.015606
  11 H :    0.021522
  12 H :    0.001773

  Mayer bond orders larger than 0.1
B(  0-C ,  1-C ) :   1.1308 B(  0-C ,  7-H ) :   0.9330 B(  0-C ,  8-H ) :   0.9266
B(  0-C ,  9-H ) :   0.9274 B(  1-C ,  2-C ) :   2.4632 B(  2-C ,  3-C ) :   0.9531
B(  3-C ,  4-N ) :   1.7901 B(  3-C ,  6-C ) :   0.1054 B(  3-C , 10-H ) :   0.9469
B(  4-N ,  5-N ) :   0.9998 B(  5-N ,  6-C ) :   1.9066 B(  6-C , 11-H ) :   0.9520
B(  6-C , 12-H ) :   0.9253

FINAL SINGLE POINT ENERGY      -302.917932877676

DIPOLE MOMENT
-------------
                                X             Y             Z
Electronic contribution:      3.65695      -0.05626      -0.04691
Nuclear contribution   :     -4.33199       0.15280      -0.01861
                        -----------------------------------------
Total Dipole Moment    :     -0.67503       0.09655      -0.06552
                        -----------------------------------------
Magnitude (a.u.)       :      0.68504
Magnitude (Debye)      :      1.74124

                             ****ORCA TERMINATED NORMALLY****
TOTAL RUN TIME: 0 days 0 hours 0 minutes 5 seconds 829 msec
