                         Program Version 3.0.3 - RELEASE   -
|  1> ! RI PBE def2-SVP def2-SVP/J NBO PAL2
|  2> % maxcore 2000
|  3> % output
|  4>     # printlevel mini
|  5>     print[ P_Basis ] 0
|  6>     print[ P_SCFInfo ] 1
|  7>     print[ P_SCFIterInfo ] 1
|  8>     print[ P_OrbEn ] 0
|  9>     print[ P_Cartesian ] 0
| 10> end
| 11> *xyz 0 1
| 12>  C        1.0441030000     0.0720800000     0.1334860000
| 13>  C        2.4942120000     0.0613600000     0.1042570000
| 14>  C        3.6957910000     0.0613460000     0.0797360000
| 15>  C        5.1496490000     0.0587430000     0.0512580000
| 16>  N        5.6518300000    -1.2903450000    -0.0182500000
| 17>  N        6.9573980000    -1.4803010000    -0.0543530000
| 18>  C        7.4326990000    -2.6602140000    -0.1154110000
| 19>  H        0.6447570000     0.8042510000    -0.5727200000
| 20>  H        0.6713660000     0.3236360000     1.1294750000
| 21>  H        0.6428090000    -0.9074210000    -0.1382720000
| 22>  H        5.5343250000     0.5618090000     0.9481370000
| 23>  H        5.4999880000     0.6393770000    -0.8121690000
| 24>  H        5.0007670000    -2.0639600000    -0.0378050000
| 25>  H        8.5088560000    -2.7701680000    -0.1431080000
| 26>  H        6.8055510000    -3.5563820000    -0.1405620000
| 27> *
| 28>
| 29>                          ****END OF INPUT****
 Total Charge           Charge          ....    0
 Multiplicity           Mult            ....    1
 Number of Electrons    NEL             ....   52
 Basis Dimension        Dim             ....  138

MULLIKEN ATOMIC CHARGES
-----------------------
   0 C :    0.052770
   1 C :   -0.222644
   2 C :   -0.157095
   3 C :    0.288466
   4 N :   -0.171464
   5 N :   -0.063373
   6 C :   -0.072302
   7 H :    0.053128
   8 H :    0.050384
   9 H :    0.049390
  10 H :    0.031392
  11 H :    0.032986
  12 H :    0.098676
  13 H :    0.036005
  14 H :   -0.006319
Sum of atomic charges:   -0.0000000

LOEWDIN ATOMIC CHARGES
----------------------
   0 C :   -0.067626
   1 C :   -0.053494
   2 C :   -0.080868
   3 C :    0.020864
   4 N :    0.018387
   5 N :   -0.024312
   6 C :   -0.099618
   7 H :    0.053157
   8 H :    0.051529
   9 H :    0.053079
  10 H :    0.039646
  11 H :    0.039984
  12 H :    0.046301
  13 H :    0.015816
  14 H :   -0.012845

  Mayer bond orders larger than 0.1
B(  0-C ,  1-C ) :   1.1311 B(  0-C ,  7-H ) :   0.9331 B(  0-C ,  8-H ) :   0.9333
B(  0-C ,  9-H ) :   0.9308 B(  1-C ,  2-C ) :   2.6281 B(  2-C ,  3-C ) :   1.0253
B(  3-C ,  4-N ) :   0.9759 B(  3-C , 10-H ) :   0.8973 B(  3-C , 11-H ) :   0.8978
B(  4-N ,  5-N ) :   1.1382 B(  4-N ,  6-C ) :   0.1702 B(  4-N , 12-H ) :   0.9259
B(  5-N ,  6-C ) :   1.8507 B(  6-C , 13-H ) :   0.9595 B(  6-C , 14-H ) :   0.9323

FINAL SINGLE POINT ENERGY      -304.121653604656

DIPOLE MOMENT
-------------
                                X             Y             Z
Electronic contribution:      2.72691       0.59618      -0.02985
Nuclear contribution   :     -3.72576      -0.70954       0.04142
                        -----------------------------------------
Total Dipole Moment    :     -0.99884      -0.11336       0.01157
                        -----------------------------------------
Magnitude (a.u.)       :      1.00532
Magnitude (Debye)      :      2.55533

                             ****ORCA TERMINATED NORMALLY****
TOTAL RUN TIME: 0 days 0 hours 0 minutes 6 seconds 105 msec
