                         Program Version 3.0.3 - RELEASE   -
|  1> ! RI PBE def2-SVP def2-SVP/J NBO PAL2
|  2> % maxcore 2000
|  3> % output
|  4>     # printlevel mini
|  5>     print[ P_Basis ] 0
|  6>     print[ P_SCFInfo ] 1
|  7>     print[ P_SCFIterInfo ] 1
|  8>     print[ P_OrbEn ] 0
|  9>     print[ P_Cartesian ] 0
| 10> end
| 11> *xyz 0 1
| 12>  C        2.3352860000     1.3337630000    -0.4971820000
| 13>  C        2.6601220000    -0.0912020000    -0.0599040000
| 14>  C        2.7742400000    -0.2427660000     1.4256330000
| 15>  C        1.5504080000    -0.0656780000     2.2735270000
| 16>  N        3.9196440000    -0.5365880000     1.9069110000
| 17>  N        4.0374780000    -0.7218670000     3.2496160000
| 18>  C        5.4002510000    -0.6391300000     3.7188310000
| 19>  H        2.2309720000     1.3944420000    -1.5829070000
| 20>  H        3.1288280000     2.0210980000    -0.1945700000
| 21>  H        1.3997320000     1.6890550000    -0.0567660000
| 22>  H        3.6044210000    -0.4150000000    -0.5017090000
| 23>  H        1.8778060000    -0.7668730000    -0.4296000000
| 24>  H        0.6594500000     0.0801350000     1.6631390000
| 25>  H        1.6344310000     0.8007090000     2.9418640000
| 26>  H        1.3963650000    -0.9457490000     2.9076140000
| 27>  H        3.3923760000    -0.1736060000     3.8089770000
| 28>  H        5.8544660000     0.3502430000     3.5733810000
| 29>  H        6.0035630000    -1.3728170000     3.1836040000
| 30>  H        5.4206600000    -0.8844670000     4.7824400000
| 31> *
| 32>
| 33>                          ****END OF INPUT****
 Total Charge           Charge          ....    0
 Multiplicity           Mult            ....    1
 Number of Electrons    NEL             ....   56
 Basis Dimension        Dim             ....  158

MULLIKEN ATOMIC CHARGES
-----------------------
   0 C :   -0.047035
   1 C :    0.074157
   2 C :   -0.254406
   3 C :    0.016568
   4 N :   -0.073005
   5 N :   -0.144472
   6 C :    0.084963
   7 H :    0.027782
   8 H :    0.028747
   9 H :    0.012148
  10 H :    0.006491
  11 H :    0.011787
  12 H :    0.019307
  13 H :    0.037987
  14 H :    0.042138
  15 H :    0.092913
  16 H :    0.012629
  17 H :    0.032721
  18 H :    0.018579
Sum of atomic charges:   -0.0000000

LOEWDIN ATOMIC CHARGES
----------------------
   0 C :   -0.067338
   1 C :   -0.045690
   2 C :   -0.066293
   3 C :   -0.085929
   4 N :   -0.055547
   5 N :   -0.011374
   6 C :   -0.007778
   7 H :    0.027660
   8 H :    0.026906
   9 H :    0.020639
  10 H :    0.030742
  11 H :    0.027462
  12 H :    0.033908
  13 H :    0.034706
  14 H :    0.038221
  15 H :    0.041383
  16 H :    0.007320
  17 H :    0.028512
  18 H :    0.022488

  Mayer bond orders larger than 0.1
B(  0-C ,  1-C ) :   1.1059 B(  0-C ,  7-H ) :   0.9620 B(  0-C ,  8-H ) :   0.9651
B(  0-C ,  9-H ) :   0.9638 B(  1-C ,  2-C ) :   1.0772 B(  1-C , 10-H ) :   0.9176
B(  1-C , 11-H ) :   0.9146 B(  2-C ,  3-C ) :   1.0573 B(  2-C ,  4-N ) :   1.8966
B(  2-C ,  5-N ) :   0.1015 B(  3-C , 12-H ) :   0.9407 B(  3-C , 13-H ) :   0.9368
B(  3-C , 14-H ) :   0.9362 B(  4-N ,  5-N ) :   1.0666 B(  5-N ,  6-C ) :   1.0422
B(  5-N , 15-H ) :   0.9144 B(  6-C , 16-H ) :   0.9590 B(  6-C , 17-H ) :   0.9674
B(  6-C , 18-H ) :   0.9674

FINAL SINGLE POINT ENERGY      -306.591433515832

DIPOLE MOMENT
-------------
                                X             Y             Z
Electronic contribution:      1.82639      -2.68653       1.26715
Nuclear contribution   :     -2.19804       3.04337      -0.79463
                        -----------------------------------------
Total Dipole Moment    :     -0.37165       0.35683       0.47251
                        -----------------------------------------
Magnitude (a.u.)       :      0.69909
Magnitude (Debye)      :      1.77694

                             ****ORCA TERMINATED NORMALLY****
TOTAL RUN TIME: 0 days 0 hours 0 minutes 8 seconds 623 msec
