                         Program Version 3.0.3 - RELEASE   -
|  1> ! RI PBE def2-SVP def2-SVP/J NBO PAL2
|  2> % maxcore 2000
|  3> % output
|  4>     # printlevel mini
|  5>     print[ P_Basis ] 0
|  6>     print[ P_SCFInfo ] 1
|  7>     print[ P_SCFIterInfo ] 1
|  8>     print[ P_OrbEn ] 0
|  9>     print[ P_Cartesian ] 0
| 10> end
| 11> *xyz 0 1
| 12>  C        2.1304810000     0.3357820000    -1.4944870000
| 13>  C        2.5235950000    -0.0164080000    -0.0631330000
| 14>  C        2.7884770000     1.1877770000     0.7851260000
| 15>  C        1.6676200000     2.1450870000     1.0351370000
| 16>  N        3.9770950000     1.3351800000     1.2305090000
| 17>  N        4.1753060000     2.4255460000     2.0449280000
| 18>  C        5.2897620000     3.0048410000     1.8885240000
| 19>  H        1.9363270000    -0.5694440000    -2.0730200000
| 20>  H        2.9309420000     0.8883200000    -1.9921070000
| 21>  H        1.2270830000     0.9493820000    -1.5271080000
| 22>  H        3.4191100000    -0.6399060000    -0.0549750000
| 23>  H        1.7123590000    -0.5910440000     0.4013280000
| 24>  H        0.7027550000     1.6368090000     0.9893160000
| 25>  H        1.6609880000     2.9344950000     0.2770400000
| 26>  H        1.7993080000     2.6299210000     2.0029500000
| 27>  H        5.5185340000     3.8499600000     2.5305450000
| 28>  H        6.0174580000     2.6846010000     1.1397290000
| 29> *
| 30>
| 31>                          ****END OF INPUT****
 Total Charge           Charge          ....    0
 Multiplicity           Mult            ....    1
 Number of Electrons    NEL             ....   54
 Basis Dimension        Dim             ....  148

MULLIKEN ATOMIC CHARGES
-----------------------
   0 C :   -0.047649
   1 C :    0.058641
   2 C :   -0.227009
   3 C :    0.065455
   4 N :   -0.073309
   5 N :   -0.093455
   6 C :    0.009254
   7 H :    0.030868
   8 H :    0.033733
   9 H :    0.024021
  10 H :    0.014545
  11 H :    0.025506
  12 H :    0.018761
  13 H :    0.049509
  14 H :    0.046519
  15 H :    0.042716
  16 H :    0.021894
Sum of atomic charges:   -0.0000000

LOEWDIN ATOMIC CHARGES
----------------------
   0 C :   -0.061750
   1 C :   -0.046330
   2 C :   -0.005187
   3 C :   -0.077954
   4 N :   -0.060925
   5 N :   -0.030070
   6 C :   -0.007652
   7 H :    0.031060
   8 H :    0.029344
   9 H :    0.024479
  10 H :    0.031764
  11 H :    0.034917
  12 H :    0.032122
  13 H :    0.048640
  14 H :    0.040782
  15 H :    0.018338
  16 H :   -0.001578

  Mayer bond orders larger than 0.1
B(  0-C ,  1-C ) :   1.1079 B(  0-C ,  7-H ) :   0.9612 B(  0-C ,  8-H ) :   0.9654
B(  0-C ,  9-H ) :   0.9640 B(  1-C ,  2-C ) :   1.0630 B(  1-C , 10-H ) :   0.9169
B(  1-C , 11-H ) :   0.9119 B(  2-C ,  3-C ) :   1.0666 B(  2-C ,  4-N ) :   1.8921
B(  3-C , 12-H ) :   0.9411 B(  3-C , 13-H ) :   0.9355 B(  3-C , 14-H ) :   0.9206
B(  4-N ,  5-N ) :   1.0101 B(  5-N ,  6-C ) :   1.9287 B(  6-C , 15-H ) :   0.9533
B(  6-C , 16-H ) :   0.9307

FINAL SINGLE POINT ENERGY      -305.380447033806

DIPOLE MOMENT
-------------
                                X             Y             Z
Electronic contribution:      4.42984       1.25886       4.96056
Nuclear contribution   :     -4.77199      -1.07934      -5.41959
                        -----------------------------------------
Total Dipole Moment    :     -0.34215       0.17952      -0.45903
                        -----------------------------------------
Magnitude (a.u.)       :      0.60000
Magnitude (Debye)      :      1.52507

                             ****ORCA TERMINATED NORMALLY****
TOTAL RUN TIME: 0 days 0 hours 0 minutes 7 seconds 627 msec
