                         Program Version 3.0.3 - RELEASE   -
|  1> ! RI PBE def2-SVP def2-SVP/J NBO PAL2
|  2> % maxcore 2000
|  3> % output
|  4>     # printlevel mini
|  5>     print[ P_Basis ] 0
|  6>     print[ P_SCFInfo ] 1
|  7>     print[ P_SCFIterInfo ] 1
|  8>     print[ P_OrbEn ] 0
|  9>     print[ P_Cartesian ] 0
| 10> end
| 11> *xyz 0 1
| 12>  C        2.8667210000    -0.7264940000     1.0813980000
| 13>  C        2.5341420000     0.3136460000     0.0271530000
| 14>  C        3.1168550000     0.0056580000    -1.3470160000
| 15>  C        2.6158070000     0.9799390000    -2.4051780000
| 16>  N        4.5727210000    -0.0536430000    -1.2880030000
| 17>  N        5.1936030000     1.0833320000    -0.9427500000
| 18>  C        6.4072270000     1.2610270000    -1.2713350000
| 19>  H        2.4272220000    -0.4616690000     2.0456600000
| 20>  H        3.9461260000    -0.8157500000     1.2149560000
| 21>  H        2.4826550000    -1.7121700000     0.8017360000
| 22>  H        2.8980860000     1.2965910000     0.3399660000
| 23>  H        1.4485410000     0.4020230000    -0.0833650000
| 24>  H        2.8119120000    -1.0103100000    -1.6258940000
| 25>  H        2.9231610000     1.9978670000    -2.1543720000
| 26>  H        1.5255040000     0.9558590000    -2.4736230000
| 27>  H        3.0218260000     0.7359870000    -3.3906720000
| 28>  H        5.0028520000    -0.5653240000    -2.0541760000
| 29>  H        6.9006440000     2.1641430000    -0.9335690000
| 30>  H        6.9766840000     0.5386080000    -1.8661350000
| 31> *
| 32>
| 33>                          ****END OF INPUT****
 Total Charge           Charge          ....    0
 Multiplicity           Mult            ....    1
 Number of Electrons    NEL             ....   56
 Basis Dimension        Dim             ....  158

MULLIKEN ATOMIC CHARGES
-----------------------
   0 C :    0.006503
   1 C :   -0.016751
   2 C :   -0.028529
   3 C :    0.028471
   4 N :   -0.103978
   5 N :   -0.079155
   6 C :   -0.060589
   7 H :    0.014213
   8 H :    0.028811
   9 H :    0.003084
  10 H :    0.020136
  11 H :    0.011440
  12 H :   -0.007703
  13 H :    0.033570
  14 H :    0.021643
  15 H :    0.005384
  16 H :    0.085260
  17 H :    0.038933
  18 H :   -0.000744
Sum of atomic charges:   -0.0000000

LOEWDIN ATOMIC CHARGES
----------------------
   0 C :   -0.065817
   1 C :   -0.047633
   2 C :   -0.000296
   3 C :   -0.072313
   4 N :    0.017636
   5 N :   -0.022645
   6 C :   -0.083058
   7 H :    0.026086
   8 H :    0.026810
   9 H :    0.020896
  10 H :    0.027363
  11 H :    0.025366
  12 H :    0.020217
  13 H :    0.030782
  14 H :    0.028524
  15 H :    0.021748
  16 H :    0.040517
  17 H :    0.017096
  18 H :   -0.011277

  Mayer bond orders larger than 0.1
B(  0-C ,  1-C ) :   1.1169 B(  0-C ,  7-H ) :   0.9599 B(  0-C ,  8-H ) :   0.9632
B(  0-C ,  9-H ) :   0.9626 B(  1-C ,  2-C ) :   1.0526 B(  1-C , 10-H ) :   0.9232
B(  1-C , 11-H ) :   0.9370 B(  2-C ,  3-C ) :   1.0777 B(  2-C ,  4-N ) :   1.0241
B(  2-C , 12-H ) :   0.9136 B(  3-C , 13-H ) :   0.9549 B(  3-C , 14-H ) :   0.9554
B(  3-C , 15-H ) :   0.9536 B(  4-N ,  5-N ) :   1.1072 B(  4-N ,  6-C ) :   0.1541
B(  4-N , 16-H ) :   0.9179 B(  5-N ,  6-C ) :   1.8741 B(  6-C , 17-H ) :   0.9581
B(  6-C , 18-H ) :   0.9275

FINAL SINGLE POINT ENERGY      -306.585024501773

DIPOLE MOMENT
-------------
                                X             Y             Z
Electronic contribution:      4.01795       0.82785      -0.91660
Nuclear contribution   :     -4.09798      -1.18695       0.39767
                        -----------------------------------------
Total Dipole Moment    :     -0.08003      -0.35910      -0.51892
                        -----------------------------------------
Magnitude (a.u.)       :      0.63611
Magnitude (Debye)      :      1.61687

                             ****ORCA TERMINATED NORMALLY****
TOTAL RUN TIME: 0 days 0 hours 0 minutes 8 seconds 393 msec
