                         Program Version 3.0.3 - RELEASE   -
|  1> ! RI PBE def2-SVP def2-SVP/J NBO PAL2
|  2> % maxcore 2000
|  3> % output
|  4>     # printlevel mini
|  5>     print[ P_Basis ] 0
|  6>     print[ P_SCFInfo ] 1
|  7>     print[ P_SCFIterInfo ] 1
|  8>     print[ P_OrbEn ] 0
|  9>     print[ P_Cartesian ] 0
| 10> end
| 11> *xyz 0 1
| 12>  C        2.9859340000     0.9883890000     0.7718060000
| 13>  C        2.6512880000    -0.1118440000    -0.2228100000
| 14>  C        3.1223030000    -1.4996670000     0.1874220000
| 15>  C        2.4694280000    -2.5705860000    -0.6834370000
| 16>  N        1.0462720000    -2.6752900000    -0.3973590000
| 17>  N        4.5689580000    -1.6011960000     0.0882740000
| 18>  C        5.1678800000    -2.6007360000     0.9450260000
| 19>  H        2.6048600000     1.9536760000     0.4306590000
| 20>  H        4.0632150000     1.1095820000     0.9224250000
| 21>  H        2.5397120000     0.7832560000     1.7489720000
| 22>  H        3.0896090000     0.1173490000    -1.2017330000
| 23>  H        1.5689160000    -0.1645950000    -0.3633910000
| 24>  H        2.7899450000    -1.6738450000     1.2313820000
| 25>  H        3.0146820000    -3.5164840000    -0.5566890000
| 26>  H        2.5941200000    -2.2777640000    -1.7305510000
| 27>  H        0.8969450000    -3.1070400000     0.5066970000
| 28>  H        0.5846390000    -3.2591140000    -1.0820650000
| 29>  H        4.9816120000    -0.7007810000     0.2883820000
| 30>  H        4.8674940000    -3.6032900000     0.6310710000
| 31>  H        4.8974660000    -2.4930580000     2.0092660000
| 32>  H        6.2555130000    -2.5511580000     0.8616730000
| 33> *
| 34>
| 35>                          ****END OF INPUT****
 Total Charge           Charge          ....    0
 Multiplicity           Mult            ....    1
 Number of Electrons    NEL             ....   58
 Basis Dimension        Dim             ....  168

MULLIKEN ATOMIC CHARGES
-----------------------
   0 C :    0.012223
   1 C :   -0.029474
   2 C :   -0.047654
   3 C :    0.121019
   4 N :   -0.202828
   5 N :   -0.221173
   6 C :    0.062192
   7 H :    0.017397
   8 H :    0.005755
   9 H :    0.013187
  10 H :    0.001853
  11 H :    0.019685
  12 H :   -0.035757
  13 H :   -0.015496
  14 H :   -0.002866
  15 H :    0.085615
  16 H :    0.090417
  17 H :    0.089852
  18 H :    0.014293
  19 H :   -0.004258
  20 H :    0.026016
Sum of atomic charges:   -0.0000000

LOEWDIN ATOMIC CHARGES
----------------------
   0 C :   -0.067401
   1 C :   -0.050456
   2 C :   -0.000524
   3 C :    0.003682
   4 N :   -0.104964
   5 N :   -0.095195
   6 C :   -0.008047
   7 H :    0.028149
   8 H :    0.016010
   9 H :    0.024791
  10 H :    0.022091
  11 H :    0.028909
  12 H :   -0.005844
  13 H :   -0.001427
  14 H :    0.020572
  15 H :    0.049589
  16 H :    0.053586
  17 H :    0.049062
  18 H :    0.015627
  19 H :   -0.001976
  20 H :    0.023766

  Mayer bond orders larger than 0.1
B(  0-C ,  1-C ) :   1.1179 B(  0-C ,  7-H ) :   0.9579 B(  0-C ,  8-H ) :   0.9585
B(  0-C ,  9-H ) :   0.9605 B(  1-C ,  2-C ) :   1.0593 B(  1-C , 10-H ) :   0.9229
B(  1-C , 11-H ) :   0.9179 B(  2-C ,  3-C ) :   1.0370 B(  2-C ,  5-N ) :   1.0630
B(  2-C , 12-H ) :   0.8955 B(  3-C ,  4-N ) :   1.0880 B(  3-C , 13-H ) :   0.9292
B(  3-C , 14-H ) :   0.9178 B(  4-N , 15-H ) :   0.9691 B(  4-N , 16-H ) :   0.9644
B(  5-N ,  6-C ) :   1.0607 B(  5-N , 17-H ) :   0.9432 B(  6-C , 18-H ) :   0.9630
B(  6-C , 19-H ) :   0.9432 B(  6-C , 20-H ) :   0.9711

FINAL SINGLE POINT ENERGY      -307.802579839602

DIPOLE MOMENT
-------------
                                X             Y             Z
Electronic contribution:     -0.75257      -1.29151      -1.73644
Nuclear contribution   :      0.75518       0.96488       2.00143
                        -----------------------------------------
Total Dipole Moment    :      0.00261      -0.32664       0.26499
                        -----------------------------------------
Magnitude (a.u.)       :      0.42061
Magnitude (Debye)      :      1.06911

                             ****ORCA TERMINATED NORMALLY****
TOTAL RUN TIME: 0 days 0 hours 0 minutes 8 seconds 513 msec
