                         Program Version 3.0.3 - RELEASE   -
|  1> ! RI PBE def2-SVP def2-SVP/J NBO PAL2
|  2> % maxcore 2000
|  3> % output
|  4>     # printlevel mini
|  5>     print[ P_Basis ] 0
|  6>     print[ P_SCFInfo ] 1
|  7>     print[ P_SCFIterInfo ] 1
|  8>     print[ P_OrbEn ] 0
|  9>     print[ P_Cartesian ] 0
| 10> end
| 11> *xyz 0 1
| 12>  C        2.9574260000    -0.8562360000    -1.2190040000
| 13>  C        2.5588790000     0.1376790000    -0.1415000000
| 14>  C        2.7171500000    -0.4127140000     1.2773840000
| 15>  C        4.1355220000    -0.6770650000     1.6485550000
| 16>  N        4.5456020000    -1.8424290000     1.9412300000
| 17>  N        5.8636120000    -2.0326420000     2.1943160000
| 18>  C        6.1405830000    -3.1580370000     3.0534230000
| 19>  H        2.8393580000    -0.4275990000    -2.2168970000
| 20>  H        2.3412510000    -1.7580490000    -1.1666760000
| 21>  H        3.9984550000    -1.1686640000    -1.1073430000
| 22>  H        1.5167850000     0.4408760000    -0.2845800000
| 23>  H        3.1557110000     1.0519990000    -0.2414780000
| 24>  H        2.1553520000    -1.3442390000     1.3885250000
| 25>  H        2.2928510000     0.3108050000     1.9846680000
| 26>  H        4.8297970000     0.1771510000     1.6388460000
| 27>  H        6.3600120000    -1.1857440000     2.4599580000
| 28>  H        5.6853590000    -4.0495660000     2.6213380000
| 29>  H        5.7570690000    -3.0367420000     4.0759350000
| 30>  H        7.2208460000    -3.3079940000     3.0978100000
| 31> *
| 32>
| 33>                          ****END OF INPUT****
 Total Charge           Charge          ....    0
 Multiplicity           Mult            ....    1
 Number of Electrons    NEL             ....   56
 Basis Dimension        Dim             ....  158

MULLIKEN ATOMIC CHARGES
-----------------------
   0 C :   -0.018190
   1 C :   -0.062542
   2 C :    0.077436
   3 C :   -0.108196
   4 N :   -0.071088
   5 N :   -0.138522
   6 C :    0.087515
   7 H :    0.016850
   8 H :    0.019319
   9 H :    0.031530
  10 H :    0.010325
  11 H :    0.009433
  12 H :    0.008358
  13 H :    0.015920
  14 H :   -0.032695
  15 H :    0.087526
  16 H :    0.031332
  17 H :    0.012431
  18 H :    0.023257
Sum of atomic charges:   -0.0000000

LOEWDIN ATOMIC CHARGES
----------------------
   0 C :   -0.067345
   1 C :   -0.045419
   2 C :   -0.050953
   3 C :   -0.053760
   4 N :   -0.039608
   5 N :   -0.008853
   6 C :   -0.006424
   7 H :    0.024698
   8 H :    0.026195
   9 H :    0.026852
  10 H :    0.023510
  11 H :    0.020764
  12 H :    0.030563
  13 H :    0.031807
  14 H :   -0.012766
  15 H :    0.039773
  16 H :    0.029492
  17 H :    0.007431
  18 H :    0.024045

  Mayer bond orders larger than 0.1
B(  0-C ,  1-C ) :   1.1131 B(  0-C ,  7-H ) :   0.9641 B(  0-C ,  8-H ) :   0.9645
B(  0-C ,  9-H ) :   0.9638 B(  1-C ,  2-C ) :   1.0829 B(  1-C , 10-H ) :   0.9348
B(  1-C , 11-H ) :   0.9407 B(  2-C ,  3-C ) :   1.0558 B(  2-C , 12-H ) :   0.9242
B(  2-C , 13-H ) :   0.9140 B(  3-C ,  4-N ) :   1.8502 B(  3-C ,  5-N ) :   0.1304
B(  3-C , 14-H ) :   0.9241 B(  4-N ,  5-N ) :   1.0775 B(  5-N ,  6-C ) :   1.0409
B(  5-N , 15-H ) :   0.9205 B(  6-C , 16-H ) :   0.9659 B(  6-C , 17-H ) :   0.9585
B(  6-C , 18-H ) :   0.9686

FINAL SINGLE POINT ENERGY      -306.586018446696

DIPOLE MOMENT
-------------
                                X             Y             Z
Electronic contribution:      2.01558      -0.63921       2.94906
Nuclear contribution   :     -1.64323       1.00397      -2.63226
                        -----------------------------------------
Total Dipole Moment    :      0.37234       0.36476       0.31680
                        -----------------------------------------
Magnitude (a.u.)       :      0.60996
Magnitude (Debye)      :      1.55039

                             ****ORCA TERMINATED NORMALLY****
TOTAL RUN TIME: 0 days 0 hours 0 minutes 8 seconds 176 msec
