                         Program Version 3.0.3 - RELEASE   -
|  1> ! RI PBE def2-SVP def2-SVP/J NBO PAL2
|  2> % maxcore 2000
|  3> % output
|  4>     # printlevel mini
|  5>     print[ P_Basis ] 0
|  6>     print[ P_SCFInfo ] 1
|  7>     print[ P_SCFIterInfo ] 1
|  8>     print[ P_OrbEn ] 0
|  9>     print[ P_Cartesian ] 0
| 10> end
| 11> *xyz 0 1
| 12>  C        1.6198950000    -0.6771560000     0.5754360000
| 13>  C        2.9908120000    -0.0951710000     0.2780050000
| 14>  C        3.0164420000     0.6935590000    -1.0309050000
| 15>  C        4.3375360000     1.3183570000    -1.2892690000
| 16>  N        5.0154900000     1.0380740000    -2.3267130000
| 17>  N        6.2264400000     1.7313890000    -2.3623640000
| 18>  C        6.8993740000     1.4691070000    -3.4022960000
| 19>  H        1.6230320000    -1.2424720000     1.5098200000
| 20>  H        1.2970810000    -1.3526590000    -0.2212540000
| 21>  H        0.8674430000     0.1112500000     0.6651660000
| 22>  H        3.7333270000    -0.8975930000     0.2240130000
| 23>  H        3.3029970000     0.5566860000     1.1013270000
| 24>  H        2.2613660000     1.4890990000    -0.9768430000
| 25>  H        2.7566260000     0.0509260000    -1.8755520000
| 26>  H        4.7373980000     2.0283050000    -0.5572200000
| 27>  H        7.8604060000     1.9598820000    -3.5238180000
| 28>  H        6.5422460000     0.7745160000    -4.1649540000
| 29> *
| 30>
| 31>                          ****END OF INPUT****
 Total Charge           Charge          ....    0
 Multiplicity           Mult            ....    1
 Number of Electrons    NEL             ....   54
 Basis Dimension        Dim             ....  148

MULLIKEN ATOMIC CHARGES
-----------------------
   0 C :   -0.018261
   1 C :   -0.086301
   2 C :    0.075239
   3 C :   -0.034176
   4 N :   -0.096347
   5 N :   -0.107294
   6 C :    0.024232
   7 H :    0.026517
   8 H :    0.025669
   9 H :    0.022722
  10 H :    0.033141
  11 H :    0.020373
  12 H :    0.030572
  13 H :    0.015096
  14 H :   -0.000741
  15 H :    0.044376
  16 H :    0.025182
Sum of atomic charges:    0.0000000

LOEWDIN ATOMIC CHARGES
----------------------
   0 C :   -0.067653
   1 C :   -0.040699
   2 C :   -0.052635
   3 C :    0.027272
   4 N :   -0.061051
   5 N :   -0.044310
   6 C :    0.007825
   7 H :    0.029776
   8 H :    0.027304
   9 H :    0.026719
  10 H :    0.029352
  11 H :    0.024573
  12 H :    0.040861
  13 H :    0.032497
  14 H :    0.000194
  15 H :    0.020133
  16 H :   -0.000158

  Mayer bond orders larger than 0.1
B(  0-C ,  1-C ) :   1.1190 B(  0-C ,  7-H ) :   0.9608 B(  0-C ,  8-H ) :   0.9657
B(  0-C ,  9-H ) :   0.9642 B(  1-C ,  2-C ) :   1.0739 B(  1-C , 10-H ) :   0.9413
B(  1-C , 11-H ) :   0.9432 B(  2-C ,  3-C ) :   1.0267 B(  2-C , 12-H ) :   0.9079
B(  2-C , 13-H ) :   0.9207 B(  3-C ,  4-N ) :   1.8804 B(  3-C ,  6-C ) :   0.1120
B(  3-C , 14-H ) :   0.9347 B(  4-N ,  5-N ) :   0.9735 B(  5-N ,  6-C ) :   1.9314
B(  6-C , 15-H ) :   0.9506 B(  6-C , 16-H ) :   0.9250

FINAL SINGLE POINT ENERGY      -305.372068419723

DIPOLE MOMENT
-------------
                                X             Y             Z
Electronic contribution:      6.97205       3.77305      -5.08712
Nuclear contribution   :     -7.24590      -3.88317       5.27475
                        -----------------------------------------
Total Dipole Moment    :     -0.27384      -0.11012       0.18763
                        -----------------------------------------
Magnitude (a.u.)       :      0.34975
Magnitude (Debye)      :      0.88899

                             ****ORCA TERMINATED NORMALLY****
TOTAL RUN TIME: 0 days 0 hours 0 minutes 7 seconds 82 msec
