                         Program Version 3.0.3 - RELEASE   -
|  1> ! RI PBE def2-SVP def2-SVP/J NBO PAL2
|  2> % maxcore 2000
|  3> % output
|  4>     # printlevel mini
|  5>     print[ P_Basis ] 0
|  6>     print[ P_SCFInfo ] 1
|  7>     print[ P_SCFIterInfo ] 1
|  8>     print[ P_OrbEn ] 0
|  9>     print[ P_Cartesian ] 0
| 10> end
| 11> *xyz 0 1
| 12>  C        0.4948210000    -0.1205990000    -0.2655920000
| 13>  C        1.9769590000    -0.3598510000    -0.0369800000
| 14>  C        2.7460040000     0.9351510000     0.2191830000
| 15>  C        4.2152870000     0.6996930000     0.4710060000
| 16>  N        4.7684760000     0.5887990000     1.6181080000
| 17>  N        4.9625110000     0.5291930000    -0.6566050000
| 18>  C        6.3895810000     0.3577090000    -0.5797920000
| 19>  H       -0.0362180000    -1.0582910000    -0.4435770000
| 20>  H        0.3261770000     0.5261750000    -1.1314320000
| 21>  H        0.0339180000     0.3626670000     0.6004440000
| 22>  H        2.4115390000    -0.8719710000    -0.9010010000
| 23>  H        2.1207120000    -1.0287790000     0.8172870000
| 24>  H        2.3251210000     1.4481930000     1.0881190000
| 25>  H        2.6146990000     1.6104000000    -0.6356200000
| 26>  H        4.0758810000     0.6965690000     2.3522470000
| 27>  H        4.5753740000     0.8653960000    -1.5191040000
| 28>  H        6.8906050000     1.2367290000    -0.1594730000
| 29>  H        6.7793350000     0.1634170000    -1.5795190000
| 30>  H        6.6247980000    -0.4891010000     0.0662920000
| 31> *
| 32>
| 33>                          ****END OF INPUT****
 Total Charge           Charge          ....    0
 Multiplicity           Mult            ....    1
 Number of Electrons    NEL             ....   56
 Basis Dimension        Dim             ....  158

MULLIKEN ATOMIC CHARGES
-----------------------
   0 C :    0.004327
   1 C :   -0.048152
   2 C :    0.050687
   3 C :   -0.145103
   4 N :   -0.146225
   5 N :   -0.148879
   6 C :    0.102367
   7 H :    0.023418
   8 H :    0.015429
   9 H :    0.019710
  10 H :    0.010191
  11 H :    0.017782
  12 H :    0.002231
  13 H :   -0.002084
  14 H :    0.071052
  15 H :    0.103526
  16 H :    0.024366
  17 H :    0.010204
  18 H :    0.035154
Sum of atomic charges:   -0.0000000

LOEWDIN ATOMIC CHARGES
----------------------
   0 C :   -0.067206
   1 C :   -0.040727
   2 C :   -0.056998
   3 C :   -0.000678
   4 N :   -0.188555
   5 N :   -0.011583
   6 C :    0.009534
   7 H :    0.028650
   8 H :    0.023920
   9 H :    0.025514
  10 H :    0.022169
  11 H :    0.027027
  12 H :    0.028689
  13 H :    0.022695
  14 H :    0.039539
  15 H :    0.066500
  16 H :    0.019780
  17 H :    0.021016
  18 H :    0.030713

  Mayer bond orders larger than 0.1
B(  0-C ,  1-C ) :   1.1169 B(  0-C ,  7-H ) :   0.9598 B(  0-C ,  8-H ) :   0.9632
B(  0-C ,  9-H ) :   0.9638 B(  1-C ,  2-C ) :   1.0945 B(  1-C , 10-H ) :   0.9371
B(  1-C , 11-H ) :   0.9368 B(  2-C ,  3-C ) :   1.0162 B(  2-C , 12-H ) :   0.9137
B(  2-C , 13-H ) :   0.9071 B(  3-C ,  4-N ) :   1.8985 B(  3-C ,  5-N ) :   1.1981
B(  4-N , 14-H ) :   0.9293 B(  5-N ,  6-C ) :   1.0316 B(  5-N , 15-H ) :   0.9315
B(  6-C , 16-H ) :   0.9630 B(  6-C , 17-H ) :   0.9668 B(  6-C , 18-H ) :   0.9615

FINAL SINGLE POINT ENERGY      -306.625424416760

DIPOLE MOMENT
-------------
                                X             Y             Z
Electronic contribution:      4.12841       1.11258       1.59996
Nuclear contribution   :     -4.70918      -0.94410      -2.44229
                        -----------------------------------------
Total Dipole Moment    :     -0.58076       0.16848      -0.84233
                        -----------------------------------------
Magnitude (a.u.)       :      1.03691
Magnitude (Debye)      :      2.63562

                             ****ORCA TERMINATED NORMALLY****
TOTAL RUN TIME: 0 days 0 hours 0 minutes 8 seconds 654 msec
