                         Program Version 3.0.3 - RELEASE   -
|  1> ! RI PBE def2-SVP def2-SVP/J NBO PAL2
|  2> % maxcore 2000
|  3> % output
|  4>     # printlevel mini
|  5>     print[ P_Basis ] 0
|  6>     print[ P_SCFInfo ] 1
|  7>     print[ P_SCFIterInfo ] 1
|  8>     print[ P_OrbEn ] 0
|  9>     print[ P_Cartesian ] 0
| 10> end
| 11> *xyz 0 1
| 12>  C        1.5953270000    -0.5656180000     1.1414760000
| 13>  C        2.9544450000    -0.1060660000     0.6421860000
| 14>  C        3.1146560000    -0.2622010000    -0.8615090000
| 15>  C        4.4717950000     0.1971170000    -1.3569770000
| 16>  N        4.5689060000     0.0276880000    -2.7807820000
| 17>  N        5.6773110000     0.3714840000    -3.4106700000
| 18>  C        5.7705340000     0.2253130000    -4.6726760000
| 19>  H        1.5046700000    -0.4436650000     2.2230360000
| 20>  H        1.4264510000    -1.6212620000     0.9110710000
| 21>  H        0.7889930000     0.0065430000     0.6740940000
| 22>  H        3.7436950000    -0.6719990000     1.1495270000
| 23>  H        3.1110100000     0.9436950000     0.9143590000
| 24>  H        2.3293250000     0.3091730000    -1.3720880000
| 25>  H        2.9649380000    -1.3139790000    -1.1358230000
| 26>  H        5.2621380000    -0.3758990000    -0.8554390000
| 27>  H        4.6249610000     1.2512060000    -1.0924610000
| 28>  H        3.7863480000    -0.3529890000    -3.2976030000
| 29>  H        6.6963520000     0.5192830000    -5.1495430000
| 30>  H        4.9616660000    -0.1813150000    -5.2881770000
| 31> *
| 32>
| 33>                          ****END OF INPUT****
 Total Charge           Charge          ....    0
 Multiplicity           Mult            ....    1
 Number of Electrons    NEL             ....   56
 Basis Dimension        Dim             ....  158

MULLIKEN ATOMIC CHARGES
-----------------------
   0 C :   -0.018419
   1 C :   -0.038235
   2 C :   -0.101785
   3 C :    0.196270
   4 N :   -0.160088
   5 N :   -0.059274
   6 C :   -0.079620
   7 H :    0.027682
   8 H :    0.019931
   9 H :    0.018408
  10 H :    0.016478
  11 H :    0.014897
  12 H :    0.013334
  13 H :    0.014332
  14 H :    0.010153
  15 H :    0.006708
  16 H :    0.092242
  17 H :    0.034171
  18 H :   -0.007184
Sum of atomic charges:   -0.0000000

LOEWDIN ATOMIC CHARGES
----------------------
   0 C :   -0.067762
   1 C :   -0.042358
   2 C :   -0.051865
   3 C :    0.021901
   4 N :    0.013663
   5 N :   -0.022267
   6 C :   -0.104643
   7 H :    0.029178
   8 H :    0.025427
   9 H :    0.025453
  10 H :    0.025335
  11 H :    0.024786
  12 H :    0.022203
  13 H :    0.022298
  14 H :    0.018612
  15 H :    0.017833
  16 H :    0.041507
  17 H :    0.015023
  18 H :   -0.014325

  Mayer bond orders larger than 0.1
B(  0-C ,  1-C ) :   1.1233 B(  0-C ,  7-H ) :   0.9610 B(  0-C ,  8-H ) :   0.9649
B(  0-C ,  9-H ) :   0.9634 B(  1-C ,  2-C ) :   1.0954 B(  1-C , 10-H ) :   0.9360
B(  1-C , 11-H ) :   0.9385 B(  2-C ,  3-C ) :   1.0835 B(  2-C , 12-H ) :   0.9324
B(  2-C , 13-H ) :   0.9357 B(  3-C ,  4-N ) :   0.9981 B(  3-C , 14-H ) :   0.9279
B(  3-C , 15-H ) :   0.9277 B(  4-N ,  5-N ) :   1.1276 B(  4-N ,  6-C ) :   0.1700
B(  4-N , 16-H ) :   0.9218 B(  5-N ,  6-C ) :   1.8514 B(  6-C , 17-H ) :   0.9583
B(  6-C , 18-H ) :   0.9293

FINAL SINGLE POINT ENERGY      -306.580034011634

DIPOLE MOMENT
-------------
                                X             Y             Z
Electronic contribution:      5.53556       1.26354      -6.21184
Nuclear contribution   :     -6.30675      -1.52852       6.46421
                        -----------------------------------------
Total Dipole Moment    :     -0.77119      -0.26498       0.25238
                        -----------------------------------------
Magnitude (a.u.)       :      0.85360
Magnitude (Debye)      :      2.16969

                             ****ORCA TERMINATED NORMALLY****
TOTAL RUN TIME: 0 days 0 hours 0 minutes 8 seconds 118 msec
