                         Program Version 3.0.3 - RELEASE   -
|  1> ! RI PBE def2-SVP def2-SVP/J NBO PAL2
|  2> % maxcore 2000
|  3> % output
|  4>     # printlevel mini
|  5>     print[ P_Basis ] 0
|  6>     print[ P_SCFInfo ] 1
|  7>     print[ P_SCFIterInfo ] 1
|  8>     print[ P_OrbEn ] 0
|  9>     print[ P_Cartesian ] 0
| 10> end
| 11> *xyz 0 1
| 12>  C        1.1730330000     0.0372770000     0.7451260000
| 13>  C        2.6712250000     0.1294330000     0.5123060000
| 14>  C        3.0314190000     0.1290910000    -0.9610850000
| 15>  N        4.4660970000     0.1736290000    -1.1547650000
| 16>  C        4.9215720000     0.6652810000    -2.4394110000
| 17>  C        5.0698940000     1.4893850000    -1.2182330000
| 18>  C        6.3889370000     1.6904120000    -0.5360270000
| 19>  H        0.9357280000     0.0362580000     1.8110660000
| 20>  H        0.7611320000    -0.8797540000     0.3142130000
| 21>  H        0.6457490000     0.8804770000     0.2898020000
| 22>  H        3.1840740000    -0.7078980000     0.9949630000
| 23>  H        3.0653450000     1.0408420000     0.9754670000
| 24>  H        2.5281350000     0.9743860000    -1.4658040000
| 25>  H        2.6572280000    -0.7871490000    -1.4322330000
| 26>  H        4.1666850000     0.9668970000    -3.1625410000
| 27>  H        5.7843790000     0.1590900000    -2.8615880000
| 28>  H        4.3752390000     2.3275780000    -1.1452380000
| 29>  H        7.0151590000     0.8043570000    -0.6542780000
| 30>  H        6.2537150000     1.8677420000     0.5343610000
| 31>  H        6.9195540000     2.5486670000    -0.9572790000
| 32> *
| 33>
| 34>                          ****END OF INPUT****
 Total Charge           Charge          ....    0
 Multiplicity           Mult            ....    1
 Number of Electrons    NEL             ....   56
 Basis Dimension        Dim             ....  163

MULLIKEN ATOMIC CHARGES
-----------------------
   0 C :   -0.019380
   1 C :   -0.025346
   2 C :    0.096497
   3 N :   -0.276663
   4 C :    0.081290
   5 C :   -0.117847
   6 C :    0.095573
   7 H :    0.022842
   8 H :    0.016417
   9 H :    0.016622
  10 H :    0.016876
  11 H :    0.007143
  12 H :   -0.025719
  13 H :    0.003267
  14 H :    0.016383
  15 H :    0.021168
  16 H :    0.012370
  17 H :    0.017041
  18 H :    0.023800
  19 H :    0.017667
Sum of atomic charges:    0.0000000

LOEWDIN ATOMIC CHARGES
----------------------
   0 C :   -0.065416
   1 C :   -0.050903
   2 C :    0.014820
   3 N :   -0.107556
   4 C :    0.004058
   5 C :   -0.006543
   6 C :   -0.063909
   7 H :    0.027981
   8 H :    0.024422
   9 H :    0.023628
  10 H :    0.026967
  11 H :    0.022093
  12 H :   -0.002829
  13 H :    0.019684
  14 H :    0.011920
  15 H :    0.017852
  16 H :    0.010521
  17 H :    0.032952
  18 H :    0.030705
  19 H :    0.029553

  Mayer bond orders larger than 0.1
B(  0-C ,  1-C ) :   1.1139 B(  0-C ,  7-H ) :   0.9631 B(  0-C ,  8-H ) :   0.9654
B(  0-C ,  9-H ) :   0.9649 B(  1-C ,  2-C ) :   1.0958 B(  1-C , 10-H ) :   0.9288
B(  1-C , 11-H ) :   0.9353 B(  2-C ,  3-N ) :   1.0240 B(  2-C , 12-H ) :   0.9051
B(  2-C , 13-H ) :   0.9341 B(  3-N ,  4-C ) :   0.9663 B(  3-N ,  5-C ) :   0.9119
B(  4-C ,  5-C ) :   1.0694 B(  4-C , 14-H ) :   0.9249 B(  4-C , 15-H ) :   0.9379
B(  5-C ,  6-C ) :   1.0915 B(  5-C , 16-H ) :   0.9188 B(  6-C , 17-H ) :   0.9450
B(  6-C , 18-H ) :   0.9538 B(  6-C , 19-H ) :   0.9532

FINAL SINGLE POINT ENERGY      -290.564891117322

DIPOLE MOMENT
-------------
                                X             Y             Z
Electronic contribution:      2.55483      -0.78684      -2.33870
Nuclear contribution   :     -2.72016       1.09861       2.23980
                        -----------------------------------------
Total Dipole Moment    :     -0.16533       0.31177      -0.09891
                        -----------------------------------------
Magnitude (a.u.)       :      0.36649
Magnitude (Debye)      :      0.93156

                             ****ORCA TERMINATED NORMALLY****
TOTAL RUN TIME: 0 days 0 hours 0 minutes 7 seconds 976 msec
