                         Program Version 3.0.3 - RELEASE   -
|  1> ! RI PBE def2-SVP def2-SVP/J NBO PAL2
|  2> % maxcore 2000
|  3> % output
|  4>     # printlevel mini
|  5>     print[ P_Basis ] 0
|  6>     print[ P_SCFInfo ] 1
|  7>     print[ P_SCFIterInfo ] 1
|  8>     print[ P_OrbEn ] 0
|  9>     print[ P_Cartesian ] 0
| 10> end
| 11> *xyz 0 1
| 12>  C        1.4357780000    -0.3419700000     0.7868290000
| 13>  C        2.7742640000    -0.7831800000     0.2237800000
| 14>  C        3.9285590000    -0.3475690000     1.1072320000
| 15>  N        2.9447130000    -0.2121530000    -1.1038660000
| 16>  C        3.8059520000    -0.9433280000    -2.0115560000
| 17>  C        2.3374630000    -0.9278090000    -2.2056760000
| 18>  C        1.6737930000    -0.1263300000    -3.2841750000
| 19>  H        0.6127220000    -0.6644660000     0.1445770000
| 20>  H        1.4002670000     0.7476040000     0.8622200000
| 21>  H        1.2752080000    -0.7640450000     1.7814860000
| 22>  H        2.7805080000    -1.8877340000     0.1600590000
| 23>  H        3.9432670000     0.7413150000     1.1977740000
| 24>  H        3.8357200000    -0.7776780000     2.1070980000
| 25>  H        4.8860460000    -0.6652630000     0.6877760000
| 26>  H        4.2545110000    -1.8672610000    -1.6516870000
| 27>  H        4.4460860000    -0.3414520000    -2.6492350000
| 28>  H        1.8336350000    -1.8580590000    -1.9395620000
| 29>  H        2.2419550000     0.7840560000    -3.4832390000
| 30>  H        0.6619220000     0.1651990000    -2.9900510000
| 31>  H        1.6045390000    -0.7014680000    -4.2114740000
| 32> *
| 33>
| 34>                          ****END OF INPUT****
 Total Charge           Charge          ....    0
 Multiplicity           Mult            ....    1
 Number of Electrons    NEL             ....   56
 Basis Dimension        Dim             ....  163

MULLIKEN ATOMIC CHARGES
-----------------------
   0 C :    0.043875
   1 C :   -0.068365
   2 C :    0.050445
   3 N :   -0.273831
   4 C :    0.089883
   5 C :   -0.113414
   6 C :    0.101939
   7 H :    0.012705
   8 H :    0.021225
   9 H :    0.012341
  10 H :   -0.015318
  11 H :    0.022012
  12 H :    0.010339
  13 H :    0.009351
  14 H :    0.013717
  15 H :    0.022230
  16 H :    0.010414
  17 H :    0.010758
  18 H :    0.019277
  19 H :    0.020412
Sum of atomic charges:   -0.0000000

LOEWDIN ATOMIC CHARGES
----------------------
   0 C :   -0.061601
   1 C :    0.001171
   2 C :   -0.060698
   3 N :   -0.104743
   4 C :    0.003405
   5 C :   -0.005463
   6 C :   -0.062497
   7 H :    0.024392
   8 H :    0.028432
   9 H :    0.026579
  10 H :    0.000518
  11 H :    0.028469
  12 H :    0.025981
  13 H :    0.024353
  14 H :    0.011330
  15 H :    0.017931
  16 H :    0.010539
  17 H :    0.032024
  18 H :    0.030057
  19 H :    0.029822

  Mayer bond orders larger than 0.1
B(  0-C ,  1-C ) :   1.0920 B(  0-C ,  7-H ) :   0.9533 B(  0-C ,  8-H ) :   0.9526
B(  0-C ,  9-H ) :   0.9555 B(  1-C ,  2-C ) :   1.0859 B(  1-C ,  3-N ) :   0.9740
B(  1-C , 10-H ) :   0.8917 B(  2-C , 11-H ) :   0.9541 B(  2-C , 12-H ) :   0.9562
B(  2-C , 13-H ) :   0.9551 B(  3-N ,  4-C ) :   0.9619 B(  3-N ,  5-C ) :   0.9141
B(  4-C ,  5-C ) :   1.0682 B(  4-C , 14-H ) :   0.9197 B(  4-C , 15-H ) :   0.9384
B(  5-C ,  6-C ) :   1.0975 B(  5-C , 16-H ) :   0.9152 B(  6-C , 17-H ) :   0.9421
B(  6-C , 18-H ) :   0.9530 B(  6-C , 19-H ) :   0.9544

FINAL SINGLE POINT ENERGY      -290.568518655502

DIPOLE MOMENT
-------------
                                X             Y             Z
Electronic contribution:      1.08299      -0.08703      -1.75114
Nuclear contribution   :     -1.13715      -0.27940       1.72280
                        -----------------------------------------
Total Dipole Moment    :     -0.05417      -0.36643      -0.02834
                        -----------------------------------------
Magnitude (a.u.)       :      0.37149
Magnitude (Debye)      :      0.94426

                             ****ORCA TERMINATED NORMALLY****
TOTAL RUN TIME: 0 days 0 hours 0 minutes 8 seconds 494 msec
