                         Program Version 3.0.3 - RELEASE   -
|  1> ! RI PBE def2-SVP def2-SVP/J NBO PAL2
|  2> % maxcore 2000
|  3> % output
|  4>     # printlevel mini
|  5>     print[ P_Basis ] 0
|  6>     print[ P_SCFInfo ] 1
|  7>     print[ P_SCFIterInfo ] 1
|  8>     print[ P_OrbEn ] 0
|  9>     print[ P_Cartesian ] 0
| 10> end
| 11> *xyz 0 1
| 12>  C        0.8610160000     0.2831410000     0.1842560000
| 13>  C        2.2667880000     0.8484910000     0.0769100000
| 14>  C        3.3284880000    -0.2354070000     0.0441760000
| 15>  N        4.6579330000     0.3039920000    -0.0534380000
| 16>  C        5.7822650000    -0.6329290000    -0.1195970000
| 17>  C        6.4794680000     0.3226330000    -1.0982190000
| 18>  C        5.0811760000     0.9175140000    -1.3175080000
| 19>  H        0.1123930000     1.0779360000     0.2048080000
| 20>  H        0.7409740000    -0.3081910000     1.0964670000
| 21>  H        0.6289250000    -0.3682780000    -0.6630000000
| 22>  H        2.4760750000     1.5154600000     0.9188270000
| 23>  H        2.3490080000     1.4595550000    -0.8290420000
| 24>  H        3.1166730000    -0.9305610000    -0.7941290000
| 25>  H        3.2723000000    -0.8297670000     0.9639500000
| 26>  H        5.5109870000    -1.5840420000    -0.6066590000
| 27>  H        6.2658050000    -0.8497970000     0.8369050000
| 28>  H        6.9815030000    -0.1151310000    -1.9591410000
| 29>  H        7.1507400000     1.0167990000    -0.5931360000
| 30>  H        4.5805810000     0.4681080000    -2.1915860000
| 31>  H        4.9801250000     2.0043760000    -1.3715340000
| 32> *
| 33>
| 34>                          ****END OF INPUT****
 Total Charge           Charge          ....    0
 Multiplicity           Mult            ....    1
 Number of Electrons    NEL             ....   56
 Basis Dimension        Dim             ....  163

MULLIKEN ATOMIC CHARGES
-----------------------
   0 C :   -0.022586
   1 C :   -0.051506
   2 C :    0.104125
   3 N :   -0.356584
   4 C :    0.145283
   5 C :   -0.068933
   6 C :    0.124351
   7 H :    0.024386
   8 H :    0.017643
   9 H :    0.019651
  10 H :    0.018612
  11 H :    0.015905
  12 H :   -0.025188
  13 H :    0.001330
  14 H :   -0.015567
  15 H :    0.013311
  16 H :    0.022538
  17 H :    0.026857
  18 H :   -0.015331
  19 H :    0.021705
Sum of atomic charges:   -0.0000000

LOEWDIN ATOMIC CHARGES
----------------------
   0 C :   -0.066530
   1 C :   -0.052634
   2 C :    0.007512
   3 N :   -0.119434
   4 C :    0.034766
   5 C :   -0.040725
   6 C :    0.029275
   7 H :    0.028371
   8 H :    0.024527
   9 H :    0.024346
  10 H :    0.026177
  11 H :    0.023245
  12 H :   -0.007922
  13 H :    0.019682
  14 H :    0.000123
  15 H :    0.010179
  16 H :    0.020034
  17 H :    0.028277
  18 H :   -0.000161
  19 H :    0.010890

  Mayer bond orders larger than 0.1
B(  0-C ,  1-C ) :   1.1150 B(  0-C ,  7-H ) :   0.9611 B(  0-C ,  8-H ) :   0.9654
B(  0-C ,  9-H ) :   0.9653 B(  1-C ,  2-C ) :   1.0915 B(  1-C , 10-H ) :   0.9330
B(  1-C , 11-H ) :   0.9367 B(  2-C ,  3-N ) :   1.0363 B(  2-C , 12-H ) :   0.9108
B(  2-C , 13-H ) :   0.9327 B(  3-N ,  4-C ) :   1.0073 B(  3-N ,  6-C ) :   1.0063
B(  4-C ,  5-C ) :   1.0965 B(  4-C , 14-H ) :   0.9126 B(  4-C , 15-H ) :   0.9445
B(  5-C ,  6-C ) :   1.0986 B(  5-C , 16-H ) :   0.9505 B(  5-C , 17-H ) :   0.9287
B(  6-C , 18-H ) :   0.9100 B(  6-C , 19-H ) :   0.9435

FINAL SINGLE POINT ENERGY      -290.564889167598

DIPOLE MOMENT
-------------
                                X             Y             Z
Electronic contribution:      3.97971       0.55568       0.49009
Nuclear contribution   :     -3.95488      -0.66248      -0.67336
                        -----------------------------------------
Total Dipole Moment    :      0.02483      -0.10680      -0.18327
                        -----------------------------------------
Magnitude (a.u.)       :      0.21357
Magnitude (Debye)      :      0.54284

                             ****ORCA TERMINATED NORMALLY****
TOTAL RUN TIME: 0 days 0 hours 0 minutes 8 seconds 657 msec
