                         Program Version 3.0.3 - RELEASE   -
|  1> ! RI PBE def2-SVP def2-SVP/J NBO PAL2
|  2> % maxcore 2000
|  3> % output
|  4>     # printlevel mini
|  5>     print[ P_Basis ] 0
|  6>     print[ P_SCFInfo ] 1
|  7>     print[ P_SCFIterInfo ] 1
|  8>     print[ P_OrbEn ] 0
|  9>     print[ P_Cartesian ] 0
| 10> end
| 11> *xyz 0 1
| 12>  C        1.8617970000    -2.8252100000     0.3066130000
| 13>  C        2.3814090000    -1.6640250000    -0.0644850000
| 14>  C        3.2836610000    -0.8290420000     0.7831370000
| 15>  N        4.5176490000    -0.5266170000     0.1050550000
| 16>  C        5.5068000000     0.3041050000     0.7974600000
| 17>  C        6.6145730000    -0.5506890000     0.1654070000
| 18>  C        5.5109900000    -1.5938510000    -0.0633900000
| 19>  H        1.2010530000    -3.3866030000    -0.3438690000
| 20>  H        2.0752810000    -3.2539370000     1.2812030000
| 21>  H        2.1630880000    -1.2605440000    -1.0507460000
| 22>  H        3.4560600000    -1.3348460000     1.7523960000
| 23>  H        2.7892950000     0.1259830000     1.0036090000
| 24>  H        5.4734830000     0.1793640000     1.8920360000
| 25>  H        5.4668830000     1.3708040000     0.5605670000
| 26>  H        7.4527150000    -0.8358660000     0.7986090000
| 27>  H        6.9844080000    -0.1259190000    -0.7674950000
| 28>  H        5.4749070000    -2.3353120000     0.7509280000
| 29>  H        5.4763390000    -2.1194860000    -1.0203360000
| 30> *
| 31>
| 32>                          ****END OF INPUT****
 Total Charge           Charge          ....    0
 Multiplicity           Mult            ....    1
 Number of Electrons    NEL             ....   54
 Basis Dimension        Dim             ....  153

MULLIKEN ATOMIC CHARGES
-----------------------
   0 C :   -0.037780
   1 C :   -0.082589
   2 C :    0.179857
   3 N :   -0.368257
   4 C :    0.113538
   5 C :   -0.063234
   6 C :    0.130324
   7 H :    0.028587
   8 H :    0.017086
   9 H :    0.006414
  10 H :   -0.022412
  11 H :    0.019099
  12 H :   -0.002598
  13 H :    0.020970
  14 H :    0.024688
  15 H :    0.023549
  16 H :   -0.003242
  17 H :    0.016000
Sum of atomic charges:    0.0000000

LOEWDIN ATOMIC CHARGES
----------------------
   0 C :   -0.062896
   1 C :   -0.031535
   2 C :    0.007372
   3 N :   -0.119224
   4 C :    0.029402
   5 C :   -0.040543
   6 C :    0.032686
   7 H :    0.025300
   8 H :    0.020648
   9 H :    0.027249
  10 H :   -0.000846
  11 H :    0.032852
  12 H :    0.003105
  13 H :    0.011869
  14 H :    0.020768
  15 H :    0.028091
  16 H :    0.003485
  17 H :    0.012217

  Mayer bond orders larger than 0.1
B(  0-C ,  1-C ) :   1.9958 B(  0-C ,  7-H ) :   0.9472 B(  0-C ,  8-H ) :   0.9455
B(  1-C ,  2-C ) :   1.0628 B(  1-C ,  9-H ) :   0.9579 B(  2-C ,  3-N ) :   1.0089
B(  2-C , 10-H ) :   0.9052 B(  2-C , 11-H ) :   0.9128 B(  3-N ,  4-C ) :   1.0061
B(  3-N ,  6-C ) :   0.9998 B(  4-C ,  5-C ) :   1.0990 B(  4-C , 12-H ) :   0.9149
B(  4-C , 13-H ) :   0.9438 B(  5-C ,  6-C ) :   1.0972 B(  5-C , 14-H ) :   0.9503
B(  5-C , 15-H ) :   0.9272 B(  6-C , 16-H ) :   0.9194 B(  6-C , 17-H ) :   0.9441

FINAL SINGLE POINT ENERGY      -289.340073105925

DIPOLE MOMENT
-------------
                                X             Y             Z
Electronic contribution:     -0.89876       0.86949      -1.23751
Nuclear contribution   :      1.08808      -0.86550       1.42376
                        -----------------------------------------
Total Dipole Moment    :      0.18932       0.00399       0.18625
                        -----------------------------------------
Magnitude (a.u.)       :      0.26561
Magnitude (Debye)      :      0.67513

                             ****ORCA TERMINATED NORMALLY****
TOTAL RUN TIME: 0 days 0 hours 0 minutes 7 seconds 695 msec
