                         Program Version 3.0.3 - RELEASE   -
|  1> ! RI PBE def2-SVP def2-SVP/J NBO PAL2
|  2> % maxcore 2000
|  3> % output
|  4>     # printlevel mini
|  5>     print[ P_Basis ] 0
|  6>     print[ P_SCFInfo ] 1
|  7>     print[ P_SCFIterInfo ] 1
|  8>     print[ P_OrbEn ] 0
|  9>     print[ P_Cartesian ] 0
| 10> end
| 11> *xyz 0 1
| 12>  C        3.6633000000    -2.5545380000     0.1145530000
| 13>  C        3.6297460000    -1.3557850000     0.0761600000
| 14>  C        3.6067080000     0.0998290000     0.0442440000
| 15>  N        4.1450300000     0.6294690000    -1.1830240000
| 16>  C        4.2666130000     2.0863390000    -1.2950920000
| 17>  C        5.5758320000     1.8784400000    -2.0694830000
| 18>  C        5.5808930000     0.4748720000    -1.4457030000
| 19>  H        3.6874350000    -3.6180770000     0.1437360000
| 20>  H        4.1536810000     0.4785360000     0.9300760000
| 21>  H        2.5707420000     0.4430630000     0.1446250000
| 22>  H        4.4448780000     2.5729000000    -0.3220380000
| 23>  H        3.4323060000     2.5851480000    -1.7949900000
| 24>  H        6.4092260000     2.5367830000    -1.8317710000
| 25>  H        5.4201210000     1.8529710000    -3.1475150000
| 26>  H        6.1782330000     0.4423930000    -0.5205910000
| 27>  H        5.8483360000    -0.3788540000    -2.0712860000
| 28> *
| 29>
| 30>                          ****END OF INPUT****
 Total Charge           Charge          ....    0
 Multiplicity           Mult            ....    1
 Number of Electrons    NEL             ....   52
 Basis Dimension        Dim             ....  143

MULLIKEN ATOMIC CHARGES
-----------------------
   0 C :   -0.485163
   1 C :    0.330269
   2 C :    0.201779
   3 N :   -0.368186
   4 C :    0.127735
   5 C :   -0.087556
   6 C :    0.147837
   7 H :   -0.001159
   8 H :    0.007654
   9 H :    0.030450
  10 H :   -0.008558
  11 H :    0.022239
  12 H :    0.029811
  13 H :    0.037130
  14 H :   -0.008609
  15 H :    0.024326
Sum of atomic charges:   -0.0000000

LOEWDIN ATOMIC CHARGES
----------------------
   0 C :   -0.077725
   1 C :   -0.023831
   2 C :    0.003760
   3 N :   -0.114660
   4 C :    0.032511
   5 C :   -0.042758
   6 C :    0.036772
   7 H :    0.034258
   8 H :    0.017639
   9 H :    0.045806
  10 H :    0.001909
  11 H :    0.013039
  12 H :    0.022323
  13 H :    0.031299
  14 H :    0.004033
  15 H :    0.015623

  Mayer bond orders larger than 0.1
B(  0-C ,  1-C ) :   2.3538 B(  0-C ,  7-H ) :   1.1024 B(  1-C ,  2-C ) :   1.0458
B(  1-C ,  7-H ) :  -0.1111 B(  2-C ,  3-N ) :   1.0312 B(  2-C ,  8-H ) :   0.8844
B(  2-C ,  9-H ) :   0.8911 B(  3-N ,  4-C ) :   1.0016 B(  3-N ,  6-C ) :   0.9938
B(  4-C ,  5-C ) :   1.0974 B(  4-C , 10-H ) :   0.9118 B(  4-C , 11-H ) :   0.9452
B(  5-C ,  6-C ) :   1.1012 B(  5-C , 12-H ) :   0.9503 B(  5-C , 13-H ) :   0.9274
B(  6-C , 14-H ) :   0.9134 B(  6-C , 15-H ) :   0.9455

FINAL SINGLE POINT ENERGY      -288.093869573222

DIPOLE MOMENT
-------------
                                X             Y             Z
Electronic contribution:     -2.35097      -4.06764       0.94658
Nuclear contribution   :      2.55759       4.41783      -0.84292
                        -----------------------------------------
Total Dipole Moment    :      0.20661       0.35019       0.10366
                        -----------------------------------------
Magnitude (a.u.)       :      0.41960
Magnitude (Debye)      :      1.06654

                             ****ORCA TERMINATED NORMALLY****
TOTAL RUN TIME: 0 days 0 hours 0 minutes 7 seconds 374 msec
