                         Program Version 3.0.3 - RELEASE   -
|  1> ! RI PBE def2-SVP def2-SVP/J NBO PAL2
|  2> % maxcore 2000
|  3> % output
|  4>     # printlevel mini
|  5>     print[ P_Basis ] 0
|  6>     print[ P_SCFInfo ] 1
|  7>     print[ P_SCFIterInfo ] 1
|  8>     print[ P_OrbEn ] 0
|  9>     print[ P_Cartesian ] 0
| 10> end
| 11> *xyz 0 1
| 12>  C        1.0819090000    -0.0369710000     0.0539620000
| 13>  C        2.5875560000    -0.2322500000     0.1293540000
| 14>  C        2.9381390000    -1.4218470000     1.0230170000
| 15>  N        3.1268750000    -0.2878060000    -1.2152980000
| 16>  C        4.5665040000    -0.3485870000    -1.4609310000
| 17>  C        4.2711350000    -1.1586370000    -2.7326630000
| 18>  C        2.8953710000    -1.4301040000    -2.1041600000
| 19>  H        0.6517820000     0.0841980000     1.0507060000
| 20>  H        0.6026720000    -0.9054550000    -0.4087760000
| 21>  H        0.8387030000     0.8427320000    -0.5442820000
| 22>  H        3.0258170000     0.6675270000     0.5806440000
| 23>  H        2.4725610000    -2.3433770000     0.6629040000
| 24>  H        2.5769550000    -1.2487880000     2.0396020000
| 25>  H        4.0165360000    -1.5864320000     1.0817900000
| 26>  H        5.1237830000    -0.9454620000    -0.7224630000
| 27>  H        5.0570060000     0.6239580000    -1.5661470000
| 28>  H        4.9061310000    -2.0188700000    -2.9379500000
| 29>  H        4.2044040000    -0.5289940000    -3.6194230000
| 30>  H        2.8726960000    -2.4021020000    -1.5886960000
| 31>  H        2.0119460000    -1.3508230000    -2.7437720000
| 32> *
| 33>
| 34>                          ****END OF INPUT****
 Total Charge           Charge          ....    0
 Multiplicity           Mult            ....    1
 Number of Electrons    NEL             ....   56
 Basis Dimension        Dim             ....  163

MULLIKEN ATOMIC CHARGES
-----------------------
   0 C :    0.029355
   1 C :   -0.019680
   2 C :    0.006809
   3 N :   -0.351071
   4 C :    0.124541
   5 C :   -0.066029
   6 C :    0.130192
   7 H :    0.012633
   8 H :    0.013239
   9 H :    0.021153
  10 H :   -0.002651
  11 H :    0.012008
  12 H :    0.016198
  13 H :    0.018660
  14 H :   -0.005537
  15 H :    0.011357
  16 H :    0.021004
  17 H :    0.026208
  18 H :   -0.011731
  19 H :    0.013342
Sum of atomic charges:   -0.0000000

LOEWDIN ATOMIC CHARGES
----------------------
   0 C :   -0.061190
   1 C :   -0.004052
   2 C :   -0.076626
   3 N :   -0.116529
   4 C :    0.030986
   5 C :   -0.038838
   6 C :    0.031094
   7 H :    0.025564
   8 H :    0.023288
   9 H :    0.027433
  10 H :    0.022268
  11 H :    0.021875
  12 H :    0.028653
  13 H :    0.022514
  14 H :   -0.000892
  15 H :    0.009207
  16 H :    0.019100
  17 H :    0.027999
  18 H :   -0.000774
  19 H :    0.008918

  Mayer bond orders larger than 0.1
B(  0-C ,  1-C ) :   1.0869 B(  0-C ,  7-H ) :   0.9598 B(  0-C ,  8-H ) :   0.9574
B(  0-C ,  9-H ) :   0.9566 B(  1-C ,  2-C ) :   1.0769 B(  1-C ,  3-N ) :   1.0201
B(  1-C , 10-H ) :   0.9128 B(  2-C , 11-H ) :   0.9501 B(  2-C , 12-H ) :   0.9519
B(  2-C , 13-H ) :   0.9534 B(  3-N ,  4-C ) :   1.0213 B(  3-N ,  6-C ) :   1.0145
B(  4-C ,  5-C ) :   1.0988 B(  4-C , 14-H ) :   0.9133 B(  4-C , 15-H ) :   0.9418
B(  5-C ,  6-C ) :   1.1059 B(  5-C , 16-H ) :   0.9475 B(  5-C , 17-H ) :   0.9276
B(  6-C , 18-H ) :   0.9123 B(  6-C , 19-H ) :   0.9418

FINAL SINGLE POINT ENERGY      -290.564480399606

DIPOLE MOMENT
-------------
                                X             Y             Z
Electronic contribution:      1.34168       1.52570      -2.41364
Nuclear contribution   :     -1.24153      -1.71301       2.51519
                        -----------------------------------------
Total Dipole Moment    :      0.10014      -0.18731       0.10155
                        -----------------------------------------
Magnitude (a.u.)       :      0.23543
Magnitude (Debye)      :      0.59841

                             ****ORCA TERMINATED NORMALLY****
TOTAL RUN TIME: 0 days 0 hours 0 minutes 8 seconds 648 msec
