                         Program Version 3.0.3 - RELEASE   -
|  1> ! RI PBE def2-SVP def2-SVP/J NBO PAL2
|  2> % maxcore 2000
|  3> % output
|  4>     # printlevel mini
|  5>     print[ P_Basis ] 0
|  6>     print[ P_SCFInfo ] 1
|  7>     print[ P_SCFIterInfo ] 1
|  8>     print[ P_OrbEn ] 0
|  9>     print[ P_Cartesian ] 0
| 10> end
| 11> *xyz 0 1
| 12>  C        0.8597800000    -0.3218370000    -0.3715410000
| 13>  C        2.3238600000    -0.0745670000    -0.0521600000
| 14>  C        2.8135120000     1.2691440000    -0.5568090000
| 15>  N        4.2053380000     1.4899150000    -0.2162020000
| 16>  C        4.7251390000     2.7351700000    -0.6807950000
| 17>  C        4.5897690000     3.9214380000     0.2225190000
| 18>  C        5.9310900000     3.2852200000     0.0080830000
| 19>  H        0.5303400000    -1.2952120000    -0.0020350000
| 20>  H        0.6778850000    -0.2978510000    -1.4496540000
| 21>  H        0.2220500000     0.4391600000     0.0868660000
| 22>  H        2.9354840000    -0.8696550000    -0.4965110000
| 23>  H        2.4924790000    -0.1247550000     1.0279120000
| 24>  H        2.2254070000     2.0709770000    -0.0961450000
| 25>  H        2.6295000000     1.3391240000    -1.6447500000
| 26>  H        4.7717330000     0.7250790000    -0.5649780000
| 27>  H        4.6430400000     2.9429420000    -1.7510780000
| 28>  H        4.1086710000     3.7471880000     1.1767140000
| 29>  H        4.3990460000     4.8898480000    -0.2226210000
| 30>  H        6.3337370000     2.6954990000     0.8218990000
| 31>  H        6.6658420000     3.8135770000    -0.5863250000
| 32> *
| 33>
| 34>                          ****END OF INPUT****
 Total Charge           Charge          ....    0
 Multiplicity           Mult            ....    1
 Number of Electrons    NEL             ....   56
 Basis Dimension        Dim             ....  163

MULLIKEN ATOMIC CHARGES
-----------------------
   0 C :   -0.022028
   1 C :   -0.054223
   2 C :    0.100242
   3 N :   -0.203294
   4 C :   -0.074599
   5 C :   -0.015743
   6 C :   -0.024317
   7 H :    0.018949
   8 H :    0.020831
   9 H :    0.021112
  10 H :    0.006327
  11 H :    0.021897
  12 H :    0.000850
  13 H :   -0.018139
  14 H :    0.099468
  15 H :    0.003013
  16 H :    0.031521
  17 H :    0.027702
  18 H :    0.030569
  19 H :    0.029861
Sum of atomic charges:   -0.0000000

LOEWDIN ATOMIC CHARGES
----------------------
   0 C :   -0.066127
   1 C :   -0.054066
   2 C :    0.012172
   3 N :   -0.086330
   4 C :   -0.009093
   5 C :   -0.049303
   6 C :   -0.050502
   7 H :    0.027427
   8 H :    0.024465
   9 H :    0.025791
  10 H :    0.020110
  11 H :    0.025945
  12 H :    0.019261
  13 H :   -0.002748
  14 H :    0.055116
  15 H :    0.002346
  16 H :    0.028237
  17 H :    0.024039
  18 H :    0.027966
  19 H :    0.025293

  Mayer bond orders larger than 0.1
B(  0-C ,  1-C ) :   1.1135 B(  0-C ,  7-H ) :   0.9607 B(  0-C ,  8-H ) :   0.9669
B(  0-C ,  9-H ) :   0.9662 B(  1-C ,  2-C ) :   1.0866 B(  1-C , 10-H ) :   0.9357
B(  1-C , 11-H ) :   0.9362 B(  2-C ,  3-N ) :   1.0329 B(  2-C , 12-H ) :   0.9289
B(  2-C , 13-H ) :   0.9211 B(  3-N ,  4-C ) :   1.0968 B(  3-N , 14-H ) :   0.9378
B(  4-C ,  5-C ) :   0.9969 B(  4-C ,  6-C ) :   0.9980 B(  4-C , 15-H ) :   0.9201
B(  5-C ,  6-C ) :   1.0554 B(  5-C , 16-H ) :   0.9395 B(  5-C , 17-H ) :   0.9482
B(  6-C , 18-H ) :   0.9429 B(  6-C , 19-H ) :   0.9440

FINAL SINGLE POINT ENERGY      -290.566435434247

DIPOLE MOMENT
-------------
                                X             Y             Z
Electronic contribution:      3.89253       2.04149       0.24344
Nuclear contribution   :     -3.90332      -2.19521      -0.52741
                        -----------------------------------------
Total Dipole Moment    :     -0.01079      -0.15372      -0.28396
                        -----------------------------------------
Magnitude (a.u.)       :      0.32308
Magnitude (Debye)      :      0.82121

                             ****ORCA TERMINATED NORMALLY****
TOTAL RUN TIME: 0 days 0 hours 0 minutes 7 seconds 574 msec
