                         Program Version 3.0.3 - RELEASE   -
|  1> ! RI PBE def2-SVP def2-SVP/J NBO PAL2
|  2> % maxcore 2000
|  3> % output
|  4>     # printlevel mini
|  5>     print[ P_Basis ] 0
|  6>     print[ P_SCFInfo ] 1
|  7>     print[ P_SCFIterInfo ] 1
|  8>     print[ P_OrbEn ] 0
|  9>     print[ P_Cartesian ] 0
| 10> end
| 11> *xyz 0 1
| 12>  C        2.3138960000    -1.3170390000    -0.1148960000
| 13>  C        2.3646920000    -0.0036530000    -0.2853600000
| 14>  C        3.0439960000     0.6767240000    -1.4263450000
| 15>  N        4.0145060000     1.6449310000    -0.9468860000
| 16>  C        4.6559310000     2.3833690000    -1.9867240000
| 17>  C        3.9917910000     3.6427730000    -2.4491590000
| 18>  C        5.2480390000     3.7080660000    -1.6322340000
| 19>  H        1.7982800000    -1.7620580000     0.7283050000
| 20>  H        2.7819530000    -1.9970640000    -0.8205690000
| 21>  H        1.8982850000     0.6574300000     0.4418970000
| 22>  H        2.3008660000     1.2299430000    -2.0139250000
| 23>  H        3.4798030000    -0.0791540000    -2.1014810000
| 24>  H        4.7020430000     1.1814910000    -0.3645460000
| 25>  H        5.1778590000     1.8112130000    -2.7580420000
| 26>  H        3.0672510000     3.9106760000    -1.9532680000
| 27>  H        4.0437350000     3.8970200000    -3.5002970000
| 28>  H        5.1502430000     4.0204230000    -0.6002870000
| 29>  H        6.1680400000     4.0056090000    -2.1193830000
| 30> *
| 31>
| 32>                          ****END OF INPUT****
 Total Charge           Charge          ....    0
 Multiplicity           Mult            ....    1
 Number of Electrons    NEL             ....   54
 Basis Dimension        Dim             ....  153

MULLIKEN ATOMIC CHARGES
-----------------------
   0 C :   -0.034003
   1 C :   -0.103476
   2 C :    0.183583
   3 N :   -0.219454
   4 C :   -0.071421
   5 C :   -0.025931
   6 C :   -0.014786
   7 H :    0.026044
   8 H :    0.017816
   9 H :    0.009934
  10 H :    0.018438
  11 H :   -0.015837
  12 H :    0.102645
  13 H :    0.002191
  14 H :    0.030899
  15 H :    0.032697
  16 H :    0.032300
  17 H :    0.028361
Sum of atomic charges:   -0.0000000

LOEWDIN ATOMIC CHARGES
----------------------
   0 C :   -0.063464
   1 C :   -0.036180
   2 C :    0.013847
   3 N :   -0.085031
   4 C :   -0.009608
   5 C :   -0.049852
   6 C :   -0.047284
   7 H :    0.025084
   8 H :    0.021293
   9 H :    0.027424
  10 H :    0.031921
  11 H :    0.003479
  12 H :    0.057823
  13 H :    0.002973
  14 H :    0.028106
  15 H :    0.025475
  16 H :    0.028603
  17 H :    0.025392

  Mayer bond orders larger than 0.1
B(  0-C ,  1-C ) :   2.0027 B(  0-C ,  7-H ) :   0.9448 B(  0-C ,  8-H ) :   0.9443
B(  1-C ,  2-C ) :   1.0544 B(  1-C ,  9-H ) :   0.9572 B(  2-C ,  3-N ) :   0.9979
B(  2-C , 10-H ) :   0.9117 B(  2-C , 11-H ) :   0.9164 B(  3-N ,  4-C ) :   1.1014
B(  3-N , 12-H ) :   0.9413 B(  4-C ,  5-C ) :   0.9988 B(  4-C ,  6-C ) :   0.9896
B(  4-C , 13-H ) :   0.9221 B(  5-C ,  6-C ) :   1.0608 B(  5-C , 14-H ) :   0.9395
B(  5-C , 15-H ) :   0.9474 B(  6-C , 16-H ) :   0.9430 B(  6-C , 17-H ) :   0.9446

FINAL SINGLE POINT ENERGY      -289.341802182544

DIPOLE MOMENT
-------------
                                X             Y             Z
Electronic contribution:      0.04458      -0.12480       0.91469
Nuclear contribution   :      0.16661      -0.01804      -1.03571
                        -----------------------------------------
Total Dipole Moment    :      0.21120      -0.14283      -0.12102
                        -----------------------------------------
Magnitude (a.u.)       :      0.28223
Magnitude (Debye)      :      0.71736

                             ****ORCA TERMINATED NORMALLY****
TOTAL RUN TIME: 0 days 0 hours 0 minutes 7 seconds 674 msec
