                         Program Version 3.0.3 - RELEASE   -
|  1> ! RI PBE def2-SVP def2-SVP/J NBO PAL2
|  2> % maxcore 2000
|  3> % output
|  4>     # printlevel mini
|  5>     print[ P_Basis ] 0
|  6>     print[ P_SCFInfo ] 1
|  7>     print[ P_SCFIterInfo ] 1
|  8>     print[ P_OrbEn ] 0
|  9>     print[ P_Cartesian ] 0
| 10> end
| 11> *xyz 0 1
| 12>  C        2.2514770000    -0.8901080000    -1.0068500000
| 13>  C        2.1605490000     0.0427770000    -0.0589630000
| 14>  C        1.1212050000    -0.0586190000     0.9239400000
| 15>  N        0.3018140000    -0.1159880000     1.7315320000
| 16>  C        3.0529410000     1.2203870000     0.0877150000
| 17>  C        3.8729010000     1.7321390000    -1.0507980000
| 18>  C        2.6912590000     2.5203270000    -0.5787150000
| 19>  H        1.5465690000    -1.7097950000    -1.0588120000
| 20>  H        3.0387540000    -0.8496760000    -1.7490360000
| 21>  H        3.4842990000     1.3170370000     1.0790420000
| 22>  H        3.7897640000     1.2373440000    -2.0098890000
| 23>  H        4.8649320000     2.1011750000    -0.8241780000
| 24>  H        1.8104890000     2.5235810000    -1.2086760000
| 25>  H        2.8584660000     3.4347490000    -0.0244000000
| 26> *
| 27>
| 28>                          ****END OF INPUT****
 Total Charge           Charge          ....    0
 Multiplicity           Mult            ....    1
 Number of Electrons    NEL             ....   50
 Basis Dimension        Dim             ....  133

MULLIKEN ATOMIC CHARGES
-----------------------
   0 C :    0.027375
   1 C :   -0.164560
   2 C :   -0.101669
   3 N :    0.061390
   4 C :   -0.080992
   5 C :   -0.026882
   6 C :   -0.002175
   7 H :    0.038303
   8 H :    0.034030
   9 H :    0.049119
  10 H :    0.038314
  11 H :    0.040775
  12 H :    0.042014
  13 H :    0.044957
Sum of atomic charges:   -0.0000000

LOEWDIN ATOMIC CHARGES
----------------------
   0 C :   -0.005123
   1 C :   -0.059799
   2 C :   -0.030666
   3 N :   -0.054916
   4 C :   -0.032118
   5 C :   -0.035284
   6 C :   -0.023082
   7 H :    0.037875
   8 H :    0.031007
   9 H :    0.043068
  10 H :    0.029317
  11 H :    0.033957
  12 H :    0.033234
  13 H :    0.032530

  Mayer bond orders larger than 0.1
B(  0-C ,  1-C ) :   1.9436 B(  0-C ,  3-N ) :   0.1079 B(  0-C ,  7-H ) :   0.9311
B(  0-C ,  8-H ) :   0.9278 B(  1-C ,  2-C ) :   1.0729 B(  1-C ,  4-C ) :   1.0565
B(  2-C ,  3-N ) :   3.0071 B(  4-C ,  5-C ) :   0.9898 B(  4-C ,  6-C ) :   0.9877
B(  4-C ,  9-H ) :   0.9258 B(  5-C ,  6-C ) :   1.0590 B(  5-C , 10-H ) :   0.9421
B(  5-C , 11-H ) :   0.9364 B(  6-C , 12-H ) :   0.9382 B(  6-C , 13-H ) :   0.9491

FINAL SINGLE POINT ENERGY      -286.948353644784

DIPOLE MOMENT
-------------
                                X             Y             Z
Electronic contribution:     -4.32237      -2.95298       4.28689
Nuclear contribution   :      5.40912       3.22613      -5.30025
                        -----------------------------------------
Total Dipole Moment    :      1.08675       0.27316      -1.01337
                        -----------------------------------------
Magnitude (a.u.)       :      1.51081
Magnitude (Debye)      :      3.84017

                             ****ORCA TERMINATED NORMALLY****
TOTAL RUN TIME: 0 days 0 hours 0 minutes 6 seconds 618 msec
