                         Program Version 3.0.3 - RELEASE   -
|  1> ! RI PBE def2-SVP def2-SVP/J NBO PAL2
|  2> % maxcore 2000
|  3> % output
|  4>     # printlevel mini
|  5>     print[ P_Basis ] 0
|  6>     print[ P_SCFInfo ] 1
|  7>     print[ P_SCFIterInfo ] 1
|  8>     print[ P_OrbEn ] 0
|  9>     print[ P_Cartesian ] 0
| 10> end
| 11> *xyz 0 1
| 12>  C        1.0136380000     0.0433400000     0.1173640000
| 13>  C        2.2088370000     0.1209060000     0.0447930000
| 14>  C        3.6560110000     0.2131920000    -0.0701450000
| 15>  N        4.2772560000    -1.0989160000    -0.1425700000
| 16>  C        5.6872550000    -1.0345230000    -0.3557440000
| 17>  C        6.5623930000    -0.9396490000     0.8560830000
| 18>  C        6.5019030000    -2.2126310000     0.0660980000
| 19>  H       -0.0458600000    -0.0251440000     0.1907630000
| 20>  H        4.0552590000     0.7325640000     0.8080640000
| 21>  H        3.8959060000     0.8502060000    -0.9395090000
| 22>  H        3.8273690000    -1.6534030000    -0.8606730000
| 23>  H        6.0359040000    -0.4932150000    -1.2391480000
| 24>  H        6.0598460000    -0.9317500000     1.8151220000
| 25>  H        7.4587680000    -0.3354020000     0.7971890000
| 26>  H        5.9608710000    -3.0409760000     0.5052700000
| 27>  H        7.3555430000    -2.4871970000    -0.5404560000
| 28> *
| 29>
| 30>                          ****END OF INPUT****
 Total Charge           Charge          ....    0
 Multiplicity           Mult            ....    1
 Number of Electrons    NEL             ....   52
 Basis Dimension        Dim             ....  143

MULLIKEN ATOMIC CHARGES
-----------------------
   0 C :   -0.478412
   1 C :    0.317604
   2 C :    0.190521
   3 N :   -0.211487
   4 C :   -0.068875
   5 C :   -0.035202
   6 C :   -0.017286
   7 H :    0.000050
   8 H :    0.032535
   9 H :    0.017610
  10 H :    0.109578
  11 H :    0.002072
  12 H :    0.036311
  13 H :    0.036779
  14 H :    0.037046
  15 H :    0.031155
Sum of atomic charges:   -0.0000000

LOEWDIN ATOMIC CHARGES
----------------------
   0 C :   -0.078987
   1 C :   -0.026656
   2 C :    0.010061
   3 N :   -0.078350
   4 C :   -0.010068
   5 C :   -0.050603
   6 C :   -0.046060
   7 H :    0.034472
   8 H :    0.044450
   9 H :    0.023836
  10 H :    0.061287
  11 H :    0.002875
  12 H :    0.030124
  13 H :    0.026544
  14 H :    0.030204
  15 H :    0.026871

  Mayer bond orders larger than 0.1
B(  0-C ,  1-C ) :   2.3552 B(  0-C ,  7-H ) :   1.0996 B(  1-C ,  2-C ) :   1.0372
B(  1-C ,  7-H ) :  -0.1084 B(  2-C ,  3-N ) :   1.0112 B(  2-C ,  8-H ) :   0.8925
B(  2-C ,  9-H ) :   0.8956 B(  3-N ,  4-C ) :   1.1061 B(  3-N , 10-H ) :   0.9374
B(  4-C ,  5-C ) :   1.0022 B(  4-C ,  6-C ) :   0.9944 B(  4-C , 11-H ) :   0.9194
B(  5-C ,  6-C ) :   1.0577 B(  5-C , 12-H ) :   0.9386 B(  5-C , 13-H ) :   0.9477
B(  6-C , 14-H ) :   0.9442 B(  6-C , 15-H ) :   0.9437

FINAL SINGLE POINT ENERGY      -288.095700663930

DIPOLE MOMENT
-------------
                                X             Y             Z
Electronic contribution:     -5.01684       0.90380      -0.25651
Nuclear contribution   :      5.21962      -0.84288      -0.07034
                        -----------------------------------------
Total Dipole Moment    :      0.20278       0.06092      -0.32685
                        -----------------------------------------
Magnitude (a.u.)       :      0.38944
Magnitude (Debye)      :      0.98988

                             ****ORCA TERMINATED NORMALLY****
TOTAL RUN TIME: 0 days 0 hours 0 minutes 6 seconds 978 msec
