                         Program Version 3.0.3 - RELEASE   -
|  1> ! RI PBE def2-SVP def2-SVP/J NBO PAL2
|  2> % maxcore 2000
|  3> % output
|  4>     # printlevel mini
|  5>     print[ P_Basis ] 0
|  6>     print[ P_SCFInfo ] 1
|  7>     print[ P_SCFIterInfo ] 1
|  8>     print[ P_OrbEn ] 0
|  9>     print[ P_Cartesian ] 0
| 10> end
| 11> *xyz 0 1
| 12>  C        0.4601720000    -0.4855430000     0.6195900000
| 13>  C        1.9158850000    -0.6567980000     0.2259750000
| 14>  C        2.4355010000    -2.0247450000     0.6348130000
| 15>  N        2.0366670000    -0.4636400000    -1.2142870000
| 16>  C        3.3709530000    -0.3149970000    -1.7038570000
| 17>  C        4.0606960000    -1.5048730000    -2.2994230000
| 18>  C        3.5729040000    -0.3967870000    -3.1822790000
| 19>  H        0.3311850000    -0.6146110000     1.6960500000
| 20>  H       -0.1604310000    -1.2242720000     0.1055470000
| 21>  H        0.0913760000     0.5106030000     0.3569850000
| 22>  H        2.5090860000     0.1031100000     0.7684180000
| 23>  H        1.8641930000    -2.8100500000     0.1325590000
| 24>  H        2.3390450000    -2.1603350000     1.7147290000
| 25>  H        3.4872600000    -2.1477800000     0.3722510000
| 26>  H        1.4890620000     0.3444480000    -1.4859790000
| 27>  H        4.0155070000     0.3882340000    -1.1693790000
| 28>  H        3.4996370000    -2.4301960000    -2.3132170000
| 29>  H        5.1275100000    -1.6116190000    -2.1452830000
| 30>  H        2.6917590000    -0.5931810000    -3.7804200000
| 31>  H        4.2999440000     0.2630220000    -3.6384940000
| 32> *
| 33>
| 34>                          ****END OF INPUT****
 Total Charge           Charge          ....    0
 Multiplicity           Mult            ....    1
 Number of Electrons    NEL             ....   56
 Basis Dimension        Dim             ....  163

MULLIKEN ATOMIC CHARGES
-----------------------
   0 C :    0.008656
   1 C :   -0.044527
   2 C :    0.020122
   3 N :   -0.174862
   4 C :   -0.072986
   5 C :   -0.019113
   6 C :   -0.030492
   7 H :    0.020110
   8 H :    0.019427
   9 H :    0.009857
  10 H :   -0.014961
  11 H :    0.011710
  12 H :    0.014474
  13 H :    0.023956
  14 H :    0.098012
  15 H :    0.001985
  16 H :    0.028252
  17 H :    0.033490
  18 H :    0.034130
  19 H :    0.032759
Sum of atomic charges:    0.0000000

LOEWDIN ATOMIC CHARGES
----------------------
   0 C :   -0.064229
   1 C :    0.003776
   2 C :   -0.065544
   3 N :   -0.082484
   4 C :   -0.008714
   5 C :   -0.052360
   6 C :   -0.051451
   7 H :    0.028864
   8 H :    0.026529
   9 H :    0.021180
  10 H :    0.001365
  11 H :    0.024572
  12 H :    0.025822
  13 H :    0.026880
  14 H :    0.054937
  15 H :    0.003359
  16 H :    0.027193
  17 H :    0.025110
  18 H :    0.028763
  19 H :    0.026433

  Mayer bond orders larger than 0.1
B(  0-C ,  1-C ) :   1.0797 B(  0-C ,  7-H ) :   0.9598 B(  0-C ,  8-H ) :   0.9565
B(  0-C ,  9-H ) :   0.9575 B(  1-C ,  2-C ) :   1.0929 B(  1-C ,  3-N ) :   1.0396
B(  1-C , 10-H ) :   0.9011 B(  2-C , 11-H ) :   0.9499 B(  2-C , 12-H ) :   0.9590
B(  2-C , 13-H ) :   0.9502 B(  3-N ,  4-C ) :   1.0888 B(  3-N , 14-H ) :   0.9334
B(  4-C ,  5-C ) :   0.9945 B(  4-C ,  6-C ) :   0.9950 B(  4-C , 15-H ) :   0.9203
B(  5-C ,  6-C ) :   1.0559 B(  5-C , 16-H ) :   0.9367 B(  5-C , 17-H ) :   0.9472
B(  6-C , 18-H ) :   0.9421 B(  6-C , 19-H ) :   0.9443

FINAL SINGLE POINT ENERGY      -290.568318728580

DIPOLE MOMENT
-------------
                                X             Y             Z
Electronic contribution:      1.16049       1.31868      -2.74207
Nuclear contribution   :     -1.15493      -1.00370       2.87463
                        -----------------------------------------
Total Dipole Moment    :      0.00557       0.31498       0.13255
                        -----------------------------------------
Magnitude (a.u.)       :      0.34178
Magnitude (Debye)      :      0.86874

                             ****ORCA TERMINATED NORMALLY****
TOTAL RUN TIME: 0 days 0 hours 0 minutes 8 seconds 727 msec
