                         Program Version 3.0.3 - RELEASE   -
|  1> ! RI PBE def2-SVP def2-SVP/J NBO PAL2
|  2> % maxcore 2000
|  3> % output
|  4>     # printlevel mini
|  5>     print[ P_Basis ] 0
|  6>     print[ P_SCFInfo ] 1
|  7>     print[ P_SCFIterInfo ] 1
|  8>     print[ P_OrbEn ] 0
|  9>     print[ P_Cartesian ] 0
| 10> end
| 11> *xyz 0 1
| 12>  C        1.2120110000     0.1318440000    -0.0943860000
| 13>  C        2.7120350000    -0.1265040000    -0.0142490000
| 14>  C        2.9691940000    -1.5792000000     0.3912020000
| 15>  N        3.2845900000     0.1882190000    -1.3231400000
| 16>  C        3.3125720000     0.7919730000     1.0404070000
| 17>  C        4.7110950000     1.3190600000     0.9486820000
| 18>  C        3.5423800000     2.2435430000     0.7747590000
| 19>  H        0.7368030000    -0.5468750000    -0.8099840000
| 20>  H        1.0211470000     1.1590790000    -0.4105310000
| 21>  H        0.7390760000    -0.0238470000     0.8775590000
| 22>  H        2.5432960000    -2.2665250000    -0.3455130000
| 23>  H        2.5264920000    -1.8095230000     1.3646420000
| 24>  H        4.0436520000    -1.7720670000     0.4596720000
| 25>  H        2.7131810000    -0.2187620000    -2.0535590000
| 26>  H        4.2065820000    -0.2222290000    -1.4139960000
| 27>  H        2.9790010000     0.5456290000     2.0445940000
| 28>  H        5.2898520000     1.0980750000     0.0602330000
| 29>  H        5.2942360000     1.3815380000     1.8592410000
| 30>  H        3.3497820000     2.5857290000    -0.2345290000
| 31>  H        3.3209950000     2.9550220000     1.5606960000
| 32> *
| 33>
| 34>                          ****END OF INPUT****
 Total Charge           Charge          ....    0
 Multiplicity           Mult            ....    1
 Number of Electrons    NEL             ....   56
 Basis Dimension        Dim             ....  163

MULLIKEN ATOMIC CHARGES
-----------------------
   0 C :    0.080774
   1 C :   -0.208012
   2 C :    0.093372
   3 N :   -0.144387
   4 C :   -0.091561
   5 C :   -0.040682
   6 C :    0.002985
   7 H :    0.004202
   8 H :    0.017258
   9 H :    0.009744
  10 H :   -0.000317
  11 H :    0.000383
  12 H :    0.006343
  13 H :    0.082735
  14 H :    0.081987
  15 H :    0.002230
  16 H :    0.021477
  17 H :    0.027084
  18 H :    0.028575
  19 H :    0.025810
Sum of atomic charges:   -0.0000000

LOEWDIN ATOMIC CHARGES
----------------------
   0 C :   -0.049848
   1 C :   -0.021298
   2 C :   -0.063287
   3 N :   -0.080855
   4 C :   -0.042147
   5 C :   -0.051084
   6 C :   -0.044101
   7 H :    0.018771
   8 H :    0.027888
   9 H :    0.027069
  10 H :    0.017989
  11 H :    0.023050
  12 H :    0.021679
  13 H :    0.050995
  14 H :    0.047726
  15 H :    0.023814
  16 H :    0.021611
  17 H :    0.024148
  18 H :    0.024847
  19 H :    0.023031

  Mayer bond orders larger than 0.1
B(  0-C ,  1-C ) :   1.0580 B(  0-C ,  7-H ) :   0.9501 B(  0-C ,  8-H ) :   0.9540
B(  0-C ,  9-H ) :   0.9572 B(  1-C ,  2-C ) :   1.0513 B(  1-C ,  3-N ) :   1.0833
B(  1-C ,  4-C ) :   0.9875 B(  2-C , 10-H ) :   0.9510 B(  2-C , 11-H ) :   0.9438
B(  2-C , 12-H ) :   0.9513 B(  3-N , 13-H ) :   0.9598 B(  3-N , 14-H ) :   0.9564
B(  4-C ,  5-C ) :   1.0084 B(  4-C ,  6-C ) :   0.9943 B(  4-C , 15-H ) :   0.9420
B(  5-C ,  6-C ) :   1.0591 B(  5-C , 16-H ) :   0.9332 B(  5-C , 17-H ) :   0.9424
B(  6-C , 18-H ) :   0.9264 B(  6-C , 19-H ) :   0.9445

FINAL SINGLE POINT ENERGY      -290.574110449681

DIPOLE MOMENT
-------------
                                X             Y             Z
Electronic contribution:      1.30164       1.61696      -0.26013
Nuclear contribution   :     -1.35963      -2.09967       0.17984
                        -----------------------------------------
Total Dipole Moment    :     -0.05798      -0.48271      -0.08030
                        -----------------------------------------
Magnitude (a.u.)       :      0.49276
Magnitude (Debye)      :      1.25251

                             ****ORCA TERMINATED NORMALLY****
TOTAL RUN TIME: 0 days 0 hours 0 minutes 9 seconds 36 msec
