                         Program Version 3.0.3 - RELEASE   -
|  1> ! RI PBE def2-SVP def2-SVP/J NBO PAL2
|  2> % maxcore 2000
|  3> % output
|  4>     # printlevel mini
|  5>     print[ P_Basis ] 0
|  6>     print[ P_SCFInfo ] 1
|  7>     print[ P_SCFIterInfo ] 1
|  8>     print[ P_OrbEn ] 0
|  9>     print[ P_Cartesian ] 0
| 10> end
| 11> *xyz 0 1
| 12>  C        0.9639240000    -0.1784380000     0.0701120000
| 13>  C        2.4798630000    -0.0238450000    -0.0672280000
| 14>  C        2.9629980000     1.0299790000     0.8206020000
| 15>  N        3.3359110000     1.8558500000     1.5287730000
| 16>  C        3.2046570000    -1.3354050000     0.1752100000
| 17>  C        4.6375690000    -1.3938860000     0.5964360000
| 18>  C        3.5564650000    -1.7946950000     1.5551770000
| 19>  H        0.4490850000     0.7598270000    -0.1405250000
| 20>  H        0.7022470000    -0.4989690000     1.0796670000
| 21>  H        0.6096450000    -0.9339170000    -0.6337260000
| 22>  H        2.7090030000     0.3111970000    -1.0866360000
| 23>  H        2.8776870000    -2.1062460000    -0.5154870000
| 24>  H        5.1462150000    -0.4572190000     0.7916840000
| 25>  H        5.2610490000    -2.1666390000     0.1651510000
| 26>  H        3.3548610000    -1.1189400000     2.3782500000
| 27>  H        3.4324290000    -2.8439650000     1.7905310000
| 28> *
| 29>
| 30>                          ****END OF INPUT****
 Total Charge           Charge          ....    0
 Multiplicity           Mult            ....    1
 Number of Electrons    NEL             ....   52
 Basis Dimension        Dim             ....  143

MULLIKEN ATOMIC CHARGES
-----------------------
   0 C :    0.036523
   1 C :    0.075046
   2 C :   -0.290137
   3 N :    0.048954
   4 C :   -0.185725
   5 C :   -0.017348
   6 C :   -0.026025
   7 H :    0.040273
   8 H :    0.034567
   9 H :    0.029045
  10 H :    0.043687
  11 H :    0.030509
  12 H :    0.052613
  13 H :    0.038323
  14 H :    0.052677
  15 H :    0.037019
Sum of atomic charges:   -0.0000000

LOEWDIN ATOMIC CHARGES
----------------------
   0 C :   -0.037554
   1 C :   -0.055360
   2 C :   -0.034813
   3 N :   -0.069726
   4 C :   -0.036446
   5 C :   -0.041996
   6 C :   -0.040929
   7 H :    0.034989
   8 H :    0.034749
   9 H :    0.032172
  10 H :    0.057418
  11 H :    0.031481
  12 H :    0.034004
  13 H :    0.030135
  14 H :    0.032486
  15 H :    0.029393

  Mayer bond orders larger than 0.1
B(  0-C ,  1-C ) :   1.0967 B(  0-C ,  7-H ) :   0.9586 B(  0-C ,  8-H ) :   0.9597
B(  0-C ,  9-H ) :   0.9576 B(  1-C ,  2-C ) :   1.0471 B(  1-C ,  4-C ) :   0.9999
B(  1-C , 10-H ) :   0.8631 B(  2-C ,  3-N ) :   3.0335 B(  4-C ,  5-C ) :   0.9991
B(  4-C ,  6-C ) :   0.9957 B(  4-C , 11-H ) :   0.9381 B(  5-C ,  6-C ) :   1.0379
B(  5-C , 12-H ) :   0.9370 B(  5-C , 13-H ) :   0.9459 B(  6-C , 14-H ) :   0.9431
B(  6-C , 15-H ) :   0.9486

FINAL SINGLE POINT ENERGY      -288.167447477871

DIPOLE MOMENT
-------------
                                X             Y             Z
Electronic contribution:      1.82124       4.94948       1.19154
Nuclear contribution   :     -2.29432      -6.04025      -2.00383
                        -----------------------------------------
Total Dipole Moment    :     -0.47308      -1.09077      -0.81229
                        -----------------------------------------
Magnitude (a.u.)       :      1.43993
Magnitude (Debye)      :      3.66001

                             ****ORCA TERMINATED NORMALLY****
TOTAL RUN TIME: 0 days 0 hours 0 minutes 7 seconds 264 msec
