                         Program Version 3.0.3 - RELEASE   -
|  1> ! RI PBE def2-SVP def2-SVP/J NBO PAL2
|  2> % maxcore 2000
|  3> % output
|  4>     # printlevel mini
|  5>     print[ P_Basis ] 0
|  6>     print[ P_SCFInfo ] 1
|  7>     print[ P_SCFIterInfo ] 1
|  8>     print[ P_OrbEn ] 0
|  9>     print[ P_Cartesian ] 0
| 10> end
| 11> *xyz 0 1
| 12>  C        0.5018230000     0.0646320000     0.8654640000
| 13>  C        1.8257610000    -0.2356100000     0.1780600000
| 14>  C        3.0025550000    -0.1201520000     1.1430090000
| 15>  N        3.1338560000     1.2320060000     1.6667420000
| 16>  C        1.8120770000    -1.5935760000    -0.4771640000
| 17>  C        1.1863280000    -1.7743140000    -1.8245670000
| 18>  C        2.6751250000    -1.8744220000    -1.6685440000
| 19>  H        0.5356720000     1.0347610000     1.3626450000
| 20>  H        0.2853580000    -0.6940500000     1.6245880000
| 21>  H       -0.3220510000     0.0611660000     0.1479790000
| 22>  H        1.9797140000     0.5083530000    -0.6184700000
| 23>  H        3.9074140000    -0.4860380000     0.6340710000
| 24>  H        2.8258380000    -0.7924450000     1.9906270000
| 25>  H        3.4374170000     1.8638090000     0.9351430000
| 26>  H        3.8361850000     1.2679690000     2.3940670000
| 27>  H        1.6803630000    -2.4208460000     0.2166370000
| 28>  H        0.7901450000    -0.8908530000    -2.3123950000
| 29>  H        0.6281800000    -2.6809080000    -2.0224650000
| 30>  H        3.2756070000    -1.0584610000    -2.0550220000
| 31>  H        3.1369440000    -2.8497200000    -1.7598760000
| 32> *
| 33>
| 34>                          ****END OF INPUT****
 Total Charge           Charge          ....    0
 Multiplicity           Mult            ....    1
 Number of Electrons    NEL             ....   56
 Basis Dimension        Dim             ....  163

MULLIKEN ATOMIC CHARGES
-----------------------
   0 C :    0.054986
   1 C :   -0.064548
   2 C :    0.100548
   3 N :   -0.194242
   4 C :   -0.146839
   5 C :   -0.014156
   6 C :   -0.014437
   7 H :    0.019056
   8 H :    0.002302
   9 H :    0.010145
  10 H :   -0.025625
  11 H :   -0.014887
  12 H :   -0.006506
  13 H :    0.087113
  14 H :    0.088635
  15 H :    0.013425
  16 H :    0.025205
  17 H :    0.027954
  18 H :    0.024979
  19 H :    0.026893
Sum of atomic charges:    0.0000000

LOEWDIN ATOMIC CHARGES
----------------------
   0 C :   -0.057457
   1 C :   -0.044852
   2 C :    0.011091
   3 N :   -0.107883
   4 C :   -0.039326
   5 C :   -0.045562
   6 C :   -0.047797
   7 H :    0.024446
   8 H :    0.022322
   9 H :    0.022932
  10 H :    0.019505
  11 H :   -0.001208
  12 H :    0.018017
  13 H :    0.049958
  14 H :    0.052822
  15 H :    0.024580
  16 H :    0.024177
  17 H :    0.025730
  18 H :    0.023318
  19 H :    0.025187

  Mayer bond orders larger than 0.1
B(  0-C ,  1-C ) :   1.0695 B(  0-C ,  7-H ) :   0.9460 B(  0-C ,  8-H ) :   0.9570
B(  0-C ,  9-H ) :   0.9610 B(  1-C ,  2-C ) :   1.0519 B(  1-C ,  4-C ) :   1.0467
B(  1-C , 10-H ) :   0.8879 B(  2-C ,  3-N ) :   1.1070 B(  2-C , 11-H ) :   0.9341
B(  2-C , 12-H ) :   0.9214 B(  3-N , 13-H ) :   0.9682 B(  3-N , 14-H ) :   0.9651
B(  4-C ,  5-C ) :   0.9934 B(  4-C ,  6-C ) :   0.9884 B(  4-C , 15-H ) :   0.9388
B(  5-C ,  6-C ) :   1.0606 B(  5-C , 16-H ) :   0.9408 B(  5-C , 17-H ) :   0.9438
B(  6-C , 18-H ) :   0.9409 B(  6-C , 19-H ) :   0.9442

FINAL SINGLE POINT ENERGY      -290.569363401303

DIPOLE MOMENT
-------------
                                X             Y             Z
Electronic contribution:      0.97738      -0.25783      -0.28607
Nuclear contribution   :     -0.47804       0.24967       0.21041
                        -----------------------------------------
Total Dipole Moment    :      0.49934      -0.00815      -0.07567
                        -----------------------------------------
Magnitude (a.u.)       :      0.50511
Magnitude (Debye)      :      1.28388

                             ****ORCA TERMINATED NORMALLY****
TOTAL RUN TIME: 0 days 0 hours 0 minutes 8 seconds 788 msec
