                         Program Version 3.0.3 - RELEASE   -
|  1> ! RI PBE def2-SVP def2-SVP/J NBO PAL2
|  2> % maxcore 2000
|  3> % output
|  4>     # printlevel mini
|  5>     print[ P_Basis ] 0
|  6>     print[ P_SCFInfo ] 1
|  7>     print[ P_SCFIterInfo ] 1
|  8>     print[ P_OrbEn ] 0
|  9>     print[ P_Cartesian ] 0
| 10> end
| 11> *xyz 0 1
| 12>  C        1.1602380000     0.0307270000     0.2013330000
| 13>  C        2.0613750000     1.2373970000    -0.0099810000
| 14>  C        3.2038610000     1.3361060000     1.0008980000
| 15>  N        3.5047500000     2.7449660000     1.2590330000
| 16>  C        4.4488440000     0.5411960000     0.6330880000
| 17>  C        4.4997820000    -0.5621140000    -0.3800110000
| 18>  C        5.1527550000     0.7535880000    -0.6733590000
| 19>  H        1.7178980000    -0.9082020000     0.1839930000
| 20>  H        0.3870020000    -0.0262870000    -0.5684660000
| 21>  H        0.6580180000     0.0928000000     1.1705870000
| 22>  H        2.4556600000     1.2405300000    -1.0332640000
| 23>  H        1.4683740000     2.1502050000     0.0884970000
| 24>  H        2.8265940000     0.9312950000     1.9481120000
| 25>  H        3.8917150000     3.1617490000     0.4176800000
| 26>  H        4.2338240000     2.8164350000     1.9606640000
| 27>  H        5.1167550000     0.4033990000     1.4797370000
| 28>  H        3.5992740000    -0.7968490000    -0.9326710000
| 29>  H        5.1304250000    -1.4183160000    -0.1735020000
| 30>  H        4.6758670000     1.3882640000    -1.4124530000
| 31>  H        6.2341610000     0.8104420000    -0.6732040000
| 32> *
| 33>
| 34>                          ****END OF INPUT****
 Total Charge           Charge          ....    0
 Multiplicity           Mult            ....    1
 Number of Electrons    NEL             ....   56
 Basis Dimension        Dim             ....  163

MULLIKEN ATOMIC CHARGES
-----------------------
   0 C :   -0.021549
   1 C :   -0.019227
   2 C :    0.046726
   3 N :   -0.162890
   4 C :   -0.129820
   5 C :   -0.021513
   6 C :   -0.063625
   7 H :    0.016433
   8 H :    0.022687
   9 H :    0.021256
  10 H :    0.001906
  11 H :    0.012472
  12 H :   -0.007607
  13 H :    0.078218
  14 H :    0.080340
  15 H :    0.014166
  16 H :    0.035917
  17 H :    0.028541
  18 H :    0.031254
  19 H :    0.036316
Sum of atomic charges:    0.0000000

LOEWDIN ATOMIC CHARGES
----------------------
   0 C :   -0.066213
   1 C :   -0.049467
   2 C :    0.006500
   3 N :   -0.094106
   4 C :   -0.057911
   5 C :   -0.046145
   6 C :   -0.055486
   7 H :    0.021568
   8 H :    0.027915
   9 H :    0.026614
  10 H :    0.019017
  11 H :    0.028337
  12 H :    0.021949
  13 H :    0.046749
  14 H :    0.048494
  15 H :    0.023333
  16 H :    0.025987
  17 H :    0.026588
  18 H :    0.019612
  19 H :    0.026664

  Mayer bond orders larger than 0.1
B(  0-C ,  1-C ) :   1.1182 B(  0-C ,  7-H ) :   0.9619 B(  0-C ,  8-H ) :   0.9602
B(  0-C ,  9-H ) :   0.9604 B(  1-C ,  2-C ) :   1.0752 B(  1-C , 10-H ) :   0.9238
B(  1-C , 11-H ) :   0.9203 B(  2-C ,  3-N ) :   1.1001 B(  2-C ,  4-C ) :   1.0160
B(  2-C , 12-H ) :   0.9070 B(  3-N , 13-H ) :   0.9670 B(  3-N , 14-H ) :   0.9675
B(  4-C ,  5-C ) :   0.9966 B(  4-C ,  6-C ) :   0.9814 B(  4-C , 15-H ) :   0.9347
B(  5-C ,  6-C ) :   1.0438 B(  5-C , 16-H ) :   0.9304 B(  5-C , 17-H ) :   0.9406
B(  6-C , 18-H ) :   0.9461 B(  6-C , 19-H ) :   0.9436

FINAL SINGLE POINT ENERGY      -290.566486163400

DIPOLE MOMENT
-------------
                                X             Y             Z
Electronic contribution:      2.24193       1.46648       1.22522
Nuclear contribution   :     -1.83649      -1.63046      -1.30415
                        -----------------------------------------
Total Dipole Moment    :      0.40543      -0.16398      -0.07893
                        -----------------------------------------
Magnitude (a.u.)       :      0.44441
Magnitude (Debye)      :      1.12959

                             ****ORCA TERMINATED NORMALLY****
TOTAL RUN TIME: 0 days 0 hours 0 minutes 7 seconds 939 msec
