                         Program Version 3.0.3 - RELEASE   -
|  1> ! RI PBE def2-SVP def2-SVP/J NBO PAL2
|  2> % maxcore 2000
|  3> % output
|  4>     # printlevel mini
|  5>     print[ P_Basis ] 0
|  6>     print[ P_SCFInfo ] 1
|  7>     print[ P_SCFIterInfo ] 1
|  8>     print[ P_OrbEn ] 0
|  9>     print[ P_Cartesian ] 0
| 10> end
| 11> *xyz 0 1
| 12>  C        2.5096150000    -0.9319320000    -0.6623460000
| 13>  C        2.1308960000     0.2380890000    -0.1472100000
| 14>  C        0.7493470000     0.4544590000     0.1683630000
| 15>  N       -0.3544110000     0.6511670000     0.4319630000
| 16>  C        3.0408180000     1.3781600000     0.1497500000
| 17>  C        4.2727580000     1.5852220000    -0.6294430000
| 18>  N        3.1409280000     2.4921470000    -0.7941680000
| 19>  H        1.7910700000    -1.7159470000    -0.8661610000
| 20>  H        3.5514030000    -1.1280260000    -0.8824470000
| 21>  H        3.0161250000     1.7054030000     1.1859020000
| 22>  H        4.4977280000     0.8879290000    -1.4294200000
| 23>  H        5.1409650000     2.0176760000    -0.1449870000
| 24>  H        2.6380680000     2.2679210000    -1.6476950000
| 25> *
| 26>
| 27>                          ****END OF INPUT****
 Total Charge           Charge          ....    0
 Multiplicity           Mult            ....    1
 Number of Electrons    NEL             ....   50
 Basis Dimension        Dim             ....  128

MULLIKEN ATOMIC CHARGES
-----------------------
   0 C :    0.045850
   1 C :   -0.209135
   2 C :   -0.080391
   3 N :    0.066989
   4 C :   -0.020646
   5 C :    0.036018
   6 N :   -0.164868
   7 H :    0.042841
   8 H :    0.035332
   9 H :    0.052881
  10 H :    0.035050
  11 H :    0.044663
  12 H :    0.115415
Sum of atomic charges:   -0.0000000

LOEWDIN ATOMIC CHARGES
----------------------
   0 C :    0.008614
   1 C :   -0.078457
   2 C :   -0.032555
   3 N :   -0.045666
   4 C :    0.007409
   5 C :    0.010242
   6 N :   -0.082839
   7 H :    0.039459
   8 H :    0.032136
   9 H :    0.036833
  10 H :    0.018140
  11 H :    0.028047
  12 H :    0.058638

  Mayer bond orders larger than 0.1
B(  0-C ,  1-C ) :   1.9437 B(  0-C ,  3-N ) :   0.1097 B(  0-C ,  7-H ) :   0.9322
B(  0-C ,  8-H ) :   0.9290 B(  1-C ,  2-C ) :   1.0676 B(  1-C ,  4-C ) :   1.0307
B(  2-C ,  3-N ) :   3.0059 B(  4-C ,  5-C ) :   1.0568 B(  4-C ,  6-N ) :   1.0068
B(  4-C ,  9-H ) :   0.9159 B(  5-C ,  6-N ) :   1.0009 B(  5-C , 10-H ) :   0.9434
B(  5-C , 11-H ) :   0.9304 B(  6-N , 12-H ) :   0.9387

FINAL SINGLE POINT ENERGY      -302.955399855920

DIPOLE MOMENT
-------------
                                X             Y             Z
Electronic contribution:     -5.28182       0.29326       1.65191
Nuclear contribution   :      6.64591      -1.04004      -2.21338
                        -----------------------------------------
Total Dipole Moment    :      1.36408      -0.74678      -0.56147
                        -----------------------------------------
Magnitude (a.u.)       :      1.65337
Magnitude (Debye)      :      4.20254

                             ****ORCA TERMINATED NORMALLY****
TOTAL RUN TIME: 0 days 0 hours 0 minutes 6 seconds 74 msec
