                         Program Version 3.0.3 - RELEASE   -
|  1> ! RI PBE def2-SVP def2-SVP/J NBO PAL2
|  2> % maxcore 2000
|  3> % output
|  4>     # printlevel mini
|  5>     print[ P_Basis ] 0
|  6>     print[ P_SCFInfo ] 1
|  7>     print[ P_SCFIterInfo ] 1
|  8>     print[ P_OrbEn ] 0
|  9>     print[ P_Cartesian ] 0
| 10> end
| 11> *xyz 0 1
| 12>  C        1.0845300000    -0.1563160000     0.2234450000
| 13>  C        2.5761870000     0.0661870000    -0.0022150000
| 14>  C        2.7920080000     1.1354700000    -1.0712200000
| 15>  N        3.1722830000     0.4302880000     1.2824010000
| 16>  C        3.1879050000    -1.2442170000    -0.4817410000
| 17>  C        4.5758670000    -1.6228640000    -0.1690920000
| 18>  N        3.4526720000    -2.3132190000     0.4653310000
| 19>  H        0.5966860000     0.7720830000     0.5362370000
| 20>  H        0.9208520000    -0.9122290000     0.9943800000
| 21>  H        0.6010100000    -0.4959190000    -0.6944420000
| 22>  H        2.3203530000     2.0769080000    -0.7757970000
| 23>  H        2.3667470000     0.8311060000    -2.0316590000
| 24>  H        3.8596540000     1.3178920000    -1.2230820000
| 25>  H        2.5501570000     1.0362530000     1.8012880000
| 26>  H        4.0385700000     0.9374980000     1.1498740000
| 27>  H        2.7724030000    -1.5881290000    -1.4267630000
| 28>  H        5.1652500000    -0.9522970000     0.4482100000
| 29>  H        5.1481620000    -2.2155680000    -0.8746580000
| 30>  H        3.3422260000    -1.9135100000     1.3964930000
| 31> *
| 32>
| 33>                          ****END OF INPUT****
 Total Charge           Charge          ....    0
 Multiplicity           Mult            ....    1
 Number of Electrons    NEL             ....   56
 Basis Dimension        Dim             ....  158

MULLIKEN ATOMIC CHARGES
-----------------------
   0 C :    0.072327
   1 C :   -0.247453
   2 C :    0.099354
   3 N :   -0.141697
   4 C :   -0.032213
   5 C :    0.040689
   6 N :   -0.185747
   7 H :    0.009999
   8 H :    0.026443
   9 H :    0.016968
  10 H :    0.004528
  11 H :    0.007335
  12 H :    0.007089
  13 H :    0.089111
  14 H :    0.089609
  15 H :    0.005165
  16 H :    0.009388
  17 H :    0.027773
  18 H :    0.101331
Sum of atomic charges:   -0.0000000

LOEWDIN ATOMIC CHARGES
----------------------
   0 C :   -0.050792
   1 C :   -0.034943
   2 C :   -0.060108
   3 N :   -0.075156
   4 C :   -0.011324
   5 C :   -0.006208
   6 N :   -0.103210
   7 H :    0.020416
   8 H :    0.030114
   9 H :    0.030833
  10 H :    0.020418
  11 H :    0.026656
  12 H :    0.022076
  13 H :    0.054643
  14 H :    0.051470
  15 H :    0.018120
  16 H :    0.008351
  17 H :    0.018194
  18 H :    0.040449

  Mayer bond orders larger than 0.1
B(  0-C ,  1-C ) :   1.0607 B(  0-C ,  7-H ) :   0.9494 B(  0-C ,  8-H ) :   0.9548
B(  0-C ,  9-H ) :   0.9551 B(  1-C ,  2-C ) :   1.0524 B(  1-C ,  3-N ) :   1.0962
B(  1-C ,  4-C ) :   0.9515 B(  2-C , 10-H ) :   0.9497 B(  2-C , 11-H ) :   0.9450
B(  2-C , 12-H ) :   0.9503 B(  3-N , 13-H ) :   0.9585 B(  3-N , 14-H ) :   0.9571
B(  4-C ,  5-C ) :   1.0626 B(  4-C ,  6-N ) :   0.9998 B(  4-C , 15-H ) :   0.9363
B(  5-C ,  6-N ) :   1.0208 B(  5-C , 16-H ) :   0.9263 B(  5-C , 17-H ) :   0.9387
B(  6-N , 18-H ) :   0.9272

FINAL SINGLE POINT ENERGY      -306.587749689847

DIPOLE MOMENT
-------------
                                X             Y             Z
Electronic contribution:      1.77965      -3.34017       1.28683
Nuclear contribution   :     -1.83441       4.50648      -1.29377
                        -----------------------------------------
Total Dipole Moment    :     -0.05476       1.16631      -0.00694
                        -----------------------------------------
Magnitude (a.u.)       :      1.16762
Magnitude (Debye)      :      2.96784

                             ****ORCA TERMINATED NORMALLY****
TOTAL RUN TIME: 0 days 0 hours 0 minutes 8 seconds 581 msec
