                         Program Version 3.0.3 - RELEASE   -
|  1> ! RI PBE def2-SVP def2-SVP/J NBO PAL2
|  2> % maxcore 2000
|  3> % output
|  4>     # printlevel mini
|  5>     print[ P_Basis ] 0
|  6>     print[ P_SCFInfo ] 1
|  7>     print[ P_SCFIterInfo ] 1
|  8>     print[ P_OrbEn ] 0
|  9>     print[ P_Cartesian ] 0
| 10> end
| 11> *xyz 0 1
| 12>  C        1.0542740000    -0.1641700000    -0.0045160000
| 13>  C        2.5820590000    -0.0833050000     0.0516230000
| 14>  C        3.0661830000    -0.5033880000     1.3624350000
| 15>  N        3.4401240000    -0.8655750000     2.3880190000
| 16>  C        3.2257810000    -0.8978900000    -1.0568470000
| 17>  C        4.5798740000    -1.4635740000    -0.9419870000
| 18>  N        3.4046530000    -2.3347200000    -0.9420970000
| 19>  H        0.5984590000     0.4477510000     0.7745190000
| 20>  H        0.7173580000    -1.1940980000     0.1223220000
| 21>  H        0.7067770000     0.1934390000    -0.9752740000
| 22>  H        2.8872170000     0.9623360000    -0.0775180000
| 23>  H        2.8824910000    -0.5809080000    -2.0387820000
| 24>  H        5.1100250000    -1.3203290000    -0.0055930000
| 25>  H        5.2079000000    -1.5362940000    -1.8227890000
| 26>  H        3.2107160000    -2.6470750000     0.0057840000
| 27> *
| 28>
| 29>                          ****END OF INPUT****
 Total Charge           Charge          ....    0
 Multiplicity           Mult            ....    1
 Number of Electrons    NEL             ....   52
 Basis Dimension        Dim             ....  138

MULLIKEN ATOMIC CHARGES
-----------------------
   0 C :    0.033292
   1 C :    0.076517
   2 C :   -0.311873
   3 N :    0.057530
   4 C :   -0.121861
   5 C :    0.050336
   6 N :   -0.187821
   7 H :    0.045322
   8 H :    0.037930
   9 H :    0.032968
  10 H :    0.050945
  11 H :    0.029393
  12 H :    0.048593
  13 H :    0.041536
  14 H :    0.117193
Sum of atomic charges:   -0.0000000

LOEWDIN ATOMIC CHARGES
----------------------
   0 C :   -0.036747
   1 C :   -0.067047
   2 C :   -0.042276
   3 N :   -0.063542
   4 C :    0.001597
   5 C :    0.003734
   6 N :   -0.092804
   7 H :    0.036722
   8 H :    0.035941
   9 H :    0.034567
  10 H :    0.061210
  11 H :    0.026204
  12 H :    0.022948
  13 H :    0.024643
  14 H :    0.054849

  Mayer bond orders larger than 0.1
B(  0-C ,  1-C ) :   1.0935 B(  0-C ,  7-H ) :   0.9606 B(  0-C ,  8-H ) :   0.9606
B(  0-C ,  9-H ) :   0.9580 B(  1-C ,  2-C ) :   1.0248 B(  1-C ,  4-C ) :   0.9620
B(  1-C , 10-H ) :   0.8576 B(  2-C ,  3-N ) :   3.0295 B(  4-C ,  5-C ) :   1.0551
B(  4-C ,  6-N ) :   0.9882 B(  4-C , 11-H ) :   0.9344 B(  5-C ,  6-N ) :   1.0133
B(  5-C , 12-H ) :   0.9283 B(  5-C , 13-H ) :   0.9418 B(  6-N , 14-H ) :   0.9441

FINAL SINGLE POINT ENERGY      -304.177154475465

DIPOLE MOMENT
-------------
                                X             Y             Z
Electronic contribution:      2.35279      -0.77797       3.69395
Nuclear contribution   :     -2.76093       1.53305      -4.47451
                        -----------------------------------------
Total Dipole Moment    :     -0.40814       0.75508      -0.78056
                        -----------------------------------------
Magnitude (a.u.)       :      1.16017
Magnitude (Debye)      :      2.94893

                             ****ORCA TERMINATED NORMALLY****
TOTAL RUN TIME: 0 days 0 hours 0 minutes 6 seconds 374 msec
