                         Program Version 3.0.3 - RELEASE   -
|  1> ! RI PBE def2-SVP def2-SVP/J NBO PAL2
|  2> % maxcore 2000
|  3> % output
|  4>     # printlevel mini
|  5>     print[ P_Basis ] 0
|  6>     print[ P_SCFInfo ] 1
|  7>     print[ P_SCFIterInfo ] 1
|  8>     print[ P_OrbEn ] 0
|  9>     print[ P_Cartesian ] 0
| 10> end
| 11> *xyz 0 1
| 12>  C        0.3075570000     0.6043310000    -0.3127960000
| 13>  C        1.6802920000     0.0911340000     0.0976720000
| 14>  C        2.7857900000     1.0787840000    -0.2712160000
| 15>  N        2.8630430000     1.2756830000    -1.7109960000
| 16>  C        1.7264580000    -0.2202190000     1.5706450000
| 17>  C        1.3281980000    -1.5464910000     2.0734970000
| 18>  N        2.7299920000    -1.1292140000     2.1155310000
| 19>  H        0.3030680000     0.8806510000    -1.3676250000
| 20>  H        0.0431030000     1.4938950000     0.2675910000
| 21>  H       -0.4640730000    -0.1490250000    -0.1390780000
| 22>  H        1.8785690000    -0.8489630000    -0.4407680000
| 23>  H        3.7304910000     0.7373310000     0.1789820000
| 24>  H        2.5541570000     2.0459560000     0.1888870000
| 25>  H        3.2296480000     0.4461590000    -2.1624920000
| 26>  H        3.4937200000     2.0340940000    -1.9355480000
| 27>  H        1.5388270000     0.6372950000     2.2154900000
| 28>  H        1.0309490000    -2.2891100000     1.3383840000
| 29>  H        0.8504330000    -1.6486500000     3.0417430000
| 30>  H        3.2417880000    -1.5697510000     1.3569080000
| 31> *
| 32>
| 33>                          ****END OF INPUT****
 Total Charge           Charge          ....    0
 Multiplicity           Mult            ....    1
 Number of Electrons    NEL             ....   56
 Basis Dimension        Dim             ....  158

MULLIKEN ATOMIC CHARGES
-----------------------
   0 C :    0.054484
   1 C :   -0.072834
   2 C :    0.093566
   3 N :   -0.189039
   4 C :   -0.092296
   5 C :    0.047013
   6 N :   -0.188970
   7 H :    0.022060
   8 H :    0.006510
   9 H :    0.012308
  10 H :   -0.031570
  11 H :   -0.007998
  12 H :   -0.001176
  13 H :    0.086006
  14 H :    0.090623
  15 H :    0.015221
  16 H :    0.022741
  17 H :    0.030909
  18 H :    0.102441
Sum of atomic charges:   -0.0000000

LOEWDIN ATOMIC CHARGES
----------------------
   0 C :   -0.055611
   1 C :   -0.058088
   2 C :    0.010786
   3 N :   -0.105546
   4 C :   -0.003351
   5 C :   -0.000137
   6 N :   -0.104382
   7 H :    0.026121
   8 H :    0.024384
   9 H :    0.023376
  10 H :    0.017125
  11 H :   -0.000043
  12 H :    0.020457
  13 H :    0.049919
  14 H :    0.054168
  15 H :    0.020137
  16 H :    0.013033
  17 H :    0.020044
  18 H :    0.047607

  Mayer bond orders larger than 0.1
B(  0-C ,  1-C ) :   1.0685 B(  0-C ,  7-H ) :   0.9422 B(  0-C ,  8-H ) :   0.9565
B(  0-C ,  9-H ) :   0.9609 B(  1-C ,  2-C ) :   1.0410 B(  1-C ,  4-C ) :   1.0313
B(  1-C , 10-H ) :   0.8796 B(  2-C ,  3-N ) :   1.1090 B(  2-C , 11-H ) :   0.9366
B(  2-C , 12-H ) :   0.9237 B(  3-N , 13-H ) :   0.9674 B(  3-N , 14-H ) :   0.9654
B(  4-C ,  5-C ) :   1.0538 B(  4-C ,  6-N ) :   0.9812 B(  4-C , 15-H ) :   0.9263
B(  5-C ,  6-N ) :   1.0177 B(  5-C , 16-H ) :   0.9365 B(  5-C , 17-H ) :   0.9381
B(  6-N , 18-H ) :   0.9457

FINAL SINGLE POINT ENERGY      -306.579407485082

DIPOLE MOMENT
-------------
                                X             Y             Z
Electronic contribution:      1.91973      -1.30487       2.22653
Nuclear contribution   :     -1.68610       1.21955      -2.80546
                        -----------------------------------------
Total Dipole Moment    :      0.23363      -0.08532      -0.57893
                        -----------------------------------------
Magnitude (a.u.)       :      0.63010
Magnitude (Debye)      :      1.60158

                             ****ORCA TERMINATED NORMALLY****
TOTAL RUN TIME: 0 days 0 hours 0 minutes 8 seconds 386 msec
