                         Program Version 3.0.3 - RELEASE   -
|  1> ! RI PBE def2-SVP def2-SVP/J NBO PAL2
|  2> % maxcore 2000
|  3> % output
|  4>     # printlevel mini
|  5>     print[ P_Basis ] 0
|  6>     print[ P_SCFInfo ] 1
|  7>     print[ P_SCFIterInfo ] 1
|  8>     print[ P_OrbEn ] 0
|  9>     print[ P_Cartesian ] 0
| 10> end
| 11> *xyz 0 1
| 12>  C        1.5171790000    -0.2969270000    -0.8433750000
| 13>  C        1.6132760000     0.0703940000     0.6270300000
| 14>  C        2.7996580000     0.9594440000     0.9857480000
| 15>  N        2.6922800000     1.3271100000     2.3911440000
| 16>  C        4.1211120000     0.2699880000     0.7828360000
| 17>  C        4.8592610000     0.3901150000    -0.4855840000
| 18>  N        5.3483030000     1.0643080000     0.7151030000
| 19>  H        1.4697080000     0.5948670000    -1.4752320000
| 20>  H        0.6179670000    -0.8854000000    -1.0378700000
| 21>  H        2.3756210000    -0.8879760000    -1.1684160000
| 22>  H        0.6983150000     0.5920860000     0.9316290000
| 23>  H        1.6658210000    -0.8304180000     1.2469270000
| 24>  H        2.7862400000     1.8357640000     0.3088650000
| 25>  H        3.4887540000     1.8777130000     2.6867080000
| 26>  H        1.8574600000     1.8741240000     2.5603160000
| 27>  H        4.2356210000    -0.6420100000     1.3644860000
| 28>  H        4.4180660000     0.9944060000    -1.2725650000
| 29>  H        5.4754590000    -0.4312710000    -0.8347970000
| 30>  H        5.1142980000     2.0518920000     0.6633410000
| 31> *
| 32>
| 33>                          ****END OF INPUT****
 Total Charge           Charge          ....    0
 Multiplicity           Mult            ....    1
 Number of Electrons    NEL             ....   56
 Basis Dimension        Dim             ....  158

MULLIKEN ATOMIC CHARGES
-----------------------
   0 C :   -0.021666
   1 C :    0.018200
   2 C :    0.034650
   3 N :   -0.165757
   4 C :   -0.114109
   5 C :    0.053733
   6 N :   -0.183003
   7 H :    0.013414
   8 H :    0.020482
   9 H :    0.029615
  10 H :   -0.002685
  11 H :    0.010906
  12 H :   -0.044422
  13 H :    0.082963
  14 H :    0.084585
  15 H :    0.021609
  16 H :    0.024670
  17 H :    0.033698
  18 H :    0.103115
Sum of atomic charges:   -0.0000000

LOEWDIN ATOMIC CHARGES
----------------------
   0 C :   -0.068701
   1 C :   -0.041779
   2 C :   -0.005887
   3 N :   -0.097325
   4 C :   -0.008794
   5 C :   -0.000836
   6 N :   -0.103874
   7 H :    0.022861
   8 H :    0.028665
   9 H :    0.026278
  10 H :    0.020707
  11 H :    0.027129
  12 H :   -0.004805
  13 H :    0.050513
  14 H :    0.049965
  15 H :    0.023697
  16 H :    0.012844
  17 H :    0.021673
  18 H :    0.047670

  Mayer bond orders larger than 0.1
B(  0-C ,  1-C ) :   1.1148 B(  0-C ,  7-H ) :   0.9599 B(  0-C ,  8-H ) :   0.9569
B(  0-C ,  9-H ) :   0.9632 B(  1-C ,  2-C ) :   1.0502 B(  1-C , 10-H ) :   0.9291
B(  1-C , 11-H ) :   0.9229 B(  2-C ,  3-N ) :   1.0440 B(  2-C ,  4-C ) :   1.0329
B(  2-C , 12-H ) :   0.8814 B(  3-N , 13-H ) :   0.9581 B(  3-N , 14-H ) :   0.9585
B(  4-C ,  5-C ) :   1.0342 B(  4-C ,  6-N ) :   0.9801 B(  4-C , 15-H ) :   0.9279
B(  5-C ,  6-N ) :   1.0160 B(  5-C , 16-H ) :   0.9332 B(  5-C , 17-H ) :   0.9379
B(  6-N , 18-H ) :   0.9455

FINAL SINGLE POINT ENERGY      -306.581025567623

DIPOLE MOMENT
-------------
                                X             Y             Z
Electronic contribution:      3.99397       1.13347       2.66861
Nuclear contribution   :     -4.56533      -0.57057      -3.04217
                        -----------------------------------------
Total Dipole Moment    :     -0.57136       0.56290      -0.37356
                        -----------------------------------------
Magnitude (a.u.)       :      0.88479
Magnitude (Debye)      :      2.24895

                             ****ORCA TERMINATED NORMALLY****
TOTAL RUN TIME: 0 days 0 hours 0 minutes 8 seconds 408 msec
