                         Program Version 3.0.3 - RELEASE   -
|  1> ! RI PBE def2-SVP def2-SVP/J NBO PAL2
|  2> % maxcore 2000
|  3> % output
|  4>     # printlevel mini
|  5>     print[ P_Basis ] 0
|  6>     print[ P_SCFInfo ] 1
|  7>     print[ P_SCFIterInfo ] 1
|  8>     print[ P_OrbEn ] 0
|  9>     print[ P_Cartesian ] 0
| 10> end
| 11> *xyz 0 1
| 12>  C        1.8139390000     0.0203180000    -0.6260560000
| 13>  C        3.0377790000    -0.7682680000    -1.0612490000
| 14>  C        3.4290110000    -0.5359110000    -2.5110520000
| 15>  N        3.8292920000     0.8351470000    -2.7501520000
| 16>  C        4.2216630000     1.0937410000    -4.1199620000
| 17>  C        4.6463310000     2.5381470000    -4.3256340000
| 18>  C        3.5267710000     3.5407720000    -4.1012030000
| 19>  H        1.5823210000    -0.1547210000     0.4272170000
| 20>  H        0.9367130000    -0.2689200000    -1.2119810000
| 21>  H        1.9675640000     1.0907820000    -0.7709510000
| 22>  H        2.8622160000    -1.8396280000    -0.9194510000
| 23>  H        3.8909500000    -0.5170250000    -0.4182350000
| 24>  H        2.5686520000    -0.7500740000    -3.1572760000
| 25>  H        4.2167360000    -1.2565270000    -2.7977150000
| 26>  H        4.5998940000     1.0697810000    -2.1328270000
| 27>  H        3.3588760000     0.8749220000    -4.7613730000
| 28>  H        5.0332050000     0.4222360000    -4.4552980000
| 29>  H        5.0410380000     2.6396030000    -5.3418300000
| 30>  H        5.4858900000     2.7607660000    -3.6547590000
| 31>  H        2.7094860000     3.3755950000    -4.8091980000
| 32>  H        3.8792670000     4.5663150000    -4.2341670000
| 33>  H        3.1143240000     3.4467290000    -3.0954590000
| 34> *
| 35>
| 36>                          ****END OF INPUT****
 Total Charge           Charge          ....    0
 Multiplicity           Mult            ....    1
 Number of Electrons    NEL             ....   58
 Basis Dimension        Dim             ....  173

MULLIKEN ATOMIC CHARGES
-----------------------
   0 C :   -0.019998
   1 C :   -0.052071
   2 C :    0.096696
   3 N :   -0.265527
   4 C :    0.087939
   5 C :   -0.043801
   6 C :   -0.015292
   7 H :    0.017628
   8 H :    0.011184
   9 H :    0.029830
  10 H :    0.011742
  11 H :    0.009278
  12 H :   -0.002058
  13 H :   -0.015807
  14 H :    0.094142
  15 H :    0.002157
  16 H :   -0.015736
  17 H :    0.007530
  18 H :    0.007399
  19 H :    0.014272
  20 H :    0.015351
  21 H :    0.025140
Sum of atomic charges:   -0.0000000

LOEWDIN ATOMIC CHARGES
----------------------
   0 C :   -0.068949
   1 C :   -0.054754
   2 C :    0.010972
   3 N :   -0.097953
   4 C :    0.009993
   5 C :   -0.053618
   6 C :   -0.067319
   7 H :    0.024287
   8 H :    0.024218
   9 H :    0.024848
  10 H :    0.026694
  11 H :    0.020882
  12 H :    0.017994
  13 H :   -0.002837
  14 H :    0.051285
  15 H :    0.018551
  16 H :   -0.002861
  17 H :    0.026021
  18 H :    0.020389
  19 H :    0.024467
  20 H :    0.023464
  21 H :    0.024225

  Mayer bond orders larger than 0.1
B(  0-C ,  1-C ) :   1.1130 B(  0-C ,  7-H ) :   0.9627 B(  0-C ,  8-H ) :   0.9642
B(  0-C ,  9-H ) :   0.9643 B(  1-C ,  2-C ) :   1.0934 B(  1-C , 10-H ) :   0.9315
B(  1-C , 11-H ) :   0.9377 B(  2-C ,  3-N ) :   1.0343 B(  2-C , 12-H ) :   0.9289
B(  2-C , 13-H ) :   0.9175 B(  3-N ,  4-C ) :   1.0369 B(  3-N , 14-H ) :   0.9363
B(  4-C ,  5-C ) :   1.0903 B(  4-C , 15-H ) :   0.9308 B(  4-C , 16-H ) :   0.9161
B(  5-C ,  6-C ) :   1.1117 B(  5-C , 17-H ) :   0.9302 B(  5-C , 18-H ) :   0.9388
B(  6-C , 19-H ) :   0.9664 B(  6-C , 20-H ) :   0.9641 B(  6-C , 21-H ) :   0.9641

FINAL SINGLE POINT ENERGY      -291.791869009622

DIPOLE MOMENT
-------------
                                X             Y             Z
Electronic contribution:      1.39041      -1.01816      -0.34385
Nuclear contribution   :     -1.09734       0.87307       0.34348
                        -----------------------------------------
Total Dipole Moment    :      0.29307      -0.14508      -0.00037
                        -----------------------------------------
Magnitude (a.u.)       :      0.32702
Magnitude (Debye)      :      0.83121

                             ****ORCA TERMINATED NORMALLY****
TOTAL RUN TIME: 0 days 0 hours 0 minutes 8 seconds 365 msec
