                         Program Version 3.0.3 - RELEASE   -
|  1> ! RI PBE def2-SVP def2-SVP/J NBO PAL2
|  2> % maxcore 2000
|  3> % output
|  4>     # printlevel mini
|  5>     print[ P_Basis ] 0
|  6>     print[ P_SCFInfo ] 1
|  7>     print[ P_SCFIterInfo ] 1
|  8>     print[ P_OrbEn ] 0
|  9>     print[ P_Cartesian ] 0
| 10> end
| 11> *xyz 0 1
| 12>  C        2.1595540000     0.9934160000    -1.4520900000
| 13>  C        2.3367680000     0.7507910000    -0.1613720000
| 14>  C        2.8867290000     1.7342430000     0.8169460000
| 15>  N        4.0345230000     1.1849360000     1.5110410000
| 16>  C        4.5912560000     2.0775120000     2.4974740000
| 17>  C        5.7625850000     1.5057760000     3.2268260000
| 18>  C        6.2037560000     0.2598440000     3.1291600000
| 19>  H        1.7477820000     0.2457200000    -2.1200820000
| 20>  H        2.4146450000     1.9552060000    -1.8871140000
| 21>  H        2.0848300000    -0.2245090000     0.2490930000
| 22>  H        2.1214030000     1.9538260000     1.5730580000
| 23>  H        3.1018460000     2.6874110000     0.3029300000
| 24>  H        4.7488000000     0.9317540000     0.8376660000
| 25>  H        3.8046720000     2.3143640000     3.2274150000
| 26>  H        4.8912260000     3.0544930000     2.0718390000
| 27>  H        6.2764270000     2.2047930000     3.8830710000
| 28>  H        5.7065760000    -0.4685750000     2.4987460000
| 29>  H        7.0676130000    -0.0727010000     3.6923830000
| 30> *
| 31>
| 32>                          ****END OF INPUT****
 Total Charge           Charge          ....    0
 Multiplicity           Mult            ....    1
 Number of Electrons    NEL             ....   54
 Basis Dimension        Dim             ....  153

MULLIKEN ATOMIC CHARGES
-----------------------
   0 C :   -0.035249
   1 C :   -0.102519
   2 C :    0.181053
   3 N :   -0.280047
   4 C :    0.168495
   5 C :   -0.126176
   6 C :   -0.025084
   7 H :    0.030008
   8 H :    0.019259
   9 H :    0.009625
  10 H :    0.014843
  11 H :   -0.018152
  12 H :    0.106543
  13 H :    0.019905
  14 H :   -0.008754
  15 H :    0.007156
  16 H :    0.017921
  17 H :    0.021174
Sum of atomic charges:   -0.0000000

LOEWDIN ATOMIC CHARGES
----------------------
   0 C :   -0.062142
   1 C :   -0.034838
   2 C :    0.013464
   3 N :   -0.093466
   4 C :    0.008745
   5 C :   -0.042596
   6 C :   -0.068776
   7 H :    0.026102
   8 H :    0.021503
   9 H :    0.027769
  10 H :    0.030757
  11 H :    0.002457
  12 H :    0.056805
  13 H :    0.034057
  14 H :    0.008173
  15 H :    0.027197
  16 H :    0.020479
  17 H :    0.024309

  Mayer bond orders larger than 0.1
B(  0-C ,  1-C ) :   1.9973 B(  0-C ,  7-H ) :   0.9447 B(  0-C ,  8-H ) :   0.9461
B(  1-C ,  2-C ) :   1.0610 B(  1-C ,  9-H ) :   0.9572 B(  2-C ,  3-N ) :   1.0043
B(  2-C , 10-H ) :   0.9108 B(  2-C , 11-H ) :   0.9139 B(  3-N ,  4-C ) :   1.0664
B(  3-N , 12-H ) :   0.9296 B(  4-C ,  5-C ) :   1.0407 B(  4-C , 13-H ) :   0.9086
B(  4-C , 14-H ) :   0.9008 B(  5-C ,  6-C ) :   2.0261 B(  5-C , 15-H ) :   0.9509
B(  6-C , 16-H ) :   0.9335 B(  6-C , 17-H ) :   0.9430

FINAL SINGLE POINT ENERGY      -289.342093475851

DIPOLE MOMENT
-------------
                                X             Y             Z
Electronic contribution:      0.04665      -0.69569       0.48781
Nuclear contribution   :     -0.00385       1.01549      -0.61685
                        -----------------------------------------
Total Dipole Moment    :      0.04281       0.31979      -0.12904
                        -----------------------------------------
Magnitude (a.u.)       :      0.34749
Magnitude (Debye)      :      0.88326

                             ****ORCA TERMINATED NORMALLY****
TOTAL RUN TIME: 0 days 0 hours 0 minutes 7 seconds 593 msec
