                         Program Version 3.0.3 - RELEASE   -
|  1> ! RI PBE def2-SVP def2-SVP/J NBO PAL2
|  2> % maxcore 2000
|  3> % output
|  4>     # printlevel mini
|  5>     print[ P_Basis ] 0
|  6>     print[ P_SCFInfo ] 1
|  7>     print[ P_SCFIterInfo ] 1
|  8>     print[ P_OrbEn ] 0
|  9>     print[ P_Cartesian ] 0
| 10> end
| 11> *xyz 0 1
| 12>  C        0.9279780000    -0.9013170000    -0.2083180000
| 13>  C        1.9072910000    -0.0763590000     0.1329380000
| 14>  C        2.7936530000     0.6266360000    -0.8394610000
| 15>  N        4.1890280000     0.3499600000    -0.5565530000
| 16>  C        5.0875370000     1.0371340000    -1.4656440000
| 17>  C        6.4718340000     0.6387750000    -1.2649240000
| 18>  C        7.6111200000     0.2936280000    -1.1153200000
| 19>  H        0.3046300000    -1.3824240000     0.5363880000
| 20>  H        0.7099330000    -1.1201870000    -1.2493930000
| 21>  H        2.1159030000     0.1195620000     1.1820930000
| 22>  H        2.6489380000     1.7108810000    -0.7396380000
| 23>  H        2.4973160000     0.3639860000    -1.8700830000
| 24>  H        4.3593880000    -0.6477990000    -0.5974420000
| 25>  H        4.9972760000     2.1160050000    -1.2910010000
| 26>  H        4.8303900000     0.8758690000    -2.5282390000
| 27>  H        8.6226650000    -0.0063490000    -0.9759020000
| 28> *
| 29>
| 30>                          ****END OF INPUT****
 Total Charge           Charge          ....    0
 Multiplicity           Mult            ....    1
 Number of Electrons    NEL             ....   52
 Basis Dimension        Dim             ....  143

MULLIKEN ATOMIC CHARGES
-----------------------
   0 C :   -0.030739
   1 C :   -0.103554
   2 C :    0.180692
   3 N :   -0.289115
   4 C :    0.187175
   5 C :    0.315344
   6 C :   -0.481219
   7 H :    0.030229
   8 H :    0.018500
   9 H :    0.014708
  10 H :    0.017386
  11 H :   -0.016749
  12 H :    0.107553
  13 H :    0.031977
  14 H :    0.015723
  15 H :    0.002090
Sum of atomic charges:   -0.0000000

LOEWDIN ATOMIC CHARGES
----------------------
   0 C :   -0.058524
   1 C :   -0.035811
   2 C :    0.011808
   3 N :   -0.093940
   4 C :    0.006465
   5 C :   -0.026011
   6 C :   -0.077048
   7 H :    0.026651
   8 H :    0.021733
   9 H :    0.029392
  10 H :    0.031591
  11 H :    0.002625
  12 H :    0.059399
  13 H :    0.043926
  14 H :    0.022275
  15 H :    0.035468

  Mayer bond orders larger than 0.1
B(  0-C ,  1-C ) :   1.9987 B(  0-C ,  7-H ) :   0.9462 B(  0-C ,  8-H ) :   0.9468
B(  1-C ,  2-C ) :   1.0540 B(  1-C ,  9-H ) :   0.9589 B(  2-C ,  3-N ) :   1.0034
B(  2-C , 10-H ) :   0.9110 B(  2-C , 11-H ) :   0.9142 B(  3-N ,  4-C ) :   1.0148
B(  3-N , 12-H ) :   0.9422 B(  4-C ,  5-C ) :   1.0432 B(  4-C , 13-H ) :   0.8903
B(  4-C , 14-H ) :   0.8912 B(  5-C ,  6-C ) :   2.3585 B(  5-C , 15-H ) :  -0.1057
B(  6-C , 15-H ) :   1.0966

FINAL SINGLE POINT ENERGY      -288.095229135601

DIPOLE MOMENT
-------------
                                X             Y             Z
Electronic contribution:      5.06660       0.35299       0.34451
Nuclear contribution   :     -5.25670      -0.43727      -0.62615
                        -----------------------------------------
Total Dipole Moment    :     -0.19010      -0.08428      -0.28163
                        -----------------------------------------
Magnitude (a.u.)       :      0.35008
Magnitude (Debye)      :      0.88984

                             ****ORCA TERMINATED NORMALLY****
TOTAL RUN TIME: 0 days 0 hours 0 minutes 7 seconds 250 msec
