                         Program Version 3.0.3 - RELEASE   -
|  1> ! RI PBE def2-SVP def2-SVP/J NBO PAL2
|  2> % maxcore 2000
|  3> % output
|  4>     # printlevel mini
|  5>     print[ P_Basis ] 0
|  6>     print[ P_SCFInfo ] 1
|  7>     print[ P_SCFIterInfo ] 1
|  8>     print[ P_OrbEn ] 0
|  9>     print[ P_Cartesian ] 0
| 10> end
| 11> *xyz 0 1
| 12>  C        0.9647850000    -0.4989190000     0.5834280000
| 13>  C        2.1265600000    -0.2660730000     0.3966680000
| 14>  C        3.5277430000     0.0301330000     0.1478270000
| 15>  N        4.1613440000    -1.0007310000    -0.6540560000
| 16>  C        5.5160750000    -0.6349590000    -1.0256770000
| 17>  C        6.0994440000    -1.5949200000    -1.9482440000
| 18>  C        6.5726890000    -2.3745210000    -2.7273980000
| 19>  H       -0.0637980000    -0.7111670000     0.7560440000
| 20>  H        4.0553650000     0.0956020000     1.1071260000
| 21>  H        3.5967010000     1.0337860000    -0.3100480000
| 22>  H        3.6105440000    -1.1834320000    -1.4837400000
| 23>  H        6.1265520000    -0.5973590000    -0.1152820000
| 24>  H        5.5803020000     0.3703560000    -1.4805940000
| 25>  H        6.9949040000    -3.0719070000    -3.4116630000
| 26> *
| 27>
| 28>                          ****END OF INPUT****
 Total Charge           Charge          ....    0
 Multiplicity           Mult            ....    1
 Number of Electrons    NEL             ....   50
 Basis Dimension        Dim             ....  133

MULLIKEN ATOMIC CHARGES
-----------------------
   0 C :   -0.478193
   1 C :    0.316830
   2 C :    0.193767
   3 N :   -0.284767
   4 C :    0.193077
   5 C :    0.321318
   6 C :   -0.478411
   7 H :    0.003851
   8 H :    0.032732
   9 H :    0.013516
  10 H :    0.116483
  11 H :    0.031693
  12 H :    0.014393
  13 H :    0.003711
Sum of atomic charges:   -0.0000000

LOEWDIN ATOMIC CHARGES
----------------------
   0 C :   -0.072456
   1 C :   -0.026601
   2 C :    0.007965
   3 N :   -0.087339
   4 C :    0.008189
   5 C :   -0.026537
   6 C :   -0.072330
   7 H :    0.036293
   8 H :    0.044626
   9 H :    0.021972
  10 H :    0.063298
  11 H :    0.044500
  12 H :    0.022266
  13 H :    0.036155

  Mayer bond orders larger than 0.1
B(  0-C ,  1-C ) :   2.3584 B(  0-C ,  7-H ) :   1.0968 B(  1-C ,  2-C ) :   1.0390
B(  1-C ,  7-H ) :  -0.1058 B(  2-C ,  3-N ) :   1.0176 B(  2-C ,  8-H ) :   0.8914
B(  2-C ,  9-H ) :   0.8889 B(  3-N ,  4-C ) :   1.0122 B(  3-N , 10-H ) :   0.9399
B(  4-C ,  5-C ) :   1.0395 B(  4-C , 11-H ) :   0.8920 B(  4-C , 12-H ) :   0.8907
B(  5-C ,  6-C ) :   2.3566 B(  5-C , 13-H ) :  -0.1063 B(  6-C , 13-H ) :   1.0972

FINAL SINGLE POINT ENERGY      -286.848488522544

DIPOLE MOMENT
-------------
                                X             Y             Z
Electronic contribution:     -0.77341      -1.60750      -0.39714
Nuclear contribution   :      0.80491       1.98612       0.23828
                        -----------------------------------------
Total Dipole Moment    :      0.03150       0.37862      -0.15886
                        -----------------------------------------
Magnitude (a.u.)       :      0.41181
Magnitude (Debye)      :      1.04673

                             ****ORCA TERMINATED NORMALLY****
TOTAL RUN TIME: 0 days 0 hours 0 minutes 6 seconds 121 msec
