                         Program Version 3.0.3 - RELEASE   -
|  1> ! RI PBE def2-SVP def2-SVP/J NBO PAL2
|  2> % maxcore 2000
|  3> % output
|  4>     # printlevel mini
|  5>     print[ P_Basis ] 0
|  6>     print[ P_SCFInfo ] 1
|  7>     print[ P_SCFIterInfo ] 1
|  8>     print[ P_OrbEn ] 0
|  9>     print[ P_Cartesian ] 0
| 10> end
| 11> *xyz 0 1
| 12>  C        0.8038860000     0.0686660000    -0.1266570000
| 13>  C        2.3100100000     0.2014190000    -0.3137730000
| 14>  C        2.6706220000     0.0225750000    -1.7884850000
| 15>  N        2.6937630000     1.5180360000     0.1991230000
| 16>  C        3.0661430000    -0.8255100000     0.5496330000
| 17>  C        2.7682320000    -2.2582570000     0.2624350000
| 18>  C        3.6548160000    -3.1505730000    -0.1579270000
| 19>  H        0.2836480000     0.8612250000    -0.6729620000
| 20>  H        0.5392470000     0.1588370000     0.9290070000
| 21>  H        0.4342430000    -0.8856900000    -0.5061220000
| 22>  H        2.1523850000     0.7669470000    -2.4000790000
| 23>  H        2.3998000000    -0.9700150000    -2.1568150000
| 24>  H        3.7467340000     0.1512710000    -1.9395800000
| 25>  H        2.2302560000     2.2441280000    -0.3364610000
| 26>  H        3.6906860000     1.6611270000     0.0762600000
| 27>  H        2.8214610000    -0.5989790000     1.5936410000
| 28>  H        4.1421040000    -0.6518140000     0.4304320000
| 29>  H        1.7439170000    -2.5846490000     0.4319480000
| 30>  H        4.6915570000    -2.8789970000    -0.3339200000
| 31>  H        3.3814100000    -4.1844470000    -0.3353270000
| 32> *
| 33>
| 34>                          ****END OF INPUT****
 Total Charge           Charge          ....    0
 Multiplicity           Mult            ....    1
 Number of Electrons    NEL             ....   56
 Basis Dimension        Dim             ....  163

MULLIKEN ATOMIC CHARGES
-----------------------
   0 C :    0.079657
   1 C :   -0.311308
   2 C :    0.091830
   3 N :   -0.138311
   4 C :    0.142680
   5 C :   -0.085679
   6 C :   -0.030785
   7 H :    0.003144
   8 H :    0.017282
   9 H :    0.013743
  10 H :    0.001717
  11 H :    0.011568
  12 H :    0.000102
  13 H :    0.077313
  14 H :    0.078442
  15 H :    0.020583
  16 H :   -0.011771
  17 H :    0.002596
  18 H :    0.015195
  19 H :    0.022003
Sum of atomic charges:   -0.0000000

LOEWDIN ATOMIC CHARGES
----------------------
   0 C :   -0.052149
   1 C :   -0.024508
   2 C :   -0.065836
   3 N :   -0.088297
   4 C :   -0.034982
   5 C :   -0.026963
   6 C :   -0.066288
   7 H :    0.022529
   8 H :    0.027037
   9 H :    0.024169
  10 H :    0.019275
  11 H :    0.024647
  12 H :    0.019548
  13 H :    0.047283
  14 H :    0.046644
  15 H :    0.035921
  16 H :    0.023516
  17 H :    0.024577
  18 H :    0.020312
  19 H :    0.023564

  Mayer bond orders larger than 0.1
B(  0-C ,  1-C ) :   1.0536 B(  0-C ,  7-H ) :   0.9497 B(  0-C ,  8-H ) :   0.9564
B(  0-C ,  9-H ) :   0.9529 B(  1-C ,  2-C ) :   1.0395 B(  1-C ,  3-N ) :   1.0434
B(  1-C ,  4-C ) :   1.0154 B(  2-C , 10-H ) :   0.9532 B(  2-C , 11-H ) :   0.9415
B(  2-C , 12-H ) :   0.9503 B(  3-N , 13-H ) :   0.9607 B(  3-N , 14-H ) :   0.9603
B(  4-C ,  5-C ) :   1.0662 B(  4-C , 15-H ) :   0.8994 B(  4-C , 16-H ) :   0.9155
B(  5-C ,  6-C ) :   1.9983 B(  5-C , 17-H ) :   0.9552 B(  6-C , 18-H ) :   0.9439
B(  6-C , 19-H ) :   0.9415

FINAL SINGLE POINT ENERGY      -290.575643771904

DIPOLE MOMENT
-------------
                                X             Y             Z
Electronic contribution:      0.98672      -0.38682       1.87547
Nuclear contribution   :     -0.93478       0.54577      -2.26488
                        -----------------------------------------
Total Dipole Moment    :      0.05194       0.15895      -0.38941
                        -----------------------------------------
Magnitude (a.u.)       :      0.42380
Magnitude (Debye)      :      1.07721

                             ****ORCA TERMINATED NORMALLY****
TOTAL RUN TIME: 0 days 0 hours 0 minutes 8 seconds 884 msec
