                         Program Version 3.0.3 - RELEASE   -
|  1> ! RI PBE def2-SVP def2-SVP/J NBO PAL2
|  2> % maxcore 2000
|  3> % output
|  4>     # printlevel mini
|  5>     print[ P_Basis ] 0
|  6>     print[ P_SCFInfo ] 1
|  7>     print[ P_SCFIterInfo ] 1
|  8>     print[ P_OrbEn ] 0
|  9>     print[ P_Cartesian ] 0
| 10> end
| 11> *xyz 0 1
| 12>  C        0.9147440000    -0.0744160000     0.1107150000
| 13>  C        2.4261550000    -0.0187400000    -0.0656160000
| 14>  C        2.8362500000    -0.8018710000    -1.3128900000
| 15>  N        2.8209810000     1.3854720000    -0.1162870000
| 16>  C        3.0840430000    -0.6311840000     1.1869850000
| 17>  C        4.5362900000    -0.5856010000     1.1677960000
| 18>  C        5.7360470000    -0.5308500000     1.1385210000
| 19>  H        0.4144810000     0.3729370000    -0.7528410000
| 20>  H        0.6129030000     0.4811300000     1.0007370000
| 21>  H        0.5646150000    -1.1056440000     0.1998170000
| 22>  H        2.3723790000    -0.3629130000    -2.2005110000
| 23>  H        2.5245650000    -1.8489350000    -1.2542420000
| 24>  H        3.9203780000    -0.7773230000    -1.4451010000
| 25>  H        2.4255120000     1.8272490000    -0.9383740000
| 26>  H        3.8301070000     1.4566660000    -0.1959440000
| 27>  H        2.7581380000    -1.6710840000     1.2924800000
| 28>  H        2.7236710000    -0.0843360000     2.0638020000
| 29>  H        6.7994410000    -0.4905570000     1.1248540000
| 30> *
| 31>
| 32>                          ****END OF INPUT****
 Total Charge           Charge          ....    0
 Multiplicity           Mult            ....    1
 Number of Electrons    NEL             ....   54
 Basis Dimension        Dim             ....  153

MULLIKEN ATOMIC CHARGES
-----------------------
   0 C :    0.101709
   1 C :   -0.316890
   2 C :    0.075440
   3 N :   -0.145134
   4 C :    0.167907
   5 C :    0.348064
   6 C :   -0.518208
   7 H :    0.008797
   8 H :    0.018516
   9 H :    0.006817
  10 H :    0.004016
  11 H :    0.004107
  12 H :    0.023466
  13 H :    0.081130
  14 H :    0.087447
  15 H :    0.025759
  16 H :    0.031412
  17 H :   -0.004356
Sum of atomic charges:   -0.0000000

LOEWDIN ATOMIC CHARGES
----------------------
   0 C :   -0.051081
   1 C :   -0.020129
   2 C :   -0.066963
   3 N :   -0.087012
   4 C :   -0.038350
   5 C :   -0.018443
   6 C :   -0.096119
   7 H :    0.024409
   8 H :    0.027496
   9 H :    0.024607
  10 H :    0.021078
  11 H :    0.023854
  12 H :    0.026549
  13 H :    0.048607
  14 H :    0.050651
  15 H :    0.046829
  16 H :    0.050643
  17 H :    0.033377

  Mayer bond orders larger than 0.1
B(  0-C ,  1-C ) :   1.0611 B(  0-C ,  7-H ) :   0.9526 B(  0-C ,  8-H ) :   0.9493
B(  0-C ,  9-H ) :   0.9526 B(  1-C ,  2-C ) :   1.0315 B(  1-C ,  3-N ) :   1.0417
B(  1-C ,  4-C ) :   1.0105 B(  2-C , 10-H ) :   0.9515 B(  2-C , 11-H ) :   0.9452
B(  2-C , 12-H ) :   0.9518 B(  3-N , 13-H ) :   0.9629 B(  3-N , 14-H ) :   0.9580
B(  4-C ,  5-C ) :   1.0604 B(  4-C , 15-H ) :   0.8933 B(  4-C , 16-H ) :   0.8784
B(  5-C ,  6-C ) :   2.2792 B(  5-C , 17-H ) :  -0.1197 B(  6-C , 17-H ) :   1.1106

FINAL SINGLE POINT ENERGY      -289.335477708496

DIPOLE MOMENT
-------------
                                X             Y             Z
Electronic contribution:      4.95721       0.39647       3.17181
Nuclear contribution   :     -5.06088      -0.51220      -3.58683
                        -----------------------------------------
Total Dipole Moment    :     -0.10368      -0.11573      -0.41502
                        -----------------------------------------
Magnitude (a.u.)       :      0.44315
Magnitude (Debye)      :      1.12641

                             ****ORCA TERMINATED NORMALLY****
TOTAL RUN TIME: 0 days 0 hours 0 minutes 8 seconds 545 msec
