                         Program Version 3.0.3 - RELEASE   -
|  1> ! RI PBE def2-SVP def2-SVP/J NBO PAL2
|  2> % maxcore 2000
|  3> % output
|  4>     # printlevel mini
|  5>     print[ P_Basis ] 0
|  6>     print[ P_SCFInfo ] 1
|  7>     print[ P_SCFIterInfo ] 1
|  8>     print[ P_OrbEn ] 0
|  9>     print[ P_Cartesian ] 0
| 10> end
| 11> *xyz 0 1
| 12>  C        1.9671320000     1.0784500000     0.1427210000
| 13>  C        3.4326740000     0.8720180000     0.4848230000
| 14>  C        3.5955970000     0.5066360000     1.9516600000
| 15>  N        3.9550820000    -0.1825370000    -0.3708060000
| 16>  C        5.3902910000    -0.4295830000    -0.3615240000
| 17>  C        5.6733830000    -1.6175460000    -1.2653780000
| 18>  C        6.2486840000     0.7699150000    -0.7574340000
| 19>  H        1.5316880000     1.8697430000     0.7565590000
| 20>  H        1.4051010000     0.1563070000     0.3119180000
| 21>  H        1.8427140000     1.3643260000    -0.9061550000
| 22>  H        3.9501370000     1.8333750000     0.3186010000
| 23>  H        3.1013900000    -0.4464630000     2.1578170000
| 24>  H        3.1497460000     1.2761320000     2.5862930000
| 25>  H        4.6453490000     0.4141950000     2.2381050000
| 26>  H        3.6560190000    -0.0164590000    -1.3257550000
| 27>  H        5.6592900000    -0.7183730000     0.6608680000
| 28>  H        5.4158330000    -1.3813460000    -2.3037660000
| 29>  H        5.0817810000    -2.4818130000    -0.9591770000
| 30>  H        6.7314070000    -1.8876530000    -1.2421070000
| 31>  H        6.0167690000     1.0868160000    -1.7797000000
| 32>  H        7.3117250000     0.5176880000    -0.7184750000
| 33>  H        6.0890180000     1.6237700000    -0.0955660000
| 34> *
| 35>
| 36>                          ****END OF INPUT****
 Total Charge           Charge          ....    0
 Multiplicity           Mult            ....    1
 Number of Electrons    NEL             ....   58
 Basis Dimension        Dim             ....  173

MULLIKEN ATOMIC CHARGES
-----------------------
   0 C :    0.001443
   1 C :   -0.038273
   2 C :    0.017617
   3 N :   -0.219473
   4 C :   -0.042903
   5 C :    0.017203
   6 C :    0.003107
   7 H :    0.015595
   8 H :    0.023134
   9 H :    0.012276
  10 H :   -0.014433
  11 H :    0.014623
  12 H :    0.012238
  13 H :    0.018503
  14 H :    0.087321
  15 H :    0.002883
  16 H :    0.006649
  17 H :    0.019867
  18 H :    0.015978
  19 H :    0.003653
  20 H :    0.014896
  21 H :    0.028096
Sum of atomic charges:   -0.0000000

LOEWDIN ATOMIC CHARGES
----------------------
   0 C :   -0.063402
   1 C :    0.000437
   2 C :   -0.064874
   3 N :   -0.089048
   4 C :   -0.001528
   5 C :   -0.062623
   6 C :   -0.078744
   7 H :    0.026961
   8 H :    0.026193
   9 H :    0.021775
  10 H :   -0.001582
  11 H :    0.025725
  12 H :    0.026580
  13 H :    0.021680
  14 H :    0.048113
  15 H :    0.020041
  16 H :    0.020411
  17 H :    0.026644
  18 H :    0.026133
  19 H :    0.020839
  20 H :    0.026542
  21 H :    0.023728

  Mayer bond orders larger than 0.1
B(  0-C ,  1-C ) :   1.0866 B(  0-C ,  7-H ) :   0.9575 B(  0-C ,  8-H ) :   0.9588
B(  0-C ,  9-H ) :   0.9563 B(  1-C ,  2-C ) :   1.0806 B(  1-C ,  3-N ) :   1.0401
B(  1-C , 10-H ) :   0.8970 B(  2-C , 11-H ) :   0.9530 B(  2-C , 12-H ) :   0.9558
B(  2-C , 13-H ) :   0.9551 B(  3-N ,  4-C ) :   1.0382 B(  3-N , 14-H ) :   0.9323
B(  4-C ,  5-C ) :   1.0936 B(  4-C ,  6-C ) :   1.0606 B(  4-C , 15-H ) :   0.9083
B(  5-C , 16-H ) :   0.9567 B(  5-C , 17-H ) :   0.9565 B(  5-C , 18-H ) :   0.9601
B(  6-C , 19-H ) :   0.9524 B(  6-C , 20-H ) :   0.9524 B(  6-C , 21-H ) :   0.9539

FINAL SINGLE POINT ENERGY      -291.794345161536

DIPOLE MOMENT
-------------
                                X             Y             Z
Electronic contribution:     -0.57494      -0.70578      -0.28773
Nuclear contribution   :      0.68990       0.94470       0.15510
                        -----------------------------------------
Total Dipole Moment    :      0.11497       0.23892      -0.13263
                        -----------------------------------------
Magnitude (a.u.)       :      0.29647
Magnitude (Debye)      :      0.75356

                             ****ORCA TERMINATED NORMALLY****
TOTAL RUN TIME: 0 days 0 hours 0 minutes 9 seconds 548 msec
