                         Program Version 3.0.3 - RELEASE   -
|  1> ! RI PBE def2-SVP def2-SVP/J NBO PAL2
|  2> % maxcore 2000
|  3> % output
|  4>     # printlevel mini
|  5>     print[ P_Basis ] 0
|  6>     print[ P_SCFInfo ] 1
|  7>     print[ P_SCFIterInfo ] 1
|  8>     print[ P_OrbEn ] 0
|  9>     print[ P_Cartesian ] 0
| 10> end
| 11> *xyz 0 1
| 12>  C        0.8207970000    -0.6756340000    -1.1662650000
| 13>  C        2.2072830000    -0.1095180000    -0.9181640000
| 14>  C        2.5635280000     0.9245830000    -1.9745300000
| 15>  N        2.2405690000     0.4785420000     0.4140320000
| 16>  C        3.5680130000     0.7384420000     0.9389610000
| 17>  C        3.4868430000     1.3081300000     2.3157160000
| 18>  C        4.0874160000     0.7936070000     3.3793500000
| 19>  H        0.7553680000    -1.1231620000    -2.1599430000
| 20>  H        0.0708980000     0.1165290000    -1.0938000000
| 21>  H        0.5709630000    -1.4495910000    -0.4344990000
| 22>  H        2.9355470000    -0.9389040000    -0.9957370000
| 23>  H        1.8546850000     1.7558660000    -1.9386350000
| 24>  H        2.5291100000     0.4787570000    -2.9715060000
| 25>  H        3.5679090000     1.3281260000    -1.8315150000
| 26>  H        1.7530790000    -0.1323930000     1.0589770000
| 27>  H        4.0567700000     1.4703460000     0.2855860000
| 28>  H        4.2133180000    -0.1577660000     0.9458240000
| 29>  H        2.8744010000     2.2015350000     2.4156800000
| 30>  H        4.6939430000    -0.1043170000     3.3066440000
| 31>  H        4.0027500000     1.2520340000     4.3579040000
| 32> *
| 33>
| 34>                          ****END OF INPUT****
 Total Charge           Charge          ....    0
 Multiplicity           Mult            ....    1
 Number of Electrons    NEL             ....   56
 Basis Dimension        Dim             ....  163

MULLIKEN ATOMIC CHARGES
-----------------------
   0 C :    0.000224
   1 C :   -0.050703
   2 C :    0.025082
   3 N :   -0.249649
   4 C :    0.177486
   5 C :   -0.106035
   6 C :   -0.033848
   7 H :    0.018190
   8 H :    0.024728
   9 H :    0.016930
  10 H :   -0.014533
  11 H :    0.020100
  12 H :    0.010313
  13 H :    0.015317
  14 H :    0.092380
  15 H :    0.019411
  16 H :   -0.018926
  17 H :    0.009698
  18 H :    0.018125
  19 H :    0.025712
Sum of atomic charges:    0.0000000

LOEWDIN ATOMIC CHARGES
----------------------
   0 C :   -0.064283
   1 C :    0.000326
   2 C :   -0.064723
   3 N :   -0.096809
   4 C :    0.011105
   5 C :   -0.034027
   6 C :   -0.064079
   7 H :    0.028889
   8 H :    0.027869
   9 H :    0.022485
  10 H :    0.000625
  11 H :    0.026946
  12 H :    0.025988
  13 H :    0.022291
  14 H :    0.051983
  15 H :    0.029160
  16 H :    0.002728
  17 H :    0.027644
  18 H :    0.021103
  19 H :    0.024778

  Mayer bond orders larger than 0.1
B(  0-C ,  1-C ) :   1.0840 B(  0-C ,  7-H ) :   0.9586 B(  0-C ,  8-H ) :   0.9560
B(  0-C ,  9-H ) :   0.9584 B(  1-C ,  2-C ) :   1.0889 B(  1-C ,  3-N ) :   1.0316
B(  1-C , 10-H ) :   0.8983 B(  2-C , 11-H ) :   0.9546 B(  2-C , 12-H ) :   0.9562
B(  2-C , 13-H ) :   0.9517 B(  3-N ,  4-C ) :   0.9978 B(  3-N , 14-H ) :   0.9389
B(  4-C ,  5-C ) :   1.0595 B(  4-C , 15-H ) :   0.9076 B(  4-C , 16-H ) :   0.9111
B(  5-C ,  6-C ) :   1.9942 B(  5-C , 17-H ) :   0.9588 B(  6-C , 18-H ) :   0.9454
B(  6-C , 19-H ) :   0.9465

FINAL SINGLE POINT ENERGY      -290.568222407176

DIPOLE MOMENT
-------------
                                X             Y             Z
Electronic contribution:      1.02687       1.11424       3.69062
Nuclear contribution   :     -0.99402      -1.40089      -3.74708
                        -----------------------------------------
Total Dipole Moment    :      0.03285      -0.28666      -0.05646
                        -----------------------------------------
Magnitude (a.u.)       :      0.29401
Magnitude (Debye)      :      0.74730

                             ****ORCA TERMINATED NORMALLY****
TOTAL RUN TIME: 0 days 0 hours 0 minutes 8 seconds 517 msec
