                         Program Version 3.0.3 - RELEASE   -
|  1> ! RI PBE def2-SVP def2-SVP/J NBO PAL2
|  2> % maxcore 2000
|  3> % output
|  4>     # printlevel mini
|  5>     print[ P_Basis ] 0
|  6>     print[ P_SCFInfo ] 1
|  7>     print[ P_SCFIterInfo ] 1
|  8>     print[ P_OrbEn ] 0
|  9>     print[ P_Cartesian ] 0
| 10> end
| 11> *xyz 0 1
| 12>  C        0.8135260000     0.0632530000     0.1981830000
| 13>  C        2.3153390000    -0.1464610000     0.1375240000
| 14>  C        2.6868180000    -1.5487920000     0.5921440000
| 15>  N        2.7613020000     0.0867890000    -1.2289170000
| 16>  C        4.2021010000     0.2039300000    -1.3742570000
| 17>  C        4.5672070000     0.7182420000    -2.6848310000
| 18>  C        4.8636230000     1.1623330000    -3.7594240000
| 19>  H        0.4409580000    -0.0959890000     1.2119060000
| 20>  H        0.3066920000    -0.6361190000    -0.4714700000
| 21>  H        0.5420720000     1.0796620000    -0.1014460000
| 22>  H        2.7930430000     0.5719100000     0.8311180000
| 23>  H        2.2406900000    -2.2899280000    -0.0759330000
| 24>  H        2.3230970000    -1.7280900000     1.6064160000
| 25>  H        3.7676180000    -1.7047750000     0.6010890000
| 26>  H        2.3290380000     0.9293410000    -1.5876370000
| 27>  H        4.6619790000    -0.7815620000    -1.2464050000
| 28>  H        4.6539330000     0.8583470000    -0.6062890000
| 29>  H        5.1281750000     1.5480080000    -4.7153810000
| 30> *
| 31>
| 32>                          ****END OF INPUT****
 Total Charge           Charge          ....    0
 Multiplicity           Mult            ....    1
 Number of Electrons    NEL             ....   54
 Basis Dimension        Dim             ....  153

MULLIKEN ATOMIC CHARGES
-----------------------
   0 C :    0.014852
   1 C :   -0.046429
   2 C :    0.012188
   3 N :   -0.246232
   4 C :    0.207883
   5 C :    0.301423
   6 C :   -0.488109
   7 H :    0.016948
   8 H :    0.026589
   9 H :    0.013442
  10 H :   -0.012681
  11 H :    0.020579
  12 H :    0.012111
  13 H :    0.020403
  14 H :    0.101213
  15 H :    0.032346
  16 H :    0.012403
  17 H :    0.001069
Sum of atomic charges:    0.0000000

LOEWDIN ATOMIC CHARGES
----------------------
   0 C :   -0.060524
   1 C :    0.000958
   2 C :   -0.065025
   3 N :   -0.091681
   4 C :    0.008329
   5 C :   -0.027360
   6 C :   -0.079217
   7 H :    0.028630
   8 H :    0.028817
   9 H :    0.022764
  10 H :    0.000170
  11 H :    0.028247
  12 H :    0.027560
  13 H :    0.022645
  14 H :    0.055979
  15 H :    0.041656
  16 H :    0.022662
  17 H :    0.035392

  Mayer bond orders larger than 0.1
B(  0-C ,  1-C ) :   1.0836 B(  0-C ,  7-H ) :   0.9597 B(  0-C ,  8-H ) :   0.9582
B(  0-C ,  9-H ) :   0.9575 B(  1-C ,  2-C ) :   1.0834 B(  1-C ,  3-N ) :   1.0291
B(  1-C , 10-H ) :   0.9015 B(  2-C , 11-H ) :   0.9529 B(  2-C , 12-H ) :   0.9552
B(  2-C , 13-H ) :   0.9567 B(  3-N ,  4-C ) :   1.0152 B(  3-N , 14-H ) :   0.9346
B(  4-C ,  5-C ) :   1.0452 B(  4-C , 15-H ) :   0.8853 B(  4-C , 16-H ) :   0.8874
B(  5-C ,  6-C ) :   2.3536 B(  5-C , 17-H ) :  -0.1064 B(  6-C , 17-H ) :   1.0972

FINAL SINGLE POINT ENERGY      -289.322080000587

DIPOLE MOMENT
-------------
                                X             Y             Z
Electronic contribution:      4.59763       2.78995      -6.49545
Nuclear contribution   :     -4.66362      -2.57551       6.83331
                        -----------------------------------------
Total Dipole Moment    :     -0.06599       0.21445       0.33786
                        -----------------------------------------
Magnitude (a.u.)       :      0.40557
Magnitude (Debye)      :      1.03088

                             ****ORCA TERMINATED NORMALLY****
TOTAL RUN TIME: 0 days 0 hours 0 minutes 6 seconds 965 msec
