                         Program Version 3.0.3 - RELEASE   -
|  1> ! RI PBE def2-SVP def2-SVP/J NBO PAL2
|  2> % maxcore 2000
|  3> % output
|  4>     # printlevel mini
|  5>     print[ P_Basis ] 0
|  6>     print[ P_SCFInfo ] 1
|  7>     print[ P_SCFIterInfo ] 1
|  8>     print[ P_OrbEn ] 0
|  9>     print[ P_Cartesian ] 0
| 10> end
| 11> *xyz 0 1
| 12>  C        1.0968050000     0.1893740000     0.2204210000
| 13>  C        2.5683550000    -0.0508480000    -0.1478550000
| 14>  C        2.8405590000    -1.4841650000    -0.1654010000
| 15>  N        3.0334060000    -2.6175580000    -0.1663420000
| 16>  C        2.9706590000     0.6302580000    -1.4430690000
| 17>  C        2.9391650000     2.1261420000    -1.4056470000
| 18>  C        3.3287550000    -0.0481050000    -2.5260500000
| 19>  H        0.8508620000    -0.3078860000     1.1593320000
| 20>  H        0.4424810000    -0.1994860000    -0.5609600000
| 21>  H        0.9060540000     1.2560160000     0.3383170000
| 22>  H        3.1904170000     0.3681370000     0.6546320000
| 23>  H        3.5508040000     2.5119290000    -0.5831740000
| 24>  H        1.9257310000     2.5087810000    -1.2542560000
| 25>  H        3.3181450000     2.5446040000    -2.3379430000
| 26>  H        3.3609930000    -1.1313310000    -2.5414970000
| 27>  H        3.6077210000     0.4709280000    -3.4359190000
| 28> *
| 29>
| 30>                          ****END OF INPUT****
 Total Charge           Charge          ....    0
 Multiplicity           Mult            ....    1
 Number of Electrons    NEL             ....   52
 Basis Dimension        Dim             ....  143

MULLIKEN ATOMIC CHARGES
-----------------------
   0 C :    0.013857
   1 C :    0.021183
   2 C :   -0.253936
   3 N :    0.059008
   4 C :   -0.213626
   5 C :    0.075031
   6 C :    0.001464
   7 H :    0.043605
   8 H :    0.045106
   9 H :    0.031490
  10 H :    0.047083
  11 H :    0.030042
  12 H :    0.034482
  13 H :    0.021976
  14 H :    0.033686
  15 H :    0.009548
Sum of atomic charges:    0.0000000

LOEWDIN ATOMIC CHARGES
----------------------
   0 C :   -0.036402
   1 C :   -0.057706
   2 C :   -0.029854
   3 N :   -0.068223
   4 C :   -0.029286
   5 C :   -0.052967
   6 C :   -0.057617
   7 H :    0.037585
   8 H :    0.037484
   9 H :    0.030144
  10 H :    0.060266
  11 H :    0.036910
  12 H :    0.036080
  13 H :    0.037026
  14 H :    0.031090
  15 H :    0.025471

  Mayer bond orders larger than 0.1
B(  0-C ,  1-C ) :   1.0703 B(  0-C ,  7-H ) :   0.9573 B(  0-C ,  8-H ) :   0.9604
B(  0-C ,  9-H ) :   0.9576 B(  1-C ,  2-C ) :   1.0766 B(  1-C ,  4-C ) :   0.9725
B(  1-C , 10-H ) :   0.8487 B(  2-C ,  3-N ) :   3.0344 B(  4-C ,  5-C ) :   1.0854
B(  4-C ,  6-C ) :   2.0183 B(  5-C , 11-H ) :   0.9433 B(  5-C , 12-H ) :   0.9446
B(  5-C , 13-H ) :   0.9463 B(  6-C , 14-H ) :   0.9140 B(  6-C , 15-H ) :   0.9276

FINAL SINGLE POINT ENERGY      -288.172867919701

DIPOLE MOMENT
-------------
                                X             Y             Z
Electronic contribution:      2.25889      -7.05948       1.26949
Nuclear contribution   :     -2.59739       8.59575      -1.22805
                        -----------------------------------------
Total Dipole Moment    :     -0.33849       1.53627       0.04144
                        -----------------------------------------
Magnitude (a.u.)       :      1.57366
Magnitude (Debye)      :      3.99993

                             ****ORCA TERMINATED NORMALLY****
TOTAL RUN TIME: 0 days 0 hours 0 minutes 7 seconds 141 msec
