                         Program Version 3.0.3 - RELEASE   -
|  1> ! RI PBE def2-SVP def2-SVP/J NBO PAL2
|  2> % maxcore 2000
|  3> % output
|  4>     # printlevel mini
|  5>     print[ P_Basis ] 0
|  6>     print[ P_SCFInfo ] 1
|  7>     print[ P_SCFIterInfo ] 1
|  8>     print[ P_OrbEn ] 0
|  9>     print[ P_Cartesian ] 0
| 10> end
| 11> *xyz 0 1
| 12>  C        1.1488320000    -0.0815540000    -0.1520100000
| 13>  C        2.6091900000    -0.1531660000     0.1555030000
| 14>  C        2.9816890000    -1.1055750000     1.2561520000
| 15>  N        2.4400230000    -0.6409760000     2.5304360000
| 16>  C        3.4984180000     0.6001610000    -0.5101170000
| 17>  C        4.9319610000     0.6571350000    -0.3162400000
| 18>  C        5.7437020000     1.4344400000    -1.0353230000
| 19>  H        0.7879700000    -1.0434370000    -0.5346310000
| 20>  H        0.9281630000     0.6864090000    -0.8944890000
| 21>  H        0.5797200000     0.1260960000     0.7578850000
| 22>  H        4.0644270000    -1.2764850000     1.2715140000
| 23>  H        2.5165820000    -2.0747290000     1.0397050000
| 24>  H        2.9152100000     0.2049710000     2.8210220000
| 25>  H        2.5872410000    -1.3334410000     3.2537320000
| 26>  H        3.1147640000     1.2564210000    -1.2898830000
| 27>  H        5.3677030000     0.0362340000     0.4611720000
| 28>  H        5.3598900000     2.0746680000    -1.8234770000
| 29>  H        6.8123160000     1.4549490000    -0.8602310000
| 30> *
| 31>
| 32>                          ****END OF INPUT****
 Total Charge           Charge          ....    0
 Multiplicity           Mult            ....    1
 Number of Electrons    NEL             ....   54
 Basis Dimension        Dim             ....  153

MULLIKEN ATOMIC CHARGES
-----------------------
   0 C :    0.076074
   1 C :   -0.205861
   2 C :    0.151251
   3 N :   -0.219060
   4 C :    0.008727
   5 C :   -0.003486
   6 C :   -0.046314
   7 H :    0.019193
   8 H :    0.013884
   9 H :    0.035849
  10 H :   -0.006938
  11 H :    0.000448
  12 H :    0.091633
  13 H :    0.091300
  14 H :   -0.031151
  15 H :   -0.015713
  16 H :    0.016558
  17 H :    0.023607
Sum of atomic charges:   -0.0000000

LOEWDIN ATOMIC CHARGES
----------------------
   0 C :   -0.055269
   1 C :   -0.031311
   2 C :    0.012618
   3 N :   -0.106381
   4 C :   -0.054382
   5 C :   -0.035875
   6 C :   -0.060918
   7 H :    0.035390
   8 H :    0.027690
   9 H :    0.037383
  10 H :    0.003031
  11 H :    0.027733
  12 H :    0.052941
  13 H :    0.052840
  14 H :    0.025789
  15 H :    0.023863
  16 H :    0.021082
  17 H :    0.023775

  Mayer bond orders larger than 0.1
B(  0-C ,  1-C ) :   1.0893 B(  0-C ,  7-H ) :   0.9340 B(  0-C ,  8-H ) :   0.9535
B(  0-C ,  9-H ) :   0.9337 B(  1-C ,  2-C ) :   1.0800 B(  1-C ,  4-C ) :   1.7528
B(  1-C ,  6-C ) :   0.1309 B(  2-C ,  3-N ) :   1.0852 B(  2-C , 10-H ) :   0.9080
B(  2-C , 11-H ) :   0.9038 B(  3-N , 12-H ) :   0.9678 B(  3-N , 13-H ) :   0.9650
B(  4-C ,  5-C ) :   1.1367 B(  4-C , 14-H ) :   0.9477 B(  5-C ,  6-C ) :   1.8855
B(  5-C , 15-H ) :   0.9526 B(  6-C , 16-H ) :   0.9506 B(  6-C , 17-H ) :   0.9413

FINAL SINGLE POINT ENERGY      -289.363422329542

DIPOLE MOMENT
-------------
                                X             Y             Z
Electronic contribution:      1.39312       0.44034      -0.15644
Nuclear contribution   :     -1.19842      -0.68163       0.50808
                        -----------------------------------------
Total Dipole Moment    :      0.19470      -0.24129       0.35164
                        -----------------------------------------
Magnitude (a.u.)       :      0.46881
Magnitude (Debye)      :      1.19161

                             ****ORCA TERMINATED NORMALLY****
TOTAL RUN TIME: 0 days 0 hours 0 minutes 8 seconds 169 msec
