                         Program Version 3.0.3 - RELEASE   -
|  1> ! RI PBE def2-SVP def2-SVP/J NBO PAL2
|  2> % maxcore 2000
|  3> % output
|  4>     # printlevel mini
|  5>     print[ P_Basis ] 0
|  6>     print[ P_SCFInfo ] 1
|  7>     print[ P_SCFIterInfo ] 1
|  8>     print[ P_OrbEn ] 0
|  9>     print[ P_Cartesian ] 0
| 10> end
| 11> *xyz 0 1
| 12>  C        0.8650180000    -0.1224440000     0.0787900000
| 13>  C        2.3530970000    -0.0441680000     0.1192520000
| 14>  C        2.9573170000     0.8449490000     1.1666950000
| 15>  N        2.3329210000     0.6588200000     2.4719220000
| 16>  C        3.1061800000    -0.7118610000    -0.7663950000
| 17>  C        4.5221810000    -0.7026260000    -0.8037780000
| 18>  C        5.7248390000    -0.7198240000    -0.8707920000
| 19>  H        0.4820420000    -0.5427960000     1.0135460000
| 20>  H        0.5159830000    -0.7429780000    -0.7469920000
| 21>  H        0.4227620000     0.8749720000    -0.0302290000
| 22>  H        2.8920790000     1.8841710000     0.7985690000
| 23>  H        4.0202870000     0.6148500000     1.2549750000
| 24>  H        1.4296750000     1.1142610000     2.5109520000
| 25>  H        2.9036540000     1.0860330000     3.1894600000
| 26>  H        2.6162020000    -1.3110580000    -1.5297930000
| 27>  H        6.7873330000    -0.7338700000    -0.9254720000
| 28> *
| 29>
| 30>                          ****END OF INPUT****
 Total Charge           Charge          ....    0
 Multiplicity           Mult            ....    1
 Number of Electrons    NEL             ....   52
 Basis Dimension        Dim             ....  143

MULLIKEN ATOMIC CHARGES
-----------------------
   0 C :    0.047762
   1 C :   -0.163542
   2 C :    0.131686
   3 N :   -0.216242
   4 C :   -0.059151
   5 C :    0.373372
   6 C :   -0.425780
   7 H :    0.044151
   8 H :    0.020374
   9 H :    0.025333
  10 H :    0.013632
  11 H :    0.016230
  12 H :    0.089607
  13 H :    0.093768
  14 H :    0.008903
  15 H :   -0.000103
Sum of atomic charges:   -0.0000000

LOEWDIN ATOMIC CHARGES
----------------------
   0 C :   -0.057081
   1 C :   -0.004466
   2 C :    0.011993
   3 N :   -0.107061
   4 C :   -0.076183
   5 C :   -0.019030
   6 C :   -0.081792
   7 H :    0.040387
   8 H :    0.032975
   9 H :    0.035297
  10 H :    0.014358
  11 H :    0.033053
  12 H :    0.048877
  13 H :    0.055781
  14 H :    0.039616
  15 H :    0.033276

  Mayer bond orders larger than 0.1
B(  0-C ,  1-C ) :   1.0885 B(  0-C ,  7-H ) :   0.9318 B(  0-C ,  8-H ) :   0.9496
B(  0-C ,  9-H ) :   0.9399 B(  1-C ,  2-C ) :   1.0559 B(  1-C ,  4-C ) :   1.7880
B(  1-C ,  6-C ) :   0.1265 B(  2-C ,  3-N ) :   1.0944 B(  2-C , 10-H ) :   0.9066
B(  2-C , 11-H ) :   0.9028 B(  3-N , 12-H ) :   0.9634 B(  3-N , 13-H ) :   0.9665
B(  4-C ,  5-C ) :   1.0303 B(  4-C , 14-H ) :   0.9391 B(  5-C ,  6-C ) :   2.2504
B(  6-C , 15-H ) :   1.0911

FINAL SINGLE POINT ENERGY      -288.117332967612

DIPOLE MOMENT
-------------
                                X             Y             Z
Electronic contribution:      4.63133      -1.99724      -2.52121
Nuclear contribution   :     -4.98827       2.64115       2.78418
                        -----------------------------------------
Total Dipole Moment    :     -0.35694       0.64391       0.26297
                        -----------------------------------------
Magnitude (a.u.)       :      0.78178
Magnitude (Debye)      :      1.98712

                             ****ORCA TERMINATED NORMALLY****
TOTAL RUN TIME: 0 days 0 hours 0 minutes 7 seconds 227 msec
