                         Program Version 3.0.3 - RELEASE   -
|  1> ! RI PBE def2-SVP def2-SVP/J NBO PAL2
|  2> % maxcore 2000
|  3> % output
|  4>     # printlevel mini
|  5>     print[ P_Basis ] 0
|  6>     print[ P_SCFInfo ] 1
|  7>     print[ P_SCFIterInfo ] 1
|  8>     print[ P_OrbEn ] 0
|  9>     print[ P_Cartesian ] 0
| 10> end
| 11> *xyz 0 1
| 12>  C        1.0443310000    -0.1673090000     0.0341200000
| 13>  C        2.5067610000     0.1475460000     0.3370820000
| 14>  C        2.8183750000     1.6252850000     0.0816830000
| 15>  N        2.6650240000     1.9466310000    -1.3289730000
| 16>  C        2.9106090000    -0.2682470000     1.7313510000
| 17>  C        2.2551310000     0.4275740000     2.8849400000
| 18>  C        3.8196000000    -1.2196050000     1.9249070000
| 19>  H        0.8023230000     0.1422510000    -0.9833910000
| 20>  H        0.3745380000     0.3697840000     0.7113090000
| 21>  H        0.8439740000    -1.2359440000     0.1372400000
| 22>  H        3.1274730000    -0.4328420000    -0.3575840000
| 23>  H        3.8216440000     1.8462200000     0.4780260000
| 24>  H        2.1113110000     2.2461100000     0.6418610000
| 25>  H        3.3987140000     1.5064750000    -1.8715170000
| 26>  H        2.7448180000     2.9436890000    -1.4807110000
| 27>  H        1.1684690000     0.3049150000     2.8613470000
| 28>  H        2.4510410000     1.5041690000     2.8635940000
| 29>  H        2.6190350000     0.0377350000     3.8362570000
| 30>  H        4.2963350000    -1.7239520000     1.0907700000
| 31>  H        4.1151640000    -1.5295150000     2.9217780000
| 32> *
| 33>
| 34>                          ****END OF INPUT****
 Total Charge           Charge          ....    0
 Multiplicity           Mult            ....    1
 Number of Electrons    NEL             ....   56
 Basis Dimension        Dim             ....  163

MULLIKEN ATOMIC CHARGES
-----------------------
   0 C :    0.042258
   1 C :   -0.070377
   2 C :    0.074364
   3 N :   -0.193624
   4 C :   -0.159764
   5 C :    0.056901
   6 C :   -0.028388
   7 H :    0.018780
   8 H :    0.005398
   9 H :    0.017590
  10 H :   -0.019181
  11 H :   -0.002745
  12 H :    0.002312
  13 H :    0.088568
  14 H :    0.089321
  15 H :    0.034727
  16 H :    0.034852
  17 H :    0.005768
  18 H :    0.002740
  19 H :    0.000502
Sum of atomic charges:   -0.0000000

LOEWDIN ATOMIC CHARGES
----------------------
   0 C :   -0.054462
   1 C :   -0.044151
   2 C :    0.011935
   3 N :   -0.104616
   4 C :   -0.022039
   5 C :   -0.059176
   6 C :   -0.080993
   7 H :    0.026175
   8 H :    0.020108
   9 H :    0.025036
  10 H :    0.024122
  11 H :    0.000780
  12 H :    0.017186
  13 H :    0.051201
  14 H :    0.053494
  15 H :    0.035816
  16 H :    0.035077
  17 H :    0.030795
  18 H :    0.016992
  19 H :    0.016717

  Mayer bond orders larger than 0.1
B(  0-C ,  1-C ) :   1.0667 B(  0-C ,  7-H ) :   0.9445 B(  0-C ,  8-H ) :   0.9544
B(  0-C ,  9-H ) :   0.9631 B(  1-C ,  2-C ) :   1.0390 B(  1-C ,  4-C ) :   1.0146
B(  1-C , 10-H ) :   0.8893 B(  2-C ,  3-N ) :   1.1145 B(  2-C , 11-H ) :   0.9373
B(  2-C , 12-H ) :   0.9195 B(  3-N , 13-H ) :   0.9680 B(  3-N , 14-H ) :   0.9651
B(  4-C ,  5-C ) :   1.0741 B(  4-C ,  6-C ) :   1.9936 B(  5-C , 15-H ) :   0.9424
B(  5-C , 16-H ) :   0.9415 B(  5-C , 17-H ) :   0.9409 B(  6-C , 18-H ) :   0.9320
B(  6-C , 19-H ) :   0.9297

FINAL SINGLE POINT ENERGY      -290.574746112166

DIPOLE MOMENT
-------------
                                X             Y             Z
Electronic contribution:      1.61678      -0.29789      -0.83698
Nuclear contribution   :     -1.31676       0.71834       0.78041
                        -----------------------------------------
Total Dipole Moment    :      0.30002       0.42045      -0.05656
                        -----------------------------------------
Magnitude (a.u.)       :      0.51961
Magnitude (Debye)      :      1.32073

                             ****ORCA TERMINATED NORMALLY****
TOTAL RUN TIME: 0 days 0 hours 0 minutes 8 seconds 791 msec
