                         Program Version 3.0.3 - RELEASE   -
|  1> ! RI PBE def2-SVP def2-SVP/J NBO PAL2
|  2> % maxcore 2000
|  3> % output
|  4>     # printlevel mini
|  5>     print[ P_Basis ] 0
|  6>     print[ P_SCFInfo ] 1
|  7>     print[ P_SCFIterInfo ] 1
|  8>     print[ P_OrbEn ] 0
|  9>     print[ P_Cartesian ] 0
| 10> end
| 11> *xyz 0 1
| 12>  C        1.0208810000     0.2363570000    -0.2309580000
| 13>  C        2.4356070000     0.3207280000     0.3202000000
| 14>  C        2.6302840000     1.5753110000     1.1644320000
| 15>  N        2.4699340000     2.7819810000     0.3638450000
| 16>  C        2.7886950000    -0.9405720000     1.1151170000
| 17>  C        4.2318030000    -1.0605370000     1.4771510000
| 18>  C        4.7094050000    -1.2343920000     2.7018840000
| 19>  H        0.7514740000     1.1619060000    -0.7409900000
| 20>  H        0.3027920000     0.0782720000     0.5806740000
| 21>  H        0.9171180000    -0.5949130000    -0.9331850000
| 22>  H        3.1330410000     0.3845550000    -0.5285300000
| 23>  H        3.6015900000     1.5141230000     1.6761450000
| 24>  H        1.8634640000     1.5878930000     1.9484540000
| 25>  H        3.2469740000     2.8796790000    -0.2791880000
| 26>  H        2.4767210000     3.6037750000     0.9542000000
| 27>  H        2.5085270000    -1.8091000000     0.5054520000
| 28>  H        2.1728470000    -0.9873780000     2.0210890000
| 29>  H        4.9335840000    -1.0091090000     0.6446870000
| 30>  H        4.0503770000    -1.2918590000     3.5631230000
| 31>  H        5.7726810000    -1.3303300000     2.8896100000
| 32> *
| 33>
| 34>                          ****END OF INPUT****
 Total Charge           Charge          ....    0
 Multiplicity           Mult            ....    1
 Number of Electrons    NEL             ....   56
 Basis Dimension        Dim             ....  163

MULLIKEN ATOMIC CHARGES
-----------------------
   0 C :    0.037629
   1 C :   -0.176765
   2 C :    0.097894
   3 N :   -0.198083
   4 C :    0.106124
   5 C :   -0.081508
   6 C :   -0.033338
   7 H :    0.023452
   8 H :    0.003586
   9 H :    0.012016
  10 H :   -0.001355
  11 H :   -0.006873
  12 H :   -0.002918
  13 H :    0.086405
  14 H :    0.087953
  15 H :    0.016616
  16 H :   -0.008063
  17 H :    0.000373
  18 H :    0.015322
  19 H :    0.021533
Sum of atomic charges:   -0.0000000

LOEWDIN ATOMIC CHARGES
----------------------
   0 C :   -0.060707
   1 C :   -0.049048
   2 C :    0.008280
   3 N :   -0.106610
   4 C :   -0.034967
   5 C :   -0.029600
   6 C :   -0.070476
   7 H :    0.025823
   8 H :    0.022626
   9 H :    0.021884
  10 H :    0.019921
  11 H :    0.001134
  12 H :    0.019004
  13 H :    0.049876
  14 H :    0.052831
  15 H :    0.035735
  16 H :    0.026099
  17 H :    0.024265
  18 H :    0.020629
  19 H :    0.023300

  Mayer bond orders larger than 0.1
B(  0-C ,  1-C ) :   1.0803 B(  0-C ,  7-H ) :   0.9487 B(  0-C ,  8-H ) :   0.9548
B(  0-C ,  9-H ) :   0.9600 B(  1-C ,  2-C ) :   1.0502 B(  1-C ,  4-C ) :   1.0435
B(  1-C , 10-H ) :   0.9095 B(  2-C ,  3-N ) :   1.0995 B(  2-C , 11-H ) :   0.9312
B(  2-C , 12-H ) :   0.9232 B(  3-N , 13-H ) :   0.9686 B(  3-N , 14-H ) :   0.9662
B(  4-C ,  5-C ) :   1.0644 B(  4-C , 15-H ) :   0.9107 B(  4-C , 16-H ) :   0.9173
B(  5-C ,  6-C ) :   1.9923 B(  5-C , 17-H ) :   0.9536 B(  6-C , 18-H ) :   0.9483
B(  6-C , 19-H ) :   0.9437

FINAL SINGLE POINT ENERGY      -290.571561343694

DIPOLE MOMENT
-------------
                                X             Y             Z
Electronic contribution:      1.83292      -0.04541       0.37276
Nuclear contribution   :     -1.47990       0.26056      -0.28542
                        -----------------------------------------
Total Dipole Moment    :      0.35302       0.21514       0.08734
                        -----------------------------------------
Magnitude (a.u.)       :      0.42254
Magnitude (Debye)      :      1.07401

                             ****ORCA TERMINATED NORMALLY****
TOTAL RUN TIME: 0 days 0 hours 0 minutes 8 seconds 99 msec
