                         Program Version 3.0.3 - RELEASE   -
|  1> ! RI PBE def2-SVP def2-SVP/J NBO PAL2
|  2> % maxcore 2000
|  3> % output
|  4>     # printlevel mini
|  5>     print[ P_Basis ] 0
|  6>     print[ P_SCFInfo ] 1
|  7>     print[ P_SCFIterInfo ] 1
|  8>     print[ P_OrbEn ] 0
|  9>     print[ P_Cartesian ] 0
| 10> end
| 11> *xyz 0 1
| 12>  C        1.0892970000     0.0923680000    -0.1631510000
| 13>  C        2.5562710000    -0.0181050000     0.2183570000
| 14>  C        2.7712750000     0.2404610000     1.7052260000
| 15>  N        2.4248230000     1.6114600000     2.0519210000
| 16>  C        3.1106360000    -1.3909280000    -0.1849130000
| 17>  C        4.5521970000    -1.5181830000    -0.0469180000
| 18>  C        5.7454420000    -1.6098390000     0.0558070000
| 19>  H        0.6794240000     1.0406010000     0.1859580000
| 20>  H        0.5097590000    -0.7151270000     0.2966330000
| 21>  H        0.9513350000     0.0283320000    -1.2455720000
| 22>  H        3.1234290000     0.7405370000    -0.3366360000
| 23>  H        3.8037590000    -0.0320090000     1.9664900000
| 24>  H        2.1125650000    -0.4275880000     2.2730130000
| 25>  H        3.1162330000     2.2509610000     1.6782240000
| 26>  H        2.4261140000     1.7359100000     3.0559610000
| 27>  H        2.8393320000    -1.5941420000    -1.2263020000
| 28>  H        2.6208860000    -2.1682920000     0.4147210000
| 29>  H        6.8021130000    -1.6969470000     0.1462710000
| 30> *
| 31>
| 32>                          ****END OF INPUT****
 Total Charge           Charge          ....    0
 Multiplicity           Mult            ....    1
 Number of Electrons    NEL             ....   54
 Basis Dimension        Dim             ....  153

MULLIKEN ATOMIC CHARGES
-----------------------
   0 C :    0.052498
   1 C :   -0.172919
   2 C :    0.100529
   3 N :   -0.200555
   4 C :    0.111591
   5 C :    0.354518
   6 C :   -0.517103
   7 H :    0.023873
   8 H :    0.002979
   9 H :    0.013690
  10 H :    0.009063
  11 H :   -0.000254
  12 H :   -0.007949
  13 H :    0.090599
  14 H :    0.090534
  15 H :    0.029586
  16 H :    0.025319
  17 H :   -0.005998
Sum of atomic charges:    0.0000000

LOEWDIN ATOMIC CHARGES
----------------------
   0 C :   -0.058667
   1 C :   -0.041744
   2 C :    0.010379
   3 N :   -0.105899
   4 C :   -0.041193
   5 C :   -0.021095
   6 C :   -0.098054
   7 H :    0.027913
   8 H :    0.022567
   9 H :    0.022992
  10 H :    0.025657
  11 H :    0.005188
  12 H :    0.018242
  13 H :    0.052047
  14 H :    0.053988
  15 H :    0.048884
  16 H :    0.046400
  17 H :    0.032394

  Mayer bond orders larger than 0.1
B(  0-C ,  1-C ) :   1.0809 B(  0-C ,  7-H ) :   0.9472 B(  0-C ,  8-H ) :   0.9537
B(  0-C ,  9-H ) :   0.9592 B(  1-C ,  2-C ) :   1.0473 B(  1-C ,  4-C ) :   1.0409
B(  1-C , 10-H ) :   0.9118 B(  2-C ,  3-N ) :   1.1056 B(  2-C , 11-H ) :   0.9341
B(  2-C , 12-H ) :   0.9214 B(  3-N , 13-H ) :   0.9692 B(  3-N , 14-H ) :   0.9656
B(  4-C ,  5-C ) :   1.0645 B(  4-C , 15-H ) :   0.8950 B(  4-C , 16-H ) :   0.8819
B(  5-C ,  6-C ) :   2.2961 B(  5-C , 17-H ) :  -0.1166 B(  6-C , 17-H ) :   1.1076

FINAL SINGLE POINT ENERGY      -289.329775083527

DIPOLE MOMENT
-------------
                                X             Y             Z
Electronic contribution:      4.95633      -2.13877      -0.65457
Nuclear contribution   :     -4.81335       2.28030       0.92542
                        -----------------------------------------
Total Dipole Moment    :      0.14299       0.14154       0.27084
                        -----------------------------------------
Magnitude (a.u.)       :      0.33739
Magnitude (Debye)      :      0.85758

                             ****ORCA TERMINATED NORMALLY****
TOTAL RUN TIME: 0 days 0 hours 0 minutes 7 seconds 882 msec
