                         Program Version 3.0.3 - RELEASE   -
|  1> ! RI PBE def2-SVP def2-SVP/J NBO PAL2
|  2> % maxcore 2000
|  3> % output
|  4>     # printlevel mini
|  5>     print[ P_Basis ] 0
|  6>     print[ P_SCFInfo ] 1
|  7>     print[ P_SCFIterInfo ] 1
|  8>     print[ P_OrbEn ] 0
|  9>     print[ P_Cartesian ] 0
| 10> end
| 11> *xyz 0 1
| 12>  C        3.0122500000     0.6707340000     1.0328200000
| 13>  C        2.4197550000     0.3598070000    -0.3305320000
| 14>  C        3.0677410000    -0.8361000000    -1.0418550000
| 15>  N        2.3669630000    -1.2343200000    -2.2620440000
| 16>  C        4.5005470000    -0.5598660000    -1.3741650000
| 17>  C        5.5470170000    -1.2006760000    -0.8716260000
| 18>  C        6.9714600000    -0.9138410000    -1.2019980000
| 19>  H        2.4993890000     1.5114990000     1.5053510000
| 20>  H        4.0725460000     0.9213700000     0.9569860000
| 21>  H        2.9253280000    -0.1894730000     1.7031890000
| 22>  H        2.4956190000     1.2371330000    -0.9852410000
| 23>  H        1.3488370000     0.1482640000    -0.2257570000
| 24>  H        3.0380710000    -1.6935940000    -0.3576910000
| 25>  H        2.4756440000    -0.5171270000    -2.9712370000
| 26>  H        1.3720280000    -1.3104740000    -2.0805300000
| 27>  H        4.6693860000     0.2496250000    -2.0879560000
| 28>  H        5.3678800000    -2.0085400000    -0.1630730000
| 29>  H        7.0590660000    -0.0949980000    -1.9188350000
| 30>  H        7.4602050000    -1.7952600000    -1.6292850000
| 31>  H        7.5398560000    -0.6454640000    -0.3056310000
| 32> *
| 33>
| 34>                          ****END OF INPUT****
 Total Charge           Charge          ....    0
 Multiplicity           Mult            ....    1
 Number of Electrons    NEL             ....   56
 Basis Dimension        Dim             ....  163

MULLIKEN ATOMIC CHARGES
-----------------------
   0 C :   -0.018417
   1 C :   -0.011353
   2 C :   -0.002545
   3 N :   -0.160734
   4 C :   -0.014829
   5 C :   -0.101405
   6 C :    0.030218
   7 H :    0.016909
   8 H :    0.025527
   9 H :    0.018205
  10 H :   -0.001627
  11 H :   -0.000850
  12 H :   -0.005356
  13 H :    0.080617
  14 H :    0.079882
  15 H :   -0.019146
  16 H :   -0.004593
  17 H :    0.020549
  18 H :    0.035846
  19 H :    0.033102
Sum of atomic charges:   -0.0000000

LOEWDIN ATOMIC CHARGES
----------------------
   0 C :   -0.070666
   1 C :   -0.059178
   2 C :   -0.003255
   3 N :   -0.093386
   4 C :   -0.040986
   5 C :   -0.038236
   6 C :   -0.067334
   7 H :    0.026432
   8 H :    0.026009
   9 H :    0.024811
  10 H :    0.017416
  11 H :    0.018236
  12 H :    0.021333
  13 H :    0.046478
  14 H :    0.047058
  15 H :    0.017805
  16 H :    0.022681
  17 H :    0.030531
  18 H :    0.037768
  19 H :    0.036483

  Mayer bond orders larger than 0.1
B(  0-C ,  1-C ) :   1.1008 B(  0-C ,  7-H ) :   0.9539 B(  0-C ,  8-H ) :   0.9614
B(  0-C ,  9-H ) :   0.9632 B(  1-C ,  2-C ) :   1.0283 B(  1-C , 10-H ) :   0.9292
B(  1-C , 11-H ) :   0.9245 B(  2-C ,  3-N ) :   1.0700 B(  2-C ,  4-C ) :   1.0079
B(  2-C , 12-H ) :   0.9126 B(  3-N , 13-H ) :   0.9687 B(  3-N , 14-H ) :   0.9638
B(  4-C ,  5-C ) :   1.9337 B(  4-C , 15-H ) :   0.9414 B(  5-C ,  6-C ) :   1.0861
B(  5-C , 16-H ) :   0.9548 B(  6-C , 17-H ) :   0.9597 B(  6-C , 18-H ) :   0.9454
B(  6-C , 19-H ) :   0.9460

FINAL SINGLE POINT ENERGY      -290.576870081770

DIPOLE MOMENT
-------------
                                X             Y             Z
Electronic contribution:     -0.91549      -2.01084      -2.40082
Nuclear contribution   :      0.82456       2.37603       2.51336
                        -----------------------------------------
Total Dipole Moment    :     -0.09094       0.36518       0.11255
                        -----------------------------------------
Magnitude (a.u.)       :      0.39280
Magnitude (Debye)      :      0.99843

                             ****ORCA TERMINATED NORMALLY****
TOTAL RUN TIME: 0 days 0 hours 0 minutes 8 seconds 593 msec
