                         Program Version 3.0.3 - RELEASE   -
|  1> ! RI PBE def2-SVP def2-SVP/J NBO PAL2
|  2> % maxcore 2000
|  3> % output
|  4>     # printlevel mini
|  5>     print[ P_Basis ] 0
|  6>     print[ P_SCFInfo ] 1
|  7>     print[ P_SCFIterInfo ] 1
|  8>     print[ P_OrbEn ] 0
|  9>     print[ P_Cartesian ] 0
| 10> end
| 11> *xyz 0 1
| 12>  C        1.1432790000     0.1388430000     0.3260180000
| 13>  C        2.6550670000     0.2895630000     0.3424960000
| 14>  C        3.2264200000     0.9019800000    -0.9392080000
| 15>  N        2.7567840000     2.2541210000    -1.2213600000
| 16>  C        4.7636060000     0.8568880000    -0.9711530000
| 17>  C        5.2856110000     1.1176840000    -2.3766870000
| 18>  C        5.4064430000     1.8180540000     0.0222260000
| 19>  H        0.7807210000    -0.3331940000     1.2418520000
| 20>  H        0.8173490000    -0.4796450000    -0.5158730000
| 21>  H        0.6417710000     1.1064580000     0.2415820000
| 22>  H        3.1153940000    -0.6930010000     0.4975220000
| 23>  H        2.9507390000     0.9055520000     1.1999690000
| 24>  H        2.8817140000     0.2806210000    -1.7767350000
| 25>  H        2.8653630000     2.8455700000    -0.4053270000
| 26>  H        1.7725450000     2.2524440000    -1.4533850000
| 27>  H        5.0479390000    -0.1634530000    -0.6835700000
| 28>  H        4.9662320000     2.1037490000    -2.7207840000
| 29>  H        4.9058320000     0.3757970000    -3.0846880000
| 30>  H        6.3777990000     1.0785830000    -2.4041870000
| 31>  H        5.1918880000     2.8565110000    -0.2460160000
| 32>  H        6.4929750000     1.7022780000     0.0160240000
| 33>  H        5.0664180000     1.6495950000     1.0469640000
| 34> *
| 35>
| 36>                          ****END OF INPUT****
 Total Charge           Charge          ....    0
 Multiplicity           Mult            ....    1
 Number of Electrons    NEL             ....   58
 Basis Dimension        Dim             ....  173

MULLIKEN ATOMIC CHARGES
-----------------------
   0 C :   -0.000234
   1 C :    0.015156
   2 C :   -0.061590
   3 N :   -0.166779
   4 C :   -0.073323
   5 C :    0.033021
   6 C :   -0.016542
   7 H :    0.019382
   8 H :    0.014411
   9 H :   -0.002847
  10 H :   -0.002124
  11 H :    0.000198
  12 H :   -0.008318
  13 H :    0.084363
  14 H :    0.087324
  15 H :   -0.010803
  16 H :    0.017760
  17 H :    0.004922
  18 H :    0.011715
  19 H :    0.021036
  20 H :    0.020739
  21 H :    0.012535
Sum of atomic charges:    0.0000000

LOEWDIN ATOMIC CHARGES
----------------------
   0 C :   -0.070259
   1 C :   -0.058673
   2 C :    0.001015
   3 N :   -0.084950
   4 C :   -0.045015
   5 C :   -0.060541
   6 C :   -0.066063
   7 H :    0.027909
   8 H :    0.023995
   9 H :    0.014081
  10 H :    0.023142
  11 H :    0.018029
  12 H :    0.019601
  13 H :    0.047124
  14 H :    0.049630
  15 H :    0.020430
  16 H :    0.024430
  17 H :    0.021958
  18 H :    0.021573
  19 H :    0.023888
  20 H :    0.028063
  21 H :    0.020628

  Mayer bond orders larger than 0.1
B(  0-C ,  1-C ) :   1.1162 B(  0-C ,  7-H ) :   0.9591 B(  0-C ,  8-H ) :   0.9635
B(  0-C ,  9-H ) :   0.9529 B(  1-C ,  2-C ) :   1.0427 B(  1-C , 10-H ) :   0.9167
B(  1-C , 11-H ) :   0.9191 B(  2-C ,  3-N ) :   1.0971 B(  2-C ,  4-C ) :   1.0300
B(  2-C , 12-H ) :   0.9096 B(  3-N , 13-H ) :   0.9648 B(  3-N , 14-H ) :   0.9691
B(  4-C ,  5-C ) :   1.0852 B(  4-C ,  6-C ) :   1.0709 B(  4-C , 15-H ) :   0.9071
B(  5-C , 16-H ) :   0.9537 B(  5-C , 17-H ) :   0.9537 B(  5-C , 18-H ) :   0.9596
B(  6-C , 19-H ) :   0.9593 B(  6-C , 20-H ) :   0.9581 B(  6-C , 21-H ) :   0.9586

FINAL SINGLE POINT ENERGY      -291.797446983982

DIPOLE MOMENT
-------------
                                X             Y             Z
Electronic contribution:     -0.39295       0.48369      -0.82180
Nuclear contribution   :      0.06733      -0.58225       1.16401
                        -----------------------------------------
Total Dipole Moment    :     -0.32562      -0.09856       0.34222
                        -----------------------------------------
Magnitude (a.u.)       :      0.48255
Magnitude (Debye)      :      1.22655

                             ****ORCA TERMINATED NORMALLY****
TOTAL RUN TIME: 0 days 0 hours 0 minutes 9 seconds 397 msec
