                         Program Version 3.0.3 - RELEASE   -
|  1> ! RI PBE def2-SVP def2-SVP/J NBO PAL2
|  2> % maxcore 2000
|  3> % output
|  4>     # printlevel mini
|  5>     print[ P_Basis ] 0
|  6>     print[ P_SCFInfo ] 1
|  7>     print[ P_SCFIterInfo ] 1
|  8>     print[ P_OrbEn ] 0
|  9>     print[ P_Cartesian ] 0
| 10> end
| 11> *xyz 0 1
| 12>  C        1.1183510000    -0.0818930000     0.1825790000
| 13>  C        2.5065790000     0.1910840000     0.7373020000
| 14>  C        3.3930630000     0.9853890000    -0.2198000000
| 15>  N        2.8855310000     2.3141230000    -0.5605070000
| 16>  C        4.8296940000     1.1416520000     0.2332580000
| 17>  C        5.7667380000     1.6629610000    -0.8107770000
| 18>  C        5.2418250000     0.8537000000     1.4640350000
| 19>  H        0.5312430000    -0.6899690000     0.8740700000
| 20>  H        1.1705950000    -0.6216580000    -0.7678540000
| 21>  H        0.5579750000     0.8411970000     0.0119310000
| 22>  H        2.9974790000    -0.7604230000     0.9658090000
| 23>  H        2.4221490000     0.7348920000     1.6853890000
| 24>  H        3.4286960000     0.4289660000    -1.1684880000
| 25>  H        2.7705890000     2.8644480000     0.2836140000
| 26>  H        1.9800860000     2.2506140000    -1.0076900000
| 27>  H        5.8415770000     0.9570420000    -1.6453730000
| 28>  H        6.7674980000     1.8225070000    -0.4073810000
| 29>  H        5.3902360000     2.6007410000    -1.2249630000
| 30>  H        4.5763960000     0.4702930000     2.2276140000
| 31>  H        6.2792080000     0.9927430000     1.7489300000
| 32> *
| 33>
| 34>                          ****END OF INPUT****
 Total Charge           Charge          ....    0
 Multiplicity           Mult            ....    1
 Number of Electrons    NEL             ....   56
 Basis Dimension        Dim             ....  163

MULLIKEN ATOMIC CHARGES
-----------------------
   0 C :   -0.016384
   1 C :   -0.004986
   2 C :    0.009462
   3 N :   -0.178283
   4 C :   -0.168064
   5 C :    0.094102
   6 C :   -0.031145
   7 H :    0.026093
   8 H :    0.017460
   9 H :    0.001460
  10 H :    0.012838
  11 H :    0.010576
  12 H :   -0.003858
  13 H :    0.088132
  14 H :    0.085957
  15 H :    0.018906
  16 H :    0.005194
  17 H :    0.027516
  18 H :    0.004763
  19 H :    0.000261
Sum of atomic charges:   -0.0000000

LOEWDIN ATOMIC CHARGES
----------------------
   0 C :   -0.072221
   1 C :   -0.057862
   2 C :    0.003081
   3 N :   -0.084431
   4 C :   -0.028989
   5 C :   -0.055859
   6 C :   -0.080511
   7 H :    0.030190
   8 H :    0.025404
   9 H :    0.015145
  10 H :    0.027118
  11 H :    0.020571
  12 H :    0.026202
  13 H :    0.051623
  14 H :    0.047887
  15 H :    0.034657
  16 H :    0.026678
  17 H :    0.034608
  18 H :    0.017050
  19 H :    0.019659

  Mayer bond orders larger than 0.1
B(  0-C ,  1-C ) :   1.1163 B(  0-C ,  7-H ) :   0.9577 B(  0-C ,  8-H ) :   0.9608
B(  0-C ,  9-H ) :   0.9512 B(  1-C ,  2-C ) :   1.0577 B(  1-C , 10-H ) :   0.9150
B(  1-C , 11-H ) :   0.9133 B(  2-C ,  3-N ) :   1.0864 B(  2-C ,  4-C ) :   0.9973
B(  2-C , 12-H ) :   0.8909 B(  3-N , 13-H ) :   0.9664 B(  3-N , 14-H ) :   0.9688
B(  4-C ,  5-C ) :   1.0907 B(  4-C ,  6-C ) :   1.9903 B(  5-C , 15-H ) :   0.9375
B(  5-C , 16-H ) :   0.9480 B(  5-C , 17-H ) :   0.9348 B(  6-C , 18-H ) :   0.9229
B(  6-C , 19-H ) :   0.9261

FINAL SINGLE POINT ENERGY      -290.577844252686

DIPOLE MOMENT
-------------
                                X             Y             Z
Electronic contribution:      1.89026       1.22705       0.18564
Nuclear contribution   :     -2.32765      -1.31709      -0.09892
                        -----------------------------------------
Total Dipole Moment    :     -0.43739      -0.09003       0.08673
                        -----------------------------------------
Magnitude (a.u.)       :      0.45490
Magnitude (Debye)      :      1.15627

                             ****ORCA TERMINATED NORMALLY****
TOTAL RUN TIME: 0 days 0 hours 0 minutes 8 seconds 769 msec
