                         Program Version 3.0.3 - RELEASE   -
|  1> ! RI PBE def2-SVP def2-SVP/J NBO PAL2
|  2> % maxcore 2000
|  3> % output
|  4>     # printlevel mini
|  5>     print[ P_Basis ] 0
|  6>     print[ P_SCFInfo ] 1
|  7>     print[ P_SCFIterInfo ] 1
|  8>     print[ P_OrbEn ] 0
|  9>     print[ P_Cartesian ] 0
| 10> end
| 11> *xyz 0 1
| 12>  C        2.8551620000     0.7984230000    -1.0975830000
| 13>  C        2.4716950000    -0.0840900000     0.0761380000
| 14>  C        3.0115630000     0.4053660000     1.4288650000
| 15>  N        2.5390760000    -0.3628640000     2.5780380000
| 16>  C        4.4726360000     0.4340140000     1.4317130000
| 17>  C        5.6750330000     0.4328310000     1.4134520000
| 18>  C        7.1260180000     0.4442740000     1.4092250000
| 19>  H        2.4306700000     0.4203430000    -2.0301220000
| 20>  H        3.9400240000     0.8445460000    -1.2131680000
| 21>  H        2.4915840000     1.8206820000    -0.9580390000
| 22>  H        2.8269230000    -1.1077600000    -0.0849030000
| 23>  H        1.3801270000    -0.1371220000     0.1612550000
| 24>  H        2.6608070000     1.4370640000     1.5710360000
| 25>  H        2.9341950000    -1.2957640000     2.5497340000
| 26>  H        1.5313390000    -0.4619230000     2.5281850000
| 27>  H        7.5257610000    -0.2106660000     0.6309490000
| 28>  H        7.5208920000     0.1042350000     2.3698820000
| 29>  H        7.5086750000     1.4521280000     1.2291210000
| 30> *
| 31>
| 32>                          ****END OF INPUT****
 Total Charge           Charge          ....    0
 Multiplicity           Mult            ....    1
 Number of Electrons    NEL             ....   54
 Basis Dimension        Dim             ....  153

MULLIKEN ATOMIC CHARGES
-----------------------
   0 C :   -0.009616
   1 C :   -0.015656
   2 C :    0.021648
   3 N :   -0.162445
   4 C :   -0.027908
   5 C :   -0.252205
   6 C :    0.057031
   7 H :    0.015749
   8 H :    0.033579
   9 H :    0.013013
  10 H :    0.002084
  11 H :    0.005117
  12 H :    0.011988
  13 H :    0.088492
  14 H :    0.083034
  15 H :    0.044843
  16 H :    0.046376
  17 H :    0.044877
Sum of atomic charges:    0.0000000

LOEWDIN ATOMIC CHARGES
----------------------
   0 C :   -0.067124
   1 C :   -0.053611
   2 C :   -0.008328
   3 N :   -0.087270
   4 C :   -0.058806
   5 C :   -0.065951
   6 C :   -0.067703
   7 H :    0.026942
   8 H :    0.029593
   9 H :    0.024891
  10 H :    0.021099
  11 H :    0.019167
  12 H :    0.037367
  13 H :    0.051361
  14 H :    0.048928
  15 H :    0.048558
  16 H :    0.050908
  17 H :    0.049979

  Mayer bond orders larger than 0.1
B(  0-C ,  1-C ) :   1.0996 B(  0-C ,  7-H ) :   0.9546 B(  0-C ,  8-H ) :   0.9649
B(  0-C ,  9-H ) :   0.9607 B(  1-C ,  2-C ) :   1.0455 B(  1-C , 10-H ) :   0.9211
B(  1-C , 11-H ) :   0.9302 B(  2-C ,  3-N ) :   1.0940 B(  2-C ,  4-C ) :   1.0021
B(  2-C , 12-H ) :   0.8643 B(  3-N , 13-H ) :   0.9656 B(  3-N , 14-H ) :   0.9656
B(  4-C ,  5-C ) :   2.6048 B(  5-C ,  6-C ) :   1.1384 B(  6-C , 15-H ) :   0.9327
B(  6-C , 16-H ) :   0.9309 B(  6-C , 17-H ) :   0.9332

FINAL SINGLE POINT ENERGY      -289.339529470558

DIPOLE MOMENT
-------------
                                X             Y             Z
Electronic contribution:      0.93951      -0.07872       3.78325
Nuclear contribution   :     -0.92912      -0.18302      -4.16091
                        -----------------------------------------
Total Dipole Moment    :      0.01039      -0.26174      -0.37766
                        -----------------------------------------
Magnitude (a.u.)       :      0.45961
Magnitude (Debye)      :      1.16823

                             ****ORCA TERMINATED NORMALLY****
TOTAL RUN TIME: 0 days 0 hours 0 minutes 7 seconds 350 msec
