                         Program Version 3.0.3 - RELEASE   -
|  1> ! RI PBE def2-SVP def2-SVP/J NBO PAL2
|  2> % maxcore 2000
|  3> % output
|  4>     # printlevel mini
|  5>     print[ P_Basis ] 0
|  6>     print[ P_SCFInfo ] 1
|  7>     print[ P_SCFIterInfo ] 1
|  8>     print[ P_OrbEn ] 0
|  9>     print[ P_Cartesian ] 0
| 10> end
| 11> *xyz 0 1
| 12>  C        2.8014840000    -0.5670250000    -1.5400600000
| 13>  C        2.3868610000    -0.0334320000    -0.1789010000
| 14>  C        2.8826850000    -0.8489150000     1.0217090000
| 15>  N        2.3816240000    -2.2161320000     1.0854340000
| 16>  C        4.4083840000    -0.8956450000     1.1292230000
| 17>  C        5.0447910000     0.4466930000     1.2568350000
| 18>  C        6.0046340000     0.9220400000     0.4751500000
| 19>  H        2.3552150000     0.0265830000    -2.3407920000
| 20>  H        2.4763640000    -1.6009980000    -1.6874530000
| 21>  H        3.8848600000    -0.5326870000    -1.6765690000
| 22>  H        1.2927020000     0.0117280000    -0.1238130000
| 23>  H        2.7403910000     0.9978450000    -0.0716240000
| 24>  H        2.5131710000    -0.3429520000     1.9231940000
| 25>  H        2.7331630000    -2.7587930000     0.3047380000
| 26>  H        1.3706590000    -2.2271450000     1.0168030000
| 27>  H        4.8304060000    -1.4267210000     0.2686360000
| 28>  H        4.6426400000    -1.4990430000     2.0135160000
| 29>  H        4.6802840000     1.0689670000     2.0739320000
| 30>  H        6.4033490000     0.3403020000    -0.3507360000
| 31>  H        6.4334540000     1.9047400000     0.6344760000
| 32> *
| 33>
| 34>                          ****END OF INPUT****
 Total Charge           Charge          ....    0
 Multiplicity           Mult            ....    1
 Number of Electrons    NEL             ....   56
 Basis Dimension        Dim             ....  163

MULLIKEN ATOMIC CHARGES
-----------------------
   0 C :   -0.027571
   1 C :    0.002321
   2 C :   -0.063867
   3 N :   -0.170850
   4 C :    0.097233
   5 C :   -0.087327
   6 C :   -0.032456
   7 H :    0.021359
   8 H :   -0.006647
   9 H :    0.025216
  10 H :    0.007575
  11 H :    0.009507
  12 H :   -0.003962
  13 H :    0.085242
  14 H :    0.083934
  15 H :   -0.005220
  16 H :    0.025716
  17 H :    0.003458
  18 H :    0.015213
  19 H :    0.021123
Sum of atomic charges:   -0.0000000

LOEWDIN ATOMIC CHARGES
----------------------
   0 C :   -0.072232
   1 C :   -0.061504
   2 C :    0.002499
   3 N :   -0.093529
   4 C :   -0.042608
   5 C :   -0.026413
   6 C :   -0.068594
   7 H :    0.030262
   8 H :    0.013386
   9 H :    0.025176
  10 H :    0.020106
  11 H :    0.025604
  12 H :    0.020108
  13 H :    0.045818
  14 H :    0.050681
  15 H :    0.022890
  16 H :    0.039572
  17 H :    0.025354
  18 H :    0.019840
  19 H :    0.023583

  Mayer bond orders larger than 0.1
B(  0-C ,  1-C ) :   1.1117 B(  0-C ,  7-H ) :   0.9568 B(  0-C ,  8-H ) :   0.9525
B(  0-C ,  9-H ) :   0.9648 B(  1-C ,  2-C ) :   1.0441 B(  1-C , 10-H ) :   0.9330
B(  1-C , 11-H ) :   0.9088 B(  2-C ,  3-N ) :   1.0974 B(  2-C ,  4-C ) :   1.0485
B(  2-C , 12-H ) :   0.9067 B(  3-N , 13-H ) :   0.9681 B(  3-N , 14-H ) :   0.9677
B(  4-C ,  5-C ) :   1.0627 B(  4-C , 15-H ) :   0.9203 B(  4-C , 16-H ) :   0.9005
B(  5-C ,  6-C ) :   1.9952 B(  5-C , 17-H ) :   0.9534 B(  6-C , 18-H ) :   0.9472
B(  6-C , 19-H ) :   0.9415

FINAL SINGLE POINT ENERGY      -290.573174344526

DIPOLE MOMENT
-------------
                                X             Y             Z
Electronic contribution:      0.83569      -0.26890       3.11870
Nuclear contribution   :     -1.11833       0.33346      -3.44671
                        -----------------------------------------
Total Dipole Moment    :     -0.28265       0.06456      -0.32801
                        -----------------------------------------
Magnitude (a.u.)       :      0.43777
Magnitude (Debye)      :      1.11274

                             ****ORCA TERMINATED NORMALLY****
TOTAL RUN TIME: 0 days 0 hours 0 minutes 8 seconds 819 msec
