                         Program Version 3.0.3 - RELEASE   -
|  1> ! RI PBE def2-SVP def2-SVP/J NBO PAL2
|  2> % maxcore 2000
|  3> % output
|  4>     # printlevel mini
|  5>     print[ P_Basis ] 0
|  6>     print[ P_SCFInfo ] 1
|  7>     print[ P_SCFIterInfo ] 1
|  8>     print[ P_OrbEn ] 0
|  9>     print[ P_Cartesian ] 0
| 10> end
| 11> *xyz 0 1
| 12>  C        1.1159800000    -0.2834680000    -0.1994880000
| 13>  C        2.6227560000    -0.3092060000    -0.0141470000
| 14>  C        3.0732190000     0.0235290000     1.4077160000
| 15>  N        2.6160840000    -0.9019980000     2.4346220000
| 16>  C        4.6013610000     0.1035050000     1.5110510000
| 17>  C        5.2014610000     1.1291960000     0.6770170000
| 18>  C        5.6886070000     1.9878330000    -0.0069310000
| 19>  H        0.8425420000    -0.5012550000    -1.2340350000
| 20>  H        0.7052430000     0.6993730000     0.0499420000
| 21>  H        0.6146160000    -1.0245420000     0.4290530000
| 22>  H        3.0897220000     0.4008280000    -0.7039550000
| 23>  H        3.0150170000    -1.3003100000    -0.2785140000
| 24>  H        2.6755470000     1.0106850000     1.6723430000
| 25>  H        2.8798140000    -1.8521730000     2.1944970000
| 26>  H        1.6068400000    -0.8875780000     2.5055810000
| 27>  H        5.0291740000    -0.8720560000     1.2465180000
| 28>  H        4.8603760000     0.2831120000     2.5582480000
| 29>  H        6.1258500000     2.7476260000    -0.6101480000
| 30> *
| 31>
| 32>                          ****END OF INPUT****
 Total Charge           Charge          ....    0
 Multiplicity           Mult            ....    1
 Number of Electrons    NEL             ....   54
 Basis Dimension        Dim             ....  153

MULLIKEN ATOMIC CHARGES
-----------------------
   0 C :   -0.003004
   1 C :    0.003579
   2 C :   -0.090253
   3 N :   -0.164238
   4 C :    0.140804
   5 C :    0.340742
   6 C :   -0.510060
   7 H :    0.022947
   8 H :    0.016272
   9 H :   -0.000198
  10 H :    0.020691
  11 H :   -0.009481
  12 H :    0.008703
  13 H :    0.084262
  14 H :    0.088295
  15 H :    0.016904
  16 H :    0.039119
  17 H :   -0.005084
Sum of atomic charges:   -0.0000000

LOEWDIN ATOMIC CHARGES
----------------------
   0 C :   -0.069684
   1 C :   -0.058603
   2 C :    0.008110
   3 N :   -0.089865
   4 C :   -0.046145
   5 C :   -0.019118
   6 C :   -0.096289
   7 H :    0.029906
   8 H :    0.025641
   9 H :    0.014189
  10 H :    0.030947
  11 H :    0.018164
  12 H :    0.024898
  13 H :    0.049338
  14 H :    0.051067
  15 H :    0.043144
  16 H :    0.051343
  17 H :    0.032958

  Mayer bond orders larger than 0.1
B(  0-C ,  1-C ) :   1.1161 B(  0-C ,  7-H ) :   0.9600 B(  0-C ,  8-H ) :   0.9642
B(  0-C ,  9-H ) :   0.9543 B(  1-C ,  2-C ) :   1.0329 B(  1-C , 10-H ) :   0.9170
B(  1-C , 11-H ) :   0.9211 B(  2-C ,  3-N ) :   1.1019 B(  2-C ,  4-C ) :   1.0458
B(  2-C , 12-H ) :   0.9106 B(  3-N , 13-H ) :   0.9654 B(  3-N , 14-H ) :   0.9699
B(  4-C ,  5-C ) :   1.0476 B(  4-C , 15-H ) :   0.8814 B(  4-C , 16-H ) :   0.8920
B(  5-C ,  6-C ) :   2.3140 B(  5-C , 17-H ) :  -0.1141 B(  6-C , 17-H ) :   1.1047

FINAL SINGLE POINT ENERGY      -289.332404102931

DIPOLE MOMENT
-------------
                                X             Y             Z
Electronic contribution:      5.80436       2.77096       1.19494
Nuclear contribution   :     -6.21610      -3.12390      -1.41209
                        -----------------------------------------
Total Dipole Moment    :     -0.41174      -0.35293      -0.21715
                        -----------------------------------------
Magnitude (a.u.)       :      0.58416
Magnitude (Debye)      :      1.48481

                             ****ORCA TERMINATED NORMALLY****
TOTAL RUN TIME: 0 days 0 hours 0 minutes 7 seconds 753 msec
