                         Program Version 3.0.3 - RELEASE   -
|  1> ! RI PBE def2-SVP def2-SVP/J NBO PAL2
|  2> % maxcore 2000
|  3> % output
|  4>     # printlevel mini
|  5>     print[ P_Basis ] 0
|  6>     print[ P_SCFInfo ] 1
|  7>     print[ P_SCFIterInfo ] 1
|  8>     print[ P_OrbEn ] 0
|  9>     print[ P_Cartesian ] 0
| 10> end
| 11> *xyz 0 1
| 12>  C        3.0021600000    -1.6749880000    -0.1260610000
| 13>  C        3.1976540000    -0.4800970000     0.7905370000
| 14>  C        3.7831170000     0.7439880000     0.0822800000
| 15>  N        3.8104360000     1.8924440000     0.9806390000
| 16>  C        2.5151090000     2.4738980000     1.2643840000
| 17>  C        5.1830040000     0.4760920000    -0.3743340000
| 18>  C        5.5884540000     0.4896190000    -1.6358860000
| 19>  H        2.5703310000    -2.5179080000     0.4177570000
| 20>  H        3.9472860000    -2.0056430000    -0.5624280000
| 21>  H        2.3262330000    -1.4329500000    -0.9513550000
| 22>  H        3.8566430000    -0.7365530000     1.6267120000
| 23>  H        2.2354570000    -0.2039200000     1.2311080000
| 24>  H        3.1614240000     0.9476320000    -0.8107650000
| 25>  H        4.4099630000     2.5987790000     0.5737380000
| 26>  H        1.9336480000     1.8254870000     1.9230420000
| 27>  H        1.9082340000     2.6672690000     0.3636670000
| 28>  H        2.6548750000     3.4203230000     1.7899790000
| 29>  H        5.8947390000     0.2668200000     0.4230670000
| 30>  H        4.9000520000     0.6999850000    -2.4489130000
| 31>  H        6.6191100000     0.2868120000    -1.9042570000
| 32> *
| 33>
| 34>                          ****END OF INPUT****
 Total Charge           Charge          ....    0
 Multiplicity           Mult            ....    1
 Number of Electrons    NEL             ....   56
 Basis Dimension        Dim             ....  163

MULLIKEN ATOMIC CHARGES
-----------------------
   0 C :   -0.013718
   1 C :    0.010630
   2 C :    0.028224
   3 N :   -0.234449
   4 C :    0.062106
   5 C :   -0.055675
   6 C :   -0.025791
   7 H :    0.019520
   8 H :    0.019198
   9 H :    0.015774
  10 H :    0.008944
  11 H :    0.003977
  12 H :   -0.026548
  13 H :    0.098531
  14 H :    0.026814
  15 H :   -0.006409
  16 H :    0.020752
  17 H :    0.004648
  18 H :    0.019764
  19 H :    0.023708
Sum of atomic charges:    0.0000000

LOEWDIN ATOMIC CHARGES
----------------------
   0 C :   -0.066779
   1 C :   -0.041626
   2 C :    0.004399
   3 N :   -0.097741
   4 C :   -0.007926
   5 C :   -0.024513
   6 C :   -0.060814
   7 H :    0.027564
   8 H :    0.024698
   9 H :    0.023927
  10 H :    0.024362
  11 H :    0.022599
  12 H :    0.000390
  13 H :    0.054328
  14 H :    0.018792
  15 H :   -0.001085
  16 H :    0.024894
  17 H :    0.027481
  18 H :    0.022053
  19 H :    0.024996

  Mayer bond orders larger than 0.1
B(  0-C ,  1-C ) :   1.1127 B(  0-C ,  7-H ) :   0.9588 B(  0-C ,  8-H ) :   0.9611
B(  0-C ,  9-H ) :   0.9625 B(  1-C ,  2-C ) :   1.0400 B(  1-C , 10-H ) :   0.9274
B(  1-C , 11-H ) :   0.9231 B(  2-C ,  3-N ) :   1.0210 B(  2-C ,  5-C ) :   1.0222
B(  2-C , 12-H ) :   0.9060 B(  3-N ,  4-C ) :   1.0643 B(  3-N , 13-H ) :   0.9396
B(  4-C , 14-H ) :   0.9654 B(  4-C , 15-H ) :   0.9416 B(  4-C , 16-H ) :   0.9692
B(  5-C ,  6-C ) :   1.9843 B(  5-C , 17-H ) :   0.9515 B(  6-C , 18-H ) :   0.9464
B(  6-C , 19-H ) :   0.9411

FINAL SINGLE POINT ENERGY      -290.564332602910

DIPOLE MOMENT
-------------
                                X             Y             Z
Electronic contribution:      3.03955       1.70432       0.14650
Nuclear contribution   :     -3.13955      -1.51311      -0.32513
                        -----------------------------------------
Total Dipole Moment    :     -0.10000       0.19121      -0.17864
                        -----------------------------------------
Magnitude (a.u.)       :      0.28013
Magnitude (Debye)      :      0.71203

                             ****ORCA TERMINATED NORMALLY****
TOTAL RUN TIME: 0 days 0 hours 0 minutes 8 seconds 130 msec
