                         Program Version 3.0.3 - RELEASE   -
|  1> ! RI PBE def2-SVP def2-SVP/J NBO PAL2
|  2> % maxcore 2000
|  3> % output
|  4>     # printlevel mini
|  5>     print[ P_Basis ] 0
|  6>     print[ P_SCFInfo ] 1
|  7>     print[ P_SCFIterInfo ] 1
|  8>     print[ P_OrbEn ] 0
|  9>     print[ P_Cartesian ] 0
| 10> end
| 11> *xyz 0 1
| 12>  C        2.7888180000    -1.2238970000    -1.1719210000
| 13>  C        2.3885390000    -0.1305940000    -0.1988820000
| 14>  C        2.9314950000     1.2514130000    -0.5645040000
| 15>  N        2.3746130000     2.2532530000     0.3307300000
| 16>  C        2.7176280000     3.6188190000    -0.0105860000
| 17>  C        4.4014630000     1.2565350000    -0.5962650000
| 18>  C        5.6030520000     1.2825710000    -0.5760530000
| 19>  H        2.3670050000    -2.1848260000    -0.8703890000
| 20>  H        3.8742090000    -1.3337480000    -1.2224440000
| 21>  H        2.4277180000    -1.0057710000    -2.1809570000
| 22>  H        2.7341570000    -0.3822080000     0.8099900000
| 23>  H        1.3006890000    -0.0359090000    -0.1483560000
| 24>  H        2.5785900000     1.4973850000    -1.5751810000
| 25>  H        2.6764400000     2.0487030000     1.2763920000
| 26>  H        2.2886330000     3.8663970000    -0.9856220000
| 27>  H        3.7989420000     3.8136140000    -0.0579080000
| 28>  H        2.2750900000     4.2937860000     0.7242290000
| 29>  H        6.6672600000     1.3037360000    -0.5661830000
| 30> *
| 31>
| 32>                          ****END OF INPUT****
 Total Charge           Charge          ....    0
 Multiplicity           Mult            ....    1
 Number of Electrons    NEL             ....   54
 Basis Dimension        Dim             ....  153

MULLIKEN ATOMIC CHARGES
-----------------------
   0 C :   -0.008472
   1 C :   -0.006112
   2 C :    0.050697
   3 N :   -0.236651
   4 C :    0.073648
   5 C :    0.393508
   6 C :   -0.531494
   7 H :    0.019171
   8 H :    0.035472
   9 H :    0.015058
  10 H :    0.007121
  11 H :    0.024879
  12 H :    0.017474
  13 H :    0.102791
  14 H :    0.013000
  15 H :    0.012299
  16 H :    0.023138
  17 H :   -0.005525
Sum of atomic charges:   -0.0000000

LOEWDIN ATOMIC CHARGES
----------------------
   0 C :   -0.064919
   1 C :   -0.035945
   2 C :   -0.003887
   3 N :   -0.082663
   4 C :   -0.005425
   5 C :   -0.030372
   6 C :   -0.094209
   7 H :    0.028877
   8 H :    0.030103
   9 H :    0.025434
  10 H :    0.024480
  11 H :    0.029182
  12 H :    0.039201
  13 H :    0.055984
  14 H :    0.021848
  15 H :    0.004683
  16 H :    0.024214
  17 H :    0.033416

  Mayer bond orders larger than 0.1
B(  0-C ,  1-C ) :   1.1132 B(  0-C ,  7-H ) :   0.9581 B(  0-C ,  8-H ) :   0.9622
B(  0-C ,  9-H ) :   0.9621 B(  1-C ,  2-C ) :   1.0593 B(  1-C , 10-H ) :   0.9249
B(  1-C , 11-H ) :   0.9308 B(  2-C ,  3-N ) :   1.0574 B(  2-C ,  5-C ) :   0.9453
B(  2-C , 12-H ) :   0.8785 B(  3-N ,  4-C ) :   1.0598 B(  3-N , 13-H ) :   0.9414
B(  4-C , 14-H ) :   0.9640 B(  4-C , 15-H ) :   0.9460 B(  4-C , 16-H ) :   0.9716
B(  5-C ,  6-C ) :   2.3045 B(  5-C , 17-H ) :  -0.1252 B(  6-C , 17-H ) :   1.1154

FINAL SINGLE POINT ENERGY      -289.322934402620

DIPOLE MOMENT
-------------
                                X             Y             Z
Electronic contribution:      2.79307       1.22294       0.62790
Nuclear contribution   :     -2.69545      -1.19634      -0.49641
                        -----------------------------------------
Total Dipole Moment    :      0.09762       0.02660       0.13149
                        -----------------------------------------
Magnitude (a.u.)       :      0.16591
Magnitude (Debye)      :      0.42171

                             ****ORCA TERMINATED NORMALLY****
TOTAL RUN TIME: 0 days 0 hours 0 minutes 8 seconds 319 msec
