                         Program Version 3.0.3 - RELEASE   -
|  1> ! RI PBE def2-SVP def2-SVP/J NBO PAL2
|  2> % maxcore 2000
|  3> % output
|  4>     # printlevel mini
|  5>     print[ P_Basis ] 0
|  6>     print[ P_SCFInfo ] 1
|  7>     print[ P_SCFIterInfo ] 1
|  8>     print[ P_OrbEn ] 0
|  9>     print[ P_Cartesian ] 0
| 10> end
| 11> *xyz 0 1
| 12>  C        2.5122530000     2.6942430000    -0.5680380000
| 13>  C        2.9363960000     2.4303550000    -2.0024870000
| 14>  C        3.6494390000     1.0975200000    -2.1832950000
| 15>  N        4.8761070000     0.9676940000    -1.4151210000
| 16>  C        5.2459310000    -0.4202950000    -1.2627420000
| 17>  C        5.9563070000     1.7547300000    -1.9813060000
| 18>  C        7.1448630000     1.9190270000    -1.0526130000
| 19>  H        2.0064140000     3.6579580000    -0.4739920000
| 20>  H        3.3760700000     2.6923800000     0.0988670000
| 21>  H        1.8235500000     1.9208140000    -0.2152750000
| 22>  H        3.5652270000     3.2514300000    -2.3615930000
| 23>  H        2.0589210000     2.4248190000    -2.6579880000
| 24>  H        3.8335540000     0.9177720000    -3.2599790000
| 25>  H        2.9724300000     0.3031900000    -1.8515070000
| 26>  H        4.4242570000    -0.9724250000    -0.8020740000
| 27>  H        6.1144990000    -0.5181900000    -0.6103370000
| 28>  H        5.4881420000    -0.9079970000    -2.2260640000
| 29>  H        5.5620370000     2.7463020000    -2.2135850000
| 30>  H        6.2924780000     1.3209930000    -2.9441070000
| 31>  H        6.8248920000     2.3251460000    -0.0904420000
| 32>  H        7.8703410000     2.6072830000    -1.4925270000
| 33>  H        7.6640030000     0.9766510000    -0.8681860000
| 34> *
| 35>
| 36>                          ****END OF INPUT****
 Total Charge           Charge          ....    0
 Multiplicity           Mult            ....    1
 Number of Electrons    NEL             ....   58
 Basis Dimension        Dim             ....  173

MULLIKEN ATOMIC CHARGES
-----------------------
   0 C :   -0.024207
   1 C :   -0.016003
   2 C :    0.088289
   3 N :   -0.335046
   4 C :    0.101075
   5 C :    0.071798
   6 C :   -0.012838
   7 H :    0.016713
   8 H :    0.027634
   9 H :    0.012034
  10 H :    0.009322
  11 H :    0.008963
  12 H :   -0.019662
  13 H :   -0.001640
  14 H :    0.021143
  15 H :    0.019967
  16 H :   -0.016906
  17 H :    0.009103
  18 H :   -0.025756
  19 H :    0.024674
  20 H :    0.020266
  21 H :    0.021076
Sum of atomic charges:   -0.0000000

LOEWDIN ATOMIC CHARGES
----------------------
   0 C :   -0.069002
   1 C :   -0.053858
   2 C :    0.016337
   3 N :   -0.110452
   4 C :    0.001543
   5 C :    0.012752
   6 C :   -0.071863
   7 H :    0.024329
   8 H :    0.024688
   9 H :    0.023230
  10 H :    0.019774
  11 H :    0.027776
  12 H :   -0.000961
  13 H :    0.019752
  14 H :    0.022127
  15 H :    0.019930
  16 H :   -0.002928
  17 H :    0.020101
  18 H :   -0.003584
  19 H :    0.027774
  20 H :    0.030507
  21 H :    0.022030

  Mayer bond orders larger than 0.1
B(  0-C ,  1-C ) :   1.1096 B(  0-C ,  7-H ) :   0.9625 B(  0-C ,  8-H ) :   0.9632
B(  0-C ,  9-H ) :   0.9670 B(  1-C ,  2-C ) :   1.1049 B(  1-C , 10-H ) :   0.9264
B(  1-C , 11-H ) :   0.9237 B(  2-C ,  3-N ) :   1.0248 B(  2-C , 12-H ) :   0.9065
B(  2-C , 13-H ) :   0.9338 B(  3-N ,  4-C ) :   1.0376 B(  3-N ,  5-C ) :   1.0136
B(  4-C , 14-H ) :   0.9643 B(  4-C , 15-H ) :   0.9641 B(  4-C , 16-H ) :   0.9333
B(  5-C ,  6-C ) :   1.1223 B(  5-C , 17-H ) :   0.9358 B(  5-C , 18-H ) :   0.9075
B(  6-C , 19-H ) :   0.9602 B(  6-C , 20-H ) :   0.9544 B(  6-C , 21-H ) :   0.9578

FINAL SINGLE POINT ENERGY      -291.782718902551

DIPOLE MOMENT
-------------
                                X             Y             Z
Electronic contribution:     -0.37707      -0.49491      -0.49236
Nuclear contribution   :      0.42181       0.43607       0.34329
                        -----------------------------------------
Total Dipole Moment    :      0.04474      -0.05884      -0.14906
                        -----------------------------------------
Magnitude (a.u.)       :      0.16638
Magnitude (Debye)      :      0.42291

                             ****ORCA TERMINATED NORMALLY****
TOTAL RUN TIME: 0 days 0 hours 0 minutes 9 seconds 932 msec
