                         Program Version 3.0.3 - RELEASE   -
|  1> ! RI PBE def2-SVP def2-SVP/J NBO PAL2
|  2> % maxcore 2000
|  3> % output
|  4>     # printlevel mini
|  5>     print[ P_Basis ] 0
|  6>     print[ P_SCFInfo ] 1
|  7>     print[ P_SCFIterInfo ] 1
|  8>     print[ P_OrbEn ] 0
|  9>     print[ P_Cartesian ] 0
| 10> end
| 11> *xyz 0 1
| 12>  C        1.0105920000     0.3231680000    -0.3330690000
| 13>  C        2.4733860000     0.1308080000     0.0270310000
| 14>  C        2.8815950000     0.9133210000     1.2609420000
| 15>  N        4.2726070000     0.6835670000     1.5920880000
| 16>  C        4.8036390000     1.5134690000     2.6629730000
| 17>  C        4.2472350000     1.0785200000     4.0098110000
| 18>  C        6.3187580000     1.4191410000     2.6514010000
| 19>  H        0.7423040000    -0.2456060000    -1.2258810000
| 20>  H        0.7837500000     1.3747640000    -0.5296490000
| 21>  H        0.3574120000    -0.0086180000     0.4788070000
| 22>  H        3.1025570000     0.4390320000    -0.8174770000
| 23>  H        2.6871350000    -0.9285390000     0.1993480000
| 24>  H        2.2590540000     0.5946660000     2.1036750000
| 25>  H        2.6609430000     1.9861890000     1.1021380000
| 26>  H        4.8331760000     0.8273080000     0.7597700000
| 27>  H        4.5241940000     2.5736180000     2.5092460000
| 28>  H        4.5062410000     0.0339790000     4.2020820000
| 29>  H        3.1604830000     1.1728550000     4.0520170000
| 30>  H        4.6618660000     1.6944680000     4.8114580000
| 31>  H        6.6343630000     0.3836690000     2.8040650000
| 32>  H        6.7537730000     2.0334590000     3.4423130000
| 33>  H        6.7305390000     1.7632420000     1.6978200000
| 34> *
| 35>
| 36>                          ****END OF INPUT****
 Total Charge           Charge          ....    0
 Multiplicity           Mult            ....    1
 Number of Electrons    NEL             ....   58
 Basis Dimension        Dim             ....  173

MULLIKEN ATOMIC CHARGES
-----------------------
   0 C :   -0.022394
   1 C :   -0.062909
   2 C :    0.088860
   3 N :   -0.227899
   4 C :   -0.049478
   5 C :    0.015304
   6 C :    0.014357
   7 H :    0.021164
   8 H :    0.019171
   9 H :    0.021488
  10 H :    0.007794
  11 H :    0.022144
  12 H :    0.005707
  13 H :   -0.020114
  14 H :    0.089607
  15 H :   -0.017597
  16 H :    0.014714
  17 H :    0.021178
  18 H :    0.010822
  19 H :    0.019277
  20 H :    0.016711
  21 H :    0.012095
Sum of atomic charges:   -0.0000000

LOEWDIN ATOMIC CHARGES
----------------------
   0 C :   -0.066094
   1 C :   -0.052750
   2 C :    0.009980
   3 N :   -0.097643
   4 C :    0.000940
   5 C :   -0.066647
   6 C :   -0.062553
   7 H :    0.027665
   8 H :    0.024287
   9 H :    0.025599
  10 H :    0.019541
  11 H :    0.026220
  12 H :    0.016717
  13 H :   -0.003712
  14 H :    0.049265
  15 H :   -0.001469
  16 H :    0.025971
  17 H :    0.023124
  18 H :    0.025991
  19 H :    0.026183
  20 H :    0.028073
  21 H :    0.021313

  Mayer bond orders larger than 0.1
B(  0-C ,  1-C ) :   1.1151 B(  0-C ,  7-H ) :   0.9615 B(  0-C ,  8-H ) :   0.9658
B(  0-C ,  9-H ) :   0.9657 B(  1-C ,  2-C ) :   1.0894 B(  1-C , 10-H ) :   0.9355
B(  1-C , 11-H ) :   0.9357 B(  2-C ,  3-N ) :   1.0410 B(  2-C , 12-H ) :   0.9280
B(  2-C , 13-H ) :   0.9153 B(  3-N ,  4-C ) :   1.0349 B(  3-N , 14-H ) :   0.9337
B(  4-C ,  5-C ) :   1.0875 B(  4-C ,  6-C ) :   1.0808 B(  4-C , 15-H ) :   0.9014
B(  5-C , 16-H ) :   0.9531 B(  5-C , 17-H ) :   0.9554 B(  5-C , 18-H ) :   0.9548
B(  6-C , 19-H ) :   0.9587 B(  6-C , 20-H ) :   0.9592 B(  6-C , 21-H ) :   0.9576

FINAL SINGLE POINT ENERGY      -291.792874535847

DIPOLE MOMENT
-------------
                                X             Y             Z
Electronic contribution:      1.23643      -0.36476      -0.33021
Nuclear contribution   :     -1.21550       0.61180       0.14914
                        -----------------------------------------
Total Dipole Moment    :      0.02093       0.24704      -0.18108
                        -----------------------------------------
Magnitude (a.u.)       :      0.30701
Magnitude (Debye)      :      0.78036

                             ****ORCA TERMINATED NORMALLY****
TOTAL RUN TIME: 0 days 0 hours 0 minutes 8 seconds 385 msec
