                         Program Version 3.0.3 - RELEASE   -
|  1> ! RI PBE def2-SVP def2-SVP/J NBO PAL2
|  2> % maxcore 2000
|  3> % output
|  4>     # printlevel mini
|  5>     print[ P_Basis ] 0
|  6>     print[ P_SCFInfo ] 1
|  7>     print[ P_SCFIterInfo ] 1
|  8>     print[ P_OrbEn ] 0
|  9>     print[ P_Cartesian ] 0
| 10> end
| 11> *xyz 0 1
| 12>  C        0.8824910000    -0.5160070000    -0.1765990000
| 13>  C        2.3905810000    -0.3392160000    -0.2137360000
| 14>  C        2.8794870000     0.2339480000    -1.5300430000
| 15>  N        4.3147520000     0.4225660000    -1.5291360000
| 16>  C        4.8346710000     0.9244300000    -2.7854920000
| 17>  C        6.3122020000     1.1200750000    -2.7131060000
| 18>  C        7.1830180000     0.5872200000    -3.5583580000
| 19>  H        0.5543180000    -0.9341580000     0.7772860000
| 20>  H        0.5408010000    -1.1886670000    -0.9682510000
| 21>  H        0.3694400000     0.4401730000    -0.3124210000
| 22>  H        2.8775140000    -1.3069900000    -0.0414920000
| 23>  H        2.7181830000     0.3188130000     0.5967080000
| 24>  H        2.4115620000     1.2121240000    -1.6966710000
| 25>  H        2.5383350000    -0.4141460000    -2.3591630000
| 26>  H        4.7755270000    -0.4517300000    -1.3028410000
| 27>  H        4.3537670000     1.8936220000    -2.9740200000
| 28>  H        4.5882300000     0.2806410000    -3.6482990000
| 29>  H        6.6611750000     1.7406530000    -1.8907290000
| 30>  H        6.8584330000    -0.0449560000    -4.3796040000
| 31>  H        8.2480020000     0.7672860000    -3.4674130000
| 32> *
| 33>
| 34>                          ****END OF INPUT****
 Total Charge           Charge          ....    0
 Multiplicity           Mult            ....    1
 Number of Electrons    NEL             ....   56
 Basis Dimension        Dim             ....  163

MULLIKEN ATOMIC CHARGES
-----------------------
   0 C :   -0.022317
   1 C :   -0.046019
   2 C :    0.084959
   3 N :   -0.278255
   4 C :    0.191610
   5 C :   -0.106413
   6 C :   -0.037596
   7 H :    0.020620
   8 H :    0.019660
   9 H :    0.019864
  10 H :    0.007972
  11 H :    0.019513
  12 H :    0.000112
  13 H :   -0.018697
  14 H :    0.097384
  15 H :    0.011398
  16 H :   -0.019017
  17 H :    0.008319
  18 H :    0.018076
  19 H :    0.028826
Sum of atomic charges:    0.0000000

LOEWDIN ATOMIC CHARGES
----------------------
   0 C :   -0.065108
   1 C :   -0.052186
   2 C :    0.009577
   3 N :   -0.101829
   4 C :    0.012728
   5 C :   -0.034602
   6 C :   -0.065073
   7 H :    0.027736
   8 H :    0.024148
   9 H :    0.025237
  10 H :    0.020782
  11 H :    0.025914
  12 H :    0.018146
  13 H :   -0.003763
  14 H :    0.053100
  15 H :    0.029947
  16 H :    0.001636
  17 H :    0.027153
  18 H :    0.021070
  19 H :    0.025386

  Mayer bond orders larger than 0.1
B(  0-C ,  1-C ) :   1.1119 B(  0-C ,  7-H ) :   0.9620 B(  0-C ,  8-H ) :   0.9665
B(  0-C ,  9-H ) :   0.9671 B(  1-C ,  2-C ) :   1.0891 B(  1-C , 10-H ) :   0.9365
B(  1-C , 11-H ) :   0.9355 B(  2-C ,  3-N ) :   1.0399 B(  2-C , 12-H ) :   0.9299
B(  2-C , 13-H ) :   0.9192 B(  3-N ,  4-C ) :   1.0022 B(  3-N , 14-H ) :   0.9413
B(  4-C ,  5-C ) :   1.0568 B(  4-C , 15-H ) :   0.9092 B(  4-C , 16-H ) :   0.9119
B(  5-C ,  6-C ) :   1.9973 B(  5-C , 17-H ) :   0.9590 B(  6-C , 18-H ) :   0.9453
B(  6-C , 19-H ) :   0.9457

FINAL SINGLE POINT ENERGY      -290.566411815303

DIPOLE MOMENT
-------------
                                X             Y             Z
Electronic contribution:      4.77108       1.57199      -1.28442
Nuclear contribution   :     -4.92117      -1.81388       1.20778
                        -----------------------------------------
Total Dipole Moment    :     -0.15009      -0.24189      -0.07664
                        -----------------------------------------
Magnitude (a.u.)       :      0.29480
Magnitude (Debye)      :      0.74933

                             ****ORCA TERMINATED NORMALLY****
TOTAL RUN TIME: 0 days 0 hours 0 minutes 8 seconds 316 msec
