                         Program Version 3.0.3 - RELEASE   -
|  1> ! RI PBE def2-SVP def2-SVP/J NBO PAL2
|  2> % maxcore 2000
|  3> % output
|  4>     # printlevel mini
|  5>     print[ P_Basis ] 0
|  6>     print[ P_SCFInfo ] 1
|  7>     print[ P_SCFIterInfo ] 1
|  8>     print[ P_OrbEn ] 0
|  9>     print[ P_Cartesian ] 0
| 10> end
| 11> *xyz 0 1
| 12>  C        0.9804710000    -0.1314440000    -0.2349080000
| 13>  C        2.4930190000    -0.0611050000    -0.1163970000
| 14>  C        2.9665060000     1.2042840000     0.5717200000
| 15>  N        4.4085510000     1.2296130000     0.6987930000
| 16>  C        4.8941070000     2.4477550000     1.3185250000
| 17>  C        6.3467760000     2.5254340000     1.3032660000
| 18>  C        7.5438680000     2.6002800000     1.2700640000
| 19>  H        0.6643370000    -1.0481680000    -0.7367840000
| 20>  H        0.5855260000     0.7124280000    -0.8073590000
| 21>  H        0.5057010000    -0.1132910000     0.7499920000
| 22>  H        2.9425050000    -0.1151790000    -1.1154710000
| 23>  H        2.8731480000    -0.9232660000     0.4394110000
| 24>  H        2.5381440000     1.2512720000     1.5807260000
| 25>  H        2.5742030000     2.0858500000     0.0303040000
| 26>  H        4.8418840000     1.1201630000    -0.2105230000
| 27>  H        4.5470370000     2.4691820000     2.3585460000
| 28>  H        4.4928350000     3.3619650000     0.8437290000
| 29>  H        8.6060930000     2.6617260000     1.2486670000
| 30> *
| 31>
| 32>                          ****END OF INPUT****
 Total Charge           Charge          ....    0
 Multiplicity           Mult            ....    1
 Number of Electrons    NEL             ....   54
 Basis Dimension        Dim             ....  153

MULLIKEN ATOMIC CHARGES
-----------------------
   0 C :   -0.021650
   1 C :   -0.041789
   2 C :    0.084491
   3 N :   -0.271963
   4 C :    0.206068
   5 C :    0.308106
   6 C :   -0.480086
   7 H :    0.022733
   8 H :    0.020033
   9 H :    0.019827
  10 H :    0.009655
  11 H :    0.020999
  12 H :    0.001904
  13 H :   -0.018207
  14 H :    0.104862
  15 H :    0.027264
  16 H :    0.008260
  17 H :   -0.000507
Sum of atomic charges:   -0.0000000

LOEWDIN ATOMIC CHARGES
----------------------
   0 C :   -0.064628
   1 C :   -0.050696
   2 C :    0.009913
   3 N :   -0.095078
   4 C :    0.008966
   5 C :   -0.025662
   6 C :   -0.079686
   7 H :    0.028601
   8 H :    0.024381
   9 H :    0.025391
  10 H :    0.021615
  11 H :    0.027149
  12 H :    0.019210
  13 H :   -0.003615
  14 H :    0.056697
  15 H :    0.042761
  16 H :    0.020417
  17 H :    0.034263

  Mayer bond orders larger than 0.1
B(  0-C ,  1-C ) :   1.1111 B(  0-C ,  7-H ) :   0.9623 B(  0-C ,  8-H ) :   0.9666
B(  0-C ,  9-H ) :   0.9670 B(  1-C ,  2-C ) :   1.0871 B(  1-C , 10-H ) :   0.9368
B(  1-C , 11-H ) :   0.9359 B(  2-C ,  3-N ) :   1.0377 B(  2-C , 12-H ) :   0.9290
B(  2-C , 13-H ) :   0.9193 B(  3-N ,  4-C ) :   1.0180 B(  3-N , 14-H ) :   0.9394
B(  4-C ,  5-C ) :   1.0395 B(  4-C , 15-H ) :   0.8911 B(  4-C , 16-H ) :   0.8871
B(  5-C ,  6-C ) :   2.3621 B(  5-C , 17-H ) :  -0.1087 B(  6-C , 17-H ) :   1.1001

FINAL SINGLE POINT ENERGY      -289.320228553169

DIPOLE MOMENT
-------------
                                X             Y             Z
Electronic contribution:      9.20317       3.38101       2.36730
Nuclear contribution   :     -9.50624      -3.25584      -2.64430
                        -----------------------------------------
Total Dipole Moment    :     -0.30307       0.12517      -0.27701
                        -----------------------------------------
Magnitude (a.u.)       :      0.42924
Magnitude (Debye)      :      1.09105

                             ****ORCA TERMINATED NORMALLY****
TOTAL RUN TIME: 0 days 0 hours 0 minutes 8 seconds 40 msec
