                         Program Version 3.0.3 - RELEASE   -
|  1> ! RI PBE def2-SVP def2-SVP/J NBO PAL2
|  2> % maxcore 2000
|  3> % output
|  4>     # printlevel mini
|  5>     print[ P_Basis ] 0
|  6>     print[ P_SCFInfo ] 1
|  7>     print[ P_SCFIterInfo ] 1
|  8>     print[ P_OrbEn ] 0
|  9>     print[ P_Cartesian ] 0
| 10> end
| 11> *xyz 0 1
| 12>  C        0.7081460000     0.2376520000     0.5451810000
| 13>  C        2.2255680000     0.2334750000     0.4796520000
| 14>  C        2.8697910000     0.6323280000     1.7934890000
| 15>  N        4.3153510000     0.5841040000     1.7149750000
| 16>  C        4.9758510000     1.0402640000     2.9207980000
| 17>  C        6.4729770000     0.8141270000     2.8369910000
| 18>  N        7.0281070000     1.4559510000     1.6502740000
| 19>  H        0.2671030000    -0.0484200000    -0.4120330000
| 20>  H        0.3235830000     1.2280950000     0.8041530000
| 21>  H        0.3436230000    -0.4647120000     1.3000530000
| 22>  H        2.5606390000     0.9210500000    -0.3066770000
| 23>  H        2.5925760000    -0.7584020000     0.1984170000
| 24>  H        2.5493780000    -0.0618520000     2.5800220000
| 25>  H        2.4971210000     1.6296920000     2.0935030000
| 26>  H        4.6195500000     1.1761330000     0.9493100000
| 27>  H        4.5782470000     0.4703290000     3.7677560000
| 28>  H        4.7809390000     2.1071100000     3.1264430000
| 29>  H        6.6702980000    -0.2667550000     2.8711240000
| 30>  H        6.9400380000     1.2590760000     3.7200650000
| 31>  H        6.8991010000     0.8577680000     0.8434560000
| 32>  H        8.0252010000     1.5912860000     1.7496500000
| 33> *
| 34>
| 35>                          ****END OF INPUT****
 Total Charge           Charge          ....    0
 Multiplicity           Mult            ....    1
 Number of Electrons    NEL             ....   58
 Basis Dimension        Dim             ....  168

MULLIKEN ATOMIC CHARGES
-----------------------
   0 C :   -0.014346
   1 C :   -0.053114
   2 C :    0.093898
   3 N :   -0.282733
   4 C :    0.108754
   5 C :    0.077492
   6 N :   -0.232756
   7 H :    0.018514
   8 H :    0.016628
   9 H :    0.018697
  10 H :    0.010376
  11 H :    0.012443
  12 H :    0.001779
  13 H :   -0.023248
  14 H :    0.094473
  15 H :   -0.004149
  16 H :   -0.018814
  17 H :   -0.003785
  18 H :   -0.004518
  19 H :    0.091151
  20 H :    0.093257
Sum of atomic charges:   -0.0000000

LOEWDIN ATOMIC CHARGES
----------------------
   0 C :   -0.064224
   1 C :   -0.053529
   2 C :    0.010989
   3 N :   -0.107090
   4 C :    0.004894
   5 C :    0.000605
   6 N :   -0.114666
   7 H :    0.026704
   8 H :    0.023613
   9 H :    0.024735
  10 H :    0.020727
  11 H :    0.023708
  12 H :    0.016977
  13 H :   -0.003986
  14 H :    0.047360
  15 H :    0.018531
  16 H :   -0.002389
  17 H :    0.003165
  18 H :    0.020177
  19 H :    0.049559
  20 H :    0.054139

  Mayer bond orders larger than 0.1
B(  0-C ,  1-C ) :   1.1128 B(  0-C ,  7-H ) :   0.9620 B(  0-C ,  8-H ) :   0.9656
B(  0-C ,  9-H ) :   0.9675 B(  1-C ,  2-C ) :   1.0880 B(  1-C , 10-H ) :   0.9383
B(  1-C , 11-H ) :   0.9331 B(  2-C ,  3-N ) :   1.0456 B(  2-C , 12-H ) :   0.9328
B(  2-C , 13-H ) :   0.9160 B(  3-N ,  4-C ) :   1.0304 B(  3-N , 14-H ) :   0.9264
B(  4-C ,  5-C ) :   1.0827 B(  4-C , 15-H ) :   0.9272 B(  4-C , 16-H ) :   0.9108
B(  5-C ,  6-N ) :   1.1006 B(  5-C , 17-H ) :   0.9291 B(  5-C , 18-H ) :   0.9308
B(  6-N , 19-H ) :   0.9634 B(  6-N , 20-H ) :   0.9697

FINAL SINGLE POINT ENERGY      -307.804753487815

DIPOLE MOMENT
-------------
                                X             Y             Z
Electronic contribution:      3.94488       0.36742       0.42054
Nuclear contribution   :     -3.66283      -0.44115      -0.47136
                        -----------------------------------------
Total Dipole Moment    :      0.28205      -0.07373      -0.05082
                        -----------------------------------------
Magnitude (a.u.)       :      0.29593
Magnitude (Debye)      :      0.75218

                             ****ORCA TERMINATED NORMALLY****
TOTAL RUN TIME: 0 days 0 hours 0 minutes 8 seconds 805 msec
