                         Program Version 3.0.3 - RELEASE   -
|  1> ! RI PBE def2-SVP def2-SVP/J NBO PAL2
|  2> % maxcore 2000
|  3> % output
|  4>     # printlevel mini
|  5>     print[ P_Basis ] 0
|  6>     print[ P_SCFInfo ] 1
|  7>     print[ P_SCFIterInfo ] 1
|  8>     print[ P_OrbEn ] 0
|  9>     print[ P_Cartesian ] 0
| 10> end
| 11> *xyz 0 1
| 12>  C        1.3885360000    -0.7355080000     0.7661280000
| 13>  C        2.2990750000    -0.0790080000     0.0622100000
| 14>  C        2.9937830000    -0.6365800000    -1.1347000000
| 15>  N        4.4367730000    -0.5929210000    -0.9473540000
| 16>  C        5.1992430000    -1.0442520000    -2.0846090000
| 17>  C        4.9476760000    -2.4405650000    -2.4833720000
| 18>  N        4.7240670000    -3.5366880000    -2.7503850000
| 19>  H        0.9026090000    -0.2866740000     1.6245970000
| 20>  H        1.0905290000    -1.7458310000     0.5028140000
| 21>  H        2.5904630000     0.9285890000     0.3495280000
| 22>  H        2.7635080000    -0.0165180000    -2.0109380000
| 23>  H        2.6161890000    -1.6479200000    -1.3494580000
| 24>  H        4.6911810000    -1.1202700000    -0.1207570000
| 25>  H        6.2670640000    -0.9396690000    -1.8762110000
| 26>  H        4.9801030000    -0.4046860000    -2.9453130000
| 27> *
| 28>
| 29>                          ****END OF INPUT****
 Total Charge           Charge          ....    0
 Multiplicity           Mult            ....    1
 Number of Electrons    NEL             ....   52
 Basis Dimension        Dim             ....  138

MULLIKEN ATOMIC CHARGES
-----------------------
   0 C :   -0.022462
   1 C :   -0.111549
   2 C :    0.166470
   3 N :   -0.255030
   4 C :    0.180924
   5 C :   -0.305121
   6 N :    0.028223
   7 H :    0.031346
   8 H :    0.026299
   9 H :    0.012941
  10 H :    0.019712
  11 H :    0.009024
  12 H :    0.109742
  13 H :    0.058818
  14 H :    0.050665
Sum of atomic charges:   -0.0000000

LOEWDIN ATOMIC CHARGES
----------------------
   0 C :   -0.050459
   1 C :   -0.038556
   2 C :    0.013542
   3 N :   -0.076323
   4 C :   -0.006805
   5 C :   -0.072580
   6 N :   -0.064619
   7 H :    0.027645
   8 H :    0.025130
   9 H :    0.028589
  10 H :    0.032825
  11 H :    0.012089
  12 H :    0.062459
  13 H :    0.054477
  14 H :    0.052585

  Mayer bond orders larger than 0.1
B(  0-C ,  1-C ) :   2.0013 B(  0-C ,  7-H ) :   0.9467 B(  0-C ,  8-H ) :   0.9451
B(  1-C ,  2-C ) :   1.0638 B(  1-C ,  9-H ) :   0.9585 B(  2-C ,  3-N ) :   0.9999
B(  2-C , 10-H ) :   0.9119 B(  2-C , 11-H ) :   0.9120 B(  3-N ,  4-C ) :   1.1244
B(  3-N , 12-H ) :   0.9443 B(  4-C ,  5-C ) :   1.0113 B(  4-C , 13-H ) :   0.9128
B(  4-C , 14-H ) :   0.9049 B(  5-C ,  6-N ) :   3.0524

FINAL SINGLE POINT ENERGY      -304.176919260085

DIPOLE MOMENT
-------------
                                X             Y             Z
Electronic contribution:      3.62160      -3.62505      -3.16623
Nuclear contribution   :     -3.52706       4.63826       3.60045
                        -----------------------------------------
Total Dipole Moment    :      0.09454       1.01321       0.43421
                        -----------------------------------------
Magnitude (a.u.)       :      1.10638
Magnitude (Debye)      :      2.81219

                             ****ORCA TERMINATED NORMALLY****
TOTAL RUN TIME: 0 days 0 hours 0 minutes 6 seconds 612 msec
