                         Program Version 3.0.3 - RELEASE   -
|  1> ! RI PBE def2-SVP def2-SVP/J NBO PAL2
|  2> % maxcore 2000
|  3> % output
|  4>     # printlevel mini
|  5>     print[ P_Basis ] 0
|  6>     print[ P_SCFInfo ] 1
|  7>     print[ P_SCFIterInfo ] 1
|  8>     print[ P_OrbEn ] 0
|  9>     print[ P_Cartesian ] 0
| 10> end
| 11> *xyz 0 1
| 12>  C        0.9548350000    -0.0995790000     0.1137820000
| 13>  C        2.1535000000    -0.0643040000     0.1266210000
| 14>  C        3.6056380000    -0.0129500000     0.1177790000
| 15>  N        4.1720800000    -1.2473030000    -0.4086650000
| 16>  C        5.6103400000    -1.2280290000    -0.5103290000
| 17>  C        6.1556810000    -0.1781480000    -1.3884620000
| 18>  N        6.5312990000     0.6542650000    -2.0874970000
| 19>  H       -0.1091980000    -0.1303290000     0.1078430000
| 20>  H        3.9679000000     0.1180690000     1.1442170000
| 21>  H        3.9236370000     0.8795540000    -0.4454680000
| 22>  H        3.7517780000    -1.4649360000    -1.3036200000
| 23>  H        5.9598710000    -2.1956570000    -0.8779530000
| 24>  H        6.0441280000    -1.0930710000     0.4855420000
| 25> *
| 26>
| 27>                          ****END OF INPUT****
 Total Charge           Charge          ....    0
 Multiplicity           Mult            ....    1
 Number of Electrons    NEL             ....   50
 Basis Dimension        Dim             ....  128

MULLIKEN ATOMIC CHARGES
-----------------------
   0 C :   -0.464812
   1 C :    0.299132
   2 C :    0.197276
   3 N :   -0.258658
   4 C :    0.203558
   5 C :   -0.317005
   6 N :    0.031887
   7 H :    0.005675
   8 H :    0.032016
   9 H :    0.041449
  10 H :    0.120260
  11 H :    0.058940
  12 H :    0.050282
Sum of atomic charges:    0.0000000

LOEWDIN ATOMIC CHARGES
----------------------
   0 C :   -0.064722
   1 C :   -0.029134
   2 C :    0.010797
   3 N :   -0.070982
   4 C :   -0.004028
   5 C :   -0.073936
   6 N :   -0.060814
   7 H :    0.037211
   8 H :    0.046447
   9 H :    0.032515
  10 H :    0.066889
  11 H :    0.056649
  12 H :    0.053107

  Mayer bond orders larger than 0.1
B(  0-C ,  1-C ) :   2.3684 B(  0-C ,  7-H ) :   1.0989 B(  1-C ,  2-C ) :   1.0572
B(  1-C ,  7-H ) :  -0.1075 B(  2-C ,  3-N ) :   1.0104 B(  2-C ,  8-H ) :   0.8919
B(  2-C ,  9-H ) :   0.8862 B(  3-N ,  4-C ) :   1.1215 B(  3-N , 10-H ) :   0.9400
B(  4-C ,  5-C ) :   1.0060 B(  4-C , 11-H ) :   0.9107 B(  4-C , 12-H ) :   0.9056
B(  5-C ,  6-N ) :   3.0511

FINAL SINGLE POINT ENERGY      -302.929980809624

DIPOLE MOMENT
-------------
                                X             Y             Z
Electronic contribution:      1.16509       1.05305      -1.86057
Nuclear contribution   :     -1.56566      -1.77741       2.40966
                        -----------------------------------------
Total Dipole Moment    :     -0.40057      -0.72436       0.54909
                        -----------------------------------------
Magnitude (a.u.)       :      0.99331
Magnitude (Debye)      :      2.52478

                             ****ORCA TERMINATED NORMALLY****
TOTAL RUN TIME: 0 days 0 hours 0 minutes 5 seconds 953 msec
