                         Program Version 3.0.3 - RELEASE   -
|  1> ! RI PBE def2-SVP def2-SVP/J NBO PAL2
|  2> % maxcore 2000
|  3> % output
|  4>     # printlevel mini
|  5>     print[ P_Basis ] 0
|  6>     print[ P_SCFInfo ] 1
|  7>     print[ P_SCFIterInfo ] 1
|  8>     print[ P_OrbEn ] 0
|  9>     print[ P_Cartesian ] 0
| 10> end
| 11> *xyz 0 1
| 12>  C        1.0928290000     0.3366210000     0.0686150000
| 13>  C        2.5825590000     0.2880940000     0.0384800000
| 14>  C        3.2706570000    -0.8417510000    -0.1386580000
| 15>  N        4.6471980000    -0.9644930000    -0.1869980000
| 16>  C        5.4480960000     0.2254120000    -0.0596250000
| 17>  C        5.2726100000    -2.1865200000    -0.3413560000
| 18>  N        4.7966140000    -3.3565750000    -0.4407710000
| 19>  H        0.6974370000     0.9869200000    -0.7184960000
| 20>  H        0.7249950000     0.7355170000     1.0195410000
| 21>  H        0.6574460000    -0.6555920000    -0.0682140000
| 22>  H        3.1057400000     1.2300500000     0.1692900000
| 23>  H        2.7339890000    -1.7745850000    -0.2687330000
| 24>  H        5.2087500000     0.9441560000    -0.8499580000
| 25>  H        6.5013910000    -0.0397270000    -0.1373610000
| 26>  H        5.2813280000     0.7107870000     0.9077090000
| 27>  H        6.3574460000    -2.0753010000    -0.3804970000
| 28>  H        3.7814270000    -3.3882050000    -0.3881980000
| 29> *
| 30>
| 31>                          ****END OF INPUT****
 Total Charge           Charge          ....    0
 Multiplicity           Mult            ....    1
 Number of Electrons    NEL             ....   54
 Basis Dimension        Dim             ....  148

MULLIKEN ATOMIC CHARGES
-----------------------
   0 C :    0.041307
   1 C :   -0.169613
   2 C :    0.100878
   3 N :   -0.197365
   4 C :    0.088309
   5 C :   -0.000057
   6 N :   -0.125417
   7 H :    0.033505
   8 H :    0.030945
   9 H :    0.015872
  10 H :   -0.006892
  11 H :   -0.017583
  12 H :    0.042386
  13 H :    0.038690
  14 H :    0.040451
  15 H :    0.010363
  16 H :    0.074222
Sum of atomic charges:   -0.0000000

LOEWDIN ATOMIC CHARGES
----------------------
   0 C :   -0.059365
   1 C :   -0.092283
   2 C :   -0.006971
   3 N :   -0.006534
   4 C :    0.021923
   5 C :    0.018641
   6 N :   -0.149998
   7 H :    0.034664
   8 H :    0.034133
   9 H :    0.029868
  10 H :    0.020566
  11 H :    0.017503
  12 H :    0.027262
  13 H :    0.031909
  14 H :    0.026467
  15 H :    0.014745
  16 H :    0.037470

  Mayer bond orders larger than 0.1
B(  0-C ,  1-C ) :   1.0911 B(  0-C ,  7-H ) :   0.9487 B(  0-C ,  8-H ) :   0.9486
B(  0-C ,  9-H ) :   0.9606 B(  1-C ,  2-C ) :   1.8062 B(  1-C , 10-H ) :   0.9551
B(  2-C ,  3-N ) :   1.0925 B(  2-C , 11-H ) :   0.9334 B(  3-N ,  4-C ) :   1.0116
B(  3-N ,  5-C ) :   1.0811 B(  4-C , 12-H ) :   0.9568 B(  4-C , 13-H ) :   0.9531
B(  4-C , 14-H ) :   0.9566 B(  5-C ,  6-N ) :   2.0183 B(  5-C , 15-H ) :   0.9370
B(  6-N , 16-H ) :   0.9608

FINAL SINGLE POINT ENERGY      -305.402305136960

DIPOLE MOMENT
-------------
                                X             Y             Z
Electronic contribution:      3.20638      -4.31914      -0.59597
Nuclear contribution   :     -3.41200       5.47255       0.73347
                        -----------------------------------------
Total Dipole Moment    :     -0.20561       1.15341       0.13751
                        -----------------------------------------
Magnitude (a.u.)       :      1.17964
Magnitude (Debye)      :      2.99840

                             ****ORCA TERMINATED NORMALLY****
TOTAL RUN TIME: 0 days 0 hours 0 minutes 7 seconds 633 msec
