                         Program Version 3.0.3 - RELEASE   -
|  1> ! RI PBE def2-SVP def2-SVP/J NBO PAL2
|  2> % maxcore 2000
|  3> % output
|  4>     # printlevel mini
|  5>     print[ P_Basis ] 0
|  6>     print[ P_SCFInfo ] 1
|  7>     print[ P_SCFIterInfo ] 1
|  8>     print[ P_OrbEn ] 0
|  9>     print[ P_Cartesian ] 0
| 10> end
| 11> *xyz 0 1
| 12>  C        1.2757660000     0.5217270000     0.3024820000
| 13>  C        2.6779490000     0.0292380000     0.2015450000
| 14>  C        3.0559260000    -1.2062880000     0.5248890000
| 15>  N        4.3479390000    -1.6893800000     0.4414780000
| 16>  C        4.7704700000    -2.9622800000     0.7675670000
| 17>  C        6.2447980000    -3.1828490000     0.5681740000
| 18>  N        4.0636870000    -3.9264370000     1.2020630000
| 19>  H        1.1984280000     1.3783930000     0.9800540000
| 20>  H        0.6071390000    -0.2582050000     0.6731550000
| 21>  H        0.8956270000     0.8542300000    -0.6690630000
| 22>  H        3.4262260000     0.7330360000    -0.1595460000
| 23>  H        2.3250730000    -1.9212820000     0.8863390000
| 24>  H        5.0503140000    -1.0506520000     0.1104410000
| 25>  H        6.7632230000    -2.2984050000     0.1932460000
| 26>  H        6.3951980000    -4.0016690000    -0.1360600000
| 27>  H        6.6968280000    -3.4783270000     1.5154850000
| 28>  H        3.0821110000    -3.6844580000     1.3044500000
| 29> *
| 30>
| 31>                          ****END OF INPUT****
 Total Charge           Charge          ....    0
 Multiplicity           Mult            ....    1
 Number of Electrons    NEL             ....   54
 Basis Dimension        Dim             ....  148

MULLIKEN ATOMIC CHARGES
-----------------------
   0 C :    0.023261
   1 C :   -0.137824
   2 C :    0.066414
   3 N :   -0.027946
   4 C :   -0.204434
   5 C :    0.064149
   6 N :   -0.118566
   7 H :    0.035149
   8 H :    0.019842
   9 H :    0.031964
  10 H :   -0.012860
  11 H :   -0.013774
  12 H :    0.108391
  13 H :   -0.008293
  14 H :    0.053381
  15 H :    0.052396
  16 H :    0.068752
Sum of atomic charges:   -0.0000000

LOEWDIN ATOMIC CHARGES
----------------------
   0 C :   -0.062454
   1 C :   -0.092326
   2 C :   -0.005221
   3 N :    0.026856
   4 C :    0.003296
   5 C :   -0.066948
   6 N :   -0.170691
   7 H :    0.034381
   8 H :    0.031308
   9 H :    0.033822
  10 H :    0.018936
  11 H :    0.019589
  12 H :    0.077817
  13 H :    0.020589
  14 H :    0.048455
  15 H :    0.048405
  16 H :    0.034185

  Mayer bond orders larger than 0.1
B(  0-C ,  1-C ) :   1.1051 B(  0-C ,  7-H ) :   0.9483 B(  0-C ,  8-H ) :   0.9606
B(  0-C ,  9-H ) :   0.9480 B(  1-C ,  2-C ) :   1.8193 B(  1-C , 10-H ) :   0.9548
B(  2-C ,  3-N ) :   1.1205 B(  2-C , 11-H ) :   0.9349 B(  3-N ,  4-C ) :   1.1278
B(  3-N , 12-H ) :   0.9080 B(  4-C ,  5-C ) :   1.0443 B(  4-C ,  6-N ) :   1.9768
B(  5-C , 13-H ) :   0.9418 B(  5-C , 14-H ) :   0.9496 B(  5-C , 15-H ) :   0.9491
B(  6-N , 16-H ) :   0.9478

FINAL SINGLE POINT ENERGY      -305.414913147121

DIPOLE MOMENT
-------------
                                X             Y             Z
Electronic contribution:      1.43503      -2.72704       0.60543
Nuclear contribution   :     -1.27560       3.75911      -0.95730
                        -----------------------------------------
Total Dipole Moment    :      0.15943       1.03207      -0.35187
                        -----------------------------------------
Magnitude (a.u.)       :      1.10200
Magnitude (Debye)      :      2.80105

                             ****ORCA TERMINATED NORMALLY****
TOTAL RUN TIME: 0 days 0 hours 0 minutes 7 seconds 913 msec
