                         Program Version 3.0.3 - RELEASE   -
|  1> ! RI PBE def2-SVP def2-SVP/J NBO PAL2
|  2> % maxcore 2000
|  3> % output
|  4>     # printlevel mini
|  5>     print[ P_Basis ] 0
|  6>     print[ P_SCFInfo ] 1
|  7>     print[ P_SCFIterInfo ] 1
|  8>     print[ P_OrbEn ] 0
|  9>     print[ P_Cartesian ] 0
| 10> end
| 11> *xyz 0 1
| 12>  C        1.4098580000    -0.0162060000     0.3611700000
| 13>  C        2.8496440000     0.3682810000     0.5017730000
| 14>  C        3.2370860000     1.6424510000     0.6055460000
| 15>  N        3.7024360000    -0.7317560000     0.5261810000
| 16>  C        5.0328930000    -0.8280170000     0.1430490000
| 17>  C        5.6287020000    -2.1691930000     0.4540920000
| 18>  N        5.7426210000     0.0622090000    -0.4184540000
| 19>  H        1.2322590000    -0.5240100000    -0.5915180000
| 20>  H        0.7661120000     0.8599940000     0.4171200000
| 21>  H        1.1119400000    -0.7042900000     1.1601020000
| 22>  H        2.4930530000     2.4255260000     0.5574460000
| 23>  H        4.2618130000     1.9393020000     0.7771510000
| 24>  H        3.2599390000    -1.6087680000     0.7442340000
| 25>  H        5.0466970000    -2.9750530000    -0.0037190000
| 26>  H        5.6465760000    -2.3428670000     1.5335920000
| 27>  H        6.6442950000    -2.2027150000     0.0684110000
| 28>  H        5.2068550000     0.9070210000    -0.5997780000
| 29> *
| 30>
| 31>                          ****END OF INPUT****
 Total Charge           Charge          ....    0
 Multiplicity           Mult            ....    1
 Number of Electrons    NEL             ....   54
 Basis Dimension        Dim             ....  148

MULLIKEN ATOMIC CHARGES
-----------------------
   0 C :    0.038689
   1 C :   -0.087846
   2 C :   -0.076970
   3 N :   -0.043070
   4 C :   -0.183293
   5 C :    0.034574
   6 N :   -0.090311
   7 H :    0.040688
   8 H :    0.023807
   9 H :    0.034814
  10 H :    0.008553
  11 H :    0.022729
  12 H :    0.098860
  13 H :    0.027811
  14 H :    0.040906
  15 H :    0.036008
  16 H :    0.074051
Sum of atomic charges:    0.0000000

LOEWDIN ATOMIC CHARGES
----------------------
   0 C :   -0.060333
   1 C :    0.000234
   2 C :   -0.127117
   3 N :    0.014659
   4 C :    0.008494
   5 C :   -0.071484
   6 N :   -0.149851
   7 H :    0.037269
   8 H :    0.038665
   9 H :    0.034955
  10 H :    0.025345
  11 H :    0.022517
  12 H :    0.074828
  13 H :    0.033216
  14 H :    0.037905
  15 H :    0.043592
  16 H :    0.037107

  Mayer bond orders larger than 0.1
B(  0-C ,  1-C ) :   1.0857 B(  0-C ,  7-H ) :   0.9482 B(  0-C ,  8-H ) :   0.9459
B(  0-C ,  9-H ) :   0.9456 B(  1-C ,  2-C ) :   1.8836 B(  1-C ,  3-N ) :   1.1003
B(  2-C , 10-H ) :   0.9213 B(  2-C , 11-H ) :   0.9366 B(  3-N ,  4-C ) :   1.0982
B(  3-N , 12-H ) :   0.9130 B(  4-C ,  5-C ) :   1.0339 B(  4-C ,  6-N ) :   2.0538
B(  5-C , 13-H ) :   0.9467 B(  5-C , 14-H ) :   0.9535 B(  5-C , 15-H ) :   0.9477
B(  6-N , 16-H ) :   0.9325

FINAL SINGLE POINT ENERGY      -305.414002854906

DIPOLE MOMENT
-------------
                                X             Y             Z
Electronic contribution:      2.32070       0.86737      -0.53932
Nuclear contribution   :     -3.45702      -1.51062       0.90178
                        -----------------------------------------
Total Dipole Moment    :     -1.13631      -0.64325       0.36246
                        -----------------------------------------
Magnitude (a.u.)       :      1.35512
Magnitude (Debye)      :      3.44444

                             ****ORCA TERMINATED NORMALLY****
TOTAL RUN TIME: 0 days 0 hours 0 minutes 8 seconds 243 msec
