                         Program Version 3.0.3 - RELEASE   -
|  1> ! RI PBE def2-SVP def2-SVP/J NBO PAL2
|  2> % maxcore 2000
|  3> % output
|  4>     # printlevel mini
|  5>     print[ P_Basis ] 0
|  6>     print[ P_SCFInfo ] 1
|  7>     print[ P_SCFIterInfo ] 1
|  8>     print[ P_OrbEn ] 0
|  9>     print[ P_Cartesian ] 0
| 10> end
| 11> *xyz 0 1
| 12>  C        1.2285200000    -0.0623530000     0.2035460000
| 13>  C        2.7433730000    -0.1629040000     0.1941310000
| 14>  C        3.1834700000    -1.6125830000     0.0655480000
| 15>  N        3.2605350000     0.6355180000    -0.9098320000
| 16>  C        4.6655380000     0.9783290000    -0.8124550000
| 17>  C        5.1277930000     1.7014240000    -2.0632990000
| 18>  N        4.3009730000     2.8753040000    -2.3220020000
| 19>  H        0.8025260000    -0.6572230000     1.0140050000
| 20>  H        0.8204690000    -0.4271390000    -0.7430820000
| 21>  H        0.9003550000     0.9722610000     0.3405420000
| 22>  H        3.1177580000     0.2230000000     1.1608880000
| 23>  H        2.8079220000    -2.0353940000    -0.8699030000
| 24>  H        2.7963450000    -2.2057390000     0.8976560000
| 25>  H        4.2706040000    -1.7125240000     0.0698290000
| 26>  H        2.7405400000     1.5055260000    -0.9415170000
| 27>  H        5.2528430000     0.0619490000    -0.7055530000
| 28>  H        4.8777740000     1.6076140000     0.0693040000
| 29>  H        5.1341450000     0.9900260000    -2.9010830000
| 30>  H        6.1584460000     2.0328160000    -1.9091020000
| 31>  H        3.4621380000     2.6043250000    -2.8200980000
| 32>  H        4.7874410000     3.5329560000    -2.9161340000
| 33> *
| 34>
| 35>                          ****END OF INPUT****
 Total Charge           Charge          ....    0
 Multiplicity           Mult            ....    1
 Number of Electrons    NEL             ....   58
 Basis Dimension        Dim             ....  168

MULLIKEN ATOMIC CHARGES
-----------------------
   0 C :    0.007699
   1 C :   -0.033298
   2 C :    0.022585
   3 N :   -0.261868
   4 C :    0.114301
   5 C :    0.042487
   6 N :   -0.221357
   7 H :    0.015650
   8 H :    0.017996
   9 H :    0.016588
  10 H :   -0.024355
  11 H :    0.012788
  12 H :    0.010904
  13 H :    0.016539
  14 H :    0.090045
  15 H :    0.002163
  16 H :   -0.019164
  17 H :    0.002761
  18 H :    0.004065
  19 H :    0.092267
  20 H :    0.091204
Sum of atomic charges:   -0.0000000

LOEWDIN ATOMIC CHARGES
----------------------
   0 C :   -0.063016
   1 C :    0.002372
   2 C :   -0.065850
   3 N :   -0.102338
   4 C :    0.005099
   5 C :   -0.002294
   6 N :   -0.113021
   7 H :    0.027933
   8 H :    0.025198
   9 H :    0.022317
  10 H :   -0.000562
  11 H :    0.024672
  12 H :    0.025297
  13 H :    0.021787
  14 H :    0.046426
  15 H :    0.017750
  16 H :   -0.001579
  17 H :    0.004522
  18 H :    0.021696
  19 H :    0.049786
  20 H :    0.053806

  Mayer bond orders larger than 0.1
B(  0-C ,  1-C ) :   1.0827 B(  0-C ,  7-H ) :   0.9586 B(  0-C ,  8-H ) :   0.9569
B(  0-C ,  9-H ) :   0.9601 B(  1-C ,  2-C ) :   1.0891 B(  1-C ,  3-N ) :   1.0308
B(  1-C , 10-H ) :   0.8945 B(  2-C , 11-H ) :   0.9540 B(  2-C , 12-H ) :   0.9552
B(  2-C , 13-H ) :   0.9541 B(  3-N ,  4-C ) :   1.0241 B(  3-N , 14-H ) :   0.9230
B(  4-C ,  5-C ) :   1.0816 B(  4-C , 15-H ) :   0.9258 B(  4-C , 16-H ) :   0.9090
B(  5-C ,  6-N ) :   1.1074 B(  5-C , 17-H ) :   0.9320 B(  5-C , 18-H ) :   0.9333
B(  6-N , 19-H ) :   0.9618 B(  6-N , 20-H ) :   0.9693

FINAL SINGLE POINT ENERGY      -307.806767554869

DIPOLE MOMENT
-------------
                                X             Y             Z
Electronic contribution:      1.10289       2.51788      -1.50306
Nuclear contribution   :     -1.02251      -2.35891       1.24323
                        -----------------------------------------
Total Dipole Moment    :      0.08038       0.15897      -0.25983
                        -----------------------------------------
Magnitude (a.u.)       :      0.31503
Magnitude (Debye)      :      0.80075

                             ****ORCA TERMINATED NORMALLY****
TOTAL RUN TIME: 0 days 0 hours 0 minutes 8 seconds 727 msec
