                         Program Version 3.0.3 - RELEASE   -
|  1> ! RI PBE def2-SVP def2-SVP/J NBO PAL2
|  2> % maxcore 2000
|  3> % output
|  4>     # printlevel mini
|  5>     print[ P_Basis ] 0
|  6>     print[ P_SCFInfo ] 1
|  7>     print[ P_SCFIterInfo ] 1
|  8>     print[ P_OrbEn ] 0
|  9>     print[ P_Cartesian ] 0
| 10> end
| 11> *xyz 0 1
| 12>  C        0.8211460000     0.2734270000     0.0236380000
| 13>  C        2.3455660000     0.3015100000    -0.0003290000
| 14>  C        2.8204050000     0.5605470000    -1.4322450000
| 15>  N        2.7823280000     1.3518560000     0.9226390000
| 16>  C        2.9450720000    -1.0269840000     0.4758120000
| 17>  C        2.5607080000    -1.4702030000     1.8755680000
| 18>  N        3.3591450000    -2.6264150000     2.2657100000
| 19>  H        0.4173440000     1.2076070000    -0.3791820000
| 20>  H        0.4463990000     0.1589170000     1.0412770000
| 21>  H        0.4346100000    -0.5450080000    -0.5884870000
| 22>  H        2.4368510000     1.5181550000    -1.7967550000
| 23>  H        2.4815970000    -0.2206060000    -2.1193240000
| 24>  H        3.9130110000     0.5944820000    -1.4760510000
| 25>  H        2.4028000000     2.2467180000     0.6339430000
| 26>  H        3.7925590000     1.4407660000     0.8927130000
| 27>  H        4.0384920000    -0.9501050000     0.4394680000
| 28>  H        2.6713720000    -1.8078970000    -0.2446580000
| 29>  H        1.4775150000    -1.6573590000     1.9217910000
| 30>  H        2.7703920000    -0.6550220000     2.5719800000
| 31>  H        3.1384130000    -3.4213470000     1.6769150000
| 32>  H        3.1424650000    -2.9012180000     3.2155670000
| 33> *
| 34>
| 35>                          ****END OF INPUT****
 Total Charge           Charge          ....    0
 Multiplicity           Mult            ....    1
 Number of Electrons    NEL             ....   58
 Basis Dimension        Dim             ....  168

MULLIKEN ATOMIC CHARGES
-----------------------
   0 C :    0.074399
   1 C :   -0.268742
   2 C :    0.072336
   3 N :   -0.140554
   4 C :    0.023247
   5 C :    0.087210
   6 N :   -0.205385
   7 H :   -0.000088
   8 H :    0.024833
   9 H :    0.008519
  10 H :   -0.000204
  11 H :    0.006379
  12 H :    0.007910
  13 H :    0.077841
  14 H :    0.081658
  15 H :    0.000130
  16 H :   -0.008114
  17 H :   -0.012072
  18 H :    0.005756
  19 H :    0.081660
  20 H :    0.083280
Sum of atomic charges:   -0.0000000

LOEWDIN ATOMIC CHARGES
----------------------
   0 C :   -0.053397
   1 C :   -0.025533
   2 C :   -0.067510
   3 N :   -0.084483
   4 C :   -0.042780
   5 C :    0.003775
   6 N :   -0.113204
   7 H :    0.020533
   8 H :    0.024325
   9 H :    0.025348
  10 H :    0.018349
  11 H :    0.023225
  12 H :    0.020536
  13 H :    0.047477
  14 H :    0.048640
  15 H :    0.021816
  16 H :    0.018690
  17 H :   -0.001967
  18 H :    0.019027
  19 H :    0.046589
  20 H :    0.050545

  Mayer bond orders larger than 0.1
B(  0-C ,  1-C ) :   1.0504 B(  0-C ,  7-H ) :   0.9486 B(  0-C ,  8-H ) :   0.9513
B(  0-C ,  9-H ) :   0.9592 B(  1-C ,  2-C ) :   1.0534 B(  1-C ,  3-N ) :   1.0441
B(  1-C ,  4-C ) :   1.0221 B(  2-C , 10-H ) :   0.9502 B(  2-C , 11-H ) :   0.9444
B(  2-C , 12-H ) :   0.9518 B(  3-N , 13-H ) :   0.9624 B(  3-N , 14-H ) :   0.9621
B(  4-C ,  5-C ) :   1.0873 B(  4-C , 15-H ) :   0.9184 B(  4-C , 16-H ) :   0.9285
B(  5-C ,  6-N ) :   1.0847 B(  5-C , 17-H ) :   0.9251 B(  5-C , 18-H ) :   0.9184
B(  6-N , 19-H ) :   0.9690 B(  6-N , 20-H ) :   0.9647

FINAL SINGLE POINT ENERGY      -307.812383748241

DIPOLE MOMENT
-------------
                                X             Y             Z
Electronic contribution:      1.38088      -0.33817       2.22381
Nuclear contribution   :     -1.65560       0.35787      -2.50352
                        -----------------------------------------
Total Dipole Moment    :     -0.27472       0.01970      -0.27971
                        -----------------------------------------
Magnitude (a.u.)       :      0.39255
Magnitude (Debye)      :      0.99779

                             ****ORCA TERMINATED NORMALLY****
TOTAL RUN TIME: 0 days 0 hours 0 minutes 8 seconds 654 msec
