                         Program Version 3.0.3 - RELEASE   -
|  1> ! RI PBE def2-SVP def2-SVP/J NBO PAL2
|  2> % maxcore 2000
|  3> % output
|  4>     # printlevel mini
|  5>     print[ P_Basis ] 0
|  6>     print[ P_SCFInfo ] 1
|  7>     print[ P_SCFIterInfo ] 1
|  8>     print[ P_OrbEn ] 0
|  9>     print[ P_Cartesian ] 0
| 10> end
| 11> *xyz 0 1
| 12>  C        1.0256170000    -0.5101660000    -0.0174590000
| 13>  C        2.4611360000     0.0019080000     0.0005290000
| 14>  C        3.0495660000     0.0847190000    -1.4030960000
| 15>  N        2.5899940000     1.2630600000     0.7301680000
| 16>  C        3.3861140000     1.3436470000     1.9257580000
| 17>  C        1.9585760000     2.3850590000     0.2903200000
| 18>  N        1.9550710000     3.5587190000     0.7888760000
| 19>  H        0.9799470000    -1.4975040000    -0.4831860000
| 20>  H        0.3725050000     0.1549320000    -0.5874550000
| 21>  H        0.6270990000    -0.5881020000     0.9959020000
| 22>  H        3.0593650000    -0.7179500000     0.5653400000
| 23>  H        2.4833100000     0.7755870000    -2.0322780000
| 24>  H        3.0255170000    -0.8960940000    -1.8839850000
| 25>  H        4.0853920000     0.4280440000    -1.3716270000
| 26>  H        3.8206000000     0.3687390000     2.1409440000
| 27>  H        2.7859790000     1.6467570000     2.7924880000
| 28>  H        4.2058680000     2.0646440000     1.8188520000
| 29>  H        1.3808820000     2.2247410000    -0.6210470000
| 30>  H        2.5187520000     3.6147690000     1.6352460000
| 31> *
| 32>
| 33>                          ****END OF INPUT****
 Total Charge           Charge          ....    0
 Multiplicity           Mult            ....    1
 Number of Electrons    NEL             ....   56
 Basis Dimension        Dim             ....  158

MULLIKEN ATOMIC CHARGES
-----------------------
   0 C :    0.032895
   1 C :   -0.062480
   2 C :    0.028382
   3 N :   -0.242881
   4 C :    0.083826
   5 C :   -0.000395
   6 N :   -0.155261
   7 H :    0.019554
   8 H :    0.026831
   9 H :    0.023283
  10 H :    0.011341
  11 H :    0.026969
  12 H :    0.021748
  13 H :    0.025216
  14 H :    0.020283
  15 H :    0.033466
  16 H :    0.034660
  17 H :    0.010502
  18 H :    0.062062
Sum of atomic charges:   -0.0000000

LOEWDIN ATOMIC CHARGES
----------------------
   0 C :   -0.064258
   1 C :    0.016063
   2 C :   -0.065031
   3 N :   -0.042683
   4 C :    0.010487
   5 C :    0.010252
   6 N :   -0.177042
   7 H :    0.029526
   8 H :    0.028104
   9 H :    0.028713
  10 H :    0.026029
  11 H :    0.028072
  12 H :    0.029516
  13 H :    0.029363
  14 H :    0.028152
  15 H :    0.020983
  16 H :    0.021103
  17 H :    0.010399
  18 H :    0.032252

  Mayer bond orders larger than 0.1
B(  0-C ,  1-C ) :   1.0922 B(  0-C ,  7-H ) :   0.9556 B(  0-C ,  8-H ) :   0.9553
B(  0-C ,  9-H ) :   0.9549 B(  1-C ,  2-C ) :   1.0882 B(  1-C ,  3-N ) :   0.9642
B(  1-C , 10-H ) :   0.9184 B(  2-C , 11-H ) :   0.9556 B(  2-C , 12-H ) :   0.9560
B(  2-C , 13-H ) :   0.9552 B(  3-N ,  4-C ) :   1.0150 B(  3-N ,  5-C ) :   1.1488
B(  3-N ,  6-N ) :   0.1023 B(  4-C , 14-H ) :   0.9570 B(  4-C , 15-H ) :   0.9569
B(  4-C , 16-H ) :   0.9571 B(  5-C ,  6-N ) :   1.9781 B(  5-C , 17-H ) :   0.9370
B(  6-N , 18-H ) :   0.9514

FINAL SINGLE POINT ENERGY      -306.610358080982

DIPOLE MOMENT
-------------
                                X             Y             Z
Electronic contribution:     -0.46422       4.40160       1.21532
Nuclear contribution   :      1.01081      -5.78764      -1.01225
                        -----------------------------------------
Total Dipole Moment    :      0.54659      -1.38605       0.20307
                        -----------------------------------------
Magnitude (a.u.)       :      1.50370
Magnitude (Debye)      :      3.82211

                             ****ORCA TERMINATED NORMALLY****
TOTAL RUN TIME: 0 days 0 hours 0 minutes 8 seconds 180 msec
