                         Program Version 3.0.3 - RELEASE   -
|  1> ! RI PBE def2-SVP def2-SVP/J NBO PAL2
|  2> % maxcore 2000
|  3> % output
|  4>     # printlevel mini
|  5>     print[ P_Basis ] 0
|  6>     print[ P_SCFInfo ] 1
|  7>     print[ P_SCFIterInfo ] 1
|  8>     print[ P_OrbEn ] 0
|  9>     print[ P_Cartesian ] 0
| 10> end
| 11> *xyz 0 1
| 12>  C        1.3189010000    -0.9223560000    -0.4746920000
| 13>  C        2.3062750000     0.1938790000    -0.1503600000
| 14>  C        2.8660160000     0.8309040000    -1.4098050000
| 15>  N        1.7215570000     1.2227130000     0.6816580000
| 16>  C        1.4594870000     1.0842070000     2.0192060000
| 17>  C        0.6961390000     2.2338120000     2.6099370000
| 18>  N        1.8123310000     0.1185930000     2.7765970000
| 19>  H        1.8085570000    -1.7281500000    -1.0273920000
| 20>  H        0.4998410000    -0.5379010000    -1.0893230000
| 21>  H        0.8892760000    -1.3433710000     0.4361330000
| 22>  H        3.1455010000    -0.2329260000     0.4122490000
| 23>  H        2.0668890000     1.2985580000    -1.9945750000
| 24>  H        3.3380800000     0.0784660000    -2.0439030000
| 25>  H        3.6071910000     1.5948380000    -1.1675760000
| 26>  H        1.2534590000     1.9738100000     0.2030120000
| 27>  H        1.2155170000     3.1794640000     2.4326470000
| 28>  H        0.5901640000     2.0765960000     3.6802810000
| 29>  H       -0.2988970000     2.3090420000     2.1612850000
| 30>  H        2.3141080000    -0.6023860000     2.2626410000
| 31> *
| 32>
| 33>                          ****END OF INPUT****
 Total Charge           Charge          ....    0
 Multiplicity           Mult            ....    1
 Number of Electrons    NEL             ....   56
 Basis Dimension        Dim             ....  158

MULLIKEN ATOMIC CHARGES
-----------------------
   0 C :    0.038915
   1 C :   -0.068964
   2 C :   -0.013270
   3 N :   -0.098016
   4 C :   -0.197365
   5 C :    0.039091
   6 N :   -0.115045
   7 H :    0.020206
   8 H :    0.010492
   9 H :    0.027076
  10 H :    0.016534
  11 H :    0.018933
  12 H :    0.029217
  13 H :    0.035828
  14 H :    0.094243
  15 H :    0.030176
  16 H :    0.037254
  17 H :    0.030252
  18 H :    0.064445
Sum of atomic charges:   -0.0000000

LOEWDIN ATOMIC CHARGES
----------------------
   0 C :   -0.068847
   1 C :    0.004410
   2 C :   -0.064018
   3 N :   -0.015036
   4 C :    0.000707
   5 C :   -0.072556
   6 N :   -0.181467
   7 H :    0.028228
   8 H :    0.023592
   9 H :    0.028577
  10 H :    0.021756
  11 H :    0.024461
  12 H :    0.033552
  13 H :    0.030055
  14 H :    0.066303
  15 H :    0.033441
  16 H :    0.042885
  17 H :    0.034241
  18 H :    0.029718

  Mayer bond orders larger than 0.1
B(  0-C ,  1-C ) :   1.0827 B(  0-C ,  7-H ) :   0.9581 B(  0-C ,  8-H ) :   0.9527
B(  0-C ,  9-H ) :   0.9522 B(  1-C ,  2-C ) :   1.0920 B(  1-C ,  3-N ) :   0.9883
B(  1-C , 10-H ) :   0.9034 B(  2-C , 11-H ) :   0.9530 B(  2-C , 12-H ) :   0.9594
B(  2-C , 13-H ) :   0.9619 B(  3-N ,  4-C ) :   1.1768 B(  3-N ,  6-N ) :   0.1012
B(  3-N , 14-H ) :   0.9219 B(  4-C ,  5-C ) :   1.0371 B(  4-C ,  6-N ) :   2.0030
B(  5-C , 15-H ) :   0.9513 B(  5-C , 16-H ) :   0.9475 B(  5-C , 17-H ) :   0.9488
B(  6-N , 18-H ) :   0.9428

FINAL SINGLE POINT ENERGY      -306.629151135944

DIPOLE MOMENT
-------------
                                X             Y             Z
Electronic contribution:      0.33376       0.45742       4.12691
Nuclear contribution   :     -0.38416      -0.07577      -5.41834
                        -----------------------------------------
Total Dipole Moment    :     -0.05040       0.38165      -1.29143
                        -----------------------------------------
Magnitude (a.u.)       :      1.34759
Magnitude (Debye)      :      3.42530

                             ****ORCA TERMINATED NORMALLY****
TOTAL RUN TIME: 0 days 0 hours 0 minutes 8 seconds 579 msec
