                         Program Version 3.0.3 - RELEASE   -
|  1> ! RI PBE def2-SVP def2-SVP/J NBO PAL2
|  2> % maxcore 2000
|  3> % output
|  4>     # printlevel mini
|  5>     print[ P_Basis ] 0
|  6>     print[ P_SCFInfo ] 1
|  7>     print[ P_SCFIterInfo ] 1
|  8>     print[ P_OrbEn ] 0
|  9>     print[ P_Cartesian ] 0
| 10> end
| 11> *xyz 0 1
| 12>  C        1.0743820000    -0.4805310000     0.2913980000
| 13>  C        2.4825150000    -0.7024580000    -0.2277720000
| 14>  C        2.6104290000    -2.0589770000    -0.8999250000
| 15>  N        2.7925680000     0.3704850000    -1.1720540000
| 16>  C        4.1725900000     0.4766500000    -1.5794820000
| 17>  C        5.1280460000     0.6833470000    -0.4766660000
| 18>  N        5.8357600000     0.8530410000     0.4140450000
| 19>  H        0.8030270000    -1.2556980000     1.0102070000
| 20>  H        0.3553780000    -0.5042470000    -0.5316520000
| 21>  H        0.9854280000     0.4854700000     0.7968490000
| 22>  H        3.1742300000    -0.6763560000     0.6311750000
| 23>  H        1.9474850000    -2.1164940000    -1.7669570000
| 24>  H        2.3390960000    -2.8518130000    -0.1999110000
| 25>  H        3.6307280000    -2.2621880000    -1.2326970000
| 26>  H        2.4873570000     1.2553780000    -0.7857520000
| 27>  H        4.2796770000     1.3105940000    -2.2777960000
| 28>  H        4.4752030000    -0.4219940000    -2.1226110000
| 29> *
| 30>
| 31>                          ****END OF INPUT****
 Total Charge           Charge          ....    0
 Multiplicity           Mult            ....    1
 Number of Electrons    NEL             ....   54
 Basis Dimension        Dim             ....  148

MULLIKEN ATOMIC CHARGES
-----------------------
   0 C :   -0.010529
   1 C :   -0.072524
   2 C :    0.018805
   3 N :   -0.213278
   4 C :    0.182738
   5 C :   -0.307312
   6 N :    0.027599
   7 H :    0.028336
   8 H :    0.029272
   9 H :    0.021940
  10 H :    0.021477
  11 H :    0.022687
  12 H :    0.022523
  13 H :    0.017854
  14 H :    0.104165
  15 H :    0.056463
  16 H :    0.049784
Sum of atomic charges:    0.0000000

LOEWDIN ATOMIC CHARGES
----------------------
   0 C :   -0.062926
   1 C :   -0.000301
   2 C :   -0.063720
   3 N :   -0.073873
   4 C :   -0.006838
   5 C :   -0.072313
   6 N :   -0.066458
   7 H :    0.032747
   8 H :    0.029125
   9 H :    0.025611
  10 H :    0.011762
  11 H :    0.028224
  12 H :    0.032246
  13 H :    0.023547
  14 H :    0.059038
  15 H :    0.054778
  16 H :    0.049351

  Mayer bond orders larger than 0.1
B(  0-C ,  1-C ) :   1.0881 B(  0-C ,  7-H ) :   0.9607 B(  0-C ,  8-H ) :   0.9578
B(  0-C ,  9-H ) :   0.9569 B(  1-C ,  2-C ) :   1.0816 B(  1-C ,  3-N ) :   1.0332
B(  1-C , 10-H ) :   0.9030 B(  2-C , 11-H ) :   0.9542 B(  2-C , 12-H ) :   0.9568
B(  2-C , 13-H ) :   0.9518 B(  3-N ,  4-C ) :   1.1211 B(  3-N , 14-H ) :   0.9375
B(  4-C ,  5-C ) :   1.0053 B(  4-C , 15-H ) :   0.9108 B(  4-C , 16-H ) :   0.9028
B(  5-C ,  6-N ) :   3.0511

FINAL SINGLE POINT ENERGY      -305.404178685177

DIPOLE MOMENT
-------------
                                X             Y             Z
Electronic contribution:      7.79057       5.00689       0.46153
Nuclear contribution   :     -8.69485      -5.16366      -1.11696
                        -----------------------------------------
Total Dipole Moment    :     -0.90428      -0.15677      -0.65544
                        -----------------------------------------
Magnitude (a.u.)       :      1.12778
Magnitude (Debye)      :      2.86659

                             ****ORCA TERMINATED NORMALLY****
TOTAL RUN TIME: 0 days 0 hours 0 minutes 7 seconds 168 msec
