                         Program Version 3.0.3 - RELEASE   -
|  1> ! RI PBE def2-SVP def2-SVP/J NBO PAL2
|  2> % maxcore 2000
|  3> % output
|  4>     # printlevel mini
|  5>     print[ P_Basis ] 0
|  6>     print[ P_SCFInfo ] 1
|  7>     print[ P_SCFIterInfo ] 1
|  8>     print[ P_OrbEn ] 0
|  9>     print[ P_Cartesian ] 0
| 10> end
| 11> *xyz 0 1
| 12>  C        1.0044930000     0.2997310000     0.0717430000
| 13>  C        2.4102320000    -0.2736190000     0.2069230000
| 14>  C        2.5620180000    -1.0548420000     1.5126580000
| 15>  N        1.7470400000    -2.2614630000     1.5282730000
| 16>  C        2.7732620000    -1.0868010000    -1.0324920000
| 17>  C        4.2039200000    -1.5885680000    -1.0768180000
| 18>  N        4.4794480000    -2.2036050000    -2.3695340000
| 19>  H        0.7281890000     0.8932080000     0.9482490000
| 20>  H        0.2615890000    -0.4946730000    -0.0491620000
| 21>  H        0.9274270000     0.9447940000    -0.8066750000
| 22>  H        3.1088410000     0.5713830000     0.2761080000
| 23>  H        2.3431890000    -0.3682620000     2.3467480000
| 24>  H        3.6053260000    -1.3594530000     1.6315110000
| 25>  H        0.7644880000    -2.0295920000     1.6019940000
| 26>  H        1.9720550000    -2.8322640000     2.3323630000
| 27>  H        2.6044360000    -0.4734610000    -1.9239340000
| 28>  H        2.0931810000    -1.9433660000    -1.1013040000
| 29>  H        4.3818440000    -2.2675750000    -0.2297000000
| 30>  H        4.8898580000    -0.7418570000    -0.9557560000
| 31>  H        3.8636230000    -2.9965050000    -2.5095890000
| 32>  H        5.4252420000    -2.5640100000    -2.3976060000
| 33> *
| 34>
| 35>                          ****END OF INPUT****
 Total Charge           Charge          ....    0
 Multiplicity           Mult            ....    1
 Number of Electrons    NEL             ....   58
 Basis Dimension        Dim             ....  168

MULLIKEN ATOMIC CHARGES
-----------------------
   0 C :    0.006446
   1 C :   -0.130108
   2 C :    0.080364
   3 N :   -0.208758
   4 C :    0.004006
   5 C :    0.077126
   6 N :   -0.209913
   7 H :    0.010772
   8 H :    0.013780
   9 H :    0.021721
  10 H :    0.002735
  11 H :   -0.012540
  12 H :    0.002061
  13 H :    0.086628
  14 H :    0.090353
  15 H :    0.004933
  16 H :    0.001957
  17 H :   -0.002230
  18 H :   -0.007319
  19 H :    0.086416
  20 H :    0.081570
Sum of atomic charges:   -0.0000000

LOEWDIN ATOMIC CHARGES
----------------------
   0 C :   -0.063990
   1 C :   -0.049573
   2 C :    0.007536
   3 N :   -0.108555
   4 C :   -0.044422
   5 C :    0.005244
   6 N :   -0.113963
   7 H :    0.022266
   8 H :    0.022171
   9 H :    0.028150
  10 H :    0.024845
  11 H :   -0.002134
  12 H :    0.015091
  13 H :    0.048896
  14 H :    0.053738
  15 H :    0.022281
  16 H :    0.018368
  17 H :   -0.000825
  18 H :    0.015683
  19 H :    0.049424
  20 H :    0.049767

  Mayer bond orders larger than 0.1
B(  0-C ,  1-C ) :   1.0838 B(  0-C ,  7-H ) :   0.9582 B(  0-C ,  8-H ) :   0.9550
B(  0-C ,  9-H ) :   0.9594 B(  1-C ,  2-C ) :   1.0567 B(  1-C ,  4-C ) :   1.0468
B(  1-C , 10-H ) :   0.9017 B(  2-C ,  3-N ) :   1.0869 B(  2-C , 11-H ) :   0.9283
B(  2-C , 12-H ) :   0.9307 B(  3-N , 13-H ) :   0.9654 B(  3-N , 14-H ) :   0.9647
B(  4-C ,  5-C ) :   1.0984 B(  4-C , 15-H ) :   0.9325 B(  4-C , 16-H ) :   0.9172
B(  5-C ,  6-N ) :   1.0908 B(  5-C , 17-H ) :   0.9241 B(  5-C , 18-H ) :   0.9237
B(  6-N , 19-H ) :   0.9696 B(  6-N , 20-H ) :   0.9639

FINAL SINGLE POINT ENERGY      -307.806578551942

DIPOLE MOMENT
-------------
                                X             Y             Z
Electronic contribution:      1.26140      -1.35172      -0.58844
Nuclear contribution   :     -1.31260       1.08259       1.32615
                        -----------------------------------------
Total Dipole Moment    :     -0.05120      -0.26914       0.73771
                        -----------------------------------------
Magnitude (a.u.)       :      0.78694
Magnitude (Debye)      :      2.00023

                             ****ORCA TERMINATED NORMALLY****
TOTAL RUN TIME: 0 days 0 hours 0 minutes 8 seconds 530 msec
