                         Program Version 3.0.3 - RELEASE   -
|  1> ! RI PBE def2-SVP def2-SVP/J NBO PAL2
|  2> % maxcore 2000
|  3> % output
|  4>     # printlevel mini
|  5>     print[ P_Basis ] 0
|  6>     print[ P_SCFInfo ] 1
|  7>     print[ P_SCFIterInfo ] 1
|  8>     print[ P_OrbEn ] 0
|  9>     print[ P_Cartesian ] 0
| 10> end
| 11> *xyz 0 1
| 12>  C        0.7896460000     0.1794910000     0.2285450000
| 13>  C        2.1163390000    -0.1895130000    -0.4126640000
| 14>  C        2.7563790000    -1.4579240000     0.1574460000
| 15>  N        1.9353400000    -2.6583210000     0.0396140000
| 16>  C        4.1150910000    -1.7125060000    -0.4825230000
| 17>  C        4.9359470000    -2.7821900000     0.2124890000
| 18>  N        6.2147520000    -2.9599170000    -0.4671630000
| 19>  H        0.3949250000     1.1099200000    -0.1853190000
| 20>  H        0.8982190000     0.3188390000     1.3085230000
| 21>  H        0.0322010000    -0.5918750000     0.0662790000
| 22>  H        2.8209460000     0.6408510000    -0.2921340000
| 23>  H        1.9825790000    -0.3223050000    -1.4942570000
| 24>  H        2.9139660000    -1.2971880000     1.2332980000
| 25>  H        1.6898880000    -2.8157250000    -0.9325870000
| 26>  H        1.0671640000    -2.5557030000     0.5494600000
| 27>  H        4.6940010000    -0.7843310000    -0.5055020000
| 28>  H        3.9574400000    -2.0007720000    -1.5322270000
| 29>  H        4.3360880000    -3.6981790000     0.2889310000
| 30>  H        5.1463160000    -2.4551370000     1.2368930000
| 31>  H        6.0610880000    -3.3213420000    -1.4017490000
| 32>  H        6.7772860000    -3.6490620000     0.0165360000
| 33> *
| 34>
| 35>                          ****END OF INPUT****
 Total Charge           Charge          ....    0
 Multiplicity           Mult            ....    1
 Number of Electrons    NEL             ....   58
 Basis Dimension        Dim             ....  168

MULLIKEN ATOMIC CHARGES
-----------------------
   0 C :   -0.003396
   1 C :   -0.007215
   2 C :   -0.060374
   3 N :   -0.168370
   4 C :    0.006671
   5 C :    0.094153
   6 N :   -0.209951
   7 H :    0.018004
   8 H :    0.017160
   9 H :    0.002976
  10 H :    0.007014
  11 H :   -0.000891
  12 H :   -0.005471
  13 H :    0.080822
  14 H :    0.084388
  15 H :    0.005643
  16 H :   -0.016312
  17 H :   -0.003952
  18 H :   -0.008928
  19 H :    0.084255
  20 H :    0.083774
Sum of atomic charges:    0.0000000

LOEWDIN ATOMIC CHARGES
----------------------
   0 C :   -0.073550
   1 C :   -0.060185
   2 C :   -0.001713
   3 N :   -0.088353
   4 C :   -0.047366
   5 C :    0.005680
   6 N :   -0.117744
   7 H :    0.028587
   8 H :    0.025291
   9 H :    0.014796
  10 H :    0.024715
  11 H :    0.019159
  12 H :    0.019741
  13 H :    0.047672
  14 H :    0.047886
  15 H :    0.025362
  16 H :    0.015967
  17 H :   -0.001030
  18 H :    0.017386
  19 H :    0.047293
  20 H :    0.050407

  Mayer bond orders larger than 0.1
B(  0-C ,  1-C ) :   1.1184 B(  0-C ,  7-H ) :   0.9559 B(  0-C ,  8-H ) :   0.9603
B(  0-C ,  9-H ) :   0.9528 B(  1-C ,  2-C ) :   1.0411 B(  1-C , 10-H ) :   0.9217
B(  1-C , 11-H ) :   0.9222 B(  2-C ,  3-N ) :   1.0775 B(  2-C ,  4-C ) :   1.0612
B(  2-C , 12-H ) :   0.9022 B(  3-N , 13-H ) :   0.9673 B(  3-N , 14-H ) :   0.9682
B(  4-C ,  5-C ) :   1.0958 B(  4-C , 15-H ) :   0.9276 B(  4-C , 16-H ) :   0.9155
B(  5-C ,  6-N ) :   1.0874 B(  5-C , 17-H ) :   0.9279 B(  5-C , 18-H ) :   0.9225
B(  6-N , 19-H ) :   0.9682 B(  6-N , 20-H ) :   0.9651

FINAL SINGLE POINT ENERGY      -307.811187715153

DIPOLE MOMENT
-------------
                                X             Y             Z
Electronic contribution:      2.31403      -2.13979      -0.06071
Nuclear contribution   :     -2.79550       1.98689      -0.10250
                        -----------------------------------------
Total Dipole Moment    :     -0.48146      -0.15290      -0.16321
                        -----------------------------------------
Magnitude (a.u.)       :      0.53087
Magnitude (Debye)      :      1.34936

                             ****ORCA TERMINATED NORMALLY****
TOTAL RUN TIME: 0 days 0 hours 0 minutes 8 seconds 417 msec
