                         Program Version 3.0.3 - RELEASE   -
|  1> ! RI PBE def2-SVP def2-SVP/J NBO PAL2
|  2> % maxcore 2000
|  3> % output
|  4>     # printlevel mini
|  5>     print[ P_Basis ] 0
|  6>     print[ P_SCFInfo ] 1
|  7>     print[ P_SCFIterInfo ] 1
|  8>     print[ P_OrbEn ] 0
|  9>     print[ P_Cartesian ] 0
| 10> end
| 11> *xyz 0 1
| 12>  C        2.2184980000     0.4137430000    -1.3101770000
| 13>  C        2.6601940000     0.0301300000     0.0993700000
| 14>  C        3.1604130000     1.1944820000     0.8984370000
| 15>  N        2.2447590000     2.1430280000     1.2034880000
| 16>  C        4.4684970000     1.2974700000     1.2472630000
| 17>  C        4.9278160000     2.3991490000     1.9953140000
| 18>  N        5.2451420000     3.3236790000     2.6134900000
| 19>  H        1.8693660000    -0.4672900000    -1.8518940000
| 20>  H        3.0473930000     0.8520290000    -1.8692260000
| 21>  H        1.4056600000     1.1423670000    -1.2967390000
| 22>  H        3.4500200000    -0.7207370000     0.0520830000
| 23>  H        1.8221310000    -0.4292080000     0.6373370000
| 24>  H        1.2668680000     1.9359300000     1.1215040000
| 25>  H        2.5046690000     2.9053920000     1.8077620000
| 26>  H        5.1763660000     0.5378560000     0.9495800000
| 27> *
| 28>
| 29>                          ****END OF INPUT****
 Total Charge           Charge          ....    0
 Multiplicity           Mult            ....    1
 Number of Electrons    NEL             ....   52
 Basis Dimension        Dim             ....  138

MULLIKEN ATOMIC CHARGES
-----------------------
   0 C :   -0.024064
   1 C :    0.018714
   2 C :   -0.103048
   3 N :   -0.019649
   4 C :   -0.145606
   5 C :   -0.143248
   6 N :    0.014205
   7 H :    0.034363
   8 H :    0.038849
   9 H :    0.023395
  10 H :    0.021925
  11 H :    0.028558
  12 H :    0.113427
  13 H :    0.127893
  14 H :    0.014285
Sum of atomic charges:    0.0000000

LOEWDIN ATOMIC CHARGES
----------------------
   0 C :   -0.059477
   1 C :   -0.040521
   2 C :    0.039650
   3 N :    0.035624
   4 C :   -0.180164
   5 C :   -0.058752
   6 N :   -0.100955
   7 H :    0.032379
   8 H :    0.034777
   9 H :    0.024227
  10 H :    0.039063
  11 H :    0.035004
  12 H :    0.074363
  13 H :    0.081328
  14 H :    0.043453

  Mayer bond orders larger than 0.1
B(  0-C ,  1-C ) :   1.1134 B(  0-C ,  7-H ) :   0.9599 B(  0-C ,  8-H ) :   0.9631
B(  0-C ,  9-H ) :   0.9653 B(  1-C ,  2-C ) :   1.0589 B(  1-C , 10-H ) :   0.9170
B(  1-C , 11-H ) :   0.9139 B(  2-C ,  3-N ) :   1.3620 B(  2-C ,  4-C ) :   1.6256
B(  3-N , 12-H ) :   0.9392 B(  3-N , 13-H ) :   0.9301 B(  4-C ,  5-C ) :   1.1392
B(  4-C , 14-H ) :   0.9323 B(  5-C ,  6-N ) :   2.9232

FINAL SINGLE POINT ENERGY      -304.220938573320

DIPOLE MOMENT
-------------
                                X             Y             Z
Electronic contribution:      5.26077       4.93943       6.41538
Nuclear contribution   :     -6.88190      -6.02026      -7.29740
                        -----------------------------------------
Total Dipole Moment    :     -1.62114      -1.08084      -0.88202
                        -----------------------------------------
Magnitude (a.u.)       :      2.13875
Magnitude (Debye)      :      5.43627

                             ****ORCA TERMINATED NORMALLY****
TOTAL RUN TIME: 0 days 0 hours 0 minutes 6 seconds 689 msec
