                         Program Version 3.0.3 - RELEASE   -
|  1> ! RI PBE def2-SVP def2-SVP/J NBO PAL2
|  2> % maxcore 2000
|  3> % output
|  4>     # printlevel mini
|  5>     print[ P_Basis ] 0
|  6>     print[ P_SCFInfo ] 1
|  7>     print[ P_SCFIterInfo ] 1
|  8>     print[ P_OrbEn ] 0
|  9>     print[ P_Cartesian ] 0
| 10> end
| 11> *xyz 0 1
| 12>  C        0.9246290000     0.1073530000    -0.0366890000
| 13>  C        2.4409130000     0.0431720000     0.0226560000
| 14>  C        3.0672170000    -0.8583400000    -1.0407630000
| 15>  N        2.7418480000    -0.4873130000    -2.4144560000
| 16>  C        4.5959620000    -0.9114400000    -0.8968880000
| 17>  C        5.1772190000    -2.1506320000    -1.5633080000
| 18>  N        5.1589690000     0.3395040000    -1.3994880000
| 19>  H        0.5235130000     0.7317660000     0.7647890000
| 20>  H        0.4795830000    -0.8874890000     0.0669570000
| 21>  H        0.5741530000     0.5308750000    -0.9814180000
| 22>  H        2.7484790000    -0.3200480000     1.0102090000
| 23>  H        2.8717630000     1.0447790000    -0.0848590000
| 24>  H        2.6901940000    -1.8780940000    -0.8922570000
| 25>  H        2.8374570000     0.5165500000    -2.5232090000
| 26>  H        1.7828030000    -0.7187640000    -2.6347020000
| 27>  H        4.8192350000    -0.9500150000     0.1754780000
| 28>  H        4.9031240000    -2.1678000000    -2.6215810000
| 29>  H        4.8025250000    -3.0688310000    -1.1009090000
| 30>  H        6.2679600000    -2.1572930000    -1.4871520000
| 31>  H        5.1627010000     0.3109560000    -2.4136780000
| 32>  H        6.1245530000     0.4301330000    -1.1100210000
| 33> *
| 34>
| 35>                          ****END OF INPUT****
 Total Charge           Charge          ....    0
 Multiplicity           Mult            ....    1
 Number of Electrons    NEL             ....   58
 Basis Dimension        Dim             ....  168

MULLIKEN ATOMIC CHARGES
-----------------------
   0 C :    0.006224
   1 C :    0.017451
   2 C :   -0.035873
   3 N :   -0.185075
   4 C :   -0.021469
   5 C :    0.041922
   6 N :   -0.189757
   7 H :    0.019544
   8 H :    0.007255
   9 H :   -0.003891
  10 H :   -0.010705
  11 H :    0.004267
  12 H :   -0.010536
  13 H :    0.088896
  14 H :    0.089300
  15 H :   -0.008319
  16 H :    0.016614
  17 H :   -0.000665
  18 H :    0.004405
  19 H :    0.085529
  20 H :    0.084881
Sum of atomic charges:   -0.0000000

LOEWDIN ATOMIC CHARGES
----------------------
   0 C :   -0.071026
   1 C :   -0.057720
   2 C :   -0.002554
   3 N :   -0.088239
   4 C :   -0.005600
   5 C :   -0.079605
   6 N :   -0.094055
   7 H :    0.027532
   8 H :    0.021169
   9 H :    0.013561
  10 H :    0.020751
  11 H :    0.021116
  12 H :    0.017807
  13 H :    0.048084
  14 H :    0.050343
  15 H :    0.018493
  16 H :    0.023511
  17 H :    0.021981
  18 H :    0.017644
  19 H :    0.046220
  20 H :    0.050587

  Mayer bond orders larger than 0.1
B(  0-C ,  1-C ) :   1.1170 B(  0-C ,  7-H ) :   0.9604 B(  0-C ,  8-H ) :   0.9615
B(  0-C ,  9-H ) :   0.9538 B(  1-C ,  2-C ) :   1.0402 B(  1-C , 10-H ) :   0.9183
B(  1-C , 11-H ) :   0.9173 B(  2-C ,  3-N ) :   1.0897 B(  2-C ,  4-C ) :   1.0055
B(  2-C , 12-H ) :   0.9154 B(  3-N , 13-H ) :   0.9629 B(  3-N , 14-H ) :   0.9687
B(  4-C ,  5-C ) :   1.0787 B(  4-C ,  6-N ) :   1.0820 B(  4-C , 15-H ) :   0.9129
B(  5-C , 16-H ) :   0.9454 B(  5-C , 17-H ) :   0.9430 B(  5-C , 18-H ) :   0.9578
B(  6-N , 19-H ) :   0.9636 B(  6-N , 20-H ) :   0.9672

FINAL SINGLE POINT ENERGY      -307.816515566501

DIPOLE MOMENT
-------------
                                X             Y             Z
Electronic contribution:      1.57065       0.83833      -1.09345
Nuclear contribution   :     -1.56878      -0.84879       1.09962
                        -----------------------------------------
Total Dipole Moment    :      0.00187      -0.01046       0.00617
                        -----------------------------------------
Magnitude (a.u.)       :      0.01228
Magnitude (Debye)      :      0.03123

                             ****ORCA TERMINATED NORMALLY****
TOTAL RUN TIME: 0 days 0 hours 0 minutes 8 seconds 590 msec
