                         Program Version 3.0.3 - RELEASE   -
|  1> ! RI PBE def2-SVP def2-SVP/J NBO PAL2
|  2> % maxcore 2000
|  3> % output
|  4>     # printlevel mini
|  5>     print[ P_Basis ] 0
|  6>     print[ P_SCFInfo ] 1
|  7>     print[ P_SCFIterInfo ] 1
|  8>     print[ P_OrbEn ] 0
|  9>     print[ P_Cartesian ] 0
| 10> end
| 11> *xyz 0 1
| 12>  C        2.9880180000     1.5389700000    -0.5612190000
| 13>  C        2.5575640000     0.1960060000    -0.0003940000
| 14>  C        3.0667370000    -0.0711580000     1.4150480000
| 15>  N        2.5345140000    -1.3117960000     1.9319480000
| 16>  C        2.8927440000    -1.6001590000     3.3071450000
| 17>  C        4.5450990000    -0.0324550000     1.4483470000
| 18>  N        5.6950390000    -0.0618380000     1.4795750000
| 19>  H        2.5857120000     1.6823630000    -1.5655420000
| 20>  H        4.0757290000     1.6183360000    -0.6234590000
| 21>  H        2.6264430000     2.3620780000     0.0610000000
| 22>  H        2.9034230000    -0.6129110000    -0.6528240000
| 23>  H        1.4683170000     0.1235320000     0.0464200000
| 24>  H        2.7204910000     0.7381010000     2.0701580000
| 25>  H        2.8113920000    -2.0757650000     1.3271210000
| 26>  H        2.4687840000    -0.8325000000     3.9599090000
| 27>  H        3.9760920000    -1.6425790000     3.4901030000
| 28>  H        2.4551830000    -2.5567050000     3.5960370000
| 29> *
| 30>
| 31>                          ****END OF INPUT****
 Total Charge           Charge          ....    0
 Multiplicity           Mult            ....    1
 Number of Electrons    NEL             ....   54
 Basis Dimension        Dim             ....  148

MULLIKEN ATOMIC CHARGES
-----------------------
   0 C :   -0.020813
   1 C :   -0.015880
   2 C :    0.032476
   3 N :   -0.230541
   4 C :    0.063788
   5 C :   -0.240994
   6 N :    0.033207
   7 H :    0.028169
   8 H :    0.046951
   9 H :    0.023284
  10 H :    0.022345
  11 H :    0.036023
  12 H :    0.035173
  13 H :    0.110897
  14 H :    0.021913
  15 H :    0.026300
  16 H :    0.027701
Sum of atomic charges:   -0.0000000

LOEWDIN ATOMIC CHARGES
----------------------
   0 C :   -0.064872
   1 C :   -0.034816
   2 C :   -0.015266
   3 N :   -0.075125
   4 C :   -0.003882
   5 C :   -0.062222
   6 N :   -0.071799
   7 H :    0.033390
   8 H :    0.034099
   9 H :    0.028415
  10 H :    0.029039
  11 H :    0.033911
  12 H :    0.046024
  13 H :    0.060531
  14 H :    0.025058
  15 H :    0.009608
  16 H :    0.027908

  Mayer bond orders larger than 0.1
B(  0-C ,  1-C ) :   1.1171 B(  0-C ,  7-H ) :   0.9557 B(  0-C ,  8-H ) :   0.9605
B(  0-C ,  9-H ) :   0.9628 B(  1-C ,  2-C ) :   1.0718 B(  1-C , 10-H ) :   0.9243
B(  1-C , 11-H ) :   0.9316 B(  2-C ,  3-N ) :   1.0907 B(  2-C ,  5-C ) :   0.9569
B(  2-C , 12-H ) :   0.8833 B(  3-N ,  4-C ) :   1.0541 B(  3-N , 13-H ) :   0.9398
B(  4-C , 14-H ) :   0.9642 B(  4-C , 15-H ) :   0.9459 B(  4-C , 16-H ) :   0.9714
B(  5-C ,  6-N ) :   3.0550

FINAL SINGLE POINT ENERGY      -305.402882983477

DIPOLE MOMENT
-------------
                                X             Y             Z
Electronic contribution:      4.67611      -0.94777       1.05055
Nuclear contribution   :     -5.78980       0.79114      -1.14582
                        -----------------------------------------
Total Dipole Moment    :     -1.11369      -0.15663      -0.09527
                        -----------------------------------------
Magnitude (a.u.)       :      1.12867
Magnitude (Debye)      :      2.86886

                             ****ORCA TERMINATED NORMALLY****
TOTAL RUN TIME: 0 days 0 hours 0 minutes 7 seconds 464 msec
