                         Program Version 3.0.3 - RELEASE   -
|  1> ! RI PBE def2-SVP def2-SVP/J NBO PAL2
|  2> % maxcore 2000
|  3> % output
|  4>     # printlevel mini
|  5>     print[ P_Basis ] 0
|  6>     print[ P_SCFInfo ] 1
|  7>     print[ P_SCFIterInfo ] 1
|  8>     print[ P_OrbEn ] 0
|  9>     print[ P_Cartesian ] 0
| 10> end
| 11> *xyz 0 1
| 12>  C        1.4413780000     0.9782290000    -0.5175330000
| 13>  C        2.7184900000     1.2311140000     0.2645740000
| 14>  C        3.7281680000     0.1030360000     0.0900510000
| 15>  N        4.9703310000     0.2921240000     0.8020110000
| 16>  C        5.8891440000     1.2965290000     0.3385570000
| 17>  C        5.1510750000    -0.2671950000     2.0323750000
| 18>  N        6.0722270000    -0.0643710000     2.8871530000
| 19>  H        0.7238610000     1.7896640000    -0.3819460000
| 20>  H        0.9573890000     0.0515460000    -0.1963060000
| 21>  H        1.6425720000     0.8901730000    -1.5889800000
| 22>  H        2.4953980000     1.3417120000     1.3308400000
| 23>  H        3.1705840000     2.1754880000    -0.0568530000
| 24>  H        3.9484400000    -0.0301790000    -0.9765580000
| 25>  H        3.2863870000    -0.8372500000     0.4341060000
| 26>  H        5.6992130000     1.4979300000    -0.7162830000
| 27>  H        6.9198300000     0.9420520000     0.4331870000
| 28>  H        5.8026890000     2.2416740000     0.8902500000
| 29>  H        4.3827160000    -1.0065160000     2.2716170000
| 30>  H        6.7256180000     0.6555310000     2.5840260000
| 31> *
| 32>
| 33>                          ****END OF INPUT****
 Total Charge           Charge          ....    0
 Multiplicity           Mult            ....    1
 Number of Electrons    NEL             ....   56
 Basis Dimension        Dim             ....  158

MULLIKEN ATOMIC CHARGES
-----------------------
   0 C :   -0.046037
   1 C :   -0.022908
   2 C :    0.080897
   3 N :   -0.242977
   4 C :    0.068452
   5 C :    0.000308
   6 N :   -0.150959
   7 H :    0.033019
   8 H :    0.024294
   9 H :    0.026136
  10 H :    0.020695
  11 H :    0.010644
  12 H :    0.012486
  13 H :    0.015066
  14 H :    0.028890
  15 H :    0.038625
  16 H :    0.035551
  17 H :    0.002259
  18 H :    0.065559
Sum of atomic charges:    0.0000000

LOEWDIN ATOMIC CHARGES
----------------------
   0 C :   -0.068353
   1 C :   -0.057089
   2 C :    0.026231
   3 N :   -0.042856
   4 C :    0.007664
   5 C :    0.008248
   6 N :   -0.175684
   7 H :    0.031757
   8 H :    0.027101
   9 H :    0.026595
  10 H :    0.027934
  11 H :    0.022918
  12 H :    0.018986
  13 H :    0.025964
  14 H :    0.030443
  15 H :    0.026496
  16 H :    0.018916
  17 H :    0.011043
  18 H :    0.033685

  Mayer bond orders larger than 0.1
B(  0-C ,  1-C ) :   1.1134 B(  0-C ,  7-H ) :   0.9615 B(  0-C ,  8-H ) :   0.9671
B(  0-C ,  9-H ) :   0.9657 B(  1-C ,  2-C ) :   1.0819 B(  1-C , 10-H ) :   0.9325
B(  1-C , 11-H ) :   0.9337 B(  2-C ,  3-N ) :   1.0202 B(  2-C , 12-H ) :   0.9348
B(  2-C , 13-H ) :   0.9285 B(  3-N ,  4-C ) :   1.0113 B(  3-N ,  5-C ) :   1.1466
B(  3-N ,  6-N ) :   0.1035 B(  4-C , 14-H ) :   0.9574 B(  4-C , 15-H ) :   0.9548
B(  4-C , 16-H ) :   0.9577 B(  5-C ,  6-N ) :   1.9783 B(  5-C , 17-H ) :   0.9379
B(  6-N , 18-H ) :   0.9496

FINAL SINGLE POINT ENERGY      -306.612434032526

DIPOLE MOMENT
-------------
                                X             Y             Z
Electronic contribution:      4.65662      -2.57190       4.19660
Nuclear contribution   :     -5.18152       3.13670      -5.45560
                        -----------------------------------------
Total Dipole Moment    :     -0.52490       0.56480      -1.25900
                        -----------------------------------------
Magnitude (a.u.)       :      1.47634
Magnitude (Debye)      :      3.75256

                             ****ORCA TERMINATED NORMALLY****
TOTAL RUN TIME: 0 days 0 hours 0 minutes 8 seconds 572 msec
