                         Program Version 3.0.3 - RELEASE   -
|  1> ! RI PBE def2-SVP def2-SVP/J NBO PAL2
|  2> % maxcore 2000
|  3> % output
|  4>     # printlevel mini
|  5>     print[ P_Basis ] 0
|  6>     print[ P_SCFInfo ] 1
|  7>     print[ P_SCFIterInfo ] 1
|  8>     print[ P_OrbEn ] 0
|  9>     print[ P_Cartesian ] 0
| 10> end
| 11> *xyz 0 1
| 12>  C        2.0051840000     1.7856880000    -0.1753650000
| 13>  C        1.9497320000     0.2670760000    -0.1345480000
| 14>  C        3.3134650000    -0.3994170000    -0.1964830000
| 15>  N        4.1027500000    -0.0893820000     0.9679380000
| 16>  C        5.3940630000    -0.5195810000     1.1286510000
| 17>  C        5.9752440000    -0.2238690000     2.4799770000
| 18>  N        6.1144600000    -1.0990270000     0.2488500000
| 19>  H        1.0030290000     2.2172260000    -0.1315760000
| 20>  H        2.4784560000     2.1329590000    -1.0976350000
| 21>  H        2.5808850000     2.1918010000     0.6589370000
| 22>  H        1.3567420000    -0.1035580000    -0.9755680000
| 23>  H        1.4277710000    -0.0683050000     0.7702910000
| 24>  H        3.8450310000    -0.0446130000    -1.0881270000
| 25>  H        3.1910930000    -1.4863930000    -0.3109390000
| 26>  H        3.5953700000     0.1395500000     1.8060930000
| 27>  H        5.9574270000     0.8500600000     2.6839250000
| 28>  H        7.0024750000    -0.5781790000     2.5095520000
| 29>  H        5.4040170000    -0.7232100000     3.2684480000
| 30>  H        5.6014360000    -1.2516250000    -0.6170100000
| 31> *
| 32>
| 33>                          ****END OF INPUT****
 Total Charge           Charge          ....    0
 Multiplicity           Mult            ....    1
 Number of Electrons    NEL             ....   56
 Basis Dimension        Dim             ....  158

MULLIKEN ATOMIC CHARGES
-----------------------
   0 C :   -0.009419
   1 C :   -0.084797
   2 C :    0.103066
   3 N :   -0.139630
   4 C :   -0.194958
   5 C :    0.048800
   6 N :   -0.117699
   7 H :    0.024657
   8 H :    0.021447
   9 H :    0.016873
  10 H :    0.022321
  11 H :    0.018101
  12 H :    0.016864
  13 H :    0.017634
  14 H :    0.102295
  15 H :    0.033027
  16 H :    0.031735
  17 H :    0.025750
  18 H :    0.063931
Sum of atomic charges:   -0.0000000

LOEWDIN ATOMIC CHARGES
----------------------
   0 C :   -0.065063
   1 C :   -0.052606
   2 C :    0.017042
   3 N :   -0.026235
   4 C :   -0.001607
   5 C :   -0.071329
   6 N :   -0.178054
   7 H :    0.028453
   8 H :    0.028272
   9 H :    0.022086
  10 H :    0.033075
  11 H :    0.023254
  12 H :    0.020520
  13 H :    0.014213
  14 H :    0.066037
  15 H :    0.034861
  16 H :    0.042068
  17 H :    0.032589
  18 H :    0.032424

  Mayer bond orders larger than 0.1
B(  0-C ,  1-C ) :   1.1107 B(  0-C ,  7-H ) :   0.9632 B(  0-C ,  8-H ) :   0.9655
B(  0-C ,  9-H ) :   0.9669 B(  1-C ,  2-C ) :   1.0917 B(  1-C , 10-H ) :   0.9315
B(  1-C , 11-H ) :   0.9377 B(  2-C ,  3-N ) :   1.0098 B(  2-C , 12-H ) :   0.9220
B(  2-C , 13-H ) :   0.9311 B(  3-N ,  4-C ) :   1.1717 B(  3-N , 14-H ) :   0.9213
B(  4-C ,  5-C ) :   1.0398 B(  4-C ,  6-N ) :   2.0162 B(  5-C , 15-H ) :   0.9529
B(  5-C , 16-H ) :   0.9459 B(  5-C , 17-H ) :   0.9475 B(  6-N , 18-H ) :   0.9432

FINAL SINGLE POINT ENERGY      -306.626327032542

DIPOLE MOMENT
-------------
                                X             Y             Z
Electronic contribution:      4.09045      -2.92156       0.18954
Nuclear contribution   :     -5.39879       3.33839       0.06345
                        -----------------------------------------
Total Dipole Moment    :     -1.30835       0.41683       0.25299
                        -----------------------------------------
Magnitude (a.u.)       :      1.39626
Magnitude (Debye)      :      3.54900

                             ****ORCA TERMINATED NORMALLY****
TOTAL RUN TIME: 0 days 0 hours 0 minutes 8 seconds 662 msec
