                         Program Version 3.0.3 - RELEASE   -
|  1> ! RI PBE def2-SVP def2-SVP/J NBO PAL2
|  2> % maxcore 2000
|  3> % output
|  4>     # printlevel mini
|  5>     print[ P_Basis ] 0
|  6>     print[ P_SCFInfo ] 1
|  7>     print[ P_SCFIterInfo ] 1
|  8>     print[ P_OrbEn ] 0
|  9>     print[ P_Cartesian ] 0
| 10> end
| 11> *xyz 0 1
| 12>  C        0.4107690000     0.2766370000     0.0313560000
| 13>  C        1.9287600000     0.2998850000    -0.0131180000
| 14>  C        2.5078660000    -0.9422830000    -0.6611390000
| 15>  N        3.9578940000    -0.8692570000    -0.7231420000
| 16>  C        4.5893650000    -2.0243940000    -1.3100520000
| 17>  C        4.3519690000    -3.2905140000    -0.5935230000
| 18>  N        4.1496940000    -4.2504030000     0.0070170000
| 19>  H        0.0154980000     1.1756860000     0.5080770000
| 20>  H        0.0421350000    -0.5860440000     0.5926020000
| 21>  H       -0.0131290000     0.2220720000    -0.9750620000
| 22>  H        2.3239050000     0.3883510000     1.0062140000
| 23>  H        2.2816900000     1.1795070000    -0.5598430000
| 24>  H        2.1347750000    -1.0269930000    -1.6889570000
| 25>  H        2.1542970000    -1.8372590000    -0.1228300000
| 26>  H        4.3363560000    -0.7006920000     0.2014640000
| 27>  H        5.6697260000    -1.8670640000    -1.3653350000
| 28>  H        4.2347580000    -2.1487450000    -2.3379280000
| 29> *
| 30>
| 31>                          ****END OF INPUT****
 Total Charge           Charge          ....    0
 Multiplicity           Mult            ....    1
 Number of Electrons    NEL             ....   54
 Basis Dimension        Dim             ....  148

MULLIKEN ATOMIC CHARGES
-----------------------
   0 C :   -0.021223
   1 C :   -0.055105
   2 C :    0.071760
   3 N :   -0.236429
   4 C :    0.185325
   5 C :   -0.310289
   6 N :    0.028595
   7 H :    0.024783
   8 H :    0.025704
   9 H :    0.021532
  10 H :    0.012850
  11 H :    0.020226
  12 H :    0.005639
  13 H :    0.013814
  14 H :    0.107608
  15 H :    0.059054
  16 H :    0.046157
Sum of atomic charges:    0.0000000

LOEWDIN ATOMIC CHARGES
----------------------
   0 C :   -0.063068
   1 C :   -0.050675
   2 C :    0.010585
   3 N :   -0.077051
   4 C :   -0.006484
   5 C :   -0.073384
   6 N :   -0.066352
   7 H :    0.029664
   8 H :    0.027034
   9 H :    0.026064
  10 H :    0.023058
  11 H :    0.026253
  12 H :    0.021484
  13 H :    0.007196
  14 H :    0.059898
  15 H :    0.053770
  16 H :    0.052008

  Mayer bond orders larger than 0.1
B(  0-C ,  1-C ) :   1.1134 B(  0-C ,  7-H ) :   0.9622 B(  0-C ,  8-H ) :   0.9667
B(  0-C ,  9-H ) :   0.9675 B(  1-C ,  2-C ) :   1.0945 B(  1-C , 10-H ) :   0.9371
B(  1-C , 11-H ) :   0.9363 B(  2-C ,  3-N ) :   1.0315 B(  2-C , 12-H ) :   0.9284
B(  2-C , 13-H ) :   0.9210 B(  3-N ,  4-C ) :   1.1272 B(  3-N , 14-H ) :   0.9405
B(  4-C ,  5-C ) :   1.0098 B(  4-C , 15-H ) :   0.9141 B(  4-C , 16-H ) :   0.9006
B(  5-C ,  6-N ) :   3.0546

FINAL SINGLE POINT ENERGY      -305.402160414172

DIPOLE MOMENT
-------------
                                X             Y             Z
Electronic contribution:      7.17935      -7.89379      -0.24361
Nuclear contribution   :     -7.16171       8.98621      -0.10804
                        -----------------------------------------
Total Dipole Moment    :      0.01765       1.09242      -0.35165
                        -----------------------------------------
Magnitude (a.u.)       :      1.14776
Magnitude (Debye)      :      2.91737

                             ****ORCA TERMINATED NORMALLY****
TOTAL RUN TIME: 0 days 0 hours 0 minutes 7 seconds 42 msec
