                         Program Version 3.0.3 - RELEASE   -
|  1> ! RI PBE def2-SVP def2-SVP/J NBO PAL2
|  2> % maxcore 2000
|  3> % output
|  4>     # printlevel mini
|  5>     print[ P_Basis ] 0
|  6>     print[ P_SCFInfo ] 1
|  7>     print[ P_SCFIterInfo ] 1
|  8>     print[ P_OrbEn ] 0
|  9>     print[ P_Cartesian ] 0
| 10> end
| 11> *xyz 0 1
| 12>  C        1.2514360000     0.5111600000    -0.2062960000
| 13>  C        2.6713490000     0.1772870000     0.0985840000
| 14>  C        3.0540010000    -0.5213170000     1.1662730000
| 15>  N        4.3534660000    -0.8542150000     1.4895610000
| 16>  C        4.7212760000    -1.5721260000     2.5895820000
| 17>  N        5.9268900000    -1.8526440000     2.8429710000
| 18>  C        6.1991110000    -2.6142200000     4.0297540000
| 19>  H        1.0924530000     1.5936080000    -0.2541330000
| 20>  H        0.5777230000     0.1100170000     0.5544030000
| 21>  H        0.9399420000     0.1047900000    -1.1743300000
| 22>  H        3.4281070000     0.5305520000    -0.5991080000
| 23>  H        2.3193910000    -0.8862620000     1.8790230000
| 24>  H        5.1050810000    -0.5581220000     0.8859140000
| 25>  H        3.8751930000    -1.8761930000     3.2213840000
| 26>  H        6.7178950000    -3.5417090000     3.7679600000
| 27>  H        5.2969520000    -2.8766460000     4.6038950000
| 28>  H        6.8704450000    -2.0536380000     4.6877620000
| 29> *
| 30>
| 31>                          ****END OF INPUT****
 Total Charge           Charge          ....    0
 Multiplicity           Mult            ....    1
 Number of Electrons    NEL             ....   54
 Basis Dimension        Dim             ....  148

MULLIKEN ATOMIC CHARGES
-----------------------
   0 C :    0.024990
   1 C :   -0.136232
   2 C :    0.060435
   3 N :   -0.036887
   4 C :    0.020784
   5 N :   -0.207227
   6 C :    0.070744
   7 H :    0.033650
   8 H :    0.015242
   9 H :    0.028792
  10 H :   -0.010723
  11 H :   -0.004810
  12 H :    0.112290
  13 H :   -0.021486
  14 H :    0.028992
  15 H :   -0.009120
  16 H :    0.030564
Sum of atomic charges:   -0.0000000

LOEWDIN ATOMIC CHARGES
----------------------
   0 C :   -0.062068
   1 C :   -0.104095
   2 C :   -0.006208
   3 N :    0.049537
   4 C :    0.022028
   5 N :   -0.154015
   6 C :   -0.008539
   7 H :    0.032994
   8 H :    0.029608
   9 H :    0.032347
  10 H :    0.020060
  11 H :    0.023808
  12 H :    0.083868
  13 H :   -0.009050
  14 H :    0.024547
  15 H :    0.000656
  16 H :    0.024522

  Mayer bond orders larger than 0.1
B(  0-C ,  1-C ) :   1.1007 B(  0-C ,  7-H ) :   0.9500 B(  0-C ,  8-H ) :   0.9620
B(  0-C ,  9-H ) :   0.9488 B(  1-C ,  2-C ) :   1.8004 B(  1-C , 10-H ) :   0.9560
B(  2-C ,  3-N ) :   1.1375 B(  2-C , 11-H ) :   0.9470 B(  3-N ,  4-C ) :   1.1633
B(  3-N , 12-H ) :   0.9213 B(  4-C ,  5-N ) :   1.8412 B(  4-C , 13-H ) :   0.9216
B(  5-N ,  6-C ) :   1.0580 B(  6-C , 14-H ) :   0.9619 B(  6-C , 15-H ) :   0.9402
B(  6-C , 16-H ) :   0.9626

FINAL SINGLE POINT ENERGY      -305.408246820493

DIPOLE MOMENT
-------------
                                X             Y             Z
Electronic contribution:      3.33633      -0.22257      -0.19321
Nuclear contribution   :     -3.80608       0.27618       0.18218
                        -----------------------------------------
Total Dipole Moment    :     -0.46974       0.05360      -0.01102
                        -----------------------------------------
Magnitude (a.u.)       :      0.47292
Magnitude (Debye)      :      1.20207

                             ****ORCA TERMINATED NORMALLY****
TOTAL RUN TIME: 0 days 0 hours 0 minutes 7 seconds 248 msec
