                         Program Version 3.0.3 - RELEASE   -
|  1> ! RI PBE def2-SVP def2-SVP/J NBO PAL2
|  2> % maxcore 2000
|  3> % output
|  4>     # printlevel mini
|  5>     print[ P_Basis ] 0
|  6>     print[ P_SCFInfo ] 1
|  7>     print[ P_SCFIterInfo ] 1
|  8>     print[ P_OrbEn ] 0
|  9>     print[ P_Cartesian ] 0
| 10> end
| 11> *xyz 0 1
| 12>  C        1.4300660000    -0.1391960000    -0.4490050000
| 13>  C        2.7389370000     0.2447890000     0.2311020000
| 14>  C        2.6113850000     1.5425430000     1.0070230000
| 15>  N        3.2471320000    -0.8251080000     1.0894000000
| 16>  C        3.9064160000    -1.9420780000     0.4698920000
| 17>  N        2.5452540000    -1.0101030000     2.2069630000
| 18>  C        2.6277310000    -2.0923040000     2.8791960000
| 19>  H        1.1010550000     0.6491770000    -1.1301980000
| 20>  H        0.6505410000    -0.2923970000     0.3011920000
| 21>  H        1.5357470000    -1.0606820000    -1.0271420000
| 22>  H        3.5070590000     0.3809250000    -0.5373730000
| 23>  H        1.8633180000     1.4470140000     1.7943470000
| 24>  H        2.3103830000     2.3491850000     0.3347860000
| 25>  H        3.5621270000     1.8115940000     1.4710130000
| 26>  H        3.2151880000    -2.7721310000     0.2557750000
| 27>  H        4.6993810000    -2.3278870000     1.1182110000
| 28>  H        4.3627880000    -1.6132450000    -0.4627790000
| 29>  H        2.0549130000    -2.1395720000     3.7976850000
| 30>  H        3.2395790000    -2.9513220000     2.6072190000
| 31> *
| 32>
| 33>                          ****END OF INPUT****
 Total Charge           Charge          ....    0
 Multiplicity           Mult            ....    1
 Number of Electrons    NEL             ....   56
 Basis Dimension        Dim             ....  158

MULLIKEN ATOMIC CHARGES
-----------------------
   0 C :    0.010411
   1 C :   -0.025844
   2 C :    0.027559
   3 N :   -0.225351
   4 C :    0.099786
   5 N :   -0.061913
   6 C :   -0.076552
   7 H :    0.021177
   8 H :    0.034072
   9 H :    0.012213
  10 H :    0.005928
  11 H :    0.037947
  12 H :    0.013557
  13 H :    0.015952
  14 H :    0.020595
  15 H :    0.039871
  16 H :    0.022539
  17 H :    0.026106
  18 H :    0.001948
Sum of atomic charges:   -0.0000000

LOEWDIN ATOMIC CHARGES
----------------------
   0 C :   -0.071357
   1 C :    0.007167
   2 C :   -0.062886
   3 N :   -0.005698
   4 C :   -0.003946
   5 N :   -0.027274
   6 C :   -0.099711
   7 H :    0.028227
   8 H :    0.031393
   9 H :    0.023583
  10 H :    0.020938
  11 H :    0.029870
  12 H :    0.026578
  13 H :    0.027407
  14 H :    0.014817
  15 H :    0.027413
  16 H :    0.029280
  17 H :    0.014420
  18 H :   -0.010223

  Mayer bond orders larger than 0.1
B(  0-C ,  1-C ) :   1.0764 B(  0-C ,  7-H ) :   0.9599 B(  0-C ,  8-H ) :   0.9561
B(  0-C ,  9-H ) :   0.9527 B(  1-C ,  2-C ) :   1.0931 B(  1-C ,  3-N ) :   0.9826
B(  1-C , 10-H ) :   0.9171 B(  2-C , 11-H ) :   0.9538 B(  2-C , 12-H ) :   0.9574
B(  2-C , 13-H ) :   0.9532 B(  3-N ,  4-C ) :   1.0181 B(  3-N ,  5-N ) :   1.1340
B(  3-N ,  6-C ) :   0.1489 B(  4-C , 14-H ) :   0.9384 B(  4-C , 15-H ) :   0.9529
B(  4-C , 16-H ) :   0.9542 B(  5-N ,  6-C ) :   1.8519 B(  6-C , 17-H ) :   0.9543
B(  6-C , 18-H ) :   0.9200

FINAL SINGLE POINT ENERGY      -306.579789706304

DIPOLE MOMENT
-------------
                                X             Y             Z
Electronic contribution:      0.92216      -0.93540       3.09624
Nuclear contribution   :     -0.61128       0.72953      -3.73916
                        -----------------------------------------
Total Dipole Moment    :      0.31088      -0.20587      -0.64292
                        -----------------------------------------
Magnitude (a.u.)       :      0.74322
Magnitude (Debye)      :      1.88911

                             ****ORCA TERMINATED NORMALLY****
TOTAL RUN TIME: 0 days 0 hours 0 minutes 8 seconds 269 msec
