                         Program Version 3.0.3 - RELEASE   -
|  1> ! RI PBE def2-SVP def2-SVP/J NBO PAL2
|  2> % maxcore 2000
|  3> % output
|  4>     # printlevel mini
|  5>     print[ P_Basis ] 0
|  6>     print[ P_SCFInfo ] 1
|  7>     print[ P_SCFIterInfo ] 1
|  8>     print[ P_OrbEn ] 0
|  9>     print[ P_Cartesian ] 0
| 10> end
| 11> *xyz 0 1
| 12>  C        1.0132700000    -0.2580700000    -0.0575780000
| 13>  C        2.5262170000    -0.3184430000     0.0623370000
| 14>  C        3.0703370000     0.2905850000     1.3534430000
| 15>  N        2.6689740000    -0.3930770000     2.5766670000
| 16>  C        4.5917690000     0.3734790000     1.3368390000
| 17>  N        5.0832070000     1.2330510000     0.2806630000
| 18>  C        6.5268870000     1.2727400000     0.2085000000
| 19>  H        0.6729490000    -0.6857210000    -1.0032380000
| 20>  H        0.6556640000     0.7754030000    -0.0168300000
| 21>  H        0.5156810000    -0.8131720000     0.7429840000
| 22>  H        2.9911750000     0.1990220000    -0.7815160000
| 23>  H        2.8638330000    -1.3619960000     0.0080720000
| 24>  H        2.6861230000     1.3182790000     1.4345790000
| 25>  H        2.9611220000    -1.3643950000     2.5418250000
| 26>  H        1.6610670000    -0.3974300000     2.6684420000
| 27>  H        5.0004970000    -0.6322820000     1.1670280000
| 28>  H        4.9290690000     0.6831100000     2.3396740000
| 29>  H        4.7262380000     2.1703960000     0.4238500000
| 30>  H        6.9052190000     0.2900230000    -0.0871370000
| 31>  H        7.0167570000     1.5432900000     1.1589540000
| 32>  H        6.8403630000     1.9888280000    -0.5538680000
| 33> *
| 34>
| 35>                          ****END OF INPUT****
 Total Charge           Charge          ....    0
 Multiplicity           Mult            ....    1
 Number of Electrons    NEL             ....   58
 Basis Dimension        Dim             ....  168

MULLIKEN ATOMIC CHARGES
-----------------------
   0 C :    0.003980
   1 C :    0.014399
   2 C :   -0.069811
   3 N :   -0.172040
   4 C :    0.138347
   5 N :   -0.265166
   6 C :    0.074911
   7 H :    0.018357
   8 H :    0.010968
   9 H :   -0.001960
  10 H :    0.001812
  11 H :   -0.014805
  12 H :   -0.010293
  13 H :    0.082469
  14 H :    0.081497
  15 H :   -0.013907
  16 H :   -0.006641
  17 H :    0.099627
  18 H :    0.016947
  19 H :   -0.008615
  20 H :    0.019925
Sum of atomic charges:   -0.0000000

LOEWDIN ATOMIC CHARGES
----------------------
   0 C :   -0.070573
   1 C :   -0.058694
   2 C :   -0.008433
   3 N :   -0.090661
   4 C :    0.009802
   5 N :   -0.099983
   6 C :   -0.005459
   7 H :    0.027996
   8 H :    0.023211
   9 H :    0.013124
  10 H :    0.021541
  11 H :    0.016427
  12 H :    0.016552
  13 H :    0.048528
  14 H :    0.047728
  15 H :    0.015168
  16 H :    0.000559
  17 H :    0.053296
  18 H :    0.020815
  19 H :   -0.002614
  20 H :    0.021670

  Mayer bond orders larger than 0.1
B(  0-C ,  1-C ) :   1.1117 B(  0-C ,  7-H ) :   0.9596 B(  0-C ,  8-H ) :   0.9644
B(  0-C ,  9-H ) :   0.9534 B(  1-C ,  2-C ) :   1.0357 B(  1-C , 10-H ) :   0.9091
B(  1-C , 11-H ) :   0.9213 B(  2-C ,  3-N ) :   1.0943 B(  2-C ,  4-C ) :   1.0526
B(  2-C , 12-H ) :   0.9054 B(  3-N , 13-H ) :   0.9689 B(  3-N , 14-H ) :   0.9704
B(  4-C ,  5-N ) :   1.0467 B(  4-C , 15-H ) :   0.9140 B(  4-C , 16-H ) :   0.9195
B(  5-N ,  6-C ) :   1.0693 B(  5-N , 17-H ) :   0.9424 B(  6-C , 18-H ) :   0.9686
B(  6-C , 19-H ) :   0.9427 B(  6-C , 20-H ) :   0.9731

FINAL SINGLE POINT ENERGY      -307.805328918258

DIPOLE MOMENT
-------------
                                X             Y             Z
Electronic contribution:      0.45657       0.59782       1.42818
Nuclear contribution   :     -0.55160      -0.60868      -1.50009
                        -----------------------------------------
Total Dipole Moment    :     -0.09503      -0.01086      -0.07191
                        -----------------------------------------
Magnitude (a.u.)       :      0.11967
Magnitude (Debye)      :      0.30418

                             ****ORCA TERMINATED NORMALLY****
TOTAL RUN TIME: 0 days 0 hours 0 minutes 8 seconds 513 msec
