                         Program Version 3.0.3 - RELEASE   -
|  1> ! RI PBE def2-SVP def2-SVP/J NBO PAL2
|  2> % maxcore 2000
|  3> % output
|  4>     # printlevel mini
|  5>     print[ P_Basis ] 0
|  6>     print[ P_SCFInfo ] 1
|  7>     print[ P_SCFIterInfo ] 1
|  8>     print[ P_OrbEn ] 0
|  9>     print[ P_Cartesian ] 0
| 10> end
| 11> *xyz 0 1
| 12>  C        1.9488880000     1.3303660000    -0.7460610000
| 13>  C        2.2617200000     0.0979280000     0.0971600000
| 14>  C        2.9525710000     0.4458260000     1.3861330000
| 15>  N        2.1733460000     0.9320000000     2.4063300000
| 16>  C        0.7424660000     0.7787790000     2.4959740000
| 17>  N        4.2245990000     0.3364820000     1.4382470000
| 18>  C        4.8856420000     0.7240490000     2.6561260000
| 19>  H        1.4820850000     1.0445650000    -1.6912490000
| 20>  H        2.8688040000     1.8735810000    -0.9711470000
| 21>  H        1.2727480000     2.0200500000    -0.2346880000
| 22>  H        2.9460050000    -0.5540480000    -0.4454000000
| 23>  H        1.3468090000    -0.4712910000     0.2890450000
| 24>  H        2.6508800000     1.0606180000     3.2818310000
| 25>  H        0.2485750000     1.1648800000     1.6031110000
| 26>  H        0.3805810000     1.3624560000     3.3434890000
| 27>  H        0.4244210000    -0.2614010000     2.6405020000
| 28>  H        5.9583200000     0.5516860000     2.5590850000
| 29>  H        4.5455090000     0.1466130000     3.5320410000
| 30>  H        4.7451190000     1.7902800000     2.8927620000
| 31> *
| 32>
| 33>                          ****END OF INPUT****
 Total Charge           Charge          ....    0
 Multiplicity           Mult            ....    1
 Number of Electrons    NEL             ....   56
 Basis Dimension        Dim             ....  158

MULLIKEN ATOMIC CHARGES
-----------------------
   0 C :   -0.016911
   1 C :    0.033703
   2 C :   -0.105604
   3 N :   -0.160110
   4 C :    0.070454
   5 N :   -0.200584
   6 C :    0.056526
   7 H :    0.024701
   8 H :    0.029118
   9 H :    0.017799
  10 H :    0.017390
  11 H :    0.009123
  12 H :    0.101166
  13 H :    0.037250
  14 H :    0.027147
  15 H :    0.030218
  16 H :    0.026352
  17 H :   -0.002744
  18 H :    0.005005
Sum of atomic charges:   -0.0000000

LOEWDIN ATOMIC CHARGES
----------------------
   0 C :   -0.058103
   1 C :   -0.052065
   2 C :    0.005017
   3 N :   -0.019308
   4 C :    0.007169
   5 N :   -0.174942
   6 C :   -0.027612
   7 H :    0.027453
   8 H :    0.031626
   9 H :    0.020954
  10 H :    0.039086
  11 H :    0.024550
  12 H :    0.066609
  13 H :    0.026306
  14 H :    0.029555
  15 H :    0.016204
  16 H :    0.023027
  17 H :    0.005204
  18 H :    0.009268

  Mayer bond orders larger than 0.1
B(  0-C ,  1-C ) :   1.1222 B(  0-C ,  7-H ) :   0.9623 B(  0-C ,  8-H ) :   0.9581
B(  0-C ,  9-H ) :   0.9618 B(  1-C ,  2-C ) :   1.0375 B(  1-C , 10-H ) :   0.9056
B(  1-C , 11-H ) :   0.9113 B(  2-C ,  3-N ) :   1.1863 B(  2-C ,  5-N ) :   1.9047
B(  3-N ,  4-C ) :   1.0357 B(  3-N , 12-H ) :   0.9246 B(  4-C , 13-H ) :   0.9560
B(  4-C , 14-H ) :   0.9667 B(  4-C , 15-H ) :   0.9606 B(  5-N ,  6-C ) :   1.0616
B(  6-C , 16-H ) :   0.9700 B(  6-C , 17-H ) :   0.9350 B(  6-C , 18-H ) :   0.9434

FINAL SINGLE POINT ENERGY      -306.613163504276

DIPOLE MOMENT
-------------
                                X             Y             Z
Electronic contribution:      2.55048      -1.25233       0.78917
Nuclear contribution   :     -3.52100       1.46810      -0.14002
                        -----------------------------------------
Total Dipole Moment    :     -0.97052       0.21576       0.64915
                        -----------------------------------------
Magnitude (a.u.)       :      1.18738
Magnitude (Debye)      :      3.01807

                             ****ORCA TERMINATED NORMALLY****
TOTAL RUN TIME: 0 days 0 hours 0 minutes 8 seconds 262 msec
