                         Program Version 3.0.3 - RELEASE   -
|  1> ! RI PBE def2-SVP def2-SVP/J NBO PAL2
|  2> % maxcore 2000
|  3> % output
|  4>     # printlevel mini
|  5>     print[ P_Basis ] 0
|  6>     print[ P_SCFInfo ] 1
|  7>     print[ P_SCFIterInfo ] 1
|  8>     print[ P_OrbEn ] 0
|  9>     print[ P_Cartesian ] 0
| 10> end
| 11> *xyz 0 1
| 12>  C        1.7006550000    -0.6162820000    -1.5725590000
| 13>  C        2.2383300000     0.3182530000    -0.5037190000
| 14>  C        3.1919380000    -0.3638310000     0.4689590000
| 15>  N        4.3996210000    -0.7975650000    -0.1837370000
| 16>  C        4.7274570000    -2.0159190000    -0.0721660000
| 17>  N        5.8784680000    -2.5265780000    -0.5846820000
| 18>  C        6.7204150000    -1.7330490000    -1.4420450000
| 19>  H        1.0213980000    -0.0962540000    -2.2521030000
| 20>  H        1.1496600000    -1.4503020000    -1.1263050000
| 21>  H        2.5150380000    -1.0350920000    -2.1678440000
| 22>  H        1.4093970000     0.7479620000     0.0690500000
| 23>  H        2.7665630000     1.1544770000    -0.9725870000
| 24>  H        2.6684440000    -1.1999230000     0.9674750000
| 25>  H        3.4588210000     0.3546430000     1.2536040000
| 26>  H        4.1241170000    -2.7543500000     0.4754040000
| 27>  H        5.9259860000    -3.5252430000    -0.6722830000
| 28>  H        6.2263890000    -1.4671930000    -2.3837400000
| 29>  H        7.6337130000    -2.2873980000    -1.6590120000
| 30>  H        6.9806990000    -0.8023260000    -0.9365310000
| 31> *
| 32>
| 33>                          ****END OF INPUT****
 Total Charge           Charge          ....    0
 Multiplicity           Mult            ....    1
 Number of Electrons    NEL             ....   56
 Basis Dimension        Dim             ....  158

MULLIKEN ATOMIC CHARGES
-----------------------
   0 C :   -0.037675
   1 C :   -0.026416
   2 C :    0.109297
   3 N :   -0.233420
   4 C :    0.038879
   5 N :   -0.150090
   6 C :    0.089968
   7 H :    0.018662
   8 H :    0.008327
   9 H :    0.021133
  10 H :    0.002414
  11 H :    0.013037
  12 H :   -0.032531
  13 H :    0.009445
  14 H :   -0.025064
  15 H :    0.115713
  16 H :    0.024274
  17 H :    0.016683
  18 H :    0.037364
Sum of atomic charges:   -0.0000000

LOEWDIN ATOMIC CHARGES
----------------------
   0 C :   -0.072723
   1 C :   -0.052819
   2 C :    0.009212
   3 N :   -0.160846
   4 C :    0.016538
   5 N :   -0.011801
   6 C :    0.009471
   7 H :    0.025069
   8 H :    0.020496
   9 H :    0.022655
  10 H :    0.022018
  11 H :    0.024732
  12 H :   -0.004756
  13 H :    0.020103
  14 H :   -0.012725
  15 H :    0.071345
  16 H :    0.018873
  17 H :    0.023298
  18 H :    0.031859

  Mayer bond orders larger than 0.1
B(  0-C ,  1-C ) :   1.1117 B(  0-C ,  7-H ) :   0.9646 B(  0-C ,  8-H ) :   0.9659
B(  0-C ,  9-H ) :   0.9631 B(  1-C ,  2-C ) :   1.0860 B(  1-C , 10-H ) :   0.9325
B(  1-C , 11-H ) :   0.9341 B(  2-C ,  3-N ) :   1.0485 B(  2-C , 12-H ) :   0.9014
B(  2-C , 13-H ) :   0.9264 B(  3-N ,  4-C ) :   1.7769 B(  4-C ,  5-N ) :   1.2282
B(  4-C , 14-H ) :   0.9244 B(  5-N ,  6-C ) :   1.0367 B(  5-N , 15-H ) :   0.9390
B(  6-C , 16-H ) :   0.9628 B(  6-C , 17-H ) :   0.9693 B(  6-C , 18-H ) :   0.9609

FINAL SINGLE POINT ENERGY      -306.618061061462

DIPOLE MOMENT
-------------
                                X             Y             Z
Electronic contribution:      3.71924      -1.81025       2.21749
Nuclear contribution   :     -3.40527       0.98549      -2.33203
                        -----------------------------------------
Total Dipole Moment    :      0.31397      -0.82477      -0.11454
                        -----------------------------------------
Magnitude (a.u.)       :      0.88991
Magnitude (Debye)      :      2.26196

                             ****ORCA TERMINATED NORMALLY****
TOTAL RUN TIME: 0 days 0 hours 0 minutes 8 seconds 477 msec
