                         Program Version 3.0.3 - RELEASE   -
|  1> ! RI PBE def2-SVP def2-SVP/J NBO PAL2
|  2> % maxcore 2000
|  3> % output
|  4>     # printlevel mini
|  5>     print[ P_Basis ] 0
|  6>     print[ P_SCFInfo ] 1
|  7>     print[ P_SCFIterInfo ] 1
|  8>     print[ P_OrbEn ] 0
|  9>     print[ P_Cartesian ] 0
| 10> end
| 11> *xyz 0 1
| 12>  C        0.6123580000    -0.2616390000     1.0323850000
| 13>  C        2.1183650000    -0.3891230000     1.1835880000
| 14>  C        2.8671300000     0.3518500000     0.0831490000
| 15>  N        4.3078120000     0.2938670000     0.1852300000
| 16>  C        4.9812410000    -0.9398490000    -0.1101300000
| 17>  N        4.8303310000     1.1599730000     1.0527090000
| 18>  C        6.0201240000     1.0209420000     1.4960370000
| 19>  H        0.0847010000    -0.7967530000     1.8245160000
| 20>  H        0.2725260000    -0.6688790000     0.0755320000
| 21>  H        0.2989000000     0.7851880000     1.0743060000
| 22>  H        2.4029450000    -1.4472630000     1.1741430000
| 23>  H        2.4377810000     0.0138990000     2.1497000000
| 24>  H        2.5951280000     1.4099070000     0.1009230000
| 25>  H        2.5792640000    -0.0437800000    -0.8972770000
| 26>  H        4.3686620000    -1.5208750000    -0.7986030000
| 27>  H        5.1713950000    -1.5427980000     0.7909750000
| 28>  H        5.9454270000    -0.7459980000    -0.5914710000
| 29>  H        6.3839690000     1.7935560000     2.1623280000
| 30>  H        6.6877400000     0.1990870000     1.2414520000
| 31> *
| 32>
| 33>                          ****END OF INPUT****
 Total Charge           Charge          ....    0
 Multiplicity           Mult            ....    1
 Number of Electrons    NEL             ....   56
 Basis Dimension        Dim             ....  158

MULLIKEN ATOMIC CHARGES
-----------------------
   0 C :   -0.023396
   1 C :   -0.041153
   2 C :    0.124527
   3 N :   -0.226452
   4 C :    0.076718
   5 N :   -0.066986
   6 C :   -0.084082
   7 H :    0.024228
   8 H :    0.016343
   9 H :    0.022595
  10 H :    0.007324
  11 H :    0.020777
  12 H :    0.015187
  13 H :   -0.000074
  14 H :    0.030239
  15 H :    0.028363
  16 H :    0.043011
  17 H :    0.028875
  18 H :    0.003958
Sum of atomic charges:   -0.0000000

LOEWDIN ATOMIC CHARGES
----------------------
   0 C :   -0.064142
   1 C :   -0.059560
   2 C :    0.017188
   3 N :   -0.003808
   4 C :   -0.006202
   5 N :   -0.031060
   6 C :   -0.105379
   7 H :    0.029144
   8 H :    0.023827
   9 H :    0.026604
  10 H :    0.020669
  11 H :    0.027546
  12 H :    0.027183
  13 H :    0.016511
  14 H :    0.031065
  15 H :    0.017344
  16 H :    0.028139
  17 H :    0.015009
  18 H :   -0.010078

  Mayer bond orders larger than 0.1
B(  0-C ,  1-C ) :   1.1174 B(  0-C ,  7-H ) :   0.9609 B(  0-C ,  8-H ) :   0.9668
B(  0-C ,  9-H ) :   0.9677 B(  1-C ,  2-C ) :   1.0864 B(  1-C , 10-H ) :   0.9319
B(  1-C , 11-H ) :   0.9317 B(  2-C ,  3-N ) :   1.0154 B(  2-C , 12-H ) :   0.9277
B(  2-C , 13-H ) :   0.9349 B(  3-N ,  4-C ) :   1.0127 B(  3-N ,  5-N ) :   1.1332
B(  3-N ,  6-C ) :   0.1489 B(  4-C , 14-H ) :   0.9566 B(  4-C , 15-H ) :   0.9405
B(  4-C , 16-H ) :   0.9512 B(  5-N ,  6-C ) :   1.8460 B(  6-C , 17-H ) :   0.9550
B(  6-C , 18-H ) :   0.9188

FINAL SINGLE POINT ENERGY      -306.578153014710

DIPOLE MOMENT
-------------
                                X             Y             Z
Electronic contribution:      4.25984       3.38659      -0.22793
Nuclear contribution   :     -4.42633      -4.10401      -0.07263
                        -----------------------------------------
Total Dipole Moment    :     -0.16649      -0.71742      -0.30056
                        -----------------------------------------
Magnitude (a.u.)       :      0.79545
Magnitude (Debye)      :      2.02187

                             ****ORCA TERMINATED NORMALLY****
TOTAL RUN TIME: 0 days 0 hours 0 minutes 7 seconds 913 msec
