                         Program Version 3.0.3 - RELEASE   -
|  1> ! RI PBE def2-SVP def2-SVP/J NBO PAL2
|  2> % maxcore 2000
|  3> % output
|  4>     # printlevel mini
|  5>     print[ P_Basis ] 0
|  6>     print[ P_SCFInfo ] 1
|  7>     print[ P_SCFIterInfo ] 1
|  8>     print[ P_OrbEn ] 0
|  9>     print[ P_Cartesian ] 0
| 10> end
| 11> *xyz 0 1
| 12>  C        0.9130680000    -0.0787530000    -0.0819720000
| 13>  C        2.4136320000    -0.0499510000    -0.0118970000
| 14>  C        3.1688210000    -0.3891310000    -1.1518870000
| 15>  N        3.8130170000    -0.6691230000    -2.0725290000
| 16>  C        3.1012550000     0.3043420000     1.1129140000
| 17>  N        2.4843300000     0.8121030000     2.2266590000
| 18>  N        4.4623490000     0.1790180000     1.2427950000
| 19>  H        0.5845370000    -0.6850810000    -0.9260300000
| 20>  H        0.4755430000     0.9175250000    -0.2108590000
| 21>  H        0.4775500000    -0.5262220000     0.8179480000
| 22>  H        1.4787860000     0.8040810000     2.2176250000
| 23>  H        2.8860640000     0.5367380000     3.1090850000
| 24>  H        4.9389780000    -0.1047170000     0.3993970000
| 25>  H        4.9169690000     0.9452720000     1.7156520000
| 26> *
| 27>
| 28>                          ****END OF INPUT****
 Total Charge           Charge          ....    0
 Multiplicity           Mult            ....    1
 Number of Electrons    NEL             ....   52
 Basis Dimension        Dim             ....  133

MULLIKEN ATOMIC CHARGES
-----------------------
   0 C :    0.070907
   1 C :   -0.216222
   2 C :   -0.237429
   3 N :    0.023465
   4 C :   -0.094670
   5 N :   -0.056613
   6 N :   -0.037403
   7 H :    0.035408
   8 H :    0.033936
   9 H :    0.014665
  10 H :    0.106384
  11 H :    0.116708
  12 H :    0.124394
  13 H :    0.116469
Sum of atomic charges:    0.0000000

LOEWDIN ATOMIC CHARGES
----------------------
   0 C :   -0.049358
   1 C :   -0.208201
   2 C :   -0.063138
   3 N :   -0.117824
   4 C :    0.048297
   5 N :   -0.000979
   6 N :   -0.006562
   7 H :    0.044570
   8 H :    0.030014
   9 H :    0.024635
  10 H :    0.073409
  11 H :    0.072506
  12 H :    0.080807
  13 H :    0.071823

  Mayer bond orders larger than 0.1
B(  0-C ,  1-C ) :   1.0855 B(  0-C ,  7-H ) :   0.9400 B(  0-C ,  8-H ) :   0.9532
B(  0-C ,  9-H ) :   0.9412 B(  1-C ,  2-C ) :   1.2037 B(  1-C ,  4-C ) :   1.4807
B(  2-C ,  3-N ) :   2.9131 B(  4-C ,  5-N ) :   1.2903 B(  4-C ,  6-N ) :   1.3054
B(  5-N , 10-H ) :   0.9370 B(  5-N , 11-H ) :   0.9414 B(  6-N , 12-H ) :   0.9288
B(  6-N , 13-H ) :   0.9343

FINAL SINGLE POINT ENERGY      -320.250805737401

DIPOLE MOMENT
-------------
                                X             Y             Z
Electronic contribution:      3.80665      -0.83050      -2.85049
Nuclear contribution   :     -4.26379       1.51177       4.98519
                        -----------------------------------------
Total Dipole Moment    :     -0.45714       0.68128       2.13470
                        -----------------------------------------
Magnitude (a.u.)       :      2.28693
Magnitude (Debye)      :      5.81292

                             ****ORCA TERMINATED NORMALLY****
TOTAL RUN TIME: 0 days 0 hours 0 minutes 6 seconds 651 msec
