                         Program Version 3.0.3 - RELEASE   -
|  1> ! RI PBE def2-SVP def2-SVP/J NBO PAL2
|  2> % maxcore 2000
|  3> % output
|  4>     # printlevel mini
|  5>     print[ P_Basis ] 0
|  6>     print[ P_SCFInfo ] 1
|  7>     print[ P_SCFIterInfo ] 1
|  8>     print[ P_OrbEn ] 0
|  9>     print[ P_Cartesian ] 0
| 10> end
| 11> *xyz 0 1
| 12>  C        1.0433260000    -0.1771470000    -0.1161980000
| 13>  C        2.5485150000    -0.0414560000     0.1549860000
| 14>  C        2.9134850000     1.3643210000     0.2547570000
| 15>  N        3.1788320000     2.4797590000     0.3355840000
| 16>  C        2.9790250000    -0.8002010000     1.4127240000
| 17>  N        2.9692700000    -2.1587390000     1.2432580000
| 18>  N        3.3452930000    -0.2934020000     2.5143410000
| 19>  H        0.7647560000     0.3844200000    -1.0081630000
| 20>  H        0.4696700000     0.2044160000     0.7290280000
| 21>  H        0.7720490000    -1.2216280000    -0.2748720000
| 22>  H        3.1054060000    -0.4566710000    -0.6932970000
| 23>  H        2.3840360000    -2.5642630000     0.5355460000
| 24>  H        3.0724870000    -2.6945530000     2.0896110000
| 25>  H        3.3745600000     0.7210520000     2.4734950000
| 26> *
| 27>
| 28>                          ****END OF INPUT****
 Total Charge           Charge          ....    0
 Multiplicity           Mult            ....    1
 Number of Electrons    NEL             ....   52
 Basis Dimension        Dim             ....  133

MULLIKEN ATOMIC CHARGES
-----------------------
   0 C :    0.029948
   1 C :   -0.005046
   2 C :   -0.265760
   3 N :    0.073856
   4 C :   -0.223971
   5 N :   -0.038620
   6 N :   -0.057802
   7 H :    0.052465
   8 H :    0.048266
   9 H :    0.022959
  10 H :    0.053945
  11 H :    0.100864
  12 H :    0.120225
  13 H :    0.088670
Sum of atomic charges:   -0.0000000

LOEWDIN ATOMIC CHARGES
----------------------
   0 C :   -0.034426
   1 C :   -0.084468
   2 C :   -0.037353
   3 N :   -0.056437
   4 C :    0.005509
   5 N :    0.001249
   6 N :   -0.152854
   7 H :    0.040037
   8 H :    0.040374
   9 H :    0.026766
  10 H :    0.060521
  11 H :    0.064628
  12 H :    0.076912
  13 H :    0.049541

  Mayer bond orders larger than 0.1
B(  0-C ,  1-C ) :   1.0730 B(  0-C ,  7-H ) :   0.9603 B(  0-C ,  8-H ) :   0.9567
B(  0-C ,  9-H ) :   0.9571 B(  1-C ,  2-C ) :   1.0669 B(  1-C ,  4-C ) :   0.8768
B(  1-C , 10-H ) :   0.8554 B(  2-C ,  3-N ) :   3.0476 B(  4-C ,  5-N ) :   1.2538
B(  4-C ,  6-N ) :   2.0369 B(  5-N , 11-H ) :   0.9419 B(  5-N , 12-H ) :   0.9391
B(  6-N , 13-H ) :   0.9203

FINAL SINGLE POINT ENERGY      -320.240745789093

DIPOLE MOMENT
-------------
                                X             Y             Z
Electronic contribution:      3.60534       3.63222       1.08398
Nuclear contribution   :     -4.55602      -5.20221      -1.90323
                        -----------------------------------------
Total Dipole Moment    :     -0.95067      -1.56999      -0.81925
                        -----------------------------------------
Magnitude (a.u.)       :      2.00993
Magnitude (Debye)      :      5.10884

                             ****ORCA TERMINATED NORMALLY****
TOTAL RUN TIME: 0 days 0 hours 0 minutes 7 seconds 87 msec
