                         Program Version 3.0.3 - RELEASE   -
|  1> ! RI PBE def2-SVP def2-SVP/J NBO PAL2
|  2> % maxcore 2000
|  3> % output
|  4>     # printlevel mini
|  5>     print[ P_Basis ] 0
|  6>     print[ P_SCFInfo ] 1
|  7>     print[ P_SCFIterInfo ] 1
|  8>     print[ P_OrbEn ] 0
|  9>     print[ P_Cartesian ] 0
| 10> end
| 11> *xyz 0 1
| 12>  C        3.1872150000    -1.3748600000    -0.3682270000
| 13>  C        2.6903140000    -0.1405460000    -0.4081860000
| 14>  C        3.3696830000     0.9948080000     0.1828440000
| 15>  N        2.8578120000     2.1572010000     0.1208040000
| 16>  N        3.6663080000     3.1318410000     0.7523520000
| 17>  C        3.5195090000     4.4213440000     0.0667800000
| 18>  C        2.8199570000     4.1809570000     1.3332270000
| 19>  H        2.6660290000    -2.2124230000    -0.8152200000
| 20>  H        4.1357210000    -1.5847050000     0.1158330000
| 21>  H        1.7415090000     0.0687790000    -0.8924950000
| 22>  H        4.3293340000     0.8347620000     0.6824090000
| 23>  H        2.9247490000     4.4101040000    -0.8391910000
| 24>  H        4.4266520000     5.0128870000     0.0361110000
| 25>  H        1.7512990000     4.0068590000     1.2851860000
| 26>  H        3.1965890000     4.5901920000     2.2629830000
| 27> *
| 28>
| 29>                          ****END OF INPUT****
 Total Charge           Charge          ....    0
 Multiplicity           Mult            ....    1
 Number of Electrons    NEL             ....   52
 Basis Dimension        Dim             ....  138

MULLIKEN ATOMIC CHARGES
-----------------------
   0 C :   -0.014903
   1 C :    0.010282
   2 C :    0.028213
   3 N :   -0.095372
   4 N :   -0.234271
   5 C :    0.042023
   6 C :    0.043140
   7 H :    0.035551
   8 H :    0.027966
   9 H :    0.006704
  10 H :   -0.014781
  11 H :    0.034762
  12 H :    0.047142
  13 H :    0.041319
  14 H :    0.042223
Sum of atomic charges:   -0.0000000

LOEWDIN ATOMIC CHARGES
----------------------
   0 C :   -0.027608
   1 C :   -0.037926
   2 C :   -0.000712
   3 N :   -0.046468
   4 N :   -0.075962
   5 C :    0.001954
   6 C :    0.002051
   7 H :    0.029719
   8 H :    0.026471
   9 H :    0.034031
  10 H :    0.004608
  11 H :    0.019338
  12 H :    0.025311
  13 H :    0.020675
  14 H :    0.024520

  Mayer bond orders larger than 0.1
B(  0-C ,  1-C ) :   1.8846 B(  0-C ,  3-N ) :   0.1204 B(  0-C ,  7-H ) :   0.9450
B(  0-C ,  8-H ) :   0.9486 B(  1-C ,  2-C ) :   1.0956 B(  1-C ,  9-H ) :   0.9569
B(  2-C ,  3-N ) :   1.8288 B(  2-C , 10-H ) :   0.9431 B(  3-N ,  4-N ) :   0.9511
B(  4-N ,  5-C ) :   0.9253 B(  4-N ,  6-C ) :   0.9258 B(  5-C ,  6-C ) :   1.1056
B(  5-C , 11-H ) :   0.9338 B(  5-C , 12-H ) :   0.9507 B(  6-C , 13-H ) :   0.9337
B(  6-C , 14-H ) :   0.9494

FINAL SINGLE POINT ENERGY      -304.130478445523

DIPOLE MOMENT
-------------
                                X             Y             Z
Electronic contribution:      0.11317       0.27847       0.11499
Nuclear contribution   :     -0.11500      -0.35382      -0.13133
                        -----------------------------------------
Total Dipole Moment    :     -0.00183      -0.07536      -0.01634
                        -----------------------------------------
Magnitude (a.u.)       :      0.07713
Magnitude (Debye)      :      0.19604

                             ****ORCA TERMINATED NORMALLY****
TOTAL RUN TIME: 0 days 0 hours 0 minutes 6 seconds 692 msec
