                         Program Version 3.0.3 - RELEASE   -
|  1> ! RI PBE def2-SVP def2-SVP/J NBO PAL2
|  2> % maxcore 2000
|  3> % output
|  4>     # printlevel mini
|  5>     print[ P_Basis ] 0
|  6>     print[ P_SCFInfo ] 1
|  7>     print[ P_SCFIterInfo ] 1
|  8>     print[ P_OrbEn ] 0
|  9>     print[ P_Cartesian ] 0
| 10> end
| 11> *xyz 0 1
| 12>  C        3.1361330000    -0.1980890000    -0.8413110000
| 13>  C        2.4865850000     0.4627090000     0.1097500000
| 14>  C        3.1197580000     1.3671630000     1.0854880000
| 15>  N        2.4827620000     2.1633110000     1.8484690000
| 16>  N        4.5157770000     1.3555760000     1.0923710000
| 17>  C        5.2130370000     1.7289770000     2.2938790000
| 18>  C        5.2203900000     0.3206630000     1.8283050000
| 19>  H        2.6098210000    -0.8393860000    -1.5383480000
| 20>  H        4.2093570000    -0.1023090000    -0.9557970000
| 21>  H        1.4071580000     0.3732310000     0.1977180000
| 22>  H        1.4832280000     2.0979680000     1.6701420000
| 23>  H        4.5979030000     1.9774340000     3.1517590000
| 24>  H        6.0910020000     2.3477850000     2.1460290000
| 25>  H        4.6190090000    -0.3894260000     2.3883090000
| 26>  H        6.0949900000    -0.0951960000     1.3395470000
| 27> *
| 28>
| 29>                          ****END OF INPUT****
 Total Charge           Charge          ....    0
 Multiplicity           Mult            ....    1
 Number of Electrons    NEL             ....   52
 Basis Dimension        Dim             ....  138

MULLIKEN ATOMIC CHARGES
-----------------------
   0 C :   -0.005547
   1 C :    0.012135
   2 C :   -0.118127
   3 N :   -0.059246
   4 N :   -0.227789
   5 C :    0.055114
   6 C :    0.043881
   7 H :    0.030631
   8 H :    0.040526
   9 H :   -0.014168
  10 H :    0.080943
  11 H :    0.043017
  12 H :    0.038446
  13 H :    0.041787
  14 H :    0.038398
Sum of atomic charges:   -0.0000000

LOEWDIN ATOMIC CHARGES
----------------------
   0 C :   -0.021295
   1 C :   -0.055087
   2 C :   -0.005962
   3 N :   -0.123113
   4 N :   -0.068900
   5 C :    0.023666
   6 C :    0.024658
   7 H :    0.029013
   8 H :    0.030722
   9 H :    0.030026
  10 H :    0.047246
  11 H :    0.021830
  12 H :    0.025231
  13 H :    0.021503
  14 H :    0.020462

  Mayer bond orders larger than 0.1
B(  0-C ,  1-C ) :   1.9288 B(  0-C ,  7-H ) :   0.9345 B(  0-C ,  8-H ) :   0.9365
B(  1-C ,  2-C ) :   1.0476 B(  1-C ,  9-H ) :   0.9450 B(  2-C ,  3-N ) :   1.9236
B(  2-C ,  4-N ) :   1.1229 B(  3-N , 10-H ) :   0.9165 B(  4-N ,  5-C ) :   0.9601
B(  4-N ,  6-C ) :   0.9319 B(  5-C ,  6-C ) :   1.0909 B(  5-C , 11-H ) :   0.9278
B(  5-C , 12-H ) :   0.9476 B(  6-C , 13-H ) :   0.9370 B(  6-C , 14-H ) :   0.9493

FINAL SINGLE POINT ENERGY      -304.163604705917

DIPOLE MOMENT
-------------
                                X             Y             Z
Electronic contribution:     -1.10706       1.93682       0.03790
Nuclear contribution   :      1.10247      -2.67683      -0.19002
                        -----------------------------------------
Total Dipole Moment    :     -0.00459      -0.74001      -0.15212
                        -----------------------------------------
Magnitude (a.u.)       :      0.75549
Magnitude (Debye)      :      1.92031

                             ****ORCA TERMINATED NORMALLY****
TOTAL RUN TIME: 0 days 0 hours 0 minutes 7 seconds 490 msec
