                         Program Version 3.0.3 - RELEASE   -
|  1> ! RI PBE def2-SVP def2-SVP/J NBO PAL2
|  2> % maxcore 2000
|  3> % output
|  4>     # printlevel mini
|  5>     print[ P_Basis ] 0
|  6>     print[ P_SCFInfo ] 1
|  7>     print[ P_SCFIterInfo ] 1
|  8>     print[ P_OrbEn ] 0
|  9>     print[ P_Cartesian ] 0
| 10> end
| 11> *xyz 0 1
| 12>  C        1.3866830000    -0.6275400000     1.5363460000
| 13>  C        2.4694000000    -0.4385140000     1.0503200000
| 14>  C        3.7092310000    -0.2009610000     0.3984220000
| 15>  N        4.8079910000    -0.2619860000     1.0361830000
| 16>  N        5.9103830000     0.0080490000     0.1940950000
| 17>  C        7.0792630000    -0.7571610000     0.6504470000
| 18>  C        6.9713380000     0.6696440000     0.9667760000
| 19>  H        0.4366330000    -0.7991310000     1.9850290000
| 20>  H        3.6926550000     0.0360270000    -0.6679050000
| 21>  H        7.7194430000    -1.1011680000    -0.1528290000
| 22>  H        6.8989590000    -1.4609400000     1.4544520000
| 23>  H        7.5295830000     1.4073960000     0.4033010000
| 24>  H        6.7176270000     0.9363940000     1.9859520000
| 25> *
| 26>
| 27>                          ****END OF INPUT****
 Total Charge           Charge          ....    0
 Multiplicity           Mult            ....    1
 Number of Electrons    NEL             ....   50
 Basis Dimension        Dim             ....  128

MULLIKEN ATOMIC CHARGES
-----------------------
   0 C :   -0.381456
   1 C :    0.418322
   2 C :   -0.035119
   3 N :   -0.081178
   4 N :   -0.238688
   5 C :    0.038270
   6 C :    0.047379
   7 H :    0.017016
   8 H :    0.031101
   9 H :    0.049781
  10 H :    0.044523
  11 H :    0.049270
  12 H :    0.040779
Sum of atomic charges:   -0.0000000

LOEWDIN ATOMIC CHARGES
----------------------
   0 C :   -0.032426
   1 C :   -0.024365
   2 C :   -0.013539
   3 N :   -0.023436
   4 N :   -0.075251
   5 C :    0.003997
   6 C :    0.006000
   7 H :    0.040527
   8 H :    0.019672
   9 H :    0.026958
  10 H :    0.022781
  11 H :    0.027035
  12 H :    0.022048

  Mayer bond orders larger than 0.1
B(  0-C ,  1-C ) :   2.3126 B(  0-C ,  3-N ) :   0.1101 B(  0-C ,  7-H ) :   1.0791
B(  1-C ,  2-C ) :   0.9711 B(  2-C ,  3-N ) :   1.8475 B(  2-C ,  8-H ) :   0.9384
B(  3-N ,  4-N ) :   0.9584 B(  4-N ,  5-C ) :   0.9235 B(  4-N ,  6-C ) :   0.9200
B(  5-C ,  6-C ) :   1.1029 B(  5-C ,  9-H ) :   0.9502 B(  5-C , 10-H ) :   0.9345
B(  6-C , 11-H ) :   0.9500 B(  6-C , 12-H ) :   0.9351

FINAL SINGLE POINT ENERGY      -302.878915855010

DIPOLE MOMENT
-------------
                                X             Y             Z
Electronic contribution:     -4.36854      -0.31116      -0.06324
Nuclear contribution   :      4.46557       0.32525       0.05735
                        -----------------------------------------
Total Dipole Moment    :      0.09704       0.01408      -0.00589
                        -----------------------------------------
Magnitude (a.u.)       :      0.09823
Magnitude (Debye)      :      0.24968

                             ****ORCA TERMINATED NORMALLY****
TOTAL RUN TIME: 0 days 0 hours 0 minutes 6 seconds 252 msec
