                         Program Version 3.0.3 - RELEASE   -
|  1> ! RI PBE def2-SVP def2-SVP/J NBO PAL2
|  2> % maxcore 2000
|  3> % output
|  4>     # printlevel mini
|  5>     print[ P_Basis ] 0
|  6>     print[ P_SCFInfo ] 1
|  7>     print[ P_SCFIterInfo ] 1
|  8>     print[ P_OrbEn ] 0
|  9>     print[ P_Cartesian ] 0
| 10> end
| 11> *xyz 0 1
| 12>  C        0.9973580000    -0.0228680000    -0.0017210000
| 13>  C        2.4639910000    -0.1754160000     0.2315090000
| 14>  C        3.2728630000    -0.8778330000    -0.8189790000
| 15>  N        2.9338400000     0.3033760000     1.3125020000
| 16>  N        4.3350720000     0.1131470000     1.4502270000
| 17>  C        4.9161430000     1.2312650000     2.1960310000
| 18>  C        4.6760440000    -0.0536530000     2.8645280000
| 19>  H        0.5284580000    -1.0044850000    -0.1238010000
| 20>  H        0.8161290000     0.5304690000    -0.9287130000
| 21>  H        0.5287480000     0.5010600000     0.8299400000
| 22>  H        2.6417800000    -1.1936840000    -1.6503530000
| 23>  H        3.7732250000    -1.7513140000    -0.3968910000
| 24>  H        4.0617430000    -0.2242620000    -1.1957560000
| 25>  H        4.2389040000     2.0444520000     2.4316420000
| 26>  H        5.9124110000     1.5157220000     1.8782540000
| 27>  H        3.8373640000    -0.1045100000     3.5497070000
| 28>  H        5.4902070000    -0.7434760000     3.0535630000
| 29> *
| 30>
| 31>                          ****END OF INPUT****
 Total Charge           Charge          ....    0
 Multiplicity           Mult            ....    1
 Number of Electrons    NEL             ....   54
 Basis Dimension        Dim             ....  148

MULLIKEN ATOMIC CHARGES
-----------------------
   0 C :    0.068219
   1 C :   -0.254545
   2 C :    0.091838
   3 N :   -0.081954
   4 N :   -0.239769
   5 C :    0.048297
   6 C :    0.040950
   7 H :    0.034234
   8 H :    0.033820
   9 H :    0.026300
  10 H :    0.004520
  11 H :    0.042674
  12 H :    0.045512
  13 H :    0.030629
  14 H :    0.036996
  15 H :    0.031927
  16 H :    0.040351
Sum of atomic charges:   -0.0000000

LOEWDIN ATOMIC CHARGES
----------------------
   0 C :   -0.064012
   1 C :   -0.020147
   2 C :   -0.075726
   3 N :   -0.070640
   4 N :   -0.078314
   5 C :    0.000251
   6 C :   -0.001502
   7 H :    0.038984
   8 H :    0.038904
   9 H :    0.033569
  10 H :    0.026102
  11 H :    0.047077
  12 H :    0.047561
  13 H :    0.016990
  14 H :    0.021505
  15 H :    0.017396
  16 H :    0.022000

  Mayer bond orders larger than 0.1
B(  0-C ,  1-C ) :   1.0879 B(  0-C ,  7-H ) :   0.9412 B(  0-C ,  8-H ) :   0.9411
B(  0-C ,  9-H ) :   0.9478 B(  1-C ,  2-C ) :   1.0507 B(  1-C ,  3-N ) :   1.9561
B(  2-C , 10-H ) :   0.9461 B(  2-C , 11-H ) :   0.9351 B(  2-C , 12-H ) :   0.9351
B(  3-N ,  4-N ) :   0.9622 B(  4-N ,  5-C ) :   0.9377 B(  4-N ,  6-C ) :   0.9369
B(  5-C ,  6-C ) :   1.0998 B(  5-C , 13-H ) :   0.9331 B(  5-C , 14-H ) :   0.9514
B(  6-C , 15-H ) :   0.9323 B(  6-C , 16-H ) :   0.9512

FINAL SINGLE POINT ENERGY      -305.355010424027

DIPOLE MOMENT
-------------
                                X             Y             Z
Electronic contribution:      1.65692       0.90933       2.31113
Nuclear contribution   :     -1.67909      -1.03466      -2.55897
                        -----------------------------------------
Total Dipole Moment    :     -0.02217      -0.12533      -0.24784
                        -----------------------------------------
Magnitude (a.u.)       :      0.27861
Magnitude (Debye)      :      0.70817

                             ****ORCA TERMINATED NORMALLY****
TOTAL RUN TIME: 0 days 0 hours 0 minutes 7 seconds 620 msec
