                         Program Version 3.0.3 - RELEASE   -
|  1> ! RI PBE def2-SVP def2-SVP/J NBO PAL2
|  2> % maxcore 2000
|  3> % output
|  4>     # printlevel mini
|  5>     print[ P_Basis ] 0
|  6>     print[ P_SCFInfo ] 1
|  7>     print[ P_SCFIterInfo ] 1
|  8>     print[ P_OrbEn ] 0
|  9>     print[ P_Cartesian ] 0
| 10> end
| 11> *xyz 0 1
| 12>  C        0.9387260000     0.0650000000    -0.0806210000
| 13>  C        2.4589960000     0.0025080000    -0.0292670000
| 14>  C        3.0244680000     0.1783440000    -1.3796410000
| 15>  N        3.4832750000     0.3483010000    -2.4207800000
| 16>  N        2.9629570000     0.9490580000     0.9494480000
| 17>  C        4.3348010000     1.4028180000     0.8618990000
| 18>  C        3.2150560000     2.3164550000     0.5400390000
| 19>  H        0.5408100000    -0.6884430000    -0.7614700000
| 20>  H        0.6083360000     1.0480440000    -0.4200810000
| 21>  H        0.5456650000    -0.1098970000     0.9210530000
| 22>  H        2.7662170000    -0.9943130000     0.3061510000
| 23>  H        4.9372390000     1.0614540000     0.0241480000
| 24>  H        4.8556730000     1.4815410000     1.8093640000
| 25>  H        3.0850500000     2.5724210000    -0.5085140000
| 26>  H        2.9022400000     3.0762190000     1.2470630000
| 27> *
| 28>
| 29>                          ****END OF INPUT****
 Total Charge           Charge          ....    0
 Multiplicity           Mult            ....    1
 Number of Electrons    NEL             ....   52
 Basis Dimension        Dim             ....  138

MULLIKEN ATOMIC CHARGES
-----------------------
   0 C :    0.047947
   1 C :    0.101707
   2 C :   -0.289371
   3 N :    0.040516
   4 N :   -0.286777
   5 C :    0.014070
   6 C :    0.025363
   7 H :    0.041282
   8 H :    0.031923
   9 H :    0.039658
  10 H :    0.041182
  11 H :    0.053628
  12 H :    0.045095
  13 H :    0.050110
  14 H :    0.043667
Sum of atomic charges:    0.0000000

LOEWDIN ATOMIC CHARGES
----------------------
   0 C :   -0.042315
   1 C :   -0.012691
   2 C :   -0.058946
   3 N :   -0.063566
   4 N :   -0.092055
   5 C :    0.006919
   6 C :    0.008214
   7 H :    0.037665
   8 H :    0.033944
   9 H :    0.037372
  10 H :    0.052323
  11 H :    0.022415
  12 H :    0.025093
  13 H :    0.020760
  14 H :    0.024867

  Mayer bond orders larger than 0.1
B(  0-C ,  1-C ) :   1.0991 B(  0-C ,  7-H ) :   0.9580 B(  0-C ,  8-H ) :   0.9553
B(  0-C ,  9-H ) :   0.9520 B(  1-C ,  2-C ) :   0.9776 B(  1-C ,  4-N ) :   1.0158
B(  1-C , 10-H ) :   0.8781 B(  2-C ,  3-N ) :   3.0334 B(  4-N ,  5-C ) :   0.9690
B(  4-N ,  6-C ) :   0.9602 B(  5-C ,  6-C ) :   1.0793 B(  5-C , 11-H ) :   0.9294
B(  5-C , 12-H ) :   0.9497 B(  6-C , 13-H ) :   0.9301 B(  6-C , 14-H ) :   0.9497

FINAL SINGLE POINT ENERGY      -304.169910675559

DIPOLE MOMENT
-------------
                                X             Y             Z
Electronic contribution:      2.38265      -1.25759      -3.06189
Nuclear contribution   :     -2.75103       1.26231       3.93509
                        -----------------------------------------
Total Dipole Moment    :     -0.36838       0.00471       0.87321
                        -----------------------------------------
Magnitude (a.u.)       :      0.94774
Magnitude (Debye)      :      2.40897

                             ****ORCA TERMINATED NORMALLY****
TOTAL RUN TIME: 0 days 0 hours 0 minutes 6 seconds 972 msec
