                         Program Version 3.0.3 - RELEASE   -
|  1> ! RI PBE def2-SVP def2-SVP/J NBO PAL2
|  2> % maxcore 2000
|  3> % output
|  4>     # printlevel mini
|  5>     print[ P_Basis ] 0
|  6>     print[ P_SCFInfo ] 1
|  7>     print[ P_SCFIterInfo ] 1
|  8>     print[ P_OrbEn ] 0
|  9>     print[ P_Cartesian ] 0
| 10> end
| 11> *xyz 0 1
| 12>  C        0.6223780000     0.3745780000     0.0749040000
| 13>  C        2.0993450000     0.0545480000     0.1803040000
| 14>  C        2.9698680000     1.2174350000    -0.2798510000
| 15>  N        2.7879770000     1.4746460000    -1.6997930000
| 16>  N        2.4394950000    -0.2590350000     1.5581070000
| 17>  C        2.1639640000    -1.6099910000     1.9926510000
| 18>  C        3.5540770000    -1.1591560000     1.7596270000
| 19>  H        0.3801740000     0.6882150000    -0.9408560000
| 20>  H        0.3688380000     1.1851590000     0.7629460000
| 21>  H        0.0113650000    -0.4935250000     0.3330300000
| 22>  H        2.3218870000    -0.8135030000    -0.4725320000
| 23>  H        4.0116140000     1.0047590000     0.0043160000
| 24>  H        2.6677700000     2.1096280000     0.2766620000
| 25>  H        3.2282240000     0.7496600000    -2.2532480000
| 26>  H        3.2212350000     2.3495810000    -1.9631100000
| 27>  H        1.7422370000    -2.2983800000     1.2632740000
| 28>  H        1.7809440000    -1.7197080000     3.0013920000
| 29>  H        4.0552870000    -1.5508860000     0.8766670000
| 30>  H        4.2078040000    -0.9319170000     2.5947080000
| 31> *
| 32>
| 33>                          ****END OF INPUT****
 Total Charge           Charge          ....    0
 Multiplicity           Mult            ....    1
 Number of Electrons    NEL             ....   56
 Basis Dimension        Dim             ....  158

MULLIKEN ATOMIC CHARGES
-----------------------
   0 C :    0.059707
   1 C :   -0.056402
   2 C :    0.110659
   3 N :   -0.201248
   4 N :   -0.276614
   5 C :    0.040918
   6 C :    0.036215
   7 H :    0.019991
   8 H :    0.013767
   9 H :    0.009147
  10 H :   -0.032304
  11 H :   -0.012503
  12 H :    0.003621
  13 H :    0.087610
  14 H :    0.090027
  15 H :    0.022455
  16 H :    0.031106
  17 H :    0.016743
  18 H :    0.037104
Sum of atomic charges:   -0.0000000

LOEWDIN ATOMIC CHARGES
----------------------
   0 C :   -0.060873
   1 C :   -0.004020
   2 C :    0.006861
   3 N :   -0.105076
   4 N :   -0.102044
   5 C :    0.004669
   6 C :   -0.001152
   7 H :    0.028139
   8 H :    0.027309
   9 H :    0.021881
  10 H :   -0.004239
  11 H :   -0.000658
  12 H :    0.022785
  13 H :    0.050053
  14 H :    0.054039
  15 H :    0.011934
  16 H :    0.019730
  17 H :    0.010371
  18 H :    0.020292

  Mayer bond orders larger than 0.1
B(  0-C ,  1-C ) :   1.0751 B(  0-C ,  7-H ) :   0.9459 B(  0-C ,  8-H ) :   0.9514
B(  0-C ,  9-H ) :   0.9572 B(  1-C ,  2-C ) :   1.0401 B(  1-C ,  4-N ) :   0.9796
B(  1-C , 10-H ) :   0.8899 B(  2-C ,  3-N ) :   1.1088 B(  2-C , 11-H ) :   0.9315
B(  2-C , 12-H ) :   0.9192 B(  3-N , 13-H ) :   0.9676 B(  3-N , 14-H ) :   0.9655
B(  4-N ,  5-C ) :   0.9642 B(  4-N ,  6-C ) :   0.9604 B(  5-C ,  6-C ) :   1.0930
B(  5-C , 15-H ) :   0.9271 B(  5-C , 16-H ) :   0.9508 B(  6-C , 17-H ) :   0.9225
B(  6-C , 18-H ) :   0.9495

FINAL SINGLE POINT ENERGY      -306.574757573266

DIPOLE MOMENT
-------------
                                X             Y             Z
Electronic contribution:      1.09028      -0.06834       1.62137
Nuclear contribution   :     -0.53550      -0.16181      -1.94179
                        -----------------------------------------
Total Dipole Moment    :      0.55479      -0.23015      -0.32043
                        -----------------------------------------
Magnitude (a.u.)       :      0.68076
Magnitude (Debye)      :      1.73036

                             ****ORCA TERMINATED NORMALLY****
TOTAL RUN TIME: 0 days 0 hours 0 minutes 8 seconds 374 msec
