                         Program Version 3.0.3 - RELEASE   -
|  1> ! RI PBE def2-SVP def2-SVP/J NBO PAL2
|  2> % maxcore 2000
|  3> % output
|  4>     # printlevel mini
|  5>     print[ P_Basis ] 0
|  6>     print[ P_SCFInfo ] 1
|  7>     print[ P_SCFIterInfo ] 1
|  8>     print[ P_OrbEn ] 0
|  9>     print[ P_Cartesian ] 0
| 10> end
| 11> *xyz 0 1
| 12>  C        1.5161030000     0.5715750000    -0.5768720000
| 13>  C        2.9060790000    -0.0068730000    -0.3334380000
| 14>  C        2.8646270000    -1.2221020000     0.5252080000
| 15>  N        3.4800500000    -1.2704770000     1.6291400000
| 16>  N        3.3026620000    -2.5150660000     2.2922680000
| 17>  C        4.5137400000    -2.8569500000     3.0428170000
| 18>  C        3.3417510000    -2.3167960000     3.7431640000
| 19>  H        1.5666550000     1.4341490000    -1.2441430000
| 20>  H        1.0582420000     0.8949790000     0.3604400000
| 21>  H        0.8526960000    -0.1661840000    -1.0356420000
| 22>  H        3.5605080000     0.7302260000     0.1363060000
| 23>  H        3.3561800000    -0.2797870000    -1.2957010000
| 24>  H        2.2750320000    -2.0819470000     0.1889840000
| 25>  H        5.3589570000    -2.1920840000     2.9067850000
| 26>  H        4.7385340000    -3.9164990000     3.0702100000
| 27>  H        3.3967650000    -1.2877380000     4.0793490000
| 28>  H        2.6790080000    -2.9673150000     4.3012970000
| 29> *
| 30>
| 31>                          ****END OF INPUT****
 Total Charge           Charge          ....    0
 Multiplicity           Mult            ....    1
 Number of Electrons    NEL             ....   54
 Basis Dimension        Dim             ....  148

MULLIKEN ATOMIC CHARGES
-----------------------
   0 C :   -0.060633
   1 C :    0.046548
   2 C :   -0.040686
   3 N :   -0.087496
   4 N :   -0.231598
   5 C :    0.039132
   6 C :    0.036576
   7 H :    0.032648
   8 H :    0.034946
   9 H :    0.030640
  10 H :    0.020977
  11 H :    0.030569
  12 H :   -0.006797
  13 H :    0.033553
  14 H :    0.042337
  15 H :    0.033879
  16 H :    0.045406
Sum of atomic charges:    0.0000000

LOEWDIN ATOMIC CHARGES
----------------------
   0 C :   -0.062687
   1 C :   -0.055899
   2 C :    0.008263
   3 N :   -0.052538
   4 N :   -0.077031
   5 C :   -0.000901
   6 C :   -0.002066
   7 H :    0.030727
   8 H :    0.029591
   9 H :    0.027418
  10 H :    0.032883
  11 H :    0.038883
  12 H :   -0.000575
  13 H :    0.018061
  14 H :    0.023541
  15 H :    0.018275
  16 H :    0.024055

  Mayer bond orders larger than 0.1
B(  0-C ,  1-C ) :   1.0982 B(  0-C ,  7-H ) :   0.9618 B(  0-C ,  8-H ) :   0.9681
B(  0-C ,  9-H ) :   0.9686 B(  1-C ,  2-C ) :   1.0344 B(  1-C , 10-H ) :   0.9243
B(  1-C , 11-H ) :   0.9177 B(  2-C ,  3-N ) :   1.9391 B(  2-C , 12-H ) :   0.9339
B(  3-N ,  4-N ) :   0.9382 B(  4-N ,  5-C ) :   0.9332 B(  4-N ,  6-C ) :   0.9364
B(  5-C ,  6-C ) :   1.1005 B(  5-C , 13-H ) :   0.9345 B(  5-C , 14-H ) :   0.9513
B(  6-C , 15-H ) :   0.9327 B(  6-C , 16-H ) :   0.9512

FINAL SINGLE POINT ENERGY      -305.348137649507

DIPOLE MOMENT
-------------
                                X             Y             Z
Electronic contribution:      2.12922      -3.37121       2.79220
Nuclear contribution   :     -2.18266       3.48021      -2.93968
                        -----------------------------------------
Total Dipole Moment    :     -0.05345       0.10900      -0.14748
                        -----------------------------------------
Magnitude (a.u.)       :      0.19102
Magnitude (Debye)      :      0.48554

                             ****ORCA TERMINATED NORMALLY****
TOTAL RUN TIME: 0 days 0 hours 0 minutes 7 seconds 176 msec
