                         Program Version 3.0.3 - RELEASE   -
|  1> ! RI PBE def2-SVP def2-SVP/J NBO PAL2
|  2> % maxcore 2000
|  3> % output
|  4>     # printlevel mini
|  5>     print[ P_Basis ] 0
|  6>     print[ P_SCFInfo ] 1
|  7>     print[ P_SCFIterInfo ] 1
|  8>     print[ P_OrbEn ] 0
|  9>     print[ P_Cartesian ] 0
| 10> end
| 11> *xyz 0 1
| 12>  C        2.0901300000     0.1413190000    -0.6685700000
| 13>  C        2.4016340000    -0.1298690000     0.7999860000
| 14>  C        2.9316250000    -1.5213530000     1.0242240000
| 15>  N        2.3019840000    -2.4993040000     1.5325460000
| 16>  N        4.2205780000    -1.7100780000     0.5201910000
| 17>  C        5.3704220000    -1.2564640000     1.2781030000
| 18>  C        5.0787640000    -2.7029340000     1.1037330000
| 19>  H        1.7214040000     1.1604020000    -0.8026970000
| 20>  H        1.3266250000    -0.5470280000    -1.0375880000
| 21>  H        2.9821570000     0.0138670000    -1.2832390000
| 22>  H        1.5053400000     0.0052200000     1.4103540000
| 23>  H        3.1449180000     0.5929170000     1.1527290000
| 24>  H        1.3571600000    -2.2184390000     1.7835590000
| 25>  H        5.1880460000    -0.8352690000     2.2630930000
| 26>  H        6.1590010000    -0.7784640000     0.7067400000
| 27>  H        4.6803350000    -3.2451160000     1.9544460000
| 28>  H        5.6626760000    -3.2869860000     0.4011620000
| 29> *
| 30>
| 31>                          ****END OF INPUT****
 Total Charge           Charge          ....    0
 Multiplicity           Mult            ....    1
 Number of Electrons    NEL             ....   54
 Basis Dimension        Dim             ....  148

MULLIKEN ATOMIC CHARGES
-----------------------
   0 C :   -0.021106
   1 C :    0.072418
   2 C :   -0.170154
   3 N :   -0.085941
   4 N :   -0.224290
   5 C :    0.031059
   6 C :    0.058350
   7 H :    0.023812
   8 H :    0.023924
   9 H :    0.037218
  10 H :    0.001299
  11 H :    0.013528
  12 H :    0.081994
  13 H :    0.038674
  14 H :    0.039789
  15 H :    0.041639
  16 H :    0.037786
Sum of atomic charges:   -0.0000000

LOEWDIN ATOMIC CHARGES
----------------------
   0 C :   -0.057309
   1 C :   -0.057462
   2 C :    0.002207
   3 N :   -0.138622
   4 N :   -0.068609
   5 C :    0.019853
   6 C :    0.022834
   7 H :    0.027123
   8 H :    0.028100
   9 H :    0.030383
  10 H :    0.026646
  11 H :    0.032204
  12 H :    0.046211
  13 H :    0.019002
  14 H :    0.021205
  15 H :    0.021672
  16 H :    0.024564

  Mayer bond orders larger than 0.1
B(  0-C ,  1-C ) :   1.1126 B(  0-C ,  7-H ) :   0.9616 B(  0-C ,  8-H ) :   0.9641
B(  0-C ,  9-H ) :   0.9648 B(  1-C ,  2-C ) :   1.0253 B(  1-C , 10-H ) :   0.9180
B(  1-C , 11-H ) :   0.9081 B(  2-C ,  3-N ) :   1.9858 B(  2-C ,  4-N ) :   1.0652
B(  3-N , 12-H ) :   0.9199 B(  4-N ,  5-C ) :   0.9443 B(  4-N ,  6-C ) :   0.9653
B(  5-C ,  6-C ) :   1.0859 B(  5-C , 13-H ) :   0.9351 B(  5-C , 14-H ) :   0.9506
B(  6-C , 15-H ) :   0.9276 B(  6-C , 16-H ) :   0.9475

FINAL SINGLE POINT ENERGY      -305.384809164900

DIPOLE MOMENT
-------------
                                X             Y             Z
Electronic contribution:      1.02020      -3.48034       1.45258
Nuclear contribution   :     -0.86184       4.21365      -1.29443
                        -----------------------------------------
Total Dipole Moment    :      0.15836       0.73331       0.15815
                        -----------------------------------------
Magnitude (a.u.)       :      0.76670
Magnitude (Debye)      :      1.94881

                             ****ORCA TERMINATED NORMALLY****
TOTAL RUN TIME: 0 days 0 hours 0 minutes 8 seconds 67 msec
