                         Program Version 3.0.3 - RELEASE   -
|  1> ! RI PBE def2-SVP def2-SVP/J NBO PAL2
|  2> % maxcore 2000
|  3> % output
|  4>     # printlevel mini
|  5>     print[ P_Basis ] 0
|  6>     print[ P_SCFInfo ] 1
|  7>     print[ P_SCFIterInfo ] 1
|  8>     print[ P_OrbEn ] 0
|  9>     print[ P_Cartesian ] 0
| 10> end
| 11> *xyz 0 1
| 12>  C        0.9540740000    -0.0327610000    -0.0468150000
| 13>  C        2.4678820000     0.1098110000     0.0740520000
| 14>  C        2.9628320000     1.5013010000    -0.2252430000
| 15>  N        2.1753470000     2.4091120000    -0.6178950000
| 16>  N        2.6894500000     3.6216650000    -0.9516380000
| 17>  C        2.9511210000    -0.3079190000     1.3884960000
| 18>  C        3.3489980000    -0.6408500000     2.4714060000
| 19>  H        0.6302140000     0.2512840000    -1.0480180000
| 20>  H        0.4505450000     0.6187840000     0.6675990000
| 21>  H        0.6598630000    -1.0643100000     0.1497390000
| 22>  H        2.9373080000    -0.5620830000    -0.6604660000
| 23>  H        4.0371270000     1.6792440000    -0.0922110000
| 24>  H        3.5643240000     3.8612590000    -0.4935630000
| 25>  H        1.9935240000     4.3420650000    -0.8433430000
| 26>  H        3.6968890000    -0.9404000000     3.4314910000
| 27> *
| 28>
| 29>                          ****END OF INPUT****
 Total Charge           Charge          ....    0
 Multiplicity           Mult            ....    1
 Number of Electrons    NEL             ....   52
 Basis Dimension        Dim             ....  138

MULLIKEN ATOMIC CHARGES
-----------------------
   0 C :    0.067354
   1 C :   -0.008875
   2 C :   -0.059275
   3 N :   -0.106227
   4 N :   -0.048955
   5 C :    0.369302
   6 C :   -0.511794
   7 H :    0.022899
   8 H :    0.026852
   9 H :    0.020429
  10 H :    0.044931
  11 H :   -0.015722
  12 H :    0.087314
  13 H :    0.117169
  14 H :   -0.005402
Sum of atomic charges:   -0.0000000

LOEWDIN ATOMIC CHARGES
----------------------
   0 C :   -0.039090
   1 C :   -0.059991
   2 C :   -0.039561
   3 N :   -0.040017
   4 N :    0.003796
   5 C :   -0.012259
   6 C :   -0.092611
   7 H :    0.030854
   8 H :    0.031942
   9 H :    0.028588
  10 H :    0.056691
  11 H :   -0.004395
  12 H :    0.041864
  13 H :    0.060316
  14 H :    0.033871

  Mayer bond orders larger than 0.1
B(  0-C ,  1-C ) :   1.1031 B(  0-C ,  7-H ) :   0.9461 B(  0-C ,  8-H ) :   0.9582
B(  0-C ,  9-H ) :   0.9572 B(  1-C ,  2-C ) :   0.9798 B(  1-C ,  5-C ) :   0.9820
B(  1-C , 10-H ) :   0.8627 B(  2-C ,  3-N ) :   1.9251 B(  2-C ,  4-N ) :   0.1298
B(  2-C , 11-H ) :   0.9410 B(  3-N ,  4-N ) :   1.1083 B(  4-N , 12-H ) :   0.9428
B(  4-N , 13-H ) :   0.9634 B(  5-C ,  6-C ) :   2.3440 B(  5-C , 14-H ) :  -0.1170
B(  6-C , 14-H ) :   1.1073

FINAL SINGLE POINT ENERGY      -304.122225784941

DIPOLE MOMENT
-------------
                                X             Y             Z
Electronic contribution:      2.07211       0.66453       0.90321
Nuclear contribution   :     -1.77101      -0.12819      -0.77371
                        -----------------------------------------
Total Dipole Moment    :      0.30110       0.53634       0.12949
                        -----------------------------------------
Magnitude (a.u.)       :      0.62856
Magnitude (Debye)      :      1.59768

                             ****ORCA TERMINATED NORMALLY****
TOTAL RUN TIME: 0 days 0 hours 0 minutes 7 seconds 10 msec
