                         Program Version 3.0.3 - RELEASE   -
|  1> ! RI PBE def2-SVP def2-SVP/J NBO PAL2
|  2> % maxcore 2000
|  3> % output
|  4>     # printlevel mini
|  5>     print[ P_Basis ] 0
|  6>     print[ P_SCFInfo ] 1
|  7>     print[ P_SCFIterInfo ] 1
|  8>     print[ P_OrbEn ] 0
|  9>     print[ P_Cartesian ] 0
| 10> end
| 11> *xyz 0 1
| 12>  C        2.8234010000    -0.1693530000    -1.4667710000
| 13>  C        2.4648380000    -0.0251310000     0.0069080000
| 14>  C        2.8497880000    -1.2490380000     0.7494000000
| 15>  N        3.1830340000    -2.1661870000     1.3588970000
| 16>  N        3.0022910000     1.1769050000     0.6132390000
| 17>  C        2.4208550000     1.4409240000     1.9128310000
| 18>  C        4.4494000000     1.2239840000     0.6626450000
| 19>  H        2.2733880000    -1.0029960000    -1.9053190000
| 20>  H        3.8869280000    -0.3609240000    -1.6096600000
| 21>  H        2.5539290000     0.7505850000    -1.9869970000
| 22>  H        1.3745740000     0.0460020000     0.0852560000
| 23>  H        1.3315790000     1.4691030000     1.8336770000
| 24>  H        2.7591870000     2.4171590000     2.2650430000
| 25>  H        2.6940790000     0.6892910000     2.6713930000
| 26>  H        4.8718530000     1.1224890000    -0.3372010000
| 27>  H        4.8849610000     0.4435010000     1.3076330000
| 28>  H        4.7545960000     2.1964660000     1.0526160000
| 29> *
| 30>
| 31>                          ****END OF INPUT****
 Total Charge           Charge          ....    0
 Multiplicity           Mult            ....    1
 Number of Electrons    NEL             ....   54
 Basis Dimension        Dim             ....  148

MULLIKEN ATOMIC CHARGES
-----------------------
   0 C :    0.040874
   1 C :    0.004404
   2 C :   -0.256906
   3 N :    0.044033
   4 N :   -0.312575
   5 C :    0.086251
   6 C :    0.092699
   7 H :    0.039772
   8 H :    0.039002
   9 H :    0.040873
  10 H :    0.045389
  11 H :    0.026223
  12 H :    0.023045
  13 H :    0.020583
  14 H :    0.024059
  15 H :    0.018697
  16 H :    0.023577
Sum of atomic charges:   -0.0000000

LOEWDIN ATOMIC CHARGES
----------------------
   0 C :   -0.047587
   1 C :   -0.013767
   2 C :   -0.062138
   3 N :   -0.068675
   4 N :   -0.094560
   5 C :    0.003583
   6 C :    0.004496
   7 H :    0.039822
   8 H :    0.032128
   9 H :    0.036420
  10 H :    0.050273
  11 H :    0.024813
  12 H :    0.026098
  13 H :    0.008820
  14 H :    0.023703
  15 H :    0.009301
  16 H :    0.027270

  Mayer bond orders larger than 0.1
B(  0-C ,  1-C ) :   1.0964 B(  0-C ,  7-H ) :   0.9526 B(  0-C ,  8-H ) :   0.9509
B(  0-C ,  9-H ) :   0.9534 B(  1-C ,  2-C ) :   0.9565 B(  1-C ,  4-N ) :   1.0728
B(  1-C , 10-H ) :   0.8877 B(  2-C ,  3-N ) :   3.0679 B(  4-N ,  5-C ) :   1.0243
B(  4-N ,  6-C ) :   1.0178 B(  5-C , 11-H ) :   0.9618 B(  5-C , 12-H ) :   0.9656
B(  5-C , 13-H ) :   0.9422 B(  6-C , 14-H ) :   0.9627 B(  6-C , 15-H ) :   0.9410
B(  6-C , 16-H ) :   0.9654

FINAL SINGLE POINT ENERGY      -305.394612131887

DIPOLE MOMENT
-------------
                                X             Y             Z
Electronic contribution:     -1.13429      -5.37907       1.37577
Nuclear contribution   :      0.90891       6.45740      -1.93444
                        -----------------------------------------
Total Dipole Moment    :     -0.22537       1.07833      -0.55867
                        -----------------------------------------
Magnitude (a.u.)       :      1.23519
Magnitude (Debye)      :      3.13961

                             ****ORCA TERMINATED NORMALLY****
TOTAL RUN TIME: 0 days 0 hours 0 minutes 7 seconds 893 msec
