                         Program Version 3.0.3 - RELEASE   -
|  1> ! RI PBE def2-SVP def2-SVP/J NBO PAL2
|  2> % maxcore 2000
|  3> % output
|  4>     # printlevel mini
|  5>     print[ P_Basis ] 0
|  6>     print[ P_SCFInfo ] 1
|  7>     print[ P_SCFIterInfo ] 1
|  8>     print[ P_OrbEn ] 0
|  9>     print[ P_Cartesian ] 0
| 10> end
| 11> *xyz 0 1
| 12>  C        0.9916960000    -0.1115410000     0.4601480000
| 13>  C        2.3578260000    -0.2486870000    -0.2056680000
| 14>  C        2.6697500000    -1.7085560000    -0.5327220000
| 15>  N        2.8392690000    -2.4771490000     0.6916980000
| 16>  N        2.5775880000     0.5947830000    -1.3773600000
| 17>  C        1.6599260000     0.3780840000    -2.4708530000
| 18>  C        2.6873420000     1.9966520000    -1.0578880000
| 19>  H        0.9430200000    -0.7751440000     1.3245420000
| 20>  H        0.1878210000    -0.3957130000    -0.2246040000
| 21>  H        0.8055240000     0.9101970000     0.7980830000
| 22>  H        3.1177200000     0.0698760000     0.5208950000
| 23>  H        3.5436530000    -1.7234000000    -1.1997390000
| 24>  H        1.8335040000    -2.1515390000    -1.0834610000
| 25>  H        3.7149970000    -2.2368450000     1.1404670000
| 26>  H        2.8736640000    -3.4679290000     0.4917970000
| 27>  H        1.6244380000    -0.6785530000    -2.7411780000
| 28>  H        2.0119670000     0.9283800000    -3.3474630000
| 29>  H        0.6290920000     0.7140000000    -2.2633860000
| 30>  H        3.4243780000     2.1411930000    -0.2639840000
| 31>  H        1.7389260000     2.4584390000    -0.7310920000
| 32>  H        3.0310110000     2.5455740000    -1.9390210000
| 33> *
| 34>
| 35>                          ****END OF INPUT****
 Total Charge           Charge          ....    0
 Multiplicity           Mult            ....    1
 Number of Electrons    NEL             ....   58
 Basis Dimension        Dim             ....  168

MULLIKEN ATOMIC CHARGES
-----------------------
   0 C :    0.027202
   1 C :   -0.048975
   2 C :    0.084325
   3 N :   -0.200116
   4 N :   -0.321267
   5 C :    0.101621
   6 C :    0.098497
   7 H :    0.020852
   8 H :    0.009801
   9 H :    0.011175
  10 H :   -0.007573
  11 H :   -0.002843
  12 H :    0.002641
  13 H :    0.087310
  14 H :    0.090572
  15 H :    0.017508
  16 H :    0.013210
  17 H :   -0.006646
  18 H :    0.016572
  19 H :   -0.009427
  20 H :    0.015561
Sum of atomic charges:   -0.0000000

LOEWDIN ATOMIC CHARGES
----------------------
   0 C :   -0.075505
   1 C :   -0.002506
   2 C :    0.002879
   3 N :   -0.104706
   4 N :   -0.110355
   5 C :    0.001928
   6 C :    0.001435
   7 H :    0.028829
   8 H :    0.022408
   9 H :    0.021394
  10 H :    0.019315
  11 H :    0.000196
  12 H :    0.015693
  13 H :    0.050356
  14 H :    0.053752
  15 H :    0.020157
  16 H :    0.021389
  17 H :   -0.002927
  18 H :    0.020678
  19 H :   -0.004882
  20 H :    0.020472

  Mayer bond orders larger than 0.1
B(  0-C ,  1-C ) :   1.0636 B(  0-C ,  7-H ) :   0.9404 B(  0-C ,  8-H ) :   0.9509
B(  0-C ,  9-H ) :   0.9545 B(  1-C ,  2-C ) :   1.0445 B(  1-C ,  4-N ) :   1.0343
B(  1-C , 10-H ) :   0.9138 B(  2-C ,  3-N ) :   1.1007 B(  2-C , 11-H ) :   0.9281
B(  2-C , 12-H ) :   0.9221 B(  3-N , 13-H ) :   0.9669 B(  3-N , 14-H ) :   0.9640
B(  4-N ,  5-C ) :   1.0379 B(  4-N ,  6-C ) :   1.0483 B(  5-C , 15-H ) :   0.9642
B(  5-C , 16-H ) :   0.9640 B(  5-C , 17-H ) :   0.9363 B(  6-C , 18-H ) :   0.9642
B(  6-C , 19-H ) :   0.9361 B(  6-C , 20-H ) :   0.9646

FINAL SINGLE POINT ENERGY      -307.794063910278

DIPOLE MOMENT
-------------
                                X             Y             Z
Electronic contribution:      2.17694      -1.76377       0.47779
Nuclear contribution   :     -1.91539       1.56558      -0.58106
                        -----------------------------------------
Total Dipole Moment    :      0.26155      -0.19818      -0.10328
                        -----------------------------------------
Magnitude (a.u.)       :      0.34402
Magnitude (Debye)      :      0.87443

                             ****ORCA TERMINATED NORMALLY****
TOTAL RUN TIME: 0 days 0 hours 0 minutes 8 seconds 684 msec
