                         Program Version 3.0.3 - RELEASE   -
|  1> ! RI PBE def2-SVP def2-SVP/J NBO PAL2
|  2> % maxcore 2000
|  3> % output
|  4>     # printlevel mini
|  5>     print[ P_Basis ] 0
|  6>     print[ P_SCFInfo ] 1
|  7>     print[ P_SCFIterInfo ] 1
|  8>     print[ P_OrbEn ] 0
|  9>     print[ P_Cartesian ] 0
| 10> end
| 11> *xyz 0 1
| 12>  C        2.7510180000    -0.0918870000     2.1326320000
| 13>  C        3.4007830000    -0.5171590000     0.8192360000
| 14>  C        2.6678620000     0.0060780000    -0.3628100000
| 15>  N        3.2333660000     0.7557680000    -1.2175650000
| 16>  N        2.3693750000     1.1406640000    -2.2414040000
| 17>  C        2.9399680000     1.8800330000    -3.1018970000
| 18>  C        2.2033790000     2.4038540000    -4.2765620000
| 19>  H        3.2781890000    -0.5270730000     2.9837930000
| 20>  H        1.7086180000    -0.4166710000     2.1840900000
| 21>  H        2.7683710000     0.9944930000     2.2426060000
| 22>  H        3.4092290000    -1.6127910000     0.7617730000
| 23>  H        4.4372820000    -0.1783470000     0.7660930000
| 24>  H        1.6114820000    -0.2574700000    -0.4852060000
| 25>  H        3.9963450000     2.1384580000    -2.9786510000
| 26>  H        1.1683430000     2.0642750000    -4.2645690000
| 27>  H        2.6820360000     2.0751580000    -5.2044560000
| 28>  H        2.2259340000     3.4982060000    -4.2838140000
| 29> *
| 30>
| 31>                          ****END OF INPUT****
 Total Charge           Charge          ....    0
 Multiplicity           Mult            ....    1
 Number of Electrons    NEL             ....   54
 Basis Dimension        Dim             ....  148

MULLIKEN ATOMIC CHARGES
-----------------------
   0 C :   -0.050782
   1 C :    0.036998
   2 C :   -0.040486
   3 N :   -0.090303
   4 N :   -0.090223
   5 C :   -0.069175
   6 C :    0.043082
   7 H :    0.027979
   8 H :    0.025940
   9 H :    0.039266
  10 H :    0.040193
  11 H :    0.019969
  12 H :   -0.009801
  13 H :   -0.002556
  14 H :    0.033108
  15 H :    0.039542
  16 H :    0.047249
Sum of atomic charges:   -0.0000000

LOEWDIN ATOMIC CHARGES
----------------------
   0 C :   -0.060101
   1 C :   -0.057986
   2 C :    0.018325
   3 N :   -0.059368
   4 N :   -0.061394
   5 C :    0.012669
   6 C :   -0.075886
   7 H :    0.030185
   8 H :    0.026746
   9 H :    0.030282
  10 H :    0.041582
  11 H :    0.032932
  12 H :   -0.002721
  13 H :   -0.001735
  14 H :    0.037134
  15 H :    0.044104
  16 H :    0.045231

  Mayer bond orders larger than 0.1
B(  0-C ,  1-C ) :   1.0954 B(  0-C ,  7-H ) :   0.9606 B(  0-C ,  8-H ) :   0.9675
B(  0-C ,  9-H ) :   0.9709 B(  1-C ,  2-C ) :   1.0354 B(  1-C , 10-H ) :   0.9182
B(  1-C , 11-H ) :   0.9224 B(  2-C ,  3-N ) :   1.8834 B(  2-C ,  5-C ) :   0.1032
B(  2-C , 12-H ) :   0.9318 B(  3-N ,  4-N ) :   0.9726 B(  4-N ,  5-C ) :   1.8858
B(  5-C ,  6-C ) :   1.0681 B(  5-C , 13-H ) :   0.9329 B(  6-C , 14-H ) :   0.9497
B(  6-C , 15-H ) :   0.9410 B(  6-C , 16-H ) :   0.9430

FINAL SINGLE POINT ENERGY      -305.383472806090

DIPOLE MOMENT
-------------
                                X             Y             Z
Electronic contribution:      0.57019       0.22742      -3.13574
Nuclear contribution   :     -0.56227      -0.21562       3.15472
                        -----------------------------------------
Total Dipole Moment    :      0.00792       0.01180       0.01898
                        -----------------------------------------
Magnitude (a.u.)       :      0.02371
Magnitude (Debye)      :      0.06027

                             ****ORCA TERMINATED NORMALLY****
TOTAL RUN TIME: 0 days 0 hours 0 minutes 6 seconds 988 msec
