                         Program Version 3.0.3 - RELEASE   -
|  1> ! RI PBE def2-SVP def2-SVP/J NBO PAL2
|  2> % maxcore 2000
|  3> % output
|  4>     # printlevel mini
|  5>     print[ P_Basis ] 0
|  6>     print[ P_SCFInfo ] 1
|  7>     print[ P_SCFIterInfo ] 1
|  8>     print[ P_OrbEn ] 0
|  9>     print[ P_Cartesian ] 0
| 10> end
| 11> *xyz 0 1
| 12>  C        3.3373240000    -1.0826450000    -1.0587390000
| 13>  C        2.6324190000    -0.1289140000    -0.1006970000
| 14>  C        3.0183980000     1.2956460000    -0.3207650000
| 15>  N        3.5287360000     1.9753630000     0.6290300000
| 16>  N        3.8310470000     3.2820360000     0.4792750000
| 17>  C        4.8620800000     3.7116940000     1.3916500000
| 18>  C        3.8750760000     3.8535460000    -0.8394210000
| 19>  H        3.0039300000    -2.1116330000    -0.9057780000
| 20>  H        4.4196960000    -1.0512400000    -0.9133500000
| 21>  H        3.1343750000    -0.8203990000    -2.1009280000
| 22>  H        2.8564400000    -0.3864800000     0.9368400000
| 23>  H        1.5471800000    -0.2319760000    -0.2295520000
| 24>  H        2.8342120000     1.7119910000    -1.3149320000
| 25>  H        4.6758460000     3.2504430000     2.3602500000
| 26>  H        4.8287030000     4.7977400000     1.4999280000
| 27>  H        5.8713460000     3.4239910000     1.0584270000
| 28>  H        2.8857890000     3.8336340000    -1.3043370000
| 29>  H        4.5771590000     3.3229390000    -1.5038480000
| 30>  H        4.1879350000     4.8941760000    -0.7590540000
| 31> *
| 32>
| 33>                          ****END OF INPUT****
 Total Charge           Charge          ....    0
 Multiplicity           Mult            ....    1
 Number of Electrons    NEL             ....   56
 Basis Dimension        Dim             ....  158

MULLIKEN ATOMIC CHARGES
-----------------------
   0 C :   -0.052235
   1 C :    0.064616
   2 C :   -0.143372
   3 N :   -0.051020
   4 N :   -0.245081
   5 C :    0.107703
   6 C :    0.104385
   7 H :    0.020343
   8 H :    0.031135
   9 H :    0.018640
  10 H :    0.007999
  11 H :    0.019769
  12 H :   -0.024019
  13 H :    0.033971
  14 H :    0.023830
  15 H :    0.008693
  16 H :    0.038744
  17 H :    0.012689
  18 H :    0.023210
Sum of atomic charges:   -0.0000000

LOEWDIN ATOMIC CHARGES
----------------------
   0 C :   -0.066887
   1 C :   -0.053778
   2 C :   -0.065251
   3 N :   -0.041326
   4 N :   -0.023174
   5 C :    0.004364
   6 C :   -0.006209
   7 H :    0.025941
   8 H :    0.026567
   9 H :    0.022362
  10 H :    0.029182
  11 H :    0.031095
  12 H :   -0.009055
  13 H :    0.029791
  14 H :    0.020864
  15 H :    0.007750
  16 H :    0.026308
  17 H :    0.011966
  18 H :    0.029489

  Mayer bond orders larger than 0.1
B(  0-C ,  1-C ) :   1.0969 B(  0-C ,  7-H ) :   0.9612 B(  0-C ,  8-H ) :   0.9694
B(  0-C ,  9-H ) :   0.9695 B(  1-C ,  2-C ) :   1.0431 B(  1-C , 10-H ) :   0.9274
B(  1-C , 11-H ) :   0.9172 B(  2-C ,  3-N ) :   1.8485 B(  2-C ,  4-N ) :   0.1305
B(  2-C , 12-H ) :   0.9200 B(  3-N ,  4-N ) :   1.0850 B(  4-N ,  5-C ) :   1.0164
B(  4-N ,  6-C ) :   1.0194 B(  5-C , 13-H ) :   0.9630 B(  5-C , 14-H ) :   0.9653
B(  5-C , 15-H ) :   0.9544 B(  6-C , 16-H ) :   0.9518 B(  6-C , 17-H ) :   0.9372
B(  6-C , 18-H ) :   0.9568

FINAL SINGLE POINT ENERGY      -306.581582134573

DIPOLE MOMENT
-------------
                                X             Y             Z
Electronic contribution:     -1.27751       2.02123       2.67301
Nuclear contribution   :      1.45857      -1.57494      -3.10621
                        -----------------------------------------
Total Dipole Moment    :      0.18106       0.44629      -0.43320
                        -----------------------------------------
Magnitude (a.u.)       :      0.64778
Magnitude (Debye)      :      1.64653

                             ****ORCA TERMINATED NORMALLY****
TOTAL RUN TIME: 0 days 0 hours 0 minutes 7 seconds 765 msec
