                         Program Version 3.0.3 - RELEASE   -
|  1> ! RI PBE def2-SVP def2-SVP/J NBO PAL2
|  2> % maxcore 2000
|  3> % output
|  4>     # printlevel mini
|  5>     print[ P_Basis ] 0
|  6>     print[ P_SCFInfo ] 1
|  7>     print[ P_SCFIterInfo ] 1
|  8>     print[ P_OrbEn ] 0
|  9>     print[ P_Cartesian ] 0
| 10> end
| 11> *xyz 0 1
| 12>  C        2.8072000000    -1.5568870000    -0.3124090000
| 13>  C        2.5985920000    -0.0924540000     0.0597150000
| 14>  C        3.2933370000     0.8616810000    -0.8856460000
| 15>  N        2.6777960000     1.5771930000    -1.7510350000
| 16>  N        4.6665870000     0.8906130000    -0.8504400000
| 17>  C        5.4094610000     0.5668270000     0.3410610000
| 18>  C        5.3330240000     1.7987200000    -1.7538680000
| 19>  H        2.2557230000    -2.2114150000     0.3661370000
| 20>  H        3.8604900000    -1.8411620000    -0.2740060000
| 21>  H        2.4538820000    -1.7468970000    -1.3281580000
| 22>  H        2.9141820000     0.0844310000     1.0920990000
| 23>  H        1.5333860000     0.1442900000     0.0263850000
| 24>  H        1.6811370000     1.3919930000    -1.7082560000
| 25>  H        4.9733740000    -0.2791290000     0.8682030000
| 26>  H        5.4743790000     1.4127780000     1.0414690000
| 27>  H        6.4282710000     0.2888350000     0.0619240000
| 28>  H        4.8343770000     1.7780840000    -2.7203270000
| 29>  H        6.3741870000     1.4881100000    -1.8635970000
| 30>  H        5.3095060000     2.8353800000    -1.3921410000
| 31> *
| 32>
| 33>                          ****END OF INPUT****
 Total Charge           Charge          ....    0
 Multiplicity           Mult            ....    1
 Number of Electrons    NEL             ....   56
 Basis Dimension        Dim             ....  158

MULLIKEN ATOMIC CHARGES
-----------------------
   0 C :   -0.004826
   1 C :    0.012957
   2 C :   -0.107636
   3 N :   -0.141388
   4 N :   -0.271521
   5 C :    0.087343
   6 C :    0.110700
   7 H :    0.027877
   8 H :    0.023320
   9 H :    0.023399
  10 H :    0.020974
  11 H :   -0.000500
  12 H :    0.070773
  13 H :    0.032619
  14 H :    0.023635
  15 H :    0.023246
  16 H :    0.044530
  17 H :    0.008344
  18 H :    0.016155
Sum of atomic charges:   -0.0000000

LOEWDIN ATOMIC CHARGES
----------------------
   0 C :   -0.058311
   1 C :   -0.063060
   2 C :    0.006762
   3 N :   -0.179745
   4 N :   -0.044101
   5 C :    0.013462
   6 C :    0.014428
   7 H :    0.028579
   8 H :    0.024547
   9 H :    0.030185
  10 H :    0.028416
  11 H :    0.030283
  12 H :    0.038707
  13 H :    0.024667
  14 H :    0.014242
  15 H :    0.025334
  16 H :    0.031836
  17 H :    0.017329
  18 H :    0.016440

  Mayer bond orders larger than 0.1
B(  0-C ,  1-C ) :   1.1111 B(  0-C ,  7-H ) :   0.9610 B(  0-C ,  8-H ) :   0.9641
B(  0-C ,  9-H ) :   0.9586 B(  1-C ,  2-C ) :   1.0329 B(  1-C , 10-H ) :   0.9120
B(  1-C , 11-H ) :   0.9069 B(  2-C ,  3-N ) :   1.8883 B(  2-C ,  4-N ) :   1.1467
B(  3-N , 12-H ) :   0.9218 B(  4-N ,  5-C ) :   1.0203 B(  4-N ,  6-C ) :   1.0141
B(  5-C , 13-H ) :   0.9536 B(  5-C , 14-H ) :   0.9555 B(  5-C , 15-H ) :   0.9623
B(  6-C , 16-H ) :   0.9528 B(  6-C , 17-H ) :   0.9599 B(  6-C , 18-H ) :   0.9619

FINAL SINGLE POINT ENERGY      -306.614055613786

DIPOLE MOMENT
-------------
                                X             Y             Z
Electronic contribution:     -1.59121       2.68061      -1.98930
Nuclear contribution   :      1.86072      -3.24845       2.72400
                        -----------------------------------------
Total Dipole Moment    :      0.26951      -0.56784       0.73470
                        -----------------------------------------
Magnitude (a.u.)       :      0.96689
Magnitude (Debye)      :      2.45763

                             ****ORCA TERMINATED NORMALLY****
TOTAL RUN TIME: 0 days 0 hours 0 minutes 8 seconds 881 msec
