                         Program Version 3.0.3 - RELEASE   -
|  1> ! RI PBE def2-SVP def2-SVP/J NBO PAL2
|  2> % maxcore 2000
|  3> % output
|  4>     # printlevel mini
|  5>     print[ P_Basis ] 0
|  6>     print[ P_SCFInfo ] 1
|  7>     print[ P_SCFIterInfo ] 1
|  8>     print[ P_OrbEn ] 0
|  9>     print[ P_Cartesian ] 0
| 10> end
| 11> *xyz 0 1
| 12>  C        1.7141870000    -0.6932950000    -1.0937590000
| 13>  C        1.7097840000     0.1644240000     0.1690630000
| 14>  C        2.8992880000    -0.0991860000     1.0550240000
| 15>  N        2.8927510000    -0.8226720000     2.1056740000
| 16>  N        4.1052320000     0.4480400000     0.6849870000
| 17>  C        4.3830710000     1.2935530000    -0.3622520000
| 18>  C        5.5878480000     1.7831730000    -0.6546080000
| 19>  H        0.8199790000    -0.5017570000    -1.6901390000
| 20>  H        1.7293420000    -1.7541380000    -0.8362200000
| 21>  H        2.5857540000    -0.4926610000    -1.7196900000
| 22>  H        0.8163290000    -0.0519800000     0.7579220000
| 23>  H        1.6554910000     1.2253910000    -0.0925090000
| 24>  H        1.9602150000    -1.1790660000     2.2865410000
| 25>  H        4.8634490000     0.1890930000     1.2996290000
| 26>  H        3.5280700000     1.5603540000    -0.9709380000
| 27>  H        6.4674010000     1.5400870000    -0.0693200000
| 28>  H        5.7110090000     2.4463390000    -1.4982160000
| 29> *
| 30>
| 31>                          ****END OF INPUT****
 Total Charge           Charge          ....    0
 Multiplicity           Mult            ....    1
 Number of Electrons    NEL             ....   54
 Basis Dimension        Dim             ....  148

MULLIKEN ATOMIC CHARGES
-----------------------
   0 C :   -0.024022
   1 C :    0.004307
   2 C :   -0.160173
   3 N :   -0.116526
   4 N :   -0.018672
   5 C :    0.018227
   6 C :   -0.085035
   7 H :    0.033068
   8 H :    0.031067
   9 H :    0.035966
  10 H :    0.007201
  11 H :    0.031728
  12 H :    0.080379
  13 H :    0.110839
  14 H :    0.015367
  15 H :    0.011885
  16 H :    0.024395
Sum of atomic charges:   -0.0000000

LOEWDIN ATOMIC CHARGES
----------------------
   0 C :   -0.059894
   1 C :   -0.062849
   2 C :    0.011253
   3 N :   -0.169122
   4 N :    0.051385
   5 C :    0.001442
   6 C :   -0.135019
   7 H :    0.031452
   8 H :    0.031252
   9 H :    0.028851
  10 H :    0.034106
  11 H :    0.031928
  12 H :    0.044090
  13 H :    0.083997
  14 H :    0.027888
  15 H :    0.020618
  16 H :    0.028621

  Mayer bond orders larger than 0.1
B(  0-C ,  1-C ) :   1.1109 B(  0-C ,  7-H ) :   0.9614 B(  0-C ,  8-H ) :   0.9602
B(  0-C ,  9-H ) :   0.9649 B(  1-C ,  2-C ) :   1.0211 B(  1-C , 10-H ) :   0.9110
B(  1-C , 11-H ) :   0.9066 B(  2-C ,  3-N ) :   1.9491 B(  2-C ,  4-N ) :   1.1445
B(  3-N , 12-H ) :   0.9285 B(  4-N ,  5-C ) :   1.1588 B(  4-N , 13-H ) :   0.9068
B(  5-C ,  6-C ) :   1.8772 B(  5-C , 14-H ) :   0.9404 B(  6-C , 15-H ) :   0.9541
B(  6-C , 16-H ) :   0.9419

FINAL SINGLE POINT ENERGY      -305.412956987649

DIPOLE MOMENT
-------------
                                X             Y             Z
Electronic contribution:      2.15645      -0.02361       4.27385
Nuclear contribution   :     -2.70450       0.19521      -4.83838
                        -----------------------------------------
Total Dipole Moment    :     -0.54804       0.17160      -0.56453
                        -----------------------------------------
Magnitude (a.u.)       :      0.80529
Magnitude (Debye)      :      2.04688

                             ****ORCA TERMINATED NORMALLY****
TOTAL RUN TIME: 0 days 0 hours 0 minutes 7 seconds 717 msec
