                         Program Version 3.0.3 - RELEASE   -
|  1> ! RI PBE def2-SVP def2-SVP/J NBO PAL2
|  2> % maxcore 2000
|  3> % output
|  4>     # printlevel mini
|  5>     print[ P_Basis ] 0
|  6>     print[ P_SCFInfo ] 1
|  7>     print[ P_SCFIterInfo ] 1
|  8>     print[ P_OrbEn ] 0
|  9>     print[ P_Cartesian ] 0
| 10> end
| 11> *xyz 0 1
| 12>  C        2.0522060000    -0.8686170000     1.2265090000
| 13>  C        2.3356570000    -0.0760750000    -0.0484450000
| 14>  C        2.8528530000    -0.9388800000    -1.1704040000
| 15>  N        2.1226630000    -1.5666280000    -2.0201960000
| 16>  N        0.7852730000    -1.4276580000    -1.9575960000
| 17>  C        4.2648740000    -1.0861530000    -1.2895610000
| 18>  C        5.4654030000    -1.1662380000    -1.3166450000
| 19>  H        1.6713730000    -0.2151290000     2.0144100000
| 20>  H        2.9639430000    -1.3447840000     1.5924220000
| 21>  H        1.3163800000    -1.6598790000     1.0612610000
| 22>  H        3.0795120000     0.6946420000     0.1624010000
| 23>  H        1.4349380000     0.4483530000    -0.3857970000
| 24>  H        0.3207660000    -2.1584400000    -2.4701110000
| 25>  H        0.3687130000    -1.2409560000    -1.0539050000
| 26>  H        6.5250560000    -1.2503460000    -1.3649440000
| 27> *
| 28>
| 29>                          ****END OF INPUT****
 Total Charge           Charge          ....    0
 Multiplicity           Mult            ....    1
 Number of Electrons    NEL             ....   52
 Basis Dimension        Dim             ....  138

MULLIKEN ATOMIC CHARGES
-----------------------
   0 C :   -0.012794
   1 C :    0.011951
   2 C :   -0.207223
   3 N :   -0.098244
   4 N :   -0.042425
   5 C :    0.477396
   6 C :   -0.475245
   7 H :    0.032497
   8 H :    0.035622
   9 H :    0.014276
  10 H :    0.026078
  11 H :    0.015427
  12 H :    0.124517
  13 H :    0.098348
  14 H :   -0.000182
Sum of atomic charges:    0.0000000

LOEWDIN ATOMIC CHARGES
----------------------
   0 C :   -0.060373
   1 C :   -0.053928
   2 C :   -0.084174
   3 N :   -0.029270
   4 N :    0.027051
   5 C :   -0.015789
   6 C :   -0.078175
   7 H :    0.029888
   8 H :    0.034439
   9 H :    0.020144
  10 H :    0.041357
  11 H :    0.025898
  12 H :    0.066000
  13 H :    0.043473
  14 H :    0.033459

  Mayer bond orders larger than 0.1
B(  0-C ,  1-C ) :   1.1165 B(  0-C ,  7-H ) :   0.9623 B(  0-C ,  8-H ) :   0.9614
B(  0-C ,  9-H ) :   0.9619 B(  1-C ,  2-C ) :   1.0445 B(  1-C , 10-H ) :   0.9123
B(  1-C , 11-H ) :   0.9104 B(  2-C ,  3-N ) :   1.8153 B(  2-C ,  4-N ) :   0.1163
B(  2-C ,  5-C ) :   1.0061 B(  3-N ,  4-N ) :   1.1347 B(  4-N , 12-H ) :   0.9610
B(  4-N , 13-H ) :   0.9356 B(  5-C ,  6-C ) :   2.2383 B(  5-C , 14-H ) :  -0.1054
B(  6-C , 14-H ) :   1.0955

FINAL SINGLE POINT ENERGY      -304.129880198344

DIPOLE MOMENT
-------------
                                X             Y             Z
Electronic contribution:      3.09269      -1.37328      -5.74472
Nuclear contribution   :     -3.91225       1.36638       6.39302
                        -----------------------------------------
Total Dipole Moment    :     -0.81956      -0.00690       0.64830
                        -----------------------------------------
Magnitude (a.u.)       :      1.04500
Magnitude (Debye)      :      2.65618

                             ****ORCA TERMINATED NORMALLY****
TOTAL RUN TIME: 0 days 0 hours 0 minutes 7 seconds 112 msec
