                         Program Version 3.0.3 - RELEASE   -
|  1> ! RI PBE def2-SVP def2-SVP/J NBO PAL2
|  2> % maxcore 2000
|  3> % output
|  4>     # printlevel mini
|  5>     print[ P_Basis ] 0
|  6>     print[ P_SCFInfo ] 1
|  7>     print[ P_SCFIterInfo ] 1
|  8>     print[ P_OrbEn ] 0
|  9>     print[ P_Cartesian ] 0
| 10> end
| 11> *xyz 0 1
| 12>  C        1.3944030000     1.7254530000     0.2094320000
| 13>  C        2.6718490000     0.9267000000     0.0191790000
| 14>  C        2.4312930000    -0.3766220000    -0.7176550000
| 15>  N        3.6616600000    -1.0974520000    -0.8753010000
| 16>  N        3.6619890000    -2.2709840000    -1.4980590000
| 17>  C        4.7486400000    -2.9183150000    -1.6421270000
| 18>  C        4.7734970000    -4.2333890000    -2.3356770000
| 19>  H        1.5869680000     2.6593440000     0.7411460000
| 20>  H        0.6573620000     1.1605660000     0.7862120000
| 21>  H        0.9394880000     1.9781390000    -0.7519230000
| 22>  H        3.1217930000     0.7097980000     0.9949140000
| 23>  H        3.4028530000     1.5243340000    -0.5376180000
| 24>  H        1.9851870000    -0.1664070000    -1.6990870000
| 25>  H        1.7034640000    -0.9833370000    -0.1621600000
| 26>  H        4.5237160000    -0.7134380000    -0.5125470000
| 27>  H        5.6957680000    -2.5176860000    -1.2555760000
| 28>  H        3.7675330000    -4.4991920000    -2.6615220000
| 29>  H        5.1489460000    -5.0254650000    -1.6787260000
| 30>  H        5.4305090000    -4.2115640000    -3.2119150000
| 31> *
| 32>
| 33>                          ****END OF INPUT****
 Total Charge           Charge          ....    0
 Multiplicity           Mult            ....    1
 Number of Electrons    NEL             ....   56
 Basis Dimension        Dim             ....  158

MULLIKEN ATOMIC CHARGES
-----------------------
   0 C :   -0.016898
   1 C :   -0.112901
   2 C :    0.164518
   3 N :   -0.160212
   4 N :   -0.037252
   5 C :   -0.143654
   6 C :    0.046139
   7 H :    0.024291
   8 H :    0.028500
   9 H :    0.023214
  10 H :    0.018569
  11 H :    0.022033
  12 H :    0.006837
  13 H :    0.009433
  14 H :    0.089216
  15 H :   -0.035165
  16 H :    0.021116
  17 H :    0.025613
  18 H :    0.026603
Sum of atomic charges:   -0.0000000

LOEWDIN ATOMIC CHARGES
----------------------
   0 C :   -0.062819
   1 C :   -0.056119
   2 C :    0.018816
   3 N :    0.005213
   4 N :   -0.035460
   5 C :   -0.077661
   6 C :   -0.076346
   7 H :    0.029387
   8 H :    0.027858
   9 H :    0.027149
  10 H :    0.023106
  11 H :    0.023478
  12 H :    0.016096
  13 H :    0.016099
  14 H :    0.039475
  15 H :   -0.015594
  16 H :    0.034066
  17 H :    0.031470
  18 H :    0.031785

  Mayer bond orders larger than 0.1
B(  0-C ,  1-C ) :   1.1244 B(  0-C ,  7-H ) :   0.9593 B(  0-C ,  8-H ) :   0.9667
B(  0-C ,  9-H ) :   0.9641 B(  1-C ,  2-C ) :   1.0857 B(  1-C , 10-H ) :   0.9348
B(  1-C , 11-H ) :   0.9388 B(  2-C ,  3-N ) :   1.0064 B(  2-C , 12-H ) :   0.9285
B(  2-C , 13-H ) :   0.9333 B(  3-N ,  4-N ) :   1.0978 B(  3-N ,  5-C ) :   0.1540
B(  3-N , 14-H ) :   0.9240 B(  4-N ,  5-C ) :   1.8447 B(  5-C ,  6-C ) :   1.0841
B(  5-C , 15-H ) :   0.9300 B(  6-C , 16-H ) :   0.9546 B(  6-C , 17-H ) :   0.9475
B(  6-C , 18-H ) :   0.9470

FINAL SINGLE POINT ENERGY      -306.587292453333

DIPOLE MOMENT
-------------
                                X             Y             Z
Electronic contribution:      2.11028      -3.00515      -1.21180
Nuclear contribution   :     -1.83700       3.56112       1.55763
                        -----------------------------------------
Total Dipole Moment    :      0.27329       0.55597       0.34583
                        -----------------------------------------
Magnitude (a.u.)       :      0.70950
Magnitude (Debye)      :      1.80339

                             ****ORCA TERMINATED NORMALLY****
TOTAL RUN TIME: 0 days 0 hours 0 minutes 7 seconds 807 msec
