                         Program Version 3.0.3 - RELEASE   -
|  1> ! RI PBE def2-SVP def2-SVP/J NBO PAL2
|  2> % maxcore 2000
|  3> % output
|  4>     # printlevel mini
|  5>     print[ P_Basis ] 0
|  6>     print[ P_SCFInfo ] 1
|  7>     print[ P_SCFIterInfo ] 1
|  8>     print[ P_OrbEn ] 0
|  9>     print[ P_Cartesian ] 0
| 10> end
| 11> *xyz 0 1
| 12>  C        2.1200480000     0.5529530000    -1.0420840000
| 13>  C        2.2310190000    -0.4350110000     0.1015380000
| 14>  N        3.0840040000    -1.5491150000    -0.2542990000
| 15>  C        2.9602920000    -2.7676490000     0.5180760000
| 16>  C        2.5473770000    -2.7390650000    -0.9077400000
| 17>  C        1.0831610000    -2.8638830000    -1.2444120000
| 18>  C        3.4659800000    -3.3244310000    -1.9475130000
| 19>  H        1.5329250000     1.4250920000    -0.7449820000
| 20>  H        1.6343580000     0.1000630000    -1.9096960000
| 21>  H        3.1115390000     0.8904890000    -1.3503510000
| 22>  H        1.2270560000    -0.7490280000     0.4268730000
| 23>  H        2.6941620000     0.0520240000     0.9661700000
| 24>  H        2.1641190000    -2.8130820000     1.2599930000
| 25>  H        3.8890690000    -3.2444320000     0.8192890000
| 26>  H        0.4326950000    -2.4518430000    -0.4728670000
| 27>  H        0.8221610000    -3.9189690000    -1.3616940000
| 28>  H        0.8548930000    -2.3639110000    -2.1904960000
| 29>  H        4.5074400000    -3.1848620000    -1.6559820000
| 30>  H        3.3158250000    -2.8339610000    -2.9140470000
| 31>  H        3.2770880000    -4.3938690000    -2.0796050000
| 32> *
| 33>
| 34>                          ****END OF INPUT****
 Total Charge           Charge          ....    0
 Multiplicity           Mult            ....    1
 Number of Electrons    NEL             ....   56
 Basis Dimension        Dim             ....  163

MULLIKEN ATOMIC CHARGES
-----------------------
   0 C :   -0.007888
   1 C :    0.079309
   2 N :   -0.282231
   3 C :    0.116428
   4 C :   -0.274690
   5 C :    0.099468
   6 C :    0.107457
   7 H :    0.018347
   8 H :    0.017677
   9 H :    0.024023
  10 H :   -0.017311
  11 H :    0.007779
  12 H :    0.007044
  13 H :    0.017713
  14 H :    0.006481
  15 H :    0.022852
  16 H :    0.018198
  17 H :    0.012918
  18 H :    0.011402
  19 H :    0.015023
Sum of atomic charges:   -0.0000000

LOEWDIN ATOMIC CHARGES
----------------------
   0 C :   -0.070598
   1 C :    0.009859
   2 N :   -0.106979
   3 C :    0.008429
   4 C :   -0.026675
   5 C :   -0.058163
   6 C :   -0.053865
   7 H :    0.028276
   8 H :    0.023713
   9 H :    0.028607
  10 H :   -0.002307
  11 H :    0.022544
  12 H :    0.010019
  13 H :    0.015583
  14 H :    0.025425
  15 H :    0.034405
  16 H :    0.027583
  17 H :    0.030673
  18 H :    0.026991
  19 H :    0.026480

  Mayer bond orders larger than 0.1
B(  0-C ,  1-C ) :   1.1265 B(  0-C ,  7-H ) :   0.9578 B(  0-C ,  8-H ) :   0.9636
B(  0-C ,  9-H ) :   0.9562 B(  1-C ,  2-N ) :   1.0202 B(  1-C , 10-H ) :   0.9123
B(  1-C , 11-H ) :   0.9354 B(  2-N ,  3-C ) :   0.9640 B(  2-N ,  4-C ) :   0.9057
B(  3-C ,  4-C ) :   1.0335 B(  3-C , 12-H ) :   0.9238 B(  3-C , 13-H ) :   0.9321
B(  4-C ,  5-C ) :   1.0754 B(  4-C ,  6-C ) :   1.0742 B(  5-C , 14-H ) :   0.9372
B(  5-C , 15-H ) :   0.9474 B(  5-C , 16-H ) :   0.9509 B(  6-C , 17-H ) :   0.9403
B(  6-C , 18-H ) :   0.9529 B(  6-C , 19-H ) :   0.9549

FINAL SINGLE POINT ENERGY      -290.565758933119

DIPOLE MOMENT
-------------
                                X             Y             Z
Electronic contribution:      2.18537      -0.79472       2.04773
Nuclear contribution   :     -2.60054       0.64710      -2.00535
                        -----------------------------------------
Total Dipole Moment    :     -0.41517      -0.14763       0.04238
                        -----------------------------------------
Magnitude (a.u.)       :      0.44267
Magnitude (Debye)      :      1.12518

                             ****ORCA TERMINATED NORMALLY****
TOTAL RUN TIME: 0 days 0 hours 0 minutes 8 seconds 877 msec
