                         Program Version 3.0.3 - RELEASE   -
|  1> ! RI PBE def2-SVP def2-SVP/J NBO PAL2
|  2> % maxcore 2000
|  3> % output
|  4>     # printlevel mini
|  5>     print[ P_Basis ] 0
|  6>     print[ P_SCFInfo ] 1
|  7>     print[ P_SCFIterInfo ] 1
|  8>     print[ P_OrbEn ] 0
|  9>     print[ P_Cartesian ] 0
| 10> end
| 11> *xyz 0 1
| 12>  C        2.0646730000     1.2697040000    -0.2231700000
| 13>  C        2.3310770000    -0.2045120000    -0.0055550000
| 14>  N        2.9956910000    -0.7876370000    -1.1550540000
| 15>  C        2.8626610000    -2.2115020000    -1.3221020000
| 16>  C        2.1235520000    -1.2753380000    -2.2143810000
| 17>  C        2.5331380000    -1.0327270000    -3.6044020000
| 18>  C        1.6898400000    -0.8656730000    -4.6149430000
| 19>  H        1.5911270000     1.7104990000     0.6568250000
| 20>  H        1.4026310000     1.4258910000    -1.0783990000
| 21>  H        2.9973320000     1.8020160000    -0.4189020000
| 22>  H        1.3870110000    -0.7308370000     0.2204480000
| 23>  H        2.9874190000    -0.3456740000     0.8593730000
| 24>  H        2.2689490000    -2.7610900000    -0.5941320000
| 25>  H        3.7392440000    -2.7339360000    -1.6915540000
| 26>  H        1.0520420000    -1.2084700000    -2.0259880000
| 27>  H        3.6066140000    -0.9959790000    -3.7738530000
| 28>  H        0.6146700000    -0.8913300000    -4.4662510000
| 29>  H        2.0424390000    -0.6992950000    -5.6255380000
| 30> *
| 31>
| 32>                          ****END OF INPUT****
 Total Charge           Charge          ....    0
 Multiplicity           Mult            ....    1
 Number of Electrons    NEL             ....   54
 Basis Dimension        Dim             ....  153

MULLIKEN ATOMIC CHARGES
-----------------------
   0 C :   -0.009779
   1 C :    0.059377
   2 N :   -0.284890
   3 C :    0.094060
   4 C :   -0.050836
   5 C :    0.067095
   6 C :   -0.035162
   7 H :    0.021458
   8 H :    0.024003
   9 H :    0.031781
  10 H :   -0.011841
  11 H :    0.015291
  12 H :    0.021834
  13 H :    0.027643
  14 H :    0.002740
  15 H :   -0.007975
  16 H :    0.015852
  17 H :    0.019350
Sum of atomic charges:    0.0000000

LOEWDIN ATOMIC CHARGES
----------------------
   0 C :   -0.070588
   1 C :    0.011482
   2 N :   -0.101469
   3 C :    0.013628
   4 C :   -0.003275
   5 C :   -0.023290
   6 C :   -0.067099
   7 H :    0.029401
   8 H :    0.027367
   9 H :    0.031146
  10 H :    0.000551
  11 H :    0.023212
  12 H :    0.014638
  13 H :    0.020228
  14 H :    0.015859
  15 H :    0.031056
  16 H :    0.021602
  17 H :    0.025550

  Mayer bond orders larger than 0.1
B(  0-C ,  1-C ) :   1.1271 B(  0-C ,  7-H ) :   0.9584 B(  0-C ,  8-H ) :   0.9630
B(  0-C ,  9-H ) :   0.9577 B(  1-C ,  2-N ) :   1.0057 B(  1-C , 10-H ) :   0.9105
B(  1-C , 11-H ) :   0.9392 B(  2-N ,  3-C ) :   0.9793 B(  2-N ,  4-C ) :   0.8594
B(  3-C ,  4-C ) :   1.0164 B(  3-C , 12-H ) :   0.9234 B(  3-C , 13-H ) :   0.9396
B(  4-C ,  5-C ) :   1.0779 B(  4-C , 14-H ) :   0.9268 B(  5-C ,  6-C ) :   1.9675
B(  5-C , 15-H ) :   0.9428 B(  6-C , 16-H ) :   0.9530 B(  6-C , 17-H ) :   0.9321

FINAL SINGLE POINT ENERGY      -289.342066488514

DIPOLE MOMENT
-------------
                                X             Y             Z
Electronic contribution:      1.82849      -2.32760      -1.85347
Nuclear contribution   :     -2.12119       2.17119       2.10296
                        -----------------------------------------
Total Dipole Moment    :     -0.29270      -0.15641       0.24949
                        -----------------------------------------
Magnitude (a.u.)       :      0.41520
Magnitude (Debye)      :      1.05535

                             ****ORCA TERMINATED NORMALLY****
TOTAL RUN TIME: 0 days 0 hours 0 minutes 7 seconds 823 msec
