                         Program Version 3.0.3 - RELEASE   -
|  1> ! RI PBE def2-SVP def2-SVP/J NBO PAL2
|  2> % maxcore 2000
|  3> % output
|  4>     # printlevel mini
|  5>     print[ P_Basis ] 0
|  6>     print[ P_SCFInfo ] 1
|  7>     print[ P_SCFIterInfo ] 1
|  8>     print[ P_OrbEn ] 0
|  9>     print[ P_Cartesian ] 0
| 10> end
| 11> *xyz 0 1
| 12>  C        2.4224040000     1.2559270000    -0.1036880000
| 13>  C        2.5252900000    -0.2394200000     0.1049340000
| 14>  N        3.0802700000    -0.8913710000    -1.0668980000
| 15>  C        2.7733520000    -2.2879940000    -1.2307440000
| 16>  C        2.1099600000    -1.2654770000    -2.0876690000
| 17>  C        2.4551220000    -1.0788330000    -3.4674340000
| 18>  C        2.7195040000    -0.9360580000    -4.6299370000
| 19>  H        2.0325960000     1.7436550000     0.7923700000
| 20>  H        1.7532370000     1.4907290000    -0.9350660000
| 21>  H        3.4023880000     1.6787730000    -0.3314800000
| 22>  H        1.5362090000    -0.6564650000     0.3638350000
| 23>  H        3.1927360000    -0.4597920000     0.9439460000
| 24>  H        2.1481580000    -2.7695720000    -0.4813900000
| 25>  H        3.5605460000    -2.9024700000    -1.6524530000
| 26>  H        1.0643450000    -1.0719160000    -1.8510400000
| 27>  H        2.9635040000    -0.8052160000    -5.6573970000
| 28> *
| 29>
| 30>                          ****END OF INPUT****
 Total Charge           Charge          ....    0
 Multiplicity           Mult            ....    1
 Number of Electrons    NEL             ....   52
 Basis Dimension        Dim             ....  143

MULLIKEN ATOMIC CHARGES
-----------------------
   0 C :    0.001362
   1 C :    0.052340
   2 N :   -0.268358
   3 C :    0.110625
   4 C :   -0.105244
   5 C :    0.497222
   6 C :   -0.482086
   7 H :    0.022444
   8 H :    0.024163
   9 H :    0.033561
  10 H :   -0.011957
  11 H :    0.018668
  12 H :    0.025583
  13 H :    0.038261
  14 H :    0.040951
  15 H :    0.002463
Sum of atomic charges:   -0.0000000

LOEWDIN ATOMIC CHARGES
----------------------
   0 C :   -0.068238
   1 C :    0.011738
   2 N :   -0.089421
   3 C :    0.026760
   4 C :   -0.013503
   5 C :   -0.018005
   6 C :   -0.074207
   7 H :    0.030281
   8 H :    0.027924
   9 H :    0.032429
  10 H :    0.000871
  11 H :    0.025120
  12 H :    0.016067
  13 H :    0.027064
  14 H :    0.030147
  15 H :    0.034972

  Mayer bond orders larger than 0.1
B(  0-C ,  1-C ) :   1.1283 B(  0-C ,  7-H ) :   0.9581 B(  0-C ,  8-H ) :   0.9610
B(  0-C ,  9-H ) :   0.9582 B(  1-C ,  2-N ) :   1.0034 B(  1-C , 10-H ) :   0.9091
B(  1-C , 11-H ) :   0.9388 B(  2-N ,  3-C ) :   0.9714 B(  2-N ,  4-C ) :   0.9115
B(  3-C ,  4-C ) :   1.0370 B(  3-C , 12-H ) :   0.9222 B(  3-C , 13-H ) :   0.9401
B(  4-C ,  5-C ) :   0.9739 B(  4-C , 14-H ) :   0.9034 B(  5-C ,  6-C ) :   2.2835
B(  5-C , 15-H ) :  -0.1045 B(  6-C , 15-H ) :   1.0945

FINAL SINGLE POINT ENERGY      -288.094735062162

DIPOLE MOMENT
-------------
                                X             Y             Z
Electronic contribution:      1.08344      -2.90065      -5.61747
Nuclear contribution   :     -1.44279       2.77444       6.02038
                        -----------------------------------------
Total Dipole Moment    :     -0.35935      -0.12621       0.40291
                        -----------------------------------------
Magnitude (a.u.)       :      0.55444
Magnitude (Debye)      :      1.40926

                             ****ORCA TERMINATED NORMALLY****
TOTAL RUN TIME: 0 days 0 hours 0 minutes 7 seconds 480 msec
