                         Program Version 3.0.3 - RELEASE   -
|  1> ! RI PBE def2-SVP def2-SVP/J NBO PAL2
|  2> % maxcore 2000
|  3> % output
|  4>     # printlevel mini
|  5>     print[ P_Basis ] 0
|  6>     print[ P_SCFInfo ] 1
|  7>     print[ P_SCFIterInfo ] 1
|  8>     print[ P_OrbEn ] 0
|  9>     print[ P_Cartesian ] 0
| 10> end
| 11> *xyz 0 1
| 12>  C        2.6300190000     0.8561860000     0.9026340000
| 13>  C        1.9671290000     0.1937210000    -0.2865230000
| 14>  N        2.8266610000     0.2419140000    -1.4537190000
| 15>  C        2.1652920000     0.1399840000    -2.7378620000
| 16>  C        2.7265490000     1.4306060000    -2.2703320000
| 17>  C        3.9964310000     1.9968790000    -2.8354570000
| 18>  N        3.6943680000     2.8694200000    -3.9594470000
| 19>  H        1.9938310000     0.7880150000     1.7879360000
| 20>  H        2.8196490000     1.9143460000     0.7050320000
| 21>  H        3.5857540000     0.3774520000     1.1246170000
| 22>  H        0.9924910000     0.6714200000    -0.4876420000
| 23>  H        1.7660660000    -0.8597340000    -0.0664140000
| 24>  H        1.0824950000     0.0364370000    -2.7426340000
| 25>  H        2.6869770000    -0.4426460000    -3.4917600000
| 26>  H        1.9946150000     2.1780790000    -1.9636790000
| 27>  H        4.6694380000     1.1586050000    -3.0692740000
| 28>  H        4.4924390000     2.5956920000    -2.0640310000
| 29>  H        3.2910250000     2.3348270000    -4.7195920000
| 30>  H        4.5374700000     3.3017060000    -4.3142450000
| 31> *
| 32>
| 33>                          ****END OF INPUT****
 Total Charge           Charge          ....    0
 Multiplicity           Mult            ....    1
 Number of Electrons    NEL             ....   56
 Basis Dimension        Dim             ....  158

MULLIKEN ATOMIC CHARGES
-----------------------
   0 C :   -0.018198
   1 C :    0.069674
   2 N :   -0.275827
   3 C :    0.076454
   4 C :   -0.115467
   5 C :    0.193838
   6 N :   -0.216349
   7 H :    0.023507
   8 H :    0.024703
   9 H :    0.027165
  10 H :   -0.014049
  11 H :    0.010727
  12 H :    0.019615
  13 H :    0.018648
  14 H :    0.014262
  15 H :   -0.018092
  16 H :    0.005925
  17 H :    0.084728
  18 H :    0.088736
Sum of atomic charges:   -0.0000000

LOEWDIN ATOMIC CHARGES
----------------------
   0 C :   -0.072812
   1 C :    0.012669
   2 N :   -0.105088
   3 C :    0.000860
   4 C :   -0.008999
   5 C :    0.005633
   6 N :   -0.111895
   7 H :    0.029501
   8 H :    0.026525
   9 H :    0.029480
  10 H :    0.000317
  11 H :    0.021271
  12 H :    0.013273
  13 H :    0.016312
  14 H :    0.013473
  15 H :    0.003082
  16 H :    0.024024
  17 H :    0.049834
  18 H :    0.052539

  Mayer bond orders larger than 0.1
B(  0-C ,  1-C ) :   1.1306 B(  0-C ,  7-H ) :   0.9595 B(  0-C ,  8-H ) :   0.9609
B(  0-C ,  9-H ) :   0.9561 B(  1-C ,  2-N ) :   1.0106 B(  1-C , 10-H ) :   0.9103
B(  1-C , 11-H ) :   0.9397 B(  2-N ,  3-C ) :   0.9781 B(  2-N ,  4-C ) :   0.9118
B(  3-C ,  4-C ) :   1.0525 B(  3-C , 12-H ) :   0.9271 B(  3-C , 13-H ) :   0.9361
B(  4-C ,  5-C ) :   1.0521 B(  4-C , 14-H ) :   0.9225 B(  5-C ,  6-N ) :   1.0840
B(  5-C , 15-H ) :   0.9060 B(  5-C , 16-H ) :   0.9195 B(  6-N , 17-H ) :   0.9701
B(  6-N , 18-H ) :   0.9633

FINAL SINGLE POINT ENERGY      -306.577670071548

DIPOLE MOMENT
-------------
                                X             Y             Z
Electronic contribution:      0.47157      -0.52801      -2.60950
Nuclear contribution   :     -0.49346       0.46609       2.34777
                        -----------------------------------------
Total Dipole Moment    :     -0.02189      -0.06192      -0.26173
                        -----------------------------------------
Magnitude (a.u.)       :      0.26984
Magnitude (Debye)      :      0.68589

                             ****ORCA TERMINATED NORMALLY****
TOTAL RUN TIME: 0 days 0 hours 0 minutes 8 seconds 225 msec
