                         Program Version 3.0.3 - RELEASE   -
|  1> ! RI PBE def2-SVP def2-SVP/J NBO PAL2
|  2> % maxcore 2000
|  3> % output
|  4>     # printlevel mini
|  5>     print[ P_Basis ] 0
|  6>     print[ P_SCFInfo ] 1
|  7>     print[ P_SCFIterInfo ] 1
|  8>     print[ P_OrbEn ] 0
|  9>     print[ P_Cartesian ] 0
| 10> end
| 11> *xyz 0 1
| 12>  C        3.3969680000    -0.4882670000     0.5774600000
| 13>  C        2.2932890000     0.1377820000    -0.2460610000
| 14>  N        2.8399820000     0.9697540000    -1.3050900000
| 15>  C        1.9914680000     2.0073080000    -1.8236210000
| 16>  C        3.1326430000     2.3407940000    -0.9265990000
| 17>  C        4.3418870000     2.9312970000    -1.4338210000
| 18>  N        5.3002400000     3.4281410000    -1.8304740000
| 19>  H        2.9770960000    -1.1382470000     1.3477270000
| 20>  H        4.0011050000     0.2751460000     1.0739020000
| 21>  H        4.0581690000    -1.0821400000    -0.0556210000
| 22>  H        1.6118470000     0.7157340000     0.4014950000
| 23>  H        1.6931280000    -0.6381020000    -0.7301520000
| 24>  H        1.0000750000     2.1291720000    -1.3924570000
| 25>  H        2.0729490000     2.2058660000    -2.8860010000
| 26>  H        2.8776550000     2.6525720000     0.0841220000
| 27> *
| 28>
| 29>                          ****END OF INPUT****
 Total Charge           Charge          ....    0
 Multiplicity           Mult            ....    1
 Number of Electrons    NEL             ....   52
 Basis Dimension        Dim             ....  138

MULLIKEN ATOMIC CHARGES
-----------------------
   0 C :   -0.016549
   1 C :    0.054505
   2 N :   -0.261885
   3 C :    0.129027
   4 C :   -0.170350
   5 C :   -0.061197
   6 N :    0.064785
   7 H :    0.030463
   8 H :    0.029113
   9 H :    0.043011
  10 H :   -0.004527
  11 H :    0.027336
  12 H :    0.030366
  13 H :    0.049441
  14 H :    0.056461
Sum of atomic charges:    0.0000000

LOEWDIN ATOMIC CHARGES
----------------------
   0 C :   -0.069314
   1 C :    0.014728
   2 N :   -0.080225
   3 C :    0.037648
   4 C :   -0.028404
   5 C :   -0.040281
   6 N :   -0.055602
   7 H :    0.033467
   8 H :    0.029446
   9 H :    0.035766
  10 H :    0.003732
  11 H :    0.029050
  12 H :    0.019955
  13 H :    0.032381
  14 H :    0.037653

  Mayer bond orders larger than 0.1
B(  0-C ,  1-C ) :   1.1268 B(  0-C ,  7-H ) :   0.9595 B(  0-C ,  8-H ) :   0.9601
B(  0-C ,  9-H ) :   0.9600 B(  1-C ,  2-N ) :   0.9975 B(  1-C , 10-H ) :   0.9136
B(  1-C , 11-H ) :   0.9389 B(  2-N ,  3-C ) :   0.9692 B(  2-N ,  4-C ) :   0.9671
B(  3-C ,  4-C ) :   1.0557 B(  3-C , 12-H ) :   0.9240 B(  3-C , 13-H ) :   0.9368
B(  4-C ,  5-C ) :   1.0918 B(  4-C , 14-H ) :   0.9011 B(  5-C ,  6-N ) :   3.0482

FINAL SINGLE POINT ENERGY      -304.172493030666

DIPOLE MOMENT
-------------
                                X             Y             Z
Electronic contribution:      4.15750       6.28989      -4.44610
Nuclear contribution   :     -5.66537      -6.89935       5.18116
                        -----------------------------------------
Total Dipole Moment    :     -1.50788      -0.60945       0.73507
                        -----------------------------------------
Magnitude (a.u.)       :      1.78478
Magnitude (Debye)      :      4.53655

                             ****ORCA TERMINATED NORMALLY****
TOTAL RUN TIME: 0 days 0 hours 0 minutes 6 seconds 931 msec
