                         Program Version 3.0.3 - RELEASE   -
|  1> ! RI PBE def2-SVP def2-SVP/J NBO PAL2
|  2> % maxcore 2000
|  3> % output
|  4>     # printlevel mini
|  5>     print[ P_Basis ] 0
|  6>     print[ P_SCFInfo ] 1
|  7>     print[ P_SCFIterInfo ] 1
|  8>     print[ P_OrbEn ] 0
|  9>     print[ P_Cartesian ] 0
| 10> end
| 11> *xyz 0 1
| 12>  C        1.1908400000     0.0603060000     0.1332580000
| 13>  C        2.6929590000    -0.1108850000     0.0267800000
| 14>  N        3.0979670000    -0.8359040000    -1.1509000000
| 15>  C        4.5352870000    -1.0595250000    -1.3265250000
| 16>  C        4.2257670000    -2.4495160000    -1.8922990000
| 17>  C        2.8449050000    -2.2871410000    -1.2345100000
| 18>  C        1.6266040000    -2.7298330000    -2.0074040000
| 19>  H        0.9378380000     0.6776350000     0.9982810000
| 20>  H        0.6862290000    -0.9004130000     0.2572390000
| 21>  H        0.7933230000     0.5392420000    -0.7639850000
| 22>  H        3.0753630000    -0.6018340000     0.9435410000
| 23>  H        3.1701620000     0.8743340000    -0.0185160000
| 24>  H        5.0726130000    -1.1215370000    -0.3666580000
| 25>  H        5.0428830000    -0.3342980000    -1.9684240000
| 26>  H        4.8475050000    -3.2796260000    -1.5609840000
| 27>  H        4.1567900000    -2.4535380000    -2.9812550000
| 28>  H        2.8455320000    -2.7448150000    -0.2291990000
| 29>  H        1.6120110000    -2.2530330000    -2.9900780000
| 30>  H        0.6987290000    -2.4731840000    -1.4917320000
| 31>  H        1.6419950000    -3.8147560000    -2.1474200000
| 32> *
| 33>
| 34>                          ****END OF INPUT****
 Total Charge           Charge          ....    0
 Multiplicity           Mult            ....    1
 Number of Electrons    NEL             ....   56
 Basis Dimension        Dim             ....  163

MULLIKEN ATOMIC CHARGES
-----------------------
   0 C :   -0.020038
   1 C :    0.075520
   2 N :   -0.336023
   3 C :    0.136932
   4 C :   -0.016797
   5 C :   -0.037093
   6 C :    0.086224
   7 H :    0.018741
   8 H :    0.025519
   9 H :    0.027216
  10 H :   -0.020393
  11 H :    0.007453
  12 H :   -0.012598
  13 H :    0.014464
  14 H :    0.022302
  15 H :    0.013542
  16 H :   -0.018470
  17 H :    0.005958
  18 H :    0.009524
  19 H :    0.018017
Sum of atomic charges:   -0.0000000

LOEWDIN ATOMIC CHARGES
----------------------
   0 C :   -0.072417
   1 C :    0.006153
   2 N :   -0.117709
   3 C :    0.032285
   4 C :   -0.037553
   5 C :    0.022241
   6 C :   -0.069961
   7 H :    0.029535
   8 H :    0.023320
   9 H :    0.028171
  10 H :   -0.006204
  11 H :    0.021261
  12 H :    0.001512
  13 H :    0.010958
  14 H :    0.020464
  15 H :    0.025977
  16 H :    0.002243
  17 H :    0.025098
  18 H :    0.024700
  19 H :    0.029925

  Mayer bond orders larger than 0.1
B(  0-C ,  1-C ) :   1.1216 B(  0-C ,  7-H ) :   0.9556 B(  0-C ,  8-H ) :   0.9607
B(  0-C ,  9-H ) :   0.9599 B(  1-C ,  2-N ) :   1.0316 B(  1-C , 10-H ) :   0.9131
B(  1-C , 11-H ) :   0.9377 B(  2-N ,  3-C ) :   1.0193 B(  2-N ,  5-C ) :   1.0005
B(  3-C ,  4-C ) :   1.1126 B(  3-C , 12-H ) :   0.9100 B(  3-C , 13-H ) :   0.9405
B(  4-C ,  5-C ) :   1.0750 B(  4-C , 14-H ) :   0.9439 B(  4-C , 15-H ) :   0.9108
B(  5-C ,  6-C ) :   1.1087 B(  5-C , 16-H ) :   0.8912 B(  6-C , 17-H ) :   0.9382
B(  6-C , 18-H ) :   0.9514 B(  6-C , 19-H ) :   0.9508

FINAL SINGLE POINT ENERGY      -290.570915808341

DIPOLE MOMENT
-------------
                                X             Y             Z
Electronic contribution:      2.53823       0.30183      -1.09539
Nuclear contribution   :     -2.46032      -0.45225       1.25785
                        -----------------------------------------
Total Dipole Moment    :      0.07791      -0.15042       0.16246
                        -----------------------------------------
Magnitude (a.u.)       :      0.23471
Magnitude (Debye)      :      0.59659

                             ****ORCA TERMINATED NORMALLY****
TOTAL RUN TIME: 0 days 0 hours 0 minutes 8 seconds 859 msec
