                         Program Version 3.0.3 - RELEASE   -
|  1> ! RI PBE def2-SVP def2-SVP/J NBO PAL2
|  2> % maxcore 2000
|  3> % output
|  4>     # printlevel mini
|  5>     print[ P_Basis ] 0
|  6>     print[ P_SCFInfo ] 1
|  7>     print[ P_SCFIterInfo ] 1
|  8>     print[ P_OrbEn ] 0
|  9>     print[ P_Cartesian ] 0
| 10> end
| 11> *xyz 0 1
| 12>  C        2.5664160000     1.5380190000     0.2829470000
| 13>  C        2.2242340000     0.1749720000    -0.2846520000
| 14>  N        2.8977260000    -0.0214800000    -1.5521250000
| 15>  C        2.4461600000    -1.0649500000    -2.4625780000
| 16>  C        1.3299420000    -2.0165520000    -2.1342090000
| 17>  C        2.1999380000     0.3660380000    -2.7627000000
| 18>  C        2.9607640000     1.1311600000    -3.8037280000
| 19>  H        2.0928130000     1.6830730000     1.2568210000
| 20>  H        2.2208960000     2.3340330000    -0.3818140000
| 21>  H        3.6464850000     1.6437230000     0.4004380000
| 22>  H        1.1302460000     0.0792120000    -0.3628600000
| 23>  H        2.5635310000    -0.6078990000     0.4019300000
| 24>  H        3.2780910000    -1.5350150000    -2.9857110000
| 25>  H        1.6583560000    -2.7821740000    -1.4252490000
| 26>  H        0.4596420000    -1.5139070000    -1.7112640000
| 27>  H        1.0040360000    -2.5296030000    -3.0426520000
| 28>  H        1.1631320000     0.6795700000    -2.6223560000
| 29>  H        3.9823360000     0.7541620000    -3.8779170000
| 30>  H        3.0124200000     2.1939190000    -3.5514520000
| 31>  H        2.4849260000     1.0394900000    -4.7840910000
| 32> *
| 33>
| 34>                          ****END OF INPUT****
 Total Charge           Charge          ....    0
 Multiplicity           Mult            ....    1
 Number of Electrons    NEL             ....   56
 Basis Dimension        Dim             ....  163

MULLIKEN ATOMIC CHARGES
-----------------------
   0 C :   -0.000875
   1 C :    0.065161
   2 N :   -0.275488
   3 C :   -0.064538
   4 C :    0.074986
   5 C :   -0.072998
   6 C :    0.097234
   7 H :    0.014209
   8 H :    0.016489
   9 H :    0.027127
  10 H :   -0.009223
  11 H :    0.009703
  12 H :    0.007286
  13 H :    0.026162
  14 H :    0.006103
  15 H :    0.026182
  16 H :    0.001049
  17 H :    0.010944
  18 H :    0.021782
  19 H :    0.018707
Sum of atomic charges:   -0.0000000

LOEWDIN ATOMIC CHARGES
----------------------
   0 C :   -0.069364
   1 C :    0.009515
   2 N :   -0.110120
   3 C :   -0.003369
   4 C :   -0.067648
   5 C :   -0.003923
   6 C :   -0.064149
   7 H :    0.026523
   8 H :    0.024605
   9 H :    0.028481
  10 H :   -0.000340
  11 H :    0.021000
  12 H :    0.017055
  13 H :    0.030984
  14 H :    0.025878
  15 H :    0.035800
  16 H :    0.008651
  17 H :    0.031936
  18 H :    0.029611
  19 H :    0.028871

  Mayer bond orders larger than 0.1
B(  0-C ,  1-C ) :   1.1290 B(  0-C ,  7-H ) :   0.9560 B(  0-C ,  8-H ) :   0.9621
B(  0-C ,  9-H ) :   0.9590 B(  1-C ,  2-N ) :   1.0159 B(  1-C , 10-H ) :   0.9143
B(  1-C , 11-H ) :   0.9379 B(  2-N ,  3-C ) :   0.9459 B(  2-N ,  5-C ) :   0.9353
B(  3-C ,  4-C ) :   1.0886 B(  3-C ,  5-C ) :   1.0086 B(  3-C , 12-H ) :   0.9278
B(  4-C , 13-H ) :   0.9540 B(  4-C , 14-H ) :   0.9450 B(  4-C , 15-H ) :   0.9498
B(  5-C ,  6-C ) :   1.0879 B(  5-C , 16-H ) :   0.9167 B(  6-C , 17-H ) :   0.9410
B(  6-C , 18-H ) :   0.9534 B(  6-C , 19-H ) :   0.9555

FINAL SINGLE POINT ENERGY      -290.566773620435

DIPOLE MOMENT
-------------
                                X             Y             Z
Electronic contribution:      1.47381      -1.14086      -0.75831
Nuclear contribution   :     -1.89907       1.01797       0.69462
                        -----------------------------------------
Total Dipole Moment    :     -0.42526      -0.12289      -0.06369
                        -----------------------------------------
Magnitude (a.u.)       :      0.44721
Magnitude (Debye)      :      1.13673

                             ****ORCA TERMINATED NORMALLY****
TOTAL RUN TIME: 0 days 0 hours 0 minutes 8 seconds 779 msec
