                         Program Version 3.0.3 - RELEASE   -
|  1> ! RI PBE def2-SVP def2-SVP/J NBO PAL2
|  2> % maxcore 2000
|  3> % output
|  4>     # printlevel mini
|  5>     print[ P_Basis ] 0
|  6>     print[ P_SCFInfo ] 1
|  7>     print[ P_SCFIterInfo ] 1
|  8>     print[ P_OrbEn ] 0
|  9>     print[ P_Cartesian ] 0
| 10> end
| 11> *xyz 0 1
| 12>  C        0.9445980000    -0.3773500000    -0.0796000000
| 13>  C        2.4252700000    -0.0371370000    -0.0674640000
| 14>  N        2.9267860000     0.3760010000    -1.3580580000
| 15>  C        2.9058180000     1.6511900000    -1.8430010000
| 16>  C        3.3723460000     1.6320860000    -3.1334520000
| 17>  C        3.6829960000     0.2869310000    -3.4433640000
| 18>  C        3.3934420000    -0.4607010000    -2.3295950000
| 19>  H        0.6171020000    -0.6822020000     0.9172260000
| 20>  H        0.7391670000    -1.1950640000    -0.7730090000
| 21>  H        0.3500290000     0.4849650000    -0.3871180000
| 22>  H        3.0113920000    -0.8996090000     0.2593210000
| 23>  H        2.6249150000     0.7687150000     0.6431160000
| 24>  H        2.5662600000     2.4698630000    -1.2275700000
| 25>  H        3.4898190000     2.4911210000    -3.7754360000
| 26>  H        4.0859850000    -0.0904620000    -4.3702170000
| 27>  H        3.4874840000    -1.5199660000    -2.1468610000
| 28> *
| 29>
| 30>                          ****END OF INPUT****
 Total Charge           Charge          ....    0
 Multiplicity           Mult            ....    1
 Number of Electrons    NEL             ....   52
 Basis Dimension        Dim             ....  143

MULLIKEN ATOMIC CHARGES
-----------------------
   0 C :   -0.018582
   1 C :    0.064609
   2 N :   -0.164707
   3 C :    0.050873
   4 C :   -0.027274
   5 C :   -0.029266
   6 C :    0.048853
   7 H :    0.026960
   8 H :    0.034161
   9 H :    0.035179
  10 H :    0.025891
  11 H :    0.026045
  12 H :   -0.014758
  13 H :   -0.021914
  14 H :   -0.023224
  15 H :   -0.012845
Sum of atomic charges:   -0.0000000

LOEWDIN ATOMIC CHARGES
----------------------
   0 C :   -0.070326
   1 C :    0.029052
   2 N :    0.073181
   3 C :   -0.042385
   4 C :   -0.087574
   5 C :   -0.087344
   6 C :   -0.043282
   7 H :    0.031774
   8 H :    0.031130
   9 H :    0.031515
  10 H :    0.030291
  11 H :    0.029809
  12 H :    0.014973
  13 H :    0.022011
  14 H :    0.021881
  15 H :    0.015295

  Mayer bond orders larger than 0.1
B(  0-C ,  1-C ) :   1.1209 B(  0-C ,  7-H ) :   0.9581 B(  0-C ,  8-H ) :   0.9629
B(  0-C ,  9-H ) :   0.9623 B(  1-C ,  2-N ) :   0.9913 B(  1-C , 10-H ) :   0.9391
B(  1-C , 11-H ) :   0.9413 B(  2-N ,  3-C ) :   1.2061 B(  2-N ,  6-C ) :   1.2060
B(  3-C ,  4-C ) :   1.4600 B(  3-C , 12-H ) :   0.9837 B(  4-C ,  5-C ) :   1.3126
B(  4-C , 13-H ) :   1.0054 B(  5-C ,  6-C ) :   1.4629 B(  5-C , 14-H ) :   1.0035
B(  6-C , 15-H ) :   0.9841

FINAL SINGLE POINT ENERGY      -288.209209358516

DIPOLE MOMENT
-------------
                                X             Y             Z
Electronic contribution:      3.33757       1.53393      -3.30461
Nuclear contribution   :     -3.66446      -1.78932       4.08702
                        -----------------------------------------
Total Dipole Moment    :     -0.32689      -0.25540       0.78242
                        -----------------------------------------
Magnitude (a.u.)       :      0.88559
Magnitude (Debye)      :      2.25098

                             ****ORCA TERMINATED NORMALLY****
TOTAL RUN TIME: 0 days 0 hours 0 minutes 7 seconds 246 msec
