                         Program Version 3.0.3 - RELEASE   -
|  1> ! RI PBE def2-SVP def2-SVP/J NBO PAL2
|  2> % maxcore 2000
|  3> % output
|  4>     # printlevel mini
|  5>     print[ P_Basis ] 0
|  6>     print[ P_SCFInfo ] 1
|  7>     print[ P_SCFIterInfo ] 1
|  8>     print[ P_OrbEn ] 0
|  9>     print[ P_Cartesian ] 0
| 10> end
| 11> *xyz 0 1
| 12>  C        2.5661960000    -1.1932540000     0.4061630000
| 13>  C        2.3117940000     0.0070750000    -0.0999870000
| 14>  N        3.0169350000     0.6490220000    -1.1130680000
| 15>  C        2.6953200000     1.8981410000    -1.5894610000
| 16>  C        3.5816890000     2.2288450000    -2.5730250000
| 17>  C        4.4828240000     1.1387190000    -2.7048980000
| 18>  C        4.1120460000     0.1863800000    -1.7980270000
| 19>  H        1.9374720000    -1.5791630000     1.1959300000
| 20>  H        3.3822170000    -1.8172430000     0.0658460000
| 21>  H        1.4834950000     0.6011770000     0.2693680000
| 22>  H        1.8573100000     2.4384590000    -1.1786860000
| 23>  H        3.5862550000     3.1483300000    -3.1366710000
| 24>  H        5.3122190000     1.0626600000    -3.3906380000
| 25>  H        4.5368380000    -0.7797460000    -1.5849560000
| 26> *
| 27>
| 28>                          ****END OF INPUT****
 Total Charge           Charge          ....    0
 Multiplicity           Mult            ....    1
 Number of Electrons    NEL             ....   50
 Basis Dimension        Dim             ....  133

MULLIKEN ATOMIC CHARGES
-----------------------
   0 C :   -0.070726
   1 C :    0.071496
   2 N :   -0.128104
   3 C :    0.061960
   4 C :   -0.023882
   5 C :   -0.025434
   6 C :    0.069350
   7 H :    0.033528
   8 H :    0.031327
   9 H :    0.012905
  10 H :   -0.004623
  11 H :   -0.013313
  12 H :   -0.011859
  13 H :   -0.002625
Sum of atomic charges:   -0.0000000

LOEWDIN ATOMIC CHARGES
----------------------
   0 C :   -0.095756
   1 C :    0.020356
   2 N :    0.089239
   3 C :   -0.024649
   4 C :   -0.078418
   5 C :   -0.069043
   6 C :   -0.025596
   7 H :    0.034616
   8 H :    0.026222
   9 H :    0.031295
  10 H :    0.019619
  11 H :    0.025967
  12 H :    0.026093
  13 H :    0.020057

  Mayer bond orders larger than 0.1
B(  0-C ,  1-C ) :   1.9148 B(  0-C ,  7-H ) :   0.9374 B(  0-C ,  8-H ) :   0.9508
B(  1-C ,  2-N ) :   1.0666 B(  1-C ,  9-H ) :   0.9571 B(  2-N ,  3-C ) :   1.1540
B(  2-N ,  6-C ) :   1.1694 B(  3-C ,  4-C ) :   1.4918 B(  3-C , 10-H ) :   0.9863
B(  4-C ,  5-C ) :   1.2776 B(  4-C , 11-H ) :   1.0031 B(  5-C ,  6-C ) :   1.5013
B(  5-C , 12-H ) :   1.0032 B(  6-C , 13-H ) :   0.9836

FINAL SINGLE POINT ENERGY      -286.989979387574

DIPOLE MOMENT
-------------
                                X             Y             Z
Electronic contribution:      0.31564       1.46468      -1.16746
Nuclear contribution   :     -0.54991      -1.58855       1.45229
                        -----------------------------------------
Total Dipole Moment    :     -0.23427      -0.12387       0.28483
                        -----------------------------------------
Magnitude (a.u.)       :      0.38904
Magnitude (Debye)      :      0.98886

                             ****ORCA TERMINATED NORMALLY****
TOTAL RUN TIME: 0 days 0 hours 0 minutes 6 seconds 629 msec
