                         Program Version 3.0.3 - RELEASE   -
|  1> ! RI PBE def2-SVP def2-SVP/J NBO PAL2
|  2> % maxcore 2000
|  3> % output
|  4>     # printlevel mini
|  5>     print[ P_Basis ] 0
|  6>     print[ P_SCFInfo ] 1
|  7>     print[ P_SCFIterInfo ] 1
|  8>     print[ P_OrbEn ] 0
|  9>     print[ P_Cartesian ] 0
| 10> end
| 11> *xyz 0 1
| 12>  C        2.5606310000    -1.2880220000     0.9701810000
| 13>  C        2.3761520000    -0.0056990000     0.1824630000
| 14>  N        2.7407860000     1.1763950000     0.9273200000
| 15>  C        2.7146910000     2.3895600000     0.1335170000
| 16>  C        2.8566570000     3.5072270000     1.1632060000
| 17>  C        2.2983740000     2.8923690000     2.4634000000
| 18>  C        1.8938270000     1.4733960000     2.0669170000
| 19>  H        2.3563240000    -2.1543500000     0.3370980000
| 20>  H        1.8842220000    -1.3407030000     1.8260400000
| 21>  H        3.5851780000    -1.3652510000     1.3408470000
| 22>  H        1.3292710000     0.0638750000    -0.1752540000
| 23>  H        3.0072830000    -0.0388580000    -0.7114660000
| 24>  H        1.7536410000     2.4886340000    -0.4082950000
| 25>  H        3.5127150000     2.3806620000    -0.6135440000
| 26>  H        2.3189320000     4.4061990000     0.8578560000
| 27>  H        3.9055160000     3.7810800000     1.2880100000
| 28>  H        1.4516640000     3.4521780000     2.8637330000
| 29>  H        3.0672260000     2.8680040000     3.2372510000
| 30>  H        0.8235770000     1.4444620000     1.7814050000
| 31>  H        2.0396330000     0.7500130000     2.8712240000
| 32> *
| 33>
| 34>                          ****END OF INPUT****
 Total Charge           Charge          ....    0
 Multiplicity           Mult            ....    1
 Number of Electrons    NEL             ....   56
 Basis Dimension        Dim             ....  163

MULLIKEN ATOMIC CHARGES
-----------------------
   0 C :   -0.018586
   1 C :    0.087709
   2 N :   -0.372647
   3 C :    0.125555
   4 C :    0.008508
   5 C :   -0.019259
   6 C :    0.123028
   7 H :    0.018093
   8 H :    0.026271
   9 H :    0.023294
  10 H :   -0.023973
  11 H :    0.006267
  12 H :   -0.029295
  13 H :    0.011044
  14 H :    0.005640
  15 H :    0.010310
  16 H :    0.010017
  17 H :    0.016945
  18 H :   -0.026189
  19 H :    0.017269
Sum of atomic charges:   -0.0000000

LOEWDIN ATOMIC CHARGES
----------------------
   0 C :   -0.072220
   1 C :    0.012301
   2 N :   -0.115064
   3 C :    0.018744
   4 C :   -0.043016
   5 C :   -0.045414
   6 C :    0.018213
   7 H :    0.029616
   8 H :    0.023987
   9 H :    0.027649
  10 H :   -0.005094
  11 H :    0.021034
  12 H :   -0.006236
  13 H :    0.018237
  14 H :    0.024246
  15 H :    0.027090
  16 H :    0.025366
  17 H :    0.027950
  18 H :   -0.005694
  19 H :    0.018305

  Mayer bond orders larger than 0.1
B(  0-C ,  1-C ) :   1.1204 B(  0-C ,  7-H ) :   0.9558 B(  0-C ,  8-H ) :   0.9621
B(  0-C ,  9-H ) :   0.9595 B(  1-C ,  2-N ) :   1.0299 B(  1-C , 10-H ) :   0.9104
B(  1-C , 11-H ) :   0.9386 B(  2-N ,  3-C ) :   1.0100 B(  2-N ,  6-C ) :   1.0035
B(  3-C ,  4-C ) :   1.1402 B(  3-C , 12-H ) :   0.8948 B(  3-C , 13-H ) :   0.9380
B(  4-C ,  5-C ) :   1.1408 B(  4-C , 14-H ) :   0.9284 B(  4-C , 15-H ) :   0.9193
B(  5-C ,  6-C ) :   1.1413 B(  5-C , 16-H ) :   0.9273 B(  5-C , 17-H ) :   0.9224
B(  6-C , 18-H ) :   0.8960 B(  6-C , 19-H ) :   0.9376

FINAL SINGLE POINT ENERGY      -290.592548560760

DIPOLE MOMENT
-------------
                                X             Y             Z
Electronic contribution:      1.05744       1.70198       0.08351
Nuclear contribution   :     -1.16339      -1.64845      -0.10576
                        -----------------------------------------
Total Dipole Moment    :     -0.10596       0.05354      -0.02225
                        -----------------------------------------
Magnitude (a.u.)       :      0.12078
Magnitude (Debye)      :      0.30700

                             ****ORCA TERMINATED NORMALLY****
TOTAL RUN TIME: 0 days 0 hours 0 minutes 8 seconds 963 msec
