                         Program Version 3.0.3 - RELEASE   -
|  1> ! RI PBE def2-SVP def2-SVP/J NBO PAL2
|  2> % maxcore 2000
|  3> % output
|  4>     # printlevel mini
|  5>     print[ P_Basis ] 0
|  6>     print[ P_SCFInfo ] 1
|  7>     print[ P_SCFIterInfo ] 1
|  8>     print[ P_OrbEn ] 0
|  9>     print[ P_Cartesian ] 0
| 10> end
| 11> *xyz 0 1
| 12>  C        3.3782310000     0.8017200000     0.9199800000
| 13>  C        2.4965730000    -0.1246420000     0.1057230000
| 14>  N        2.5895170000     0.1226580000    -1.3110280000
| 15>  C        1.9718410000    -0.8922870000    -2.1518330000
| 16>  C        1.5884740000    -0.1328370000    -3.3803340000
| 17>  C        1.6845940000     1.1707430000    -3.1626360000
| 18>  C        2.1464290000     1.4334450000    -1.7646960000
| 19>  H        3.3212630000     0.5482480000     1.9809120000
| 20>  H        3.0711530000     1.8448350000     0.8137100000
| 21>  H        4.4189260000     0.7205290000     0.5983820000
| 22>  H        1.4496700000    -0.0446390000     0.4609530000
| 23>  H        2.8039900000    -1.1604080000     0.2823740000
| 24>  H        1.0720240000    -1.3413580000    -1.6865250000
| 25>  H        2.6676160000    -1.7172760000    -2.3500350000
| 26>  H        1.2531280000    -0.6071140000    -4.2937150000
| 27>  H        1.4426380000     1.9575560000    -3.8656650000
| 28>  H        1.3116100000     1.8358450000    -1.1558090000
| 29>  H        2.9552930000     2.1719020000    -1.7130680000
| 30> *
| 31>
| 32>                          ****END OF INPUT****
 Total Charge           Charge          ....    0
 Multiplicity           Mult            ....    1
 Number of Electrons    NEL             ....   54
 Basis Dimension        Dim             ....  153

MULLIKEN ATOMIC CHARGES
-----------------------
   0 C :   -0.024344
   1 C :    0.072065
   2 N :   -0.385652
   3 C :    0.230187
   4 C :   -0.100453
   5 C :   -0.088252
   6 C :    0.205180
   7 H :    0.020682
   8 H :    0.025362
   9 H :    0.028594
  10 H :   -0.016687
  11 H :    0.007501
  12 H :   -0.005467
  13 H :    0.017434
  14 H :   -0.005138
  15 H :   -0.001981
  16 H :   -0.003559
  17 H :    0.024524
Sum of atomic charges:   -0.0000000

LOEWDIN ATOMIC CHARGES
----------------------
   0 C :   -0.073585
   1 C :    0.012082
   2 N :   -0.116656
   3 C :    0.027267
   4 C :   -0.038436
   5 C :   -0.037685
   6 C :    0.023557
   7 H :    0.029628
   8 H :    0.024273
   9 H :    0.028688
  10 H :   -0.006234
  11 H :    0.021236
  12 H :    0.008447
  13 H :    0.020124
  14 H :    0.024319
  15 H :    0.024757
  16 H :    0.007668
  17 H :    0.020550

  Mayer bond orders larger than 0.1
B(  0-C ,  1-C ) :   1.1145 B(  0-C ,  7-H ) :   0.9567 B(  0-C ,  8-H ) :   0.9609
B(  0-C ,  9-H ) :   0.9610 B(  1-C ,  2-N ) :   1.0330 B(  1-C , 10-H ) :   0.9149
B(  1-C , 11-H ) :   0.9396 B(  2-N ,  3-C ) :   1.0134 B(  2-N ,  6-C ) :   1.0114
B(  3-C ,  4-C ) :   1.0292 B(  3-C , 12-H ) :   0.8871 B(  3-C , 13-H ) :   0.9274
B(  4-C ,  5-C ) :   1.8793 B(  4-C , 14-H ) :   0.9880 B(  5-C ,  6-C ) :   1.0257
B(  5-C , 15-H ) :   0.9865 B(  6-C , 16-H ) :   0.8861 B(  6-C , 17-H ) :   0.9287

FINAL SINGLE POINT ENERGY      -289.371507617811

DIPOLE MOMENT
-------------
                                X             Y             Z
Electronic contribution:     -0.83069      -0.43793      -4.88842
Nuclear contribution   :      0.64043       0.43547       4.90369
                        -----------------------------------------
Total Dipole Moment    :     -0.19026      -0.00246       0.01527
                        -----------------------------------------
Magnitude (a.u.)       :      0.19089
Magnitude (Debye)      :      0.48521

                             ****ORCA TERMINATED NORMALLY****
TOTAL RUN TIME: 0 days 0 hours 0 minutes 7 seconds 630 msec
