                         Program Version 3.0.3 - RELEASE   -
|  1> ! RI PBE def2-SVP def2-SVP/J NBO PAL2
|  2> % maxcore 2000
|  3> % output
|  4>     # printlevel mini
|  5>     print[ P_Basis ] 0
|  6>     print[ P_SCFInfo ] 1
|  7>     print[ P_SCFIterInfo ] 1
|  8>     print[ P_OrbEn ] 0
|  9>     print[ P_Cartesian ] 0
| 10> end
| 11> *xyz 0 1
| 12>  C        2.8606840000    -1.2365640000     0.0692020000
| 13>  C        2.6062950000     0.2555610000     0.1354550000
| 14>  N        3.0585130000     0.9290600000    -1.0521370000
| 15>  C        2.9156250000     2.3836990000    -1.1255720000
| 16>  C        4.2603780000     2.4528390000    -1.8737770000
| 17>  C        4.1403410000     2.5021950000    -3.3809610000
| 18>  C        4.4992670000     1.0440310000    -1.2973870000
| 19>  H        2.4998940000    -1.7319130000     0.9732820000
| 20>  H        3.9290310000    -1.4502380000    -0.0216210000
| 21>  H        2.3548270000    -1.6742970000    -0.7938980000
| 22>  H        3.0909090000     0.6758510000     1.0394140000
| 23>  H        1.5323150000     0.4450010000     0.2393120000
| 24>  H        2.9689200000     2.8674410000    -0.1369210000
| 25>  H        2.0206060000     2.7375360000    -1.6480180000
| 26>  H        4.9483360000     3.2195940000    -1.5145990000
| 27>  H        3.4505510000     1.7323770000    -3.7358890000
| 28>  H        5.1095500000     2.3361140000    -3.8593120000
| 29>  H        3.7661180000     3.4737670000    -3.7152140000
| 30>  H        5.0889140000     1.0726210000    -0.3662280000
| 31>  H        4.9246490000     0.2880210000    -1.9648400000
| 32> *
| 33>
| 34>                          ****END OF INPUT****
 Total Charge           Charge          ....    0
 Multiplicity           Mult            ....    1
 Number of Electrons    NEL             ....   56
 Basis Dimension        Dim             ....  163

MULLIKEN ATOMIC CHARGES
-----------------------
   0 C :   -0.018704
   1 C :    0.076487
   2 N :   -0.363127
   3 C :    0.203555
   4 C :   -0.264711
   5 C :    0.066975
   6 C :    0.198929
   7 H :    0.018256
   8 H :    0.021531
   9 H :    0.026978
  10 H :   -0.022551
  11 H :    0.011283
  12 H :   -0.016342
  13 H :    0.003763
  14 H :    0.014065
  15 H :    0.020518
  16 H :    0.018011
  17 H :    0.016512
  18 H :   -0.016923
  19 H :    0.005496
Sum of atomic charges:   -0.0000000

LOEWDIN ATOMIC CHARGES
----------------------
   0 C :   -0.071015
   1 C :    0.004266
   2 N :   -0.118772
   3 C :    0.036851
   4 C :   -0.044936
   5 C :   -0.056886
   6 C :    0.034779
   7 H :    0.028782
   8 H :    0.024769
   9 H :    0.028341
  10 H :   -0.007107
  11 H :    0.021734
  12 H :    0.001730
  13 H :    0.008421
  14 H :    0.018806
  15 H :    0.029047
  16 H :    0.026130
  17 H :    0.025941
  18 H :    0.001166
  19 H :    0.007951

  Mayer bond orders larger than 0.1
B(  0-C ,  1-C ) :   1.1186 B(  0-C ,  7-H ) :   0.9582 B(  0-C ,  8-H ) :   0.9646
B(  0-C ,  9-H ) :   0.9613 B(  1-C ,  2-N ) :   1.0260 B(  1-C , 10-H ) :   0.9104
B(  1-C , 11-H ) :   0.9386 B(  2-N ,  3-C ) :   1.0063 B(  2-N ,  6-C ) :   1.0035
B(  3-C ,  4-C ) :   1.0482 B(  3-C , 12-H ) :   0.9055 B(  3-C , 13-H ) :   0.9370
B(  4-C ,  5-C ) :   1.0713 B(  4-C ,  6-C ) :   1.0485 B(  4-C , 14-H ) :   0.9335
B(  5-C , 15-H ) :   0.9552 B(  5-C , 16-H ) :   0.9595 B(  5-C , 17-H ) :   0.9596
B(  6-C , 18-H ) :   0.9039 B(  6-C , 19-H ) :   0.9379

FINAL SINGLE POINT ENERGY      -290.567940936537

DIPOLE MOMENT
-------------
                                X             Y             Z
Electronic contribution:     -0.36224       1.28092      -0.09923
Nuclear contribution   :      0.49110      -1.14200       0.22721
                        -----------------------------------------
Total Dipole Moment    :      0.12886       0.13891       0.12798
                        -----------------------------------------
Magnitude (a.u.)       :      0.22865
Magnitude (Debye)      :      0.58118

                             ****ORCA TERMINATED NORMALLY****
TOTAL RUN TIME: 0 days 0 hours 0 minutes 8 seconds 810 msec
