                         Program Version 3.0.3 - RELEASE   -
|  1> ! RI PBE def2-SVP def2-SVP/J NBO PAL2
|  2> % maxcore 2000
|  3> % output
|  4>     # printlevel mini
|  5>     print[ P_Basis ] 0
|  6>     print[ P_SCFInfo ] 1
|  7>     print[ P_SCFIterInfo ] 1
|  8>     print[ P_OrbEn ] 0
|  9>     print[ P_Cartesian ] 0
| 10> end
| 11> *xyz 0 1
| 12>  C        1.0868620000     0.3071410000    -0.5351660000
| 13>  C        2.5073120000    -0.0830510000    -0.1755910000
| 14>  N        2.9493690000    -1.2711540000    -0.8706550000
| 15>  C        3.8531840000    -1.3576050000    -1.8671920000
| 16>  C        3.9166850000    -2.6816860000    -2.2351730000
| 17>  C        2.9972520000    -3.3162560000    -1.3866580000
| 18>  N        2.4158820000    -2.4537670000    -0.5659720000
| 19>  H        0.7865360000     1.1925890000     0.0293080000
| 20>  H        0.4007610000    -0.5060200000    -0.2960140000
| 21>  H        0.9996580000     0.5310730000    -1.6003880000
| 22>  H        2.5917870000    -0.2743400000     0.8966760000
| 23>  H        3.2097190000     0.7139400000    -0.4272900000
| 24>  H        4.3768590000    -0.4873160000    -2.2306820000
| 25>  H        4.5395430000    -3.1201370000    -2.9972050000
| 26>  H        2.7369900000    -4.3630100000    -1.3344070000
| 27> *
| 28>
| 29>                          ****END OF INPUT****
 Total Charge           Charge          ....    0
 Multiplicity           Mult            ....    1
 Number of Electrons    NEL             ....   52
 Basis Dimension        Dim             ....  138

MULLIKEN ATOMIC CHARGES
-----------------------
   0 C :   -0.035490
   1 C :    0.097354
   2 N :   -0.144472
   3 C :    0.101516
   4 C :   -0.087532
   5 C :    0.026639
   6 N :   -0.114191
   7 H :    0.028711
   8 H :    0.051040
   9 H :    0.028935
  10 H :    0.040835
  11 H :    0.021252
  12 H :   -0.004925
  13 H :   -0.007254
  14 H :   -0.002419
Sum of atomic charges:   -0.0000000

LOEWDIN ATOMIC CHARGES
----------------------
   0 C :   -0.069787
   1 C :    0.026518
   2 N :    0.102941
   3 C :   -0.027660
   4 C :   -0.107382
   5 C :   -0.052003
   6 N :   -0.101990
   7 H :    0.032827
   8 H :    0.036049
   9 H :    0.029883
  10 H :    0.034501
  11 H :    0.029022
  12 H :    0.021439
  13 H :    0.027150
  14 H :    0.018492

  Mayer bond orders larger than 0.1
B(  0-C ,  1-C ) :   1.1262 B(  0-C ,  7-H ) :   0.9583 B(  0-C ,  8-H ) :   0.9623
B(  0-C ,  9-H ) :   0.9617 B(  1-C ,  2-N ) :   0.9679 B(  1-C , 10-H ) :   0.9360
B(  1-C , 11-H ) :   0.9385 B(  2-N ,  3-C ) :   1.2258 B(  2-N ,  6-N ) :   1.1656
B(  3-C ,  4-C ) :   1.4302 B(  3-C ,  6-N ) :   0.1203 B(  3-C , 12-H ) :   0.9777
B(  4-C ,  5-C ) :   1.3233 B(  4-C , 13-H ) :   0.9920 B(  5-C ,  6-N ) :   1.5502
B(  5-C , 14-H ) :   0.9896

FINAL SINGLE POINT ENERGY      -304.227091891726

DIPOLE MOMENT
-------------
                                X             Y             Z
Electronic contribution:      2.68920      -4.49843      -0.70641
Nuclear contribution   :     -2.45375       5.33083       0.54721
                        -----------------------------------------
Total Dipole Moment    :      0.23546       0.83240      -0.15919
                        -----------------------------------------
Magnitude (a.u.)       :      0.87959
Magnitude (Debye)      :      2.23573

                             ****ORCA TERMINATED NORMALLY****
TOTAL RUN TIME: 0 days 0 hours 0 minutes 6 seconds 869 msec
