                         Program Version 3.0.3 - RELEASE   -
|  1> ! RI PBE def2-SVP def2-SVP/J NBO PAL2
|  2> % maxcore 2000
|  3> % output
|  4>     # printlevel mini
|  5>     print[ P_Basis ] 0
|  6>     print[ P_SCFInfo ] 1
|  7>     print[ P_SCFIterInfo ] 1
|  8>     print[ P_OrbEn ] 0
|  9>     print[ P_Cartesian ] 0
| 10> end
| 11> *xyz 0 1
| 12>  C        0.9876390000    -0.1346830000    -0.0407430000
| 13>  C        2.0452550000     0.5456760000     0.3740940000
| 14>  N        2.8409970000     0.1922140000     1.4658720000
| 15>  C        3.9285510000     0.8709840000     1.9112430000
| 16>  C        4.4090160000     0.1861100000     2.9952220000
| 17>  C        3.5313140000    -0.9069430000     3.1270400000
| 18>  N        2.5898570000    -0.8961770000     2.2024020000
| 19>  H        0.4306780000     0.2161300000    -0.8980820000
| 20>  H        0.6686060000    -1.0373560000     0.4624910000
| 21>  H        2.3848400000     1.4521860000    -0.1126250000
| 22>  H        4.2635110000     1.7730470000     1.4240430000
| 23>  H        5.2639750000     0.4357260000     3.6012040000
| 24>  H        3.5492710000    -1.7005040000     3.8594590000
| 25> *
| 26>
| 27>                          ****END OF INPUT****
 Total Charge           Charge          ....    0
 Multiplicity           Mult            ....    1
 Number of Electrons    NEL             ....   50
 Basis Dimension        Dim             ....  128

MULLIKEN ATOMIC CHARGES
-----------------------
   0 C :   -0.032280
   1 C :    0.065671
   2 N :   -0.097537
   3 C :    0.110045
   4 C :   -0.082293
   5 C :    0.033345
   6 N :   -0.094393
   7 H :    0.033226
   8 H :    0.049544
   9 H :    0.007895
  10 H :    0.001669
  11 H :   -0.001424
  12 H :    0.006531
Sum of atomic charges:   -0.0000000

LOEWDIN ATOMIC CHARGES
----------------------
   0 C :   -0.066226
   1 C :    0.007154
   2 N :    0.117545
   3 C :   -0.013216
   4 C :   -0.097306
   5 C :   -0.037222
   6 N :   -0.087268
   7 H :    0.033517
   8 H :    0.035799
   9 H :    0.029848
  10 H :    0.025008
  11 H :    0.030117
  12 H :    0.022250

  Mayer bond orders larger than 0.1
B(  0-C ,  1-C ) :   1.9331 B(  0-C ,  7-H ) :   0.9404 B(  0-C ,  8-H ) :   0.9339
B(  1-C ,  2-N ) :   1.0339 B(  1-C ,  9-H ) :   0.9610 B(  2-N ,  3-C ) :   1.1779
B(  2-N ,  6-N ) :   1.1523 B(  3-C ,  4-C ) :   1.4557 B(  3-C ,  6-N ) :   0.1174
B(  3-C , 10-H ) :   0.9800 B(  4-C ,  5-C ) :   1.2901 B(  4-C , 11-H ) :   0.9918
B(  5-C ,  6-N ) :   1.5811 B(  5-C , 12-H ) :   0.9896

FINAL SINGLE POINT ENERGY      -303.006237699982

DIPOLE MOMENT
-------------
                                X             Y             Z
Electronic contribution:      1.05393      -0.54456       1.51097
Nuclear contribution   :     -0.71792       1.18311      -1.76361
                        -----------------------------------------
Total Dipole Moment    :      0.33601       0.63855      -0.25264
                        -----------------------------------------
Magnitude (a.u.)       :      0.76451
Magnitude (Debye)      :      1.94322

                             ****ORCA TERMINATED NORMALLY****
TOTAL RUN TIME: 0 days 0 hours 0 minutes 6 seconds 384 msec
