                         Program Version 3.0.3 - RELEASE   -
|  1> ! RI PBE def2-SVP def2-SVP/J NBO PAL2
|  2> % maxcore 2000
|  3> % output
|  4>     # printlevel mini
|  5>     print[ P_Basis ] 0
|  6>     print[ P_SCFInfo ] 1
|  7>     print[ P_SCFIterInfo ] 1
|  8>     print[ P_OrbEn ] 0
|  9>     print[ P_Cartesian ] 0
| 10> end
| 11> *xyz 0 1
| 12>  C        1.1706280000     0.2651810000     0.3604610000
| 13>  C        2.6056540000    -0.1464610000     0.1026060000
| 14>  N        2.8609950000    -1.5069650000     0.5184580000
| 15>  C        2.2198940000    -2.5730530000    -0.2514790000
| 16>  C        3.1213470000    -3.7678140000     0.0401680000
| 17>  C        4.3875150000    -3.0366730000     0.3802360000
| 18>  N        4.2003820000    -1.8016910000     0.6322150000
| 19>  H        1.0243300000     1.3117510000     0.0853930000
| 20>  H        0.9195580000     0.1462120000     1.4166070000
| 21>  H        0.4659160000    -0.3290240000    -0.2263480000
| 22>  H        3.2927920000     0.4856870000     0.6670840000
| 23>  H        2.8480130000    -0.0161990000    -0.9669690000
| 24>  H        2.2407400000    -2.3242530000    -1.3266060000
| 25>  H        1.1833850000    -2.7179530000     0.0518540000
| 26>  H        3.2170380000    -4.4608990000    -0.7963640000
| 27>  H        2.7703690000    -4.3394970000     0.9087330000
| 28>  H        5.3707530000    -3.4746290000     0.4950600000
| 29> *
| 30>
| 31>                          ****END OF INPUT****
 Total Charge           Charge          ....    0
 Multiplicity           Mult            ....    1
 Number of Electrons    NEL             ....   54
 Basis Dimension        Dim             ....  148

MULLIKEN ATOMIC CHARGES
-----------------------
   0 C :   -0.036932
   1 C :    0.113507
   2 N :   -0.285292
   3 C :    0.130870
   4 C :   -0.008965
   5 C :   -0.075580
   6 N :   -0.042934
   7 H :    0.025351
   8 H :    0.029196
   9 H :    0.022404
  10 H :    0.023622
  11 H :   -0.006620
  12 H :    0.005191
  13 H :    0.024658
  14 H :    0.036805
  15 H :    0.035571
  16 H :    0.009145
Sum of atomic charges:   -0.0000000

LOEWDIN ATOMIC CHARGES
----------------------
   0 C :   -0.074344
   1 C :    0.011139
   2 N :   -0.042081
   3 C :    0.018676
   4 C :   -0.064161
   5 C :   -0.058497
   6 N :   -0.032252
   7 H :    0.032596
   8 H :    0.028939
   9 H :    0.023777
  10 H :    0.029020
  11 H :    0.002931
  12 H :    0.010284
  13 H :    0.023992
  14 H :    0.035129
  15 H :    0.037194
  16 H :    0.017657

  Mayer bond orders larger than 0.1
B(  0-C ,  1-C ) :   1.1162 B(  0-C ,  7-H ) :   0.9579 B(  0-C ,  8-H ) :   0.9632
B(  0-C ,  9-H ) :   0.9613 B(  1-C ,  2-N ) :   0.9970 B(  1-C , 10-H ) :   0.9353
B(  1-C , 11-H ) :   0.9244 B(  2-N ,  3-C ) :   0.9513 B(  2-N ,  5-C ) :   0.1146
B(  2-N ,  6-N ) :   1.0616 B(  3-C ,  4-C ) :   1.1038 B(  3-C , 12-H ) :   0.9196
B(  3-C , 13-H ) :   0.9378 B(  4-C ,  5-C ) :   1.0063 B(  4-C , 14-H ) :   0.9407
B(  4-C , 15-H ) :   0.8989 B(  5-C ,  6-N ) :   1.8595 B(  5-C , 16-H ) :   0.9783

FINAL SINGLE POINT ENERGY      -305.394288300354

DIPOLE MOMENT
-------------
                                X             Y             Z
Electronic contribution:      4.77908      -2.19169       1.62759
Nuclear contribution   :     -5.31029       1.82868      -2.00291
                        -----------------------------------------
Total Dipole Moment    :     -0.53122      -0.36301      -0.37532
                        -----------------------------------------
Magnitude (a.u.)       :      0.74487
Magnitude (Debye)      :      1.89331

                             ****ORCA TERMINATED NORMALLY****
TOTAL RUN TIME: 0 days 0 hours 0 minutes 7 seconds 883 msec
