                         Program Version 3.0.3 - RELEASE   -
|  1> ! RI PBE def2-SVP def2-SVP/J NBO PAL2
|  2> % maxcore 2000
|  3> % output
|  4>     # printlevel mini
|  5>     print[ P_Basis ] 0
|  6>     print[ P_SCFInfo ] 1
|  7>     print[ P_SCFIterInfo ] 1
|  8>     print[ P_OrbEn ] 0
|  9>     print[ P_Cartesian ] 0
| 10> end
| 11> *xyz 0 1
| 12>  C        3.5436630000    -0.3418380000    -1.1476740000
| 13>  C        2.6379980000    -0.0282330000     0.0292340000
| 14>  N        3.0048260000     1.1890910000     0.7190640000
| 15>  C        2.8373490000     2.4715180000     0.2684290000
| 16>  C        3.3739280000     3.2753210000     1.2348290000
| 17>  N        3.8675120000     2.5225440000     2.2615310000
| 18>  C        3.6310130000     1.2827400000     1.9180240000
| 19>  H        3.2310350000    -1.2730610000    -1.6251610000
| 20>  H        4.5797260000    -0.4520800000    -0.8220290000
| 21>  H        3.5062970000     0.4517260000    -1.8962690000
| 22>  H        2.6735220000    -0.8356940000     0.7636220000
| 23>  H        1.5982790000     0.0578980000    -0.2983810000
| 24>  H        2.3565990000     2.6894820000    -0.6714190000
| 25>  H        3.4254030000     4.3533550000     1.2465280000
| 26>  H        3.8830610000     0.4057420000     2.4974830000
| 27> *
| 28>
| 29>                          ****END OF INPUT****
 Total Charge           Charge          ....    0
 Multiplicity           Mult            ....    1
 Number of Electrons    NEL             ....   52
 Basis Dimension        Dim             ....  138

MULLIKEN ATOMIC CHARGES
-----------------------
   0 C :   -0.030269
   1 C :    0.076631
   2 N :   -0.173682
   3 C :    0.038749
   4 C :   -0.009043
   5 N :   -0.146246
   6 C :    0.077789
   7 H :    0.030651
   8 H :    0.038073
   9 H :    0.040960
  10 H :    0.031812
  11 H :    0.031227
  12 H :   -0.006701
  13 H :   -0.003521
  14 H :    0.003571
Sum of atomic charges:    0.0000000

LOEWDIN ATOMIC CHARGES
----------------------
   0 C :   -0.069326
   1 C :    0.031283
   2 N :    0.063937
   3 C :   -0.054758
   4 C :   -0.053787
   5 N :   -0.112895
   6 C :   -0.017571
   7 H :    0.034611
   8 H :    0.033546
   9 H :    0.031731
  10 H :    0.033532
  11 H :    0.030695
  12 H :    0.018980
  13 H :    0.017190
  14 H :    0.012833

  Mayer bond orders larger than 0.1
B(  0-C ,  1-C ) :   1.1200 B(  0-C ,  7-H ) :   0.9579 B(  0-C ,  8-H ) :   0.9613
B(  0-C ,  9-H ) :   0.9658 B(  1-C ,  2-N ) :   0.9723 B(  1-C , 10-H ) :   0.9416
B(  1-C , 11-H ) :   0.9406 B(  2-N ,  3-C ) :   1.1907 B(  2-N ,  6-C ) :   1.2137
B(  3-C ,  4-C ) :   1.4888 B(  3-C , 12-H ) :   0.9788 B(  4-C ,  5-N ) :   1.4075
B(  4-C , 13-H ) :   0.9916 B(  5-N ,  6-C ) :   1.6336 B(  6-C , 14-H ) :   0.9673

FINAL SINGLE POINT ENERGY      -304.239099502202

DIPOLE MOMENT
-------------
                                X             Y             Z
Electronic contribution:      0.31604       4.60903       5.01197
Nuclear contribution   :     -0.83459      -5.66019      -6.10282
                        -----------------------------------------
Total Dipole Moment    :     -0.51856      -1.05116      -1.09085
                        -----------------------------------------
Magnitude (a.u.)       :      1.60118
Magnitude (Debye)      :      4.06987

                             ****ORCA TERMINATED NORMALLY****
TOTAL RUN TIME: 0 days 0 hours 0 minutes 7 seconds 111 msec
