                         Program Version 3.0.3 - RELEASE   -
|  1> ! RI PBE def2-SVP def2-SVP/J NBO PAL2
|  2> % maxcore 2000
|  3> % output
|  4>     # printlevel mini
|  5>     print[ P_Basis ] 0
|  6>     print[ P_SCFInfo ] 1
|  7>     print[ P_SCFIterInfo ] 1
|  8>     print[ P_OrbEn ] 0
|  9>     print[ P_Cartesian ] 0
| 10> end
| 11> *xyz 0 1
| 12>  C        2.2777240000    -1.4722730000     0.2557800000
| 13>  C        2.1350360000    -0.1551930000     0.3063450000
| 14>  N        2.9216870000     0.7351780000     1.0394170000
| 15>  C        2.7457160000     2.1012990000     1.0698760000
| 16>  C        3.7139050000     2.5823740000     1.8957510000
| 17>  N        4.4837700000     1.5558510000     2.3774390000
| 18>  C        3.9881610000     0.4721470000     1.8506410000
| 19>  H        1.6001900000    -2.0543260000    -0.3526770000
| 20>  H        3.0467930000    -2.0066470000     0.7980970000
| 21>  H        1.3512580000     0.3432450000    -0.2520610000
| 22>  H        1.9608870000     2.5806980000     0.5083980000
| 23>  H        3.9018710000     3.6081770000     2.1719110000
| 24>  H        4.3537030000    -0.5291210000     2.0155020000
| 25> *
| 26>
| 27>                          ****END OF INPUT****
 Total Charge           Charge          ....    0
 Multiplicity           Mult            ....    1
 Number of Electrons    NEL             ....   50
 Basis Dimension        Dim             ....  128

MULLIKEN ATOMIC CHARGES
-----------------------
   0 C :   -0.051464
   1 C :    0.064167
   2 N :   -0.129309
   3 C :    0.046060
   4 C :    0.003832
   5 N :   -0.145640
   6 C :    0.096376
   7 H :    0.039762
   8 H :    0.037428
   9 H :    0.019086
  10 H :    0.006594
  11 H :   -0.000352
  12 H :    0.013460
Sum of atomic charges:   -0.0000000

LOEWDIN ATOMIC CHARGES
----------------------
   0 C :   -0.078652
   1 C :    0.020659
   2 N :    0.077233
   3 C :   -0.040092
   4 C :   -0.044902
   5 N :   -0.097890
   6 C :    0.001722
   7 H :    0.037912
   8 H :    0.029470
   9 H :    0.033220
  10 H :    0.024256
  11 H :    0.020284
  12 H :    0.016780

  Mayer bond orders larger than 0.1
B(  0-C ,  1-C ) :   1.9388 B(  0-C ,  7-H ) :   0.9358 B(  0-C ,  8-H ) :   0.9499
B(  1-C ,  2-N ) :   1.0425 B(  1-C ,  9-H ) :   0.9579 B(  2-N ,  3-C ) :   1.1444
B(  2-N ,  6-C ) :   1.1723 B(  3-C ,  4-C ) :   1.5138 B(  3-C , 10-H ) :   0.9813
B(  4-C ,  5-N ) :   1.3687 B(  4-C , 11-H ) :   0.9909 B(  5-N ,  6-C ) :   1.6619
B(  6-C , 12-H ) :   0.9698

FINAL SINGLE POINT ENERGY      -303.017184258553

DIPOLE MOMENT
-------------
                                X             Y             Z
Electronic contribution:      1.75027       2.33966       1.68115
Nuclear contribution   :     -2.63869      -2.74540      -2.42890
                        -----------------------------------------
Total Dipole Moment    :     -0.88842      -0.40574      -0.74774
                        -----------------------------------------
Magnitude (a.u.)       :      1.23005
Magnitude (Debye)      :      3.12655

                             ****ORCA TERMINATED NORMALLY****
TOTAL RUN TIME: 0 days 0 hours 0 minutes 6 seconds 391 msec
