                         Program Version 3.0.3 - RELEASE   -
|  1> ! RI PBE def2-SVP def2-SVP/J NBO PAL2
|  2> % maxcore 2000
|  3> % output
|  4>     # printlevel mini
|  5>     print[ P_Basis ] 0
|  6>     print[ P_SCFInfo ] 1
|  7>     print[ P_SCFIterInfo ] 1
|  8>     print[ P_OrbEn ] 0
|  9>     print[ P_Cartesian ] 0
| 10> end
| 11> *xyz 0 1
| 12>  C        1.7293200000     0.4936800000    -0.8627990000
| 13>  C        2.3948030000     0.0248490000     0.1944320000
| 14>  N        2.8555160000     0.7250350000     1.2856590000
| 15>  C        3.5769710000     0.1214720000     2.3984730000
| 16>  C        3.8341310000     1.3492700000     3.3016280000
| 17>  N        3.2448150000     2.5033210000     2.6226990000
| 18>  C        2.7387080000     2.0703280000     1.5417580000
| 19>  H        1.4348620000    -0.1921120000    -1.6438580000
| 20>  H        1.4622190000     1.5349820000    -0.9879270000
| 21>  H        2.6279010000    -1.0338610000     0.2511410000
| 22>  H        4.5013450000    -0.3497880000     2.0515710000
| 23>  H        2.9664110000    -0.6433020000     2.8875560000
| 24>  H        4.9007240000     1.5268090000     3.4608730000
| 25>  H        3.3785810000     1.2366500000     4.2887010000
| 26>  H        2.2284820000     2.7052570000     0.8267920000
| 27> *
| 28>
| 29>                          ****END OF INPUT****
 Total Charge           Charge          ....    0
 Multiplicity           Mult            ....    1
 Number of Electrons    NEL             ....   52
 Basis Dimension        Dim             ....  138

MULLIKEN ATOMIC CHARGES
-----------------------
   0 C :   -0.088443
   1 C :    0.058193
   2 N :   -0.251215
   3 C :    0.109988
   4 C :    0.073663
   5 N :   -0.217228
   6 C :    0.120382
   7 H :    0.024915
   8 H :    0.017552
   9 H :    0.007267
  10 H :    0.028103
  11 H :    0.031286
  12 H :    0.031038
  13 H :    0.028801
  14 H :    0.025698
Sum of atomic charges:   -0.0000000

LOEWDIN ATOMIC CHARGES
----------------------
   0 C :   -0.131734
   1 C :    0.000864
   2 N :   -0.009594
   3 C :    0.026824
   4 C :    0.007302
   5 N :   -0.133969
   6 C :    0.035159
   7 H :    0.030181
   8 H :    0.019801
   9 H :    0.028447
  10 H :    0.023177
  11 H :    0.023450
  12 H :    0.028730
  13 H :    0.028716
  14 H :    0.022645

  Mayer bond orders larger than 0.1
B(  0-C ,  1-C ) :   1.8895 B(  0-C ,  7-H ) :   0.9369 B(  0-C ,  8-H ) :   0.9527
B(  1-C ,  2-N ) :   1.1065 B(  1-C ,  9-H ) :   0.9519 B(  2-N ,  3-C ) :   0.9824
B(  2-N ,  6-C ) :   1.1034 B(  3-C ,  4-C ) :   1.0774 B(  3-C , 10-H ) :   0.9384
B(  3-C , 11-H ) :   0.9397 B(  4-C ,  5-N ) :   1.0833 B(  4-C , 12-H ) :   0.9354
B(  4-C , 13-H ) :   0.9340 B(  5-N ,  6-C ) :   1.8615 B(  6-C , 14-H ) :   0.9610

FINAL SINGLE POINT ENERGY      -304.201604938260

DIPOLE MOMENT
-------------
                                X             Y             Z
Electronic contribution:      0.01882       2.34274       0.85065
Nuclear contribution   :      0.14330      -3.21853      -0.86319
                        -----------------------------------------
Total Dipole Moment    :      0.16212      -0.87578      -0.01254
                        -----------------------------------------
Magnitude (a.u.)       :      0.89075
Magnitude (Debye)      :      2.26410

                             ****ORCA TERMINATED NORMALLY****
TOTAL RUN TIME: 0 days 0 hours 0 minutes 7 seconds 90 msec
