                         Program Version 3.0.3 - RELEASE   -
|  1> ! RI PBE def2-SVP def2-SVP/J NBO PAL2
|  2> % maxcore 2000
|  3> % output
|  4>     # printlevel mini
|  5>     print[ P_Basis ] 0
|  6>     print[ P_SCFInfo ] 1
|  7>     print[ P_SCFIterInfo ] 1
|  8>     print[ P_OrbEn ] 0
|  9>     print[ P_Cartesian ] 0
| 10> end
| 11> *xyz 0 1
| 12>  C        2.5345670000    -1.0154830000     0.9208580000
| 13>  C        2.3690740000     0.0947770000    -0.0964470000
| 14>  N        3.0495650000     1.2969030000     0.3055220000
| 15>  C        2.9461160000     2.4774810000    -0.5565770000
| 16>  C        2.9302430000     3.3617850000     0.6996010000
| 17>  N        4.2237990000     3.9320390000     0.9925650000
| 18>  C        2.5247070000     2.0636040000     1.4398210000
| 19>  H        2.0220770000    -1.9220060000     0.5916990000
| 20>  H        2.1131420000    -0.7293050000     1.8882020000
| 21>  H        3.5914860000    -1.2471870000     1.0683870000
| 22>  H        1.2908570000     0.2885940000    -0.2642500000
| 23>  H        2.7844710000    -0.2195710000    -1.0600630000
| 24>  H        1.9924760000     2.5241580000    -1.1057180000
| 25>  H        3.7744110000     2.6256070000    -1.2554900000
| 26>  H        2.1844090000     4.1571330000     0.7095040000
| 27>  H        4.9258550000     3.2004030000     1.0066400000
| 28>  H        4.2249590000     4.3658530000     1.9079600000
| 29>  H        1.4303050000     1.9740740000     1.5460120000
| 30>  H        2.9977820000     1.8652510000     2.4067730000
| 31> *
| 32>
| 33>                          ****END OF INPUT****
 Total Charge           Charge          ....    0
 Multiplicity           Mult            ....    1
 Number of Electrons    NEL             ....   56
 Basis Dimension        Dim             ....  158

MULLIKEN ATOMIC CHARGES
-----------------------
   0 C :   -0.016325
   1 C :    0.081511
   2 N :   -0.367926
   3 C :    0.200755
   4 C :   -0.187289
   5 N :   -0.134340
   6 C :    0.212336
   7 H :    0.018498
   8 H :    0.021996
   9 H :    0.024282
  10 H :   -0.017516
  11 H :    0.004716
  12 H :   -0.011578
  13 H :    0.009247
  14 H :    0.014745
  15 H :    0.086477
  16 H :    0.089040
  17 H :   -0.018160
  18 H :   -0.010469
Sum of atomic charges:   -0.0000000

LOEWDIN ATOMIC CHARGES
----------------------
   0 C :   -0.070712
   1 C :    0.004916
   2 N :   -0.122270
   3 C :    0.031524
   4 C :   -0.002833
   5 N :   -0.089144
   6 C :    0.011250
   7 H :    0.029155
   8 H :    0.024703
   9 H :    0.027537
  10 H :   -0.005452
  11 H :    0.020820
  12 H :    0.004187
  13 H :    0.011345
  14 H :    0.015982
  15 H :    0.053123
  16 H :    0.052117
  17 H :    0.000699
  18 H :    0.003055

  Mayer bond orders larger than 0.1
B(  0-C ,  1-C ) :   1.1213 B(  0-C ,  7-H ) :   0.9580 B(  0-C ,  8-H ) :   0.9626
B(  0-C ,  9-H ) :   0.9612 B(  1-C ,  2-N ) :   1.0281 B(  1-C , 10-H ) :   0.9131
B(  1-C , 11-H ) :   0.9361 B(  2-N ,  3-C ) :   1.0057 B(  2-N ,  6-C ) :   0.9981
B(  3-C ,  4-C ) :   1.0419 B(  3-C , 12-H ) :   0.9115 B(  3-C , 13-H ) :   0.9273
B(  4-C ,  5-N ) :   1.1267 B(  4-C ,  6-C ) :   1.0089 B(  4-C , 14-H ) :   0.9312
B(  5-N , 15-H ) :   0.9613 B(  5-N , 16-H ) :   0.9670 B(  6-C , 17-H ) :   0.9018
B(  6-C , 18-H ) :   0.9248

FINAL SINGLE POINT ENERGY      -306.583444379321

DIPOLE MOMENT
-------------
                                X             Y             Z
Electronic contribution:      1.69683       3.55409      -0.50102
Nuclear contribution   :     -1.90908      -3.72175       0.84461
                        -----------------------------------------
Total Dipole Moment    :     -0.21225      -0.16766       0.34359
                        -----------------------------------------
Magnitude (a.u.)       :      0.43728
Magnitude (Debye)      :      1.11147

                             ****ORCA TERMINATED NORMALLY****
TOTAL RUN TIME: 0 days 0 hours 0 minutes 7 seconds 798 msec
