                         Program Version 3.0.3 - RELEASE   -
|  1> ! RI PBE def2-SVP def2-SVP/J NBO PAL2
|  2> % maxcore 2000
|  3> % output
|  4>     # printlevel mini
|  5>     print[ P_Basis ] 0
|  6>     print[ P_SCFInfo ] 1
|  7>     print[ P_SCFIterInfo ] 1
|  8>     print[ P_OrbEn ] 0
|  9>     print[ P_Cartesian ] 0
| 10> end
| 11> *xyz 0 1
| 12>  C        2.9333950000     0.0227440000     1.3351350000
| 13>  C        2.9562060000    -0.0480940000    -0.1796530000
| 14>  N        3.4454880000    -1.3130670000    -0.6709820000
| 15>  C        2.6208630000    -2.5089950000    -0.5504230000
| 16>  C        3.2745920000    -3.4298110000    -1.5940090000
| 17>  N        4.0244310000    -2.5453870000    -2.4880660000
| 18>  C        4.0659760000    -1.4216470000    -1.8949470000
| 19>  H        2.5857920000     1.0042950000     1.6648370000
| 20>  H        3.9311590000    -0.1483280000     1.7442720000
| 21>  H        2.2596620000    -0.7255760000     1.7584400000
| 22>  H        3.6097540000     0.7341390000    -0.5757980000
| 23>  H        1.9454720000     0.1499130000    -0.5737420000
| 24>  H        1.5768180000    -2.2706460000    -0.8089900000
| 25>  H        2.6371640000    -2.9202640000     0.4601130000
| 26>  H        2.5498430000    -4.0257810000    -2.1513400000
| 27>  H        3.9758400000    -4.1272660000    -1.1211320000
| 28>  H        4.5935660000    -0.5576500000    -2.2912330000
| 29> *
| 30>
| 31>                          ****END OF INPUT****
 Total Charge           Charge          ....    0
 Multiplicity           Mult            ....    1
 Number of Electrons    NEL             ....   54
 Basis Dimension        Dim             ....  148

MULLIKEN ATOMIC CHARGES
-----------------------
   0 C :   -0.024526
   1 C :    0.088080
   2 N :   -0.305941
   3 C :    0.096345
   4 C :    0.090345
   5 N :   -0.228121
   6 C :    0.106049
   7 H :    0.022052
   8 H :    0.028401
   9 H :    0.029803
  10 H :    0.018493
  11 H :    0.003202
  12 H :    0.002756
  13 H :    0.024939
  14 H :    0.021129
  15 H :    0.021689
  16 H :    0.005305
Sum of atomic charges:   -0.0000000

LOEWDIN ATOMIC CHARGES
----------------------
   0 C :   -0.072053
   1 C :    0.022262
   2 N :   -0.058667
   3 C :    0.017849
   4 C :    0.006441
   5 N :   -0.153018
   6 C :    0.018734
   7 H :    0.031283
   8 H :    0.028869
   9 H :    0.026611
  10 H :    0.027061
  11 H :    0.009747
  12 H :    0.010099
  13 H :    0.020971
  14 H :    0.024425
  15 H :    0.024840
  16 H :    0.014546

  Mayer bond orders larger than 0.1
B(  0-C ,  1-C ) :   1.1166 B(  0-C ,  7-H ) :   0.9563 B(  0-C ,  8-H ) :   0.9639
B(  0-C ,  9-H ) :   0.9663 B(  1-C ,  2-N ) :   1.0074 B(  1-C , 10-H ) :   0.9373
B(  1-C , 11-H ) :   0.9257 B(  2-N ,  3-C ) :   1.0000 B(  2-N ,  5-N ) :   0.1200
B(  2-N ,  6-C ) :   1.1296 B(  3-C ,  4-C ) :   1.0785 B(  3-C , 12-H ) :   0.9187
B(  3-C , 13-H ) :   0.9415 B(  4-C ,  5-N ) :   1.0717 B(  4-C , 14-H ) :   0.9425
B(  4-C , 15-H ) :   0.9253 B(  5-N ,  6-C ) :   1.8677 B(  6-C , 16-H ) :   0.9576

FINAL SINGLE POINT ENERGY      -305.416969521704

DIPOLE MOMENT
-------------
                                X             Y             Z
Electronic contribution:      2.69280      -2.27647      -5.06756
Nuclear contribution   :     -3.22240       2.79313       5.93737
                        -----------------------------------------
Total Dipole Moment    :     -0.52960       0.51666       0.86981
                        -----------------------------------------
Magnitude (a.u.)       :      1.14192
Magnitude (Debye)      :      2.90252

                             ****ORCA TERMINATED NORMALLY****
TOTAL RUN TIME: 0 days 0 hours 0 minutes 8 seconds 128 msec
