                         Program Version 3.0.3 - RELEASE   -
|  1> ! RI PBE def2-SVP def2-SVP/J NBO PAL2
|  2> % maxcore 2000
|  3> % output
|  4>     # printlevel mini
|  5>     print[ P_Basis ] 0
|  6>     print[ P_SCFInfo ] 1
|  7>     print[ P_SCFIterInfo ] 1
|  8>     print[ P_OrbEn ] 0
|  9>     print[ P_Cartesian ] 0
| 10> end
| 11> *xyz 0 1
| 12>  C        1.8746880000     2.4967330000     0.3335910000
| 13>  C        3.1756090000     2.2896680000    -0.4129960000
| 14>  N        3.8045450000     1.0405900000    -0.0272170000
| 15>  C        5.0234570000     0.7671430000    -0.7175800000
| 16>  C        6.2926600000     1.3073700000    -0.1269080000
| 17>  C        6.0061230000    -0.1646810000    -0.0842130000
| 18>  C        6.8037640000    -1.1235080000    -0.9204390000
| 19>  H        1.4160930000     3.4497530000     0.0616110000
| 20>  H        2.0441250000     2.4870810000     1.4123040000
| 21>  H        1.1554820000     1.7059100000     0.0989280000
| 22>  H        3.8745480000     3.0987290000    -0.1769020000
| 23>  H        2.9924310000     2.3477180000    -1.5005530000
| 24>  H        3.1527500000     0.2743650000    -0.1529540000
| 25>  H        4.9847600000     0.7459060000    -1.8110710000
| 26>  H        6.1982050000     1.8667290000     0.7955230000
| 27>  H        7.0641290000     1.6566150000    -0.8034140000
| 28>  H        5.6945750000    -0.5366630000     0.8866480000
| 29>  H        7.0606990000    -0.6816860000    -1.8868900000
| 30>  H        6.2470760000    -2.0449680000    -1.1141150000
| 31>  H        7.7398810000    -1.3965040000    -0.4254510000
| 32> *
| 33>
| 34>                          ****END OF INPUT****
 Total Charge           Charge          ....    0
 Multiplicity           Mult            ....    1
 Number of Electrons    NEL             ....   56
 Basis Dimension        Dim             ....  163

MULLIKEN ATOMIC CHARGES
-----------------------
   0 C :   -0.036772
   1 C :    0.078222
   2 N :   -0.206842
   3 C :   -0.053638
   4 C :    0.021772
   5 C :   -0.147434
   6 C :    0.080063
   7 H :    0.019432
   8 H :    0.032891
   9 H :    0.018437
  10 H :    0.007931
  11 H :   -0.012480
  12 H :    0.097596
  13 H :   -0.002470
  14 H :    0.023451
  15 H :    0.021845
  16 H :    0.014945
  17 H :    0.003374
  18 H :    0.018286
  19 H :    0.021391
Sum of atomic charges:    0.0000000

LOEWDIN ATOMIC CHARGES
----------------------
   0 C :   -0.075390
   1 C :    0.010328
   2 N :   -0.088037
   3 C :   -0.007814
   4 C :   -0.049811
   5 C :   -0.047286
   6 C :   -0.056548
   7 H :    0.029472
   8 H :    0.028742
   9 H :    0.022765
  10 H :    0.020180
  11 H :   -0.001621
  12 H :    0.054680
  13 H :    0.001129
  14 H :    0.028094
  15 H :    0.023083
  16 H :    0.026229
  17 H :    0.025534
  18 H :    0.027268
  19 H :    0.029004

  Mayer bond orders larger than 0.1
B(  0-C ,  1-C ) :   1.1132 B(  0-C ,  7-H ) :   0.9573 B(  0-C ,  8-H ) :   0.9621
B(  0-C ,  9-H ) :   0.9664 B(  1-C ,  2-N ) :   1.0249 B(  1-C , 10-H ) :   0.9377
B(  1-C , 11-H ) :   0.9228 B(  2-N ,  3-C ) :   1.1054 B(  2-N , 12-H ) :   0.9414
B(  3-C ,  4-C ) :   0.9992 B(  3-C ,  5-C ) :   0.9392 B(  3-C , 13-H ) :   0.9220
B(  4-C ,  5-C ) :   1.0184 B(  4-C , 14-H ) :   0.9259 B(  4-C , 15-H ) :   0.9411
B(  5-C ,  6-C ) :   1.1019 B(  5-C , 16-H ) :   0.9377 B(  6-C , 17-H ) :   0.9463
B(  6-C , 18-H ) :   0.9597 B(  6-C , 19-H ) :   0.9564

FINAL SINGLE POINT ENERGY      -290.569836838461

DIPOLE MOMENT
-------------
                                X             Y             Z
Electronic contribution:      0.94171      -0.65404       0.61402
Nuclear contribution   :     -1.10559       0.53967      -0.86184
                        -----------------------------------------
Total Dipole Moment    :     -0.16388      -0.11437      -0.24782
                        -----------------------------------------
Magnitude (a.u.)       :      0.31836
Magnitude (Debye)      :      0.80921

                             ****ORCA TERMINATED NORMALLY****
TOTAL RUN TIME: 0 days 0 hours 0 minutes 7 seconds 646 msec
