                         Program Version 3.0.3 - RELEASE   -
|  1> ! RI PBE def2-SVP def2-SVP/J NBO PAL2
|  2> % maxcore 2000
|  3> % output
|  4>     # printlevel mini
|  5>     print[ P_Basis ] 0
|  6>     print[ P_SCFInfo ] 1
|  7>     print[ P_SCFIterInfo ] 1
|  8>     print[ P_OrbEn ] 0
|  9>     print[ P_Cartesian ] 0
| 10> end
| 11> *xyz 0 1
| 12>  C        2.6966380000     1.3619170000     0.3243810000
| 13>  C        2.4523710000    -0.0863040000    -0.0888240000
| 14>  N        3.0101200000    -0.4218860000    -1.3936930000
| 15>  C        2.9546770000    -1.0368760000     0.9782170000
| 16>  C        3.1001760000    -2.5029680000     0.7140300000
| 17>  C        4.3188630000    -1.6574020000     0.9361390000
| 18>  C        5.1300520000    -1.7993010000     2.1925990000
| 19>  H        2.2961030000     2.0540270000    -0.4212610000
| 20>  H        3.7699940000     1.5526960000     0.4238070000
| 21>  H        2.2270230000     1.5911790000     1.2852390000
| 22>  H        1.3691320000    -0.2412440000    -0.1723060000
| 23>  H        3.9606670000    -0.0766070000    -1.4663050000
| 24>  H        2.4815800000     0.0352160000    -2.1255830000
| 25>  H        2.6078280000    -0.7740420000     1.9744180000
| 26>  H        2.9076530000    -2.8351550000    -0.2986330000
| 27>  H        2.8122220000    -3.1943290000     1.4979220000
| 28>  H        4.8989120000    -1.4667330000     0.0382520000
| 29>  H        4.4848350000    -2.0110090000     3.0497250000
| 30>  H        5.6891710000    -0.8861600000     2.4168980000
| 31>  H        5.8490940000    -2.6196310000     2.1112880000
| 32> *
| 33>
| 34>                          ****END OF INPUT****
 Total Charge           Charge          ....    0
 Multiplicity           Mult            ....    1
 Number of Electrons    NEL             ....   56
 Basis Dimension        Dim             ....  163

MULLIKEN ATOMIC CHARGES
-----------------------
   0 C :    0.034923
   1 C :    0.017601
   2 N :   -0.177949
   3 C :   -0.108032
   4 C :    0.061621
   5 C :   -0.193326
   6 C :    0.081161
   7 H :    0.004017
   8 H :    0.008959
   9 H :    0.007329
  10 H :    0.008023
  11 H :    0.084496
  12 H :    0.087415
  13 H :    0.000092
  14 H :    0.018147
  15 H :    0.012955
  16 H :    0.011592
  17 H :    0.001540
  18 H :    0.016889
  19 H :    0.022548
Sum of atomic charges:    0.0000000

LOEWDIN ATOMIC CHARGES
----------------------
   0 C :   -0.076070
   1 C :    0.001061
   2 N :   -0.088035
   3 C :   -0.048067
   4 C :   -0.040947
   5 C :   -0.048684
   6 C :   -0.056651
   7 H :    0.018721
   8 H :    0.021946
   9 H :    0.024769
  10 H :    0.024905
  11 H :    0.046677
  12 H :    0.053052
  13 H :    0.022157
  14 H :    0.024973
  15 H :    0.020460
  16 H :    0.021006
  17 H :    0.024931
  18 H :    0.025849
  19 H :    0.027947

  Mayer bond orders larger than 0.1
B(  0-C ,  1-C ) :   1.0821 B(  0-C ,  7-H ) :   0.9548 B(  0-C ,  8-H ) :   0.9554
B(  0-C ,  9-H ) :   0.9454 B(  1-C ,  2-N ) :   1.1056 B(  1-C ,  3-C ) :   1.0172
B(  1-C , 10-H ) :   0.9050 B(  2-N , 11-H ) :   0.9641 B(  2-N , 12-H ) :   0.9656
B(  3-C ,  4-C ) :   0.9941 B(  3-C ,  5-C ) :   0.9563 B(  3-C , 13-H ) :   0.9402
B(  4-C ,  5-C ) :   1.0123 B(  4-C , 14-H ) :   0.9201 B(  4-C , 15-H ) :   0.9378
B(  5-C ,  6-C ) :   1.0945 B(  5-C , 16-H ) :   0.9349 B(  6-C , 17-H ) :   0.9470
B(  6-C , 18-H ) :   0.9608 B(  6-C , 19-H ) :   0.9585

FINAL SINGLE POINT ENERGY      -290.574977803451

DIPOLE MOMENT
-------------
                                X             Y             Z
Electronic contribution:     -1.22948      -1.43869      -1.79358
Nuclear contribution   :      1.23591       1.95557       1.69041
                        -----------------------------------------
Total Dipole Moment    :      0.00643       0.51688      -0.10317
                        -----------------------------------------
Magnitude (a.u.)       :      0.52711
Magnitude (Debye)      :      1.33982

                             ****ORCA TERMINATED NORMALLY****
TOTAL RUN TIME: 0 days 0 hours 0 minutes 8 seconds 779 msec
