                         Program Version 3.0.3 - RELEASE   -
|  1> ! RI PBE def2-SVP def2-SVP/J NBO PAL2
|  2> % maxcore 2000
|  3> % output
|  4>     # printlevel mini
|  5>     print[ P_Basis ] 0
|  6>     print[ P_SCFInfo ] 1
|  7>     print[ P_SCFIterInfo ] 1
|  8>     print[ P_OrbEn ] 0
|  9>     print[ P_Cartesian ] 0
| 10> end
| 11> *xyz 0 1
| 12>  C        1.2428910000     0.2129160000     0.7477420000
| 13>  C        2.7291950000     0.4987900000     0.7925020000
| 14>  N        3.2769200000     0.6218400000    -0.5454090000
| 15>  C        4.6723210000     0.9087740000    -0.5852140000
| 16>  C        5.6213870000    -0.2575950000    -0.5143120000
| 17>  C        5.4604660000     0.4878480000    -1.7950000000
| 18>  N        6.5632060000     1.2346150000    -2.3228650000
| 19>  H        0.8380180000     0.0934300000     1.7548690000
| 20>  H        1.0433000000    -0.6992610000     0.1816170000
| 21>  H        0.6981430000     1.0322710000     0.2686250000
| 22>  H        3.2527950000    -0.3243660000     1.2895250000
| 23>  H        2.9157080000     1.3981020000     1.4055280000
| 24>  H        2.7576750000     1.3169510000    -1.0693810000
| 25>  H        5.0223290000     1.8227710000    -0.0944740000
| 26>  H        5.1856470000    -1.2461990000    -0.4448830000
| 27>  H        6.5471930000    -0.1259190000     0.0348030000
| 28>  H        4.8759870000    -0.0202940000    -2.5555980000
| 29>  H        7.2262710000     1.4723280000    -1.5972490000
| 30>  H        6.2518590000     2.0991790000    -2.7488350000
| 31> *
| 32>
| 33>                          ****END OF INPUT****
 Total Charge           Charge          ....    0
 Multiplicity           Mult            ....    1
 Number of Electrons    NEL             ....   56
 Basis Dimension        Dim             ....  158

MULLIKEN ATOMIC CHARGES
-----------------------
   0 C :   -0.024444
   1 C :    0.069938
   2 N :   -0.202191
   3 C :   -0.033923
   4 C :    0.008420
   5 C :   -0.076752
   6 N :   -0.117274
   7 H :    0.019719
   8 H :    0.026855
   9 H :    0.016428
  10 H :    0.009467
  11 H :   -0.012868
  12 H :    0.095899
  13 H :   -0.021329
  14 H :    0.029900
  15 H :    0.025857
  16 H :    0.018610
  17 H :    0.077083
  18 H :    0.090604
Sum of atomic charges:    0.0000000

LOEWDIN ATOMIC CHARGES
----------------------
   0 C :   -0.072741
   1 C :    0.009402
   2 N :   -0.088147
   3 C :   -0.028881
   4 C :   -0.051239
   5 C :   -0.011073
   6 N :   -0.083907
   7 H :    0.029235
   8 H :    0.027663
   9 H :    0.022457
  10 H :    0.020253
  11 H :   -0.002172
  12 H :    0.054309
  13 H :   -0.005922
  14 H :    0.030554
  15 H :    0.024306
  16 H :    0.021530
  17 H :    0.050204
  18 H :    0.054170

  Mayer bond orders larger than 0.1
B(  0-C ,  1-C ) :   1.1134 B(  0-C ,  7-H ) :   0.9576 B(  0-C ,  8-H ) :   0.9626
B(  0-C ,  9-H ) :   0.9654 B(  1-C ,  2-N ) :   1.0227 B(  1-C , 10-H ) :   0.9370
B(  1-C , 11-H ) :   0.9250 B(  2-N ,  3-C ) :   1.0977 B(  2-N , 12-H ) :   0.9407
B(  3-C ,  4-C ) :   0.9839 B(  3-C ,  5-C ) :   0.8922 B(  3-C , 13-H ) :   0.9134
B(  4-C ,  5-C ) :   1.0266 B(  4-C , 14-H ) :   0.9267 B(  4-C , 15-H ) :   0.9386
B(  5-C ,  6-N ) :   1.1625 B(  5-C , 16-H ) :   0.9349 B(  6-N , 17-H ) :   0.9610
B(  6-N , 18-H ) :   0.9695

FINAL SINGLE POINT ENERGY      -306.582426546997

DIPOLE MOMENT
-------------
                                X             Y             Z
Electronic contribution:      3.47714       0.41594      -3.04242
Nuclear contribution   :     -3.66212       0.20790       3.38534
                        -----------------------------------------
Total Dipole Moment    :     -0.18498       0.62384       0.34292
                        -----------------------------------------
Magnitude (a.u.)       :      0.73552
Magnitude (Debye)      :      1.86954

                             ****ORCA TERMINATED NORMALLY****
TOTAL RUN TIME: 0 days 0 hours 0 minutes 7 seconds 610 msec
