                         Program Version 3.0.3 - RELEASE   -
|  1> ! RI PBE def2-SVP def2-SVP/J NBO PAL2
|  2> % maxcore 2000
|  3> % output
|  4>     # printlevel mini
|  5>     print[ P_Basis ] 0
|  6>     print[ P_SCFInfo ] 1
|  7>     print[ P_SCFIterInfo ] 1
|  8>     print[ P_OrbEn ] 0
|  9>     print[ P_Cartesian ] 0
| 10> end
| 11> *xyz 0 1
| 12>  C        2.5450330000     1.5419920000     0.2500880000
| 13>  C        2.4990700000     0.0317600000     0.0375870000
| 14>  N        3.2247270000    -0.4134830000    -1.1465850000
| 15>  C        2.9862100000    -0.6951830000     1.2735080000
| 16>  C        3.2885910000    -2.1658060000     1.2509990000
| 17>  C        4.4001490000    -1.1908170000     1.4366640000
| 18>  N        5.1089290000    -1.1493810000     2.6847750000
| 19>  H        2.1556550000     2.0720050000    -0.6233140000
| 20>  H        3.5759440000     1.8713710000     0.4152360000
| 21>  H        1.9543760000     1.8444830000     1.1196460000
| 22>  H        1.4527810000    -0.2602340000    -0.1203800000
| 23>  H        4.1382020000     0.0247900000    -1.1832910000
| 24>  H        2.7341600000    -0.1274670000    -1.9840730000
| 25>  H        2.5360160000    -0.3310890000     2.1934880000
| 26>  H        3.2242660000    -2.6679820000     0.2938450000
| 27>  H        2.9901250000    -2.7589310000     2.1087690000
| 28>  H        5.0550960000    -1.0786150000     0.5786280000
| 29>  H        4.5475780000    -1.5422430000     3.4294270000
| 30>  H        5.3319930000    -0.1964720000     2.9461850000
| 31> *
| 32>
| 33>                          ****END OF INPUT****
 Total Charge           Charge          ....    0
 Multiplicity           Mult            ....    1
 Number of Electrons    NEL             ....   56
 Basis Dimension        Dim             ....  158

MULLIKEN ATOMIC CHARGES
-----------------------
   0 C :    0.036765
   1 C :    0.031972
   2 N :   -0.180457
   3 C :   -0.106996
   4 C :    0.041832
   5 C :   -0.105275
   6 N :   -0.120139
   7 H :    0.005139
   8 H :    0.003752
   9 H :    0.007855
  10 H :    0.000260
  11 H :    0.086417
  12 H :    0.086750
  13 H :   -0.009002
  14 H :    0.028361
  15 H :    0.016599
  16 H :    0.012547
  17 H :    0.074926
  18 H :    0.088694
Sum of atomic charges:   -0.0000000

LOEWDIN ATOMIC CHARGES
----------------------
   0 C :   -0.075516
   1 C :    0.001519
   2 N :   -0.088529
   3 C :   -0.070376
   4 C :   -0.045174
   5 C :   -0.008495
   6 N :   -0.087299
   7 H :    0.019083
   8 H :    0.020165
   9 H :    0.024501
  10 H :    0.022870
  11 H :    0.047456
  12 H :    0.052811
  13 H :    0.018068
  14 H :    0.028448
  15 H :    0.021539
  16 H :    0.016754
  17 H :    0.049640
  18 H :    0.052536

  Mayer bond orders larger than 0.1
B(  0-C ,  1-C ) :   1.0809 B(  0-C ,  7-H ) :   0.9569 B(  0-C ,  8-H ) :   0.9544
B(  0-C ,  9-H ) :   0.9472 B(  1-C ,  2-N ) :   1.1069 B(  1-C ,  3-C ) :   1.0056
B(  1-C , 10-H ) :   0.8996 B(  2-N , 11-H ) :   0.9633 B(  2-N , 12-H ) :   0.9664
B(  3-C ,  4-C ) :   0.9802 B(  3-C ,  5-C ) :   0.9100 B(  3-C , 13-H ) :   0.9365
B(  4-C ,  5-C ) :   1.0176 B(  4-C , 14-H ) :   0.9212 B(  4-C , 15-H ) :   0.9359
B(  5-C ,  6-N ) :   1.1513 B(  5-C , 16-H ) :   0.9331 B(  6-N , 17-H ) :   0.9604
B(  6-N , 18-H ) :   0.9713

FINAL SINGLE POINT ENERGY      -306.587164760802

DIPOLE MOMENT
-------------
                                X             Y             Z
Electronic contribution:      1.20113      -2.45948       0.56455
Nuclear contribution   :     -1.58783       3.20452      -0.59042
                        -----------------------------------------
Total Dipole Moment    :     -0.38670       0.74504      -0.02587
                        -----------------------------------------
Magnitude (a.u.)       :      0.83982
Magnitude (Debye)      :      2.13465

                             ****ORCA TERMINATED NORMALLY****
TOTAL RUN TIME: 0 days 0 hours 0 minutes 8 seconds 77 msec
