                         Program Version 3.0.3 - RELEASE   -
|  1> ! RI PBE def2-SVP def2-SVP/J NBO PAL2
|  2> % maxcore 2000
|  3> % output
|  4>     # printlevel mini
|  5>     print[ P_Basis ] 0
|  6>     print[ P_SCFInfo ] 1
|  7>     print[ P_SCFIterInfo ] 1
|  8>     print[ P_OrbEn ] 0
|  9>     print[ P_Cartesian ] 0
| 10> end
| 11> *xyz 0 1
| 12>  C        2.4588680000     2.4899140000     4.0920110000
| 13>  C        3.6204620000     2.5213690000     3.1212080000
| 14>  N        4.1547630000     1.1923900000     2.8982290000
| 15>  C        5.2395410000     1.1580850000     1.9523630000
| 16>  C        6.6215540000     1.6436610000     2.4318600000
| 17>  C        7.2485730000     0.4792100000     1.6413750000
| 18>  C        5.8712430000    -0.2112120000     1.6595090000
| 19>  H        2.0787030000     3.4964430000     4.2792790000
| 20>  H        2.7650550000     2.0505800000     5.0435670000
| 21>  H        1.6316830000     1.8925530000     3.6962900000
| 22>  H        4.4262250000     3.1399710000     3.5312930000
| 23>  H        3.3069790000     3.0089300000     2.1800430000
| 24>  H        3.4122170000     0.5768580000     2.5830680000
| 25>  H        4.9890180000     1.6640530000     1.0023900000
| 26>  H        6.7112760000     1.4871980000     3.5095380000
| 27>  H        6.9295050000     2.6611460000     2.1858940000
| 28>  H        8.0869830000    -0.0495580000     2.0956350000
| 29>  H        7.5350760000     0.7823600000     0.6322080000
| 30>  H        5.7657210000    -0.8597730000     2.5325820000
| 31>  H        5.5461450000    -0.7497770000     0.7674470000
| 32> *
| 33>
| 34>                          ****END OF INPUT****
 Total Charge           Charge          ....    0
 Multiplicity           Mult            ....    1
 Number of Electrons    NEL             ....   56
 Basis Dimension        Dim             ....  163

MULLIKEN ATOMIC CHARGES
-----------------------
   0 C :   -0.014445
   1 C :    0.056557
   2 N :   -0.200314
   3 C :   -0.127336
   4 C :    0.057047
   5 C :   -0.020237
   6 C :    0.059708
   7 H :    0.018172
   8 H :    0.025279
   9 H :    0.015145
  10 H :    0.013675
  11 H :   -0.015745
  12 H :    0.096873
  13 H :   -0.019876
  14 H :    0.006477
  15 H :    0.009536
  16 H :    0.009451
  17 H :    0.013266
  18 H :    0.007325
  19 H :    0.009441
Sum of atomic charges:   -0.0000000

LOEWDIN ATOMIC CHARGES
----------------------
   0 C :   -0.070959
   1 C :    0.007595
   2 N :   -0.097685
   3 C :    0.004773
   4 C :   -0.040589
   5 C :   -0.030400
   6 C :   -0.037669
   7 H :    0.028969
   8 H :    0.027621
   9 H :    0.022402
  10 H :    0.020923
  11 H :   -0.003169
  12 H :    0.053486
  13 H :   -0.001763
  14 H :    0.025388
  15 H :    0.013293
  16 H :    0.016766
  17 H :    0.022453
  18 H :    0.024941
  19 H :    0.013624

  Mayer bond orders larger than 0.1
B(  0-C ,  1-C ) :   1.1177 B(  0-C ,  7-H ) :   0.9566 B(  0-C ,  8-H ) :   0.9613
B(  0-C ,  9-H ) :   0.9660 B(  1-C ,  2-N ) :   1.0337 B(  1-C , 10-H ) :   0.9381
B(  1-C , 11-H ) :   0.9184 B(  2-N ,  3-C ) :   1.0972 B(  2-N , 12-H ) :   0.9342
B(  3-C ,  4-C ) :   1.0867 B(  3-C ,  6-C ) :   1.0799 B(  3-C , 13-H ) :   0.8871
B(  4-C ,  5-C ) :   1.1281 B(  4-C , 14-H ) :   0.9002 B(  4-C , 15-H ) :   0.9331
B(  5-C ,  6-C ) :   1.1239 B(  5-C , 16-H ) :   0.9336 B(  5-C , 17-H ) :   0.9363
B(  6-C , 18-H ) :   0.9057 B(  6-C , 19-H ) :   0.9333

FINAL SINGLE POINT ENERGY      -290.570185320874

DIPOLE MOMENT
-------------
                                X             Y             Z
Electronic contribution:      1.37928      -1.51079      -0.94117
Nuclear contribution   :     -1.59285       1.56153       0.71936
                        -----------------------------------------
Total Dipole Moment    :     -0.21357       0.05074      -0.22181
                        -----------------------------------------
Magnitude (a.u.)       :      0.31207
Magnitude (Debye)      :      0.79322

                             ****ORCA TERMINATED NORMALLY****
TOTAL RUN TIME: 0 days 0 hours 0 minutes 8 seconds 360 msec
