                         Program Version 3.0.3 - RELEASE   -
|  1> ! RI PBE def2-SVP def2-SVP/J NBO PAL2
|  2> % maxcore 2000
|  3> % output
|  4>     # printlevel mini
|  5>     print[ P_Basis ] 0
|  6>     print[ P_SCFInfo ] 1
|  7>     print[ P_SCFIterInfo ] 1
|  8>     print[ P_OrbEn ] 0
|  9>     print[ P_Cartesian ] 0
| 10> end
| 11> *xyz 0 1
| 12>  C        2.7004010000    -1.6147370000    -0.1136280000
| 13>  C        2.5920630000    -0.0964900000    -0.0098070000
| 14>  N        3.2749730000     0.4607310000     1.1529270000
| 15>  C        3.0752310000     0.5723770000    -1.2875150000
| 16>  C        3.0273450000     2.1062420000    -1.4131030000
| 17>  C        4.3385480000     2.0380860000    -2.2177880000
| 18>  C        4.5850080000     0.6424330000    -1.6138780000
| 19>  H        2.3314560000    -2.0978600000     0.7951290000
| 20>  H        3.7439240000    -1.9161460000    -0.2525850000
| 21>  H        2.1259520000    -2.0035550000    -0.9595110000
| 22>  H        1.5325520000     0.1676540000     0.1032870000
| 23>  H        4.2252600000     0.1103060000     1.2007140000
| 24>  H        2.8167900000     0.1588910000     2.0037570000
| 25>  H        2.5495220000     0.1183440000    -2.1346030000
| 26>  H        3.1813990000     2.5647480000    -0.4343350000
| 27>  H        2.1521670000     2.5526060000    -1.8893770000
| 28>  H        5.0895670000     2.8090080000    -2.0384780000
| 29>  H        4.1493690000     1.9789240000    -3.2921690000
| 30>  H        5.1880010000     0.7197170000    -0.7055830000
| 31>  H        5.0123810000    -0.1308680000    -2.2547450000
| 32> *
| 33>
| 34>                          ****END OF INPUT****
 Total Charge           Charge          ....    0
 Multiplicity           Mult            ....    1
 Number of Electrons    NEL             ....   56
 Basis Dimension        Dim             ....  163

MULLIKEN ATOMIC CHARGES
-----------------------
   0 C :    0.032350
   1 C :    0.015721
   2 N :   -0.175292
   3 C :   -0.186076
   4 C :    0.079567
   5 C :   -0.036898
   6 C :    0.032717
   7 H :    0.005595
   8 H :    0.007489
   9 H :    0.008457
  10 H :   -0.000071
  11 H :    0.081360
  12 H :    0.085404
  13 H :   -0.002233
  14 H :    0.007676
  15 H :    0.003153
  16 H :    0.009926
  17 H :    0.018412
  18 H :    0.001596
  19 H :    0.011146
Sum of atomic charges:   -0.0000000

LOEWDIN ATOMIC CHARGES
----------------------
   0 C :   -0.075875
   1 C :   -0.007596
   2 N :   -0.090117
   3 C :   -0.039199
   4 C :   -0.030934
   5 C :   -0.036218
   6 C :   -0.036214
   7 H :    0.019188
   8 H :    0.021617
   9 H :    0.024999
  10 H :    0.023710
  11 H :    0.044663
  12 H :    0.051393
  13 H :    0.023802
  14 H :    0.022917
  15 H :    0.012023
  16 H :    0.015528
  17 H :    0.023471
  18 H :    0.019896
  19 H :    0.012946

  Mayer bond orders larger than 0.1
B(  0-C ,  1-C ) :   1.0747 B(  0-C ,  7-H ) :   0.9583 B(  0-C ,  8-H ) :   0.9565
B(  0-C ,  9-H ) :   0.9463 B(  1-C ,  2-N ) :   1.0947 B(  1-C ,  3-C ) :   1.0207
B(  1-C , 10-H ) :   0.9017 B(  2-N , 11-H ) :   0.9641 B(  2-N , 12-H ) :   0.9667
B(  3-C ,  4-C ) :   1.0745 B(  3-C ,  6-C ) :   1.0807 B(  3-C , 13-H ) :   0.9068
B(  4-C ,  5-C ) :   1.1269 B(  4-C , 14-H ) :   0.9019 B(  4-C , 15-H ) :   0.9361
B(  5-C ,  6-C ) :   1.1274 B(  5-C , 16-H ) :   0.9315 B(  5-C , 17-H ) :   0.9316
B(  6-C , 18-H ) :   0.9100 B(  6-C , 19-H ) :   0.9358

FINAL SINGLE POINT ENERGY      -290.575266491407

DIPOLE MOMENT
-------------
                                X             Y             Z
Electronic contribution:     -0.28322       1.59739       0.36525
Nuclear contribution   :      0.25229      -2.08535      -0.17160
                        -----------------------------------------
Total Dipole Moment    :     -0.03093      -0.48797       0.19365
                        -----------------------------------------
Magnitude (a.u.)       :      0.52590
Magnitude (Debye)      :      1.33673

                             ****ORCA TERMINATED NORMALLY****
TOTAL RUN TIME: 0 days 0 hours 0 minutes 8 seconds 420 msec
