                         Program Version 3.0.3 - RELEASE   -
|  1> ! RI PBE def2-SVP def2-SVP/J NBO PAL2
|  2> % maxcore 2000
|  3> % output
|  4>     # printlevel mini
|  5>     print[ P_Basis ] 0
|  6>     print[ P_SCFInfo ] 1
|  7>     print[ P_SCFIterInfo ] 1
|  8>     print[ P_OrbEn ] 0
|  9>     print[ P_Cartesian ] 0
| 10> end
| 11> *xyz 0 1
| 12>  C        1.0058840000     0.4106710000     0.2171940000
| 13>  C        2.4722140000     0.0264880000     0.0565620000
| 14>  N        2.7631940000    -1.3402370000     0.4839360000
| 15>  C        3.0398520000     0.2051780000    -1.3446120000
| 16>  C        4.5462900000     0.1490120000    -1.3909010000
| 17>  C        2.3030470000    -0.3950530000    -2.5083410000
| 18>  C        2.3676260000     1.0958220000    -2.3438910000
| 19>  H        0.6850690000     0.2049580000     1.2416110000
| 20>  H        0.3595160000    -0.1679490000    -0.4494740000
| 21>  H        0.8329770000     1.4726260000     0.0277150000
| 22>  H        3.0558200000     0.6844710000     0.7142980000
| 23>  H        2.2658330000    -1.9947620000    -0.1103620000
| 24>  H        2.4383190000    -1.4931930000     1.4310460000
| 25>  H        4.9090680000    -0.7776000000    -0.9424700000
| 26>  H        4.9826960000     0.9868800000    -0.8377850000
| 27>  H        4.9086920000     0.2039540000    -2.4202200000
| 28>  H        1.3449640000    -0.8716870000    -2.3352350000
| 29>  H        2.8914740000    -0.8549810000    -3.2932970000
| 30>  H        1.4532010000     1.6071330000    -2.0725090000
| 31>  H        3.0063410000     1.6556920000    -3.0170670000
| 32> *
| 33>
| 34>                          ****END OF INPUT****
 Total Charge           Charge          ....    0
 Multiplicity           Mult            ....    1
 Number of Electrons    NEL             ....   56
 Basis Dimension        Dim             ....  163

MULLIKEN ATOMIC CHARGES
-----------------------
   0 C :    0.023680
   1 C :    0.029687
   2 N :   -0.168729
   3 C :   -0.285818
   4 C :    0.125870
   5 C :   -0.037233
   6 C :    0.007463
   7 H :    0.003073
   8 H :    0.006050
   9 H :    0.019445
  10 H :   -0.002246
  11 H :    0.080449
  12 H :    0.080449
  13 H :    0.020118
  14 H :    0.006232
  15 H :   -0.005390
  16 H :    0.026506
  17 H :    0.027036
  18 H :    0.020036
  19 H :    0.023324
Sum of atomic charges:    0.0000000

LOEWDIN ATOMIC CHARGES
----------------------
   0 C :   -0.078365
   1 C :    0.008724
   2 N :   -0.090639
   3 C :   -0.059748
   4 C :   -0.043624
   5 C :   -0.047635
   6 C :   -0.041681
   7 H :    0.022244
   8 H :    0.021327
   9 H :    0.025866
  10 H :    0.023678
  11 H :    0.047664
  12 H :    0.047648
  13 H :    0.027489
  14 H :    0.024819
  15 H :    0.021495
  16 H :    0.018679
  17 H :    0.024592
  18 H :    0.022499
  19 H :    0.024967

  Mayer bond orders larger than 0.1
B(  0-C ,  1-C ) :   1.0937 B(  0-C ,  7-H ) :   0.9513 B(  0-C ,  8-H ) :   0.9457
B(  0-C ,  9-H ) :   0.9365 B(  1-C ,  2-N ) :   1.0891 B(  1-C ,  3-C ) :   1.0142
B(  1-C , 10-H ) :   0.8973 B(  2-N , 11-H ) :   0.9643 B(  2-N , 12-H ) :   0.9666
B(  3-C ,  4-C ) :   1.0889 B(  3-C ,  5-C ) :   0.9602 B(  3-C ,  6-C ) :   0.9944
B(  4-C , 13-H ) :   0.9485 B(  4-C , 14-H ) :   0.9513 B(  4-C , 15-H ) :   0.9422
B(  5-C ,  6-C ) :   1.0302 B(  5-C , 16-H ) :   0.9439 B(  5-C , 17-H ) :   0.9423
B(  6-C , 18-H ) :   0.9256 B(  6-C , 19-H ) :   0.9411

FINAL SINGLE POINT ENERGY      -290.572310657760

DIPOLE MOMENT
-------------
                                X             Y             Z
Electronic contribution:      0.59162      -0.65216      -0.00190
Nuclear contribution   :     -1.02195       0.63102       0.15489
                        -----------------------------------------
Total Dipole Moment    :     -0.43033      -0.02114       0.15299
                        -----------------------------------------
Magnitude (a.u.)       :      0.45720
Magnitude (Debye)      :      1.16212

                             ****ORCA TERMINATED NORMALLY****
TOTAL RUN TIME: 0 days 0 hours 0 minutes 8 seconds 408 msec
