                         Program Version 3.0.3 - RELEASE   -
|  1> ! RI PBE def2-SVP def2-SVP/J NBO PAL2
|  2> % maxcore 2000
|  3> % output
|  4>     # printlevel mini
|  5>     print[ P_Basis ] 0
|  6>     print[ P_SCFInfo ] 1
|  7>     print[ P_SCFIterInfo ] 1
|  8>     print[ P_OrbEn ] 0
|  9>     print[ P_Cartesian ] 0
| 10> end
| 11> *xyz 0 1
| 12>  C        1.3128460000    -2.6911420000    -0.2975560000
| 13>  C        2.8054910000    -2.9405560000    -0.3688330000
| 14>  N        3.5406450000    -1.7872030000     0.1149060000
| 15>  C        4.9710850000    -1.8730990000     0.0198380000
| 16>  C        5.6690560000    -2.9665070000     0.7933510000
| 17>  C        5.5415040000    -1.4674600000    -1.3057390000
| 18>  C        5.6701570000    -0.5557470000    -0.1189470000
| 19>  H        0.7551870000    -3.5476800000    -0.6827430000
| 20>  H        1.0419080000    -1.8069520000    -0.8780330000
| 21>  H        0.9914680000    -2.5261010000     0.7353890000
| 22>  H        3.1050900000    -3.1090230000    -1.4084970000
| 23>  H        3.0439870000    -3.8685310000     0.1768300000
| 24>  H        3.2689640000    -1.5760080000     1.0689290000
| 25>  H        5.3433900000    -3.9589380000     0.4701470000
| 26>  H        5.4632800000    -2.8761810000     1.8650900000
| 27>  H        6.7514440000    -2.9141890000     0.6570410000
| 28>  H        4.8390520000    -1.1797570000    -2.0775090000
| 29>  H        6.4284030000    -1.9801180000    -1.6580930000
| 30>  H        5.0487110000     0.3303590000    -0.1063370000
| 31>  H        6.6455420000    -0.4454870000     0.3398660000
| 32> *
| 33>
| 34>                          ****END OF INPUT****
 Total Charge           Charge          ....    0
 Multiplicity           Mult            ....    1
 Number of Electrons    NEL             ....   56
 Basis Dimension        Dim             ....  163

MULLIKEN ATOMIC CHARGES
-----------------------
   0 C :   -0.021809
   1 C :    0.082786
   2 N :   -0.200870
   3 C :   -0.243056
   4 C :    0.097100
   5 C :    0.001611
   6 C :    0.007245
   7 H :    0.019146
   8 H :    0.023911
   9 H :    0.013858
  10 H :    0.004813
  11 H :   -0.011760
  12 H :    0.093412
  13 H :    0.019831
  14 H :    0.016292
  15 H :    0.003902
  16 H :    0.026288
  17 H :    0.023287
  18 H :    0.024576
  19 H :    0.019438
Sum of atomic charges:   -0.0000000

LOEWDIN ATOMIC CHARGES
----------------------
   0 C :   -0.071233
   1 C :    0.010106
   2 N :   -0.079589
   3 C :   -0.031674
   4 C :   -0.063114
   5 C :   -0.044356
   6 C :   -0.043729
   7 H :    0.028418
   8 H :    0.026398
   9 H :    0.022062
  10 H :    0.020029
  11 H :   -0.003108
  12 H :    0.052069
  13 H :    0.025318
  14 H :    0.025038
  15 H :    0.028353
  16 H :    0.027767
  17 H :    0.022708
  18 H :    0.026533
  19 H :    0.022004

  Mayer bond orders larger than 0.1
B(  0-C ,  1-C ) :   1.1172 B(  0-C ,  7-H ) :   0.9577 B(  0-C ,  8-H ) :   0.9625
B(  0-C ,  9-H ) :   0.9662 B(  1-C ,  2-N ) :   1.0277 B(  1-C , 10-H ) :   0.9350
B(  1-C , 11-H ) :   0.9198 B(  2-N ,  3-C ) :   1.1048 B(  2-N , 12-H ) :   0.9383
B(  3-C ,  4-C ) :   1.0605 B(  3-C ,  5-C ) :   0.9852 B(  3-C ,  6-C ) :   0.9790
B(  4-C , 13-H ) :   0.9512 B(  4-C , 14-H ) :   0.9541 B(  4-C , 15-H ) :   0.9327
B(  5-C ,  6-C ) :   1.0463 B(  5-C , 16-H ) :   0.9301 B(  5-C , 17-H ) :   0.9469
B(  6-C , 18-H ) :   0.9354 B(  6-C , 19-H ) :   0.9427

FINAL SINGLE POINT ENERGY      -290.569430189853

DIPOLE MOMENT
-------------
                                X             Y             Z
Electronic contribution:      1.54610       2.21514      -0.21902
Nuclear contribution   :     -1.53081      -2.45065       0.47143
                        -----------------------------------------
Total Dipole Moment    :      0.01528      -0.23551       0.25241
                        -----------------------------------------
Magnitude (a.u.)       :      0.34556
Magnitude (Debye)      :      0.87834

                             ****ORCA TERMINATED NORMALLY****
TOTAL RUN TIME: 0 days 0 hours 0 minutes 8 seconds 739 msec
