                         Program Version 3.0.3 - RELEASE   -
|  1> ! RI PBE def2-SVP def2-SVP/J NBO PAL2
|  2> % maxcore 2000
|  3> % output
|  4>     # printlevel mini
|  5>     print[ P_Basis ] 0
|  6>     print[ P_SCFInfo ] 1
|  7>     print[ P_SCFIterInfo ] 1
|  8>     print[ P_OrbEn ] 0
|  9>     print[ P_Cartesian ] 0
| 10> end
| 11> *xyz 0 1
| 12>  C        2.3838520000     0.5643800000    -1.4279050000
| 13>  C        2.4367360000    -0.0276760000    -0.0248640000
| 14>  N        1.1144330000    -0.3272500000     0.5231890000
| 15>  C        3.3297430000    -1.2599240000     0.0194030000
| 16>  C        3.5301550000    -1.9742560000     1.3630830000
| 17>  C        3.2413560000    -3.2708600000     0.5952730000
| 18>  N        2.7952840000    -2.5051640000    -0.5990820000
| 19>  H        1.7687450000     1.4674740000    -1.4473680000
| 20>  H        1.9550100000    -0.1559530000    -2.1315560000
| 21>  H        3.3818790000     0.8219730000    -1.7912770000
| 22>  H        2.9037080000     0.7027480000     0.6472310000
| 23>  H        0.4720520000    -0.5856130000    -0.2165650000
| 24>  H        0.7182980000     0.4889300000     0.9689910000
| 25>  H        4.2850760000    -1.0050320000    -0.4558770000
| 26>  H        2.7323860000    -1.7237770000     2.0644090000
| 27>  H        4.5026620000    -1.8733730000     1.8484760000
| 28>  H        2.4896280000    -3.9398200000     1.0203460000
| 29>  H        4.1355470000    -3.8575880000     0.3658650000
| 30>  H        1.7815490000    -2.4643000000    -0.5861530000
| 31> *
| 32>
| 33>                          ****END OF INPUT****
 Total Charge           Charge          ....    0
 Multiplicity           Mult            ....    1
 Number of Electrons    NEL             ....   56
 Basis Dimension        Dim             ....  158

MULLIKEN ATOMIC CHARGES
-----------------------
   0 C :    0.043839
   1 C :   -0.061323
   2 N :   -0.175190
   3 C :   -0.001147
   4 C :    0.041875
   5 C :    0.086589
   6 N :   -0.247322
   7 H :    0.009447
   8 H :    0.018365
   9 H :    0.013332
  10 H :    0.006572
  11 H :    0.085213
  12 H :    0.093426
  13 H :   -0.008890
  14 H :   -0.005708
  15 H :    0.003771
  16 H :    0.009514
  17 H :    0.012652
  18 H :    0.074987
Sum of atomic charges:   -0.0000000

LOEWDIN ATOMIC CHARGES
----------------------
   0 C :   -0.073044
   1 C :   -0.015947
   2 N :   -0.092330
   3 C :    0.012765
   4 C :   -0.049472
   5 C :    0.028284
   6 N :   -0.123990
   7 H :    0.020205
   8 H :    0.026729
   9 H :    0.028575
  10 H :    0.026733
  11 H :    0.047250
  12 H :    0.055764
  13 H :    0.013869
  14 H :    0.021390
  15 H :    0.012655
  16 H :    0.010760
  17 H :    0.013421
  18 H :    0.036384

  Mayer bond orders larger than 0.1
B(  0-C ,  1-C ) :   1.0962 B(  0-C ,  7-H ) :   0.9570 B(  0-C ,  8-H ) :   0.9496
B(  0-C ,  9-H ) :   0.9455 B(  1-C ,  2-N ) :   1.0907 B(  1-C ,  3-C ) :   1.0044
B(  1-C , 10-H ) :   0.9077 B(  2-N , 11-H ) :   0.9670 B(  2-N , 12-H ) :   0.9647
B(  3-C ,  4-C ) :   1.0841 B(  3-C ,  6-N ) :   1.0782 B(  3-C , 13-H ) :   0.9000
B(  4-C ,  5-C ) :   1.1326 B(  4-C , 14-H ) :   0.8763 B(  4-C , 15-H ) :   0.9334
B(  5-C ,  6-N ) :   1.0598 B(  5-C , 16-H ) :   0.9388 B(  5-C , 17-H ) :   0.9339
B(  6-N , 18-H ) :   0.9342

FINAL SINGLE POINT ENERGY      -306.582323268287

DIPOLE MOMENT
-------------
                                X             Y             Z
Electronic contribution:      0.15241      -1.83974       0.54195
Nuclear contribution   :     -0.63137       2.51316      -0.35393
                        -----------------------------------------
Total Dipole Moment    :     -0.47896       0.67343       0.18802
                        -----------------------------------------
Magnitude (a.u.)       :      0.84751
Magnitude (Debye)      :      2.15419

                             ****ORCA TERMINATED NORMALLY****
TOTAL RUN TIME: 0 days 0 hours 0 minutes 7 seconds 933 msec
