                         Program Version 3.0.3 - RELEASE   -
|  1> ! RI PBE def2-SVP def2-SVP/J NBO PAL2
|  2> % maxcore 2000
|  3> % output
|  4>     # printlevel mini
|  5>     print[ P_Basis ] 0
|  6>     print[ P_SCFInfo ] 1
|  7>     print[ P_SCFIterInfo ] 1
|  8>     print[ P_OrbEn ] 0
|  9>     print[ P_Cartesian ] 0
| 10> end
| 11> *xyz 0 1
| 12>  C        1.9664650000     0.4243520000    -1.4239220000
| 13>  C        2.1288970000    -0.1491480000    -0.0233260000
| 14>  N        2.5111080000    -1.5573200000    -0.0084930000
| 15>  C        3.1514750000     0.5841770000     0.8333630000
| 16>  C        3.0546010000     0.2799280000     2.3045460000
| 17>  C        3.7300940000     1.8813800000     0.4308350000
| 18>  N        4.4830530000     0.6440070000     0.2285580000
| 19>  H        1.2872450000    -0.2052800000    -2.0043280000
| 20>  H        2.9299230000     0.4517160000    -1.9402660000
| 21>  H        1.5473520000     1.4339420000    -1.4095820000
| 22>  H        1.1648660000    -0.0727870000     0.4952080000
| 23>  H        3.4168900000    -1.6452220000    -0.4584960000
| 24>  H        1.8542600000    -2.1084030000    -0.5472710000
| 25>  H        3.1106850000    -0.7976670000     2.4710910000
| 26>  H        2.1045760000     0.6360790000     2.7129130000
| 27>  H        3.8600260000     0.7682990000     2.8596850000
| 28>  H        4.0403690000     2.5509240000     1.2277950000
| 29>  H        3.4185920000     2.3800090000    -0.4796130000
| 30>  H        5.1980120000     0.5421140000     0.9407920000
| 31> *
| 32>
| 33>                          ****END OF INPUT****
 Total Charge           Charge          ....    0
 Multiplicity           Mult            ....    1
 Number of Electrons    NEL             ....   56
 Basis Dimension        Dim             ....  158

MULLIKEN ATOMIC CHARGES
-----------------------
   0 C :    0.025339
   1 C :    0.047243
   2 N :   -0.177789
   3 C :   -0.304448
   4 C :    0.140982
   5 C :    0.086425
   6 N :   -0.187540
   7 H :    0.004573
   8 H :    0.026319
   9 H :    0.009020
  10 H :   -0.005982
  11 H :    0.085606
  12 H :    0.081078
  13 H :    0.027272
  14 H :    0.013573
  15 H :   -0.010183
  16 H :    0.019300
  17 H :    0.018212
  18 H :    0.101000
Sum of atomic charges:   -0.0000000

LOEWDIN ATOMIC CHARGES
----------------------
   0 C :   -0.079849
   1 C :    0.002357
   2 N :   -0.091025
   3 C :   -0.033292
   4 C :   -0.055344
   5 C :    0.003353
   6 N :   -0.100192
   7 H :    0.021580
   8 H :    0.027368
   9 H :    0.023480
  10 H :    0.021325
  11 H :    0.048020
  12 H :    0.047761
  13 H :    0.031149
  14 H :    0.030857
  15 H :    0.020362
  16 H :    0.013800
  17 H :    0.016920
  18 H :    0.051372

  Mayer bond orders larger than 0.1
B(  0-C ,  1-C ) :   1.0991 B(  0-C ,  7-H ) :   0.9494 B(  0-C ,  8-H ) :   0.9394
B(  0-C ,  9-H ) :   0.9354 B(  1-C ,  2-N ) :   1.0900 B(  1-C ,  3-C ) :   0.9780
B(  1-C , 10-H ) :   0.9060 B(  2-N , 11-H ) :   0.9609 B(  2-N , 12-H ) :   0.9665
B(  3-C ,  4-C ) :   1.0836 B(  3-C ,  5-C ) :   1.0645 B(  3-C ,  6-N ) :   0.9382
B(  4-C , 13-H ) :   0.9429 B(  4-C , 14-H ) :   0.9460 B(  4-C , 15-H ) :   0.9324
B(  5-C ,  6-N ) :   1.0177 B(  5-C , 16-H ) :   0.9364 B(  5-C , 17-H ) :   0.9101
B(  6-N , 18-H ) :   0.9415

FINAL SINGLE POINT ENERGY      -306.588722162192

DIPOLE MOMENT
-------------
                                X             Y             Z
Electronic contribution:      1.84787      -0.40326       0.12807
Nuclear contribution   :     -1.95746       0.59678      -0.02222
                        -----------------------------------------
Total Dipole Moment    :     -0.10959       0.19352       0.10585
                        -----------------------------------------
Magnitude (a.u.)       :      0.24630
Magnitude (Debye)      :      0.62604

                             ****ORCA TERMINATED NORMALLY****
TOTAL RUN TIME: 0 days 0 hours 0 minutes 8 seconds 530 msec
