                         Program Version 3.0.3 - RELEASE   -
|  1> ! RI PBE def2-SVP def2-SVP/J NBO PAL2
|  2> % maxcore 2000
|  3> % output
|  4>     # printlevel mini
|  5>     print[ P_Basis ] 0
|  6>     print[ P_SCFInfo ] 1
|  7>     print[ P_SCFIterInfo ] 1
|  8>     print[ P_OrbEn ] 0
|  9>     print[ P_Cartesian ] 0
| 10> end
| 11> *xyz 0 1
| 12>  C        3.1298470000     1.1530150000     0.7742650000
| 13>  C        2.3923680000    -0.0004180000     0.0981790000
| 14>  N        2.3222020000     0.1040540000    -1.3488600000
| 15>  C        3.0372400000    -1.3145520000     0.4751850000
| 16>  C        2.9565840000    -2.5303590000    -0.3615710000
| 17>  N        4.1756030000    -1.7413820000    -0.3107700000
| 18>  C        5.2828970000    -2.3233300000     0.4110290000
| 19>  H        2.6618340000     2.1100170000     0.5283780000
| 20>  H        4.1695440000     1.1862880000     0.4357860000
| 21>  H        3.1275840000     1.0507350000     1.8639480000
| 22>  H        1.3628900000    -0.0256060000     0.4789780000
| 23>  H        3.2569840000    -0.0108220000    -1.7275930000
| 24>  H        1.9858340000     1.0183980000    -1.6219040000
| 25>  H        3.1090920000    -1.4831250000     1.5498330000
| 26>  H        2.4142790000    -2.4973400000    -1.2990540000
| 27>  H        2.9617320000    -3.4884220000     0.1539840000
| 28>  H        5.8458580000    -2.9829620000    -0.2538550000
| 29>  H        4.9638860000    -2.9093150000     1.2878160000
| 30>  H        5.9542540000    -1.5321830000     0.7536370000
| 31> *
| 32>
| 33>                          ****END OF INPUT****
 Total Charge           Charge          ....    0
 Multiplicity           Mult            ....    1
 Number of Electrons    NEL             ....   56
 Basis Dimension        Dim             ....  158

MULLIKEN ATOMIC CHARGES
-----------------------
   0 C :    0.009034
   1 C :    0.071315
   2 N :   -0.182328
   3 C :   -0.093741
   4 C :    0.114421
   5 N :   -0.307748
   6 C :    0.087451
   7 H :    0.009352
   8 H :    0.013075
   9 H :    0.008068
  10 H :    0.001910
  11 H :    0.092424
  12 H :    0.080551
  13 H :    0.005370
  14 H :    0.029501
  15 H :    0.010378
  16 H :    0.027938
  17 H :   -0.002324
  18 H :    0.025354
Sum of atomic charges:   -0.0000000

LOEWDIN ATOMIC CHARGES
----------------------
   0 C :   -0.077967
   1 C :   -0.003421
   2 N :   -0.091177
   3 C :   -0.004276
   4 C :    0.009334
   5 N :   -0.110296
   6 C :   -0.000930
   7 H :    0.020417
   8 H :    0.023844
   9 H :    0.023168
  10 H :    0.023209
  11 H :    0.045721
  12 H :    0.049218
  13 H :    0.011454
  14 H :    0.021142
  15 H :    0.010148
  16 H :    0.024455
  17 H :    0.002499
  18 H :    0.023460

  Mayer bond orders larger than 0.1
B(  0-C ,  1-C ) :   1.0765 B(  0-C ,  7-H ) :   0.9577 B(  0-C ,  8-H ) :   0.9548
B(  0-C ,  9-H ) :   0.9466 B(  1-C ,  2-N ) :   1.1104 B(  1-C ,  3-C ) :   0.9894
B(  1-C , 10-H ) :   0.9019 B(  2-N , 11-H ) :   0.9488 B(  2-N , 12-H ) :   0.9651
B(  3-C ,  4-C ) :   1.0473 B(  3-C ,  5-N ) :   0.9329 B(  3-C , 13-H ) :   0.9335
B(  4-C ,  5-N ) :   0.9628 B(  4-C , 14-H ) :   0.9214 B(  4-C , 15-H ) :   0.9318
B(  5-N ,  6-C ) :   1.0308 B(  6-C , 16-H ) :   0.9698 B(  6-C , 17-H ) :   0.9362
B(  6-C , 18-H ) :   0.9700

FINAL SINGLE POINT ENERGY      -306.580871529708

DIPOLE MOMENT
-------------
                                X             Y             Z
Electronic contribution:     -1.39202      -1.31417      -2.09383
Nuclear contribution   :      1.58238       1.46048       2.49154
                        -----------------------------------------
Total Dipole Moment    :      0.19036       0.14630       0.39772
                        -----------------------------------------
Magnitude (a.u.)       :      0.46456
Magnitude (Debye)      :      1.18083

                             ****ORCA TERMINATED NORMALLY****
TOTAL RUN TIME: 0 days 0 hours 0 minutes 8 seconds 410 msec
