                         Program Version 3.0.3 - RELEASE   -
|  1> ! RI PBE def2-SVP def2-SVP/J NBO PAL2
|  2> % maxcore 2000
|  3> % output
|  4>     # printlevel mini
|  5>     print[ P_Basis ] 0
|  6>     print[ P_SCFInfo ] 1
|  7>     print[ P_SCFIterInfo ] 1
|  8>     print[ P_OrbEn ] 0
|  9>     print[ P_Cartesian ] 0
| 10> end
| 11> *xyz 0 1
| 12>  C        0.9149290000     0.2446530000    -0.1515550000
| 13>  C        2.3654310000     0.2722130000    -0.5838820000
| 14>  N        3.0798820000    -0.8926480000    -0.0970620000
| 15>  C        4.4530360000    -0.9380770000    -0.5216470000
| 16>  C        5.4528400000    -0.0425420000     0.2322600000
| 17>  N        6.4004240000    -1.1703820000     0.2394490000
| 18>  C        5.2981000000    -2.1133070000    -0.0119520000
| 19>  H        0.3883780000     1.1375300000    -0.4948870000
| 20>  H        0.8387330000     0.1920480000     0.9363350000
| 21>  H        0.3970100000    -0.6247980000    -0.5679440000
| 22>  H        2.8557590000     1.1607950000    -0.1708820000
| 23>  H        2.4268300000     0.3697320000    -1.6826730000
| 24>  H        2.6025440000    -1.7334250000    -0.4046400000
| 25>  H        4.5743540000    -0.8108420000    -1.6092950000
| 26>  H        5.0509450000     0.2200840000     1.2193350000
| 27>  H        5.8211160000     0.8580320000    -0.2662750000
| 28>  H        6.9032110000    -1.3103830000     1.1057170000
| 29>  H        4.8475750000    -2.5365880000     0.8953540000
| 30>  H        5.5347150000    -2.9189140000    -0.7125750000
| 31> *
| 32>
| 33>                          ****END OF INPUT****
 Total Charge           Charge          ....    0
 Multiplicity           Mult            ....    1
 Number of Electrons    NEL             ....   56
 Basis Dimension        Dim             ....  158

MULLIKEN ATOMIC CHARGES
-----------------------
   0 C :   -0.028476
   1 C :    0.067303
   2 N :   -0.212163
   3 C :   -0.177151
   4 C :    0.192450
   5 N :   -0.287011
   6 C :    0.187588
   7 H :    0.021075
   8 H :    0.031722
   9 H :    0.017748
  10 H :    0.006993
  11 H :   -0.007947
  12 H :    0.099107
  13 H :   -0.000244
  14 H :   -0.011698
  15 H :    0.006875
  16 H :    0.095140
  17 H :   -0.011895
  18 H :    0.010583
Sum of atomic charges:   -0.0000000

LOEWDIN ATOMIC CHARGES
----------------------
   0 C :   -0.072132
   1 C :    0.008721
   2 N :   -0.097363
   3 C :   -0.001715
   4 C :    0.021950
   5 N :   -0.114238
   6 C :    0.023710
   7 H :    0.030072
   8 H :    0.028946
   9 H :    0.023130
  10 H :    0.020091
  11 H :   -0.000593
  12 H :    0.054161
  13 H :    0.004284
  14 H :    0.004646
  15 H :    0.007476
  16 H :    0.046101
  17 H :    0.004210
  18 H :    0.008543

  Mayer bond orders larger than 0.1
B(  0-C ,  1-C ) :   1.1153 B(  0-C ,  7-H ) :   0.9572 B(  0-C ,  8-H ) :   0.9632
B(  0-C ,  9-H ) :   0.9665 B(  1-C ,  2-N ) :   1.0277 B(  1-C , 10-H ) :   0.9354
B(  1-C , 11-H ) :   0.9209 B(  2-N ,  3-C ) :   1.0733 B(  2-N , 12-H ) :   0.9358
B(  3-C ,  4-C ) :   1.0711 B(  3-C ,  6-C ) :   1.0704 B(  3-C , 13-H ) :   0.8754
B(  4-C ,  5-N ) :   1.0559 B(  4-C , 14-H ) :   0.9082 B(  4-C , 15-H ) :   0.9352
B(  5-N ,  6-C ) :   1.0534 B(  5-N , 16-H ) :   0.9438 B(  6-C , 17-H ) :   0.9111
B(  6-C , 18-H ) :   0.9343

FINAL SINGLE POINT ENERGY      -306.577279358769

DIPOLE MOMENT
-------------
                                X             Y             Z
Electronic contribution:      4.62317      -1.86171       0.32396
Nuclear contribution   :     -5.02620       1.77617      -0.26795
                        -----------------------------------------
Total Dipole Moment    :     -0.40303      -0.08554       0.05601
                        -----------------------------------------
Magnitude (a.u.)       :      0.41580
Magnitude (Debye)      :      1.05688

                             ****ORCA TERMINATED NORMALLY****
TOTAL RUN TIME: 0 days 0 hours 0 minutes 7 seconds 657 msec
