                         Program Version 3.0.3 - RELEASE   -
|  1> ! RI PBE def2-SVP def2-SVP/J NBO PAL2
|  2> % maxcore 2000
|  3> % output
|  4>     # printlevel mini
|  5>     print[ P_Basis ] 0
|  6>     print[ P_SCFInfo ] 1
|  7>     print[ P_SCFIterInfo ] 1
|  8>     print[ P_OrbEn ] 0
|  9>     print[ P_Cartesian ] 0
| 10> end
| 11> *xyz 0 1
| 12>  C        1.0096000000     0.2494760000    -0.1488610000
| 13>  C        2.4713720000    -0.1134620000     0.0947040000
| 14>  N        2.7313790000    -0.6362250000     1.4320110000
| 15>  C        2.9739020000    -1.0721160000    -0.9712090000
| 16>  C        4.4178630000    -1.5929040000    -0.9052120000
| 17>  N        3.9293400000    -2.9175330000    -1.3324590000
| 18>  C        2.5570760000    -2.5568730000    -0.9442650000
| 19>  H        0.6535690000     0.9624770000     0.5993040000
| 20>  H        0.3768800000    -0.6422870000    -0.0885010000
| 21>  H        0.8641990000     0.6949160000    -1.1370780000
| 22>  H        3.0722790000     0.8005750000     0.0036320000
| 23>  H        2.0770950000    -1.3792570000     1.6511120000
| 24>  H        2.5825810000     0.0883440000     2.1233410000
| 25>  H        2.7659820000    -0.6468700000    -1.9563260000
| 26>  H        4.7953260000    -1.5613590000     0.1229020000
| 27>  H        5.1490850000    -1.1400560000    -1.5808680000
| 28>  H        4.3247710000    -3.7035890000    -0.8330440000
| 29>  H        2.2786580000    -2.8932950000     0.0638050000
| 30>  H        1.7835430000    -2.8809610000    -1.6461970000
| 31> *
| 32>
| 33>                          ****END OF INPUT****
 Total Charge           Charge          ....    0
 Multiplicity           Mult            ....    1
 Number of Electrons    NEL             ....   56
 Basis Dimension        Dim             ....  158

MULLIKEN ATOMIC CHARGES
-----------------------
   0 C :    0.018556
   1 C :    0.017048
   2 N :   -0.177399
   3 C :   -0.232976
   4 C :    0.209192
   5 N :   -0.287359
   6 C :    0.177326
   7 H :    0.010115
   8 H :    0.012556
   9 H :    0.011942
  10 H :   -0.000475
  11 H :    0.078127
  12 H :    0.089002
  13 H :    0.006344
  14 H :   -0.006803
  15 H :    0.002562
  16 H :    0.090272
  17 H :   -0.025331
  18 H :    0.007299
Sum of atomic charges:   -0.0000000

LOEWDIN ATOMIC CHARGES
----------------------
   0 C :   -0.077846
   1 C :   -0.004787
   2 N :   -0.091073
   3 C :   -0.045281
   4 C :    0.029966
   5 N :   -0.114379
   6 C :    0.027551
   7 H :    0.020350
   8 H :    0.023016
   9 H :    0.026406
  10 H :    0.024600
  11 H :    0.042258
  12 H :    0.052581
  13 H :    0.027162
  14 H :    0.003978
  15 H :    0.006263
  16 H :    0.044099
  17 H :   -0.002245
  18 H :    0.007381

  Mayer bond orders larger than 0.1
B(  0-C ,  1-C ) :   1.0766 B(  0-C ,  7-H ) :   0.9596 B(  0-C ,  8-H ) :   0.9542
B(  0-C ,  9-H ) :   0.9456 B(  1-C ,  2-N ) :   1.0879 B(  1-C ,  3-C ) :   1.0175
B(  1-C , 10-H ) :   0.9011 B(  2-N , 11-H ) :   0.9641 B(  2-N , 12-H ) :   0.9667
B(  3-C ,  4-C ) :   1.0654 B(  3-C ,  6-C ) :   1.0725 B(  3-C , 13-H ) :   0.8997
B(  4-C ,  5-N ) :   1.0501 B(  4-C , 14-H ) :   0.9125 B(  4-C , 15-H ) :   0.9353
B(  5-N ,  6-C ) :   1.0631 B(  5-N , 16-H ) :   0.9431 B(  6-C , 17-H ) :   0.9145
B(  6-C , 18-H ) :   0.9349

FINAL SINGLE POINT ENERGY      -306.583212845697

DIPOLE MOMENT
-------------
                                X             Y             Z
Electronic contribution:      2.78730      -2.02591      -0.94120
Nuclear contribution   :     -3.26728       2.30745       1.51979
                        -----------------------------------------
Total Dipole Moment    :     -0.47998       0.28154       0.57860
                        -----------------------------------------
Magnitude (a.u.)       :      0.80276
Magnitude (Debye)      :      2.04045

                             ****ORCA TERMINATED NORMALLY****
TOTAL RUN TIME: 0 days 0 hours 0 minutes 8 seconds 501 msec
