                         Program Version 3.0.3 - RELEASE   -
|  1> ! RI PBE def2-SVP def2-SVP/J NBO PAL2
|  2> % maxcore 2000
|  3> % output
|  4>     # printlevel mini
|  5>     print[ P_Basis ] 0
|  6>     print[ P_SCFInfo ] 1
|  7>     print[ P_SCFIterInfo ] 1
|  8>     print[ P_OrbEn ] 0
|  9>     print[ P_Cartesian ] 0
| 10> end
| 11> *xyz 0 1
| 12>  C        2.8042190000    -0.9053800000     1.2549480000
| 13>  C        2.4202570000     0.0035720000     0.0943240000
| 14>  N        1.0263720000     0.4298580000     0.1077440000
| 15>  C        3.3445230000     1.2020090000     0.0226240000
| 16>  N        2.9999650000     2.3319710000    -0.8275170000
| 17>  C        3.0043820000     2.5043120000     0.6257280000
| 18>  C        4.0469290000     3.4163540000     1.1986810000
| 19>  H        2.1912670000    -1.8102460000     1.2630790000
| 20>  H        2.6611460000    -0.3872870000     2.2083950000
| 21>  H        3.8531560000    -1.2084110000     1.1957200000
| 22>  H        2.5610410000    -0.5528020000    -0.8412270000
| 23>  H        0.7252730000     0.6407010000     1.0518290000
| 24>  H        0.4238590000    -0.3053710000    -0.2361340000
| 25>  H        4.3984910000     0.9321970000    -0.0140500000
| 26>  H        2.0346070000     2.1952130000    -1.1229660000
| 27>  H        2.0230890000     2.5721700000     1.0908390000
| 28>  H        4.9914070000     3.2950430000     0.6648780000
| 29>  H        4.2176450000     3.2052230000     2.2581390000
| 30>  H        3.7426820000     4.4624650000     1.1066580000
| 31> *
| 32>
| 33>                          ****END OF INPUT****
 Total Charge           Charge          ....    0
 Multiplicity           Mult            ....    1
 Number of Electrons    NEL             ....   56
 Basis Dimension        Dim             ....  158

MULLIKEN ATOMIC CHARGES
-----------------------
   0 C :    0.035852
   1 C :    0.006199
   2 N :   -0.184801
   3 C :   -0.043137
   4 N :   -0.157077
   5 C :   -0.134381
   6 C :    0.104029
   7 H :    0.008983
   8 H :    0.011786
   9 H :    0.015738
  10 H :    0.009242
  11 H :    0.091699
  12 H :    0.096661
  13 H :    0.003034
  14 H :    0.094484
  15 H :   -0.003165
  16 H :    0.008310
  17 H :    0.016614
  18 H :    0.019931
Sum of atomic charges:    0.0000000

LOEWDIN ATOMIC CHARGES
----------------------
   0 C :   -0.072583
   1 C :   -0.010789
   2 N :   -0.082924
   3 C :   -0.017367
   4 N :   -0.101886
   5 C :   -0.011552
   6 C :   -0.063298
   7 H :    0.021268
   8 H :    0.022991
   9 H :    0.028658
  10 H :    0.026511
  11 H :    0.050717
  12 H :    0.057240
  13 H :    0.016854
  14 H :    0.041917
  15 H :    0.007026
  16 H :    0.030590
  17 H :    0.027145
  18 H :    0.029483

  Mayer bond orders larger than 0.1
B(  0-C ,  1-C ) :   1.0821 B(  0-C ,  7-H ) :   0.9533 B(  0-C ,  8-H ) :   0.9549
B(  0-C ,  9-H ) :   0.9475 B(  1-C ,  2-N ) :   1.1037 B(  1-C ,  3-C ) :   0.9835
B(  1-C , 10-H ) :   0.9041 B(  2-N , 11-H ) :   0.9653 B(  2-N , 12-H ) :   0.9645
B(  3-C ,  4-N ) :   0.9957 B(  3-C ,  5-C ) :   1.0117 B(  3-C , 13-H ) :   0.9297
B(  4-N ,  5-C ) :   1.0039 B(  4-N , 14-H ) :   0.9258 B(  5-C ,  6-C ) :   1.0761
B(  5-C , 15-H ) :   0.9271 B(  6-C , 16-H ) :   0.9425 B(  6-C , 17-H ) :   0.9583
B(  6-C , 18-H ) :   0.9519

FINAL SINGLE POINT ENERGY      -306.591879693806

DIPOLE MOMENT
-------------
                                X             Y             Z
Electronic contribution:     -1.02163       1.18755      -3.30069
Nuclear contribution   :      0.46615      -1.98926       3.92490
                        -----------------------------------------
Total Dipole Moment    :     -0.55548      -0.80171       0.62421
                        -----------------------------------------
Magnitude (a.u.)       :      1.15799
Magnitude (Debye)      :      2.94337

                             ****ORCA TERMINATED NORMALLY****
TOTAL RUN TIME: 0 days 0 hours 0 minutes 8 seconds 371 msec
