                         Program Version 3.0.3 - RELEASE   -
|  1> ! RI PBE def2-SVP def2-SVP/J NBO PAL2
|  2> % maxcore 2000
|  3> % output
|  4>     # printlevel mini
|  5>     print[ P_Basis ] 0
|  6>     print[ P_SCFInfo ] 1
|  7>     print[ P_SCFIterInfo ] 1
|  8>     print[ P_OrbEn ] 0
|  9>     print[ P_Cartesian ] 0
| 10> end
| 11> *xyz 0 1
| 12>  C        1.2781140000     0.1558170000    -1.4328730000
| 13>  C        2.2008440000    -0.0023180000    -0.2318290000
| 14>  N        3.1898170000    -1.0675990000    -0.3908270000
| 15>  C        2.9614520000     1.2485550000     0.1878860000
| 16>  N        3.6840180000     1.1348990000     1.4265280000
| 17>  C        3.6419960000     2.0884060000    -0.8553310000
| 18>  C        2.4520300000     2.6211470000    -0.1087170000
| 19>  H        0.7929530000    -0.7988110000    -1.6523000000
| 20>  H        1.8300920000     0.4549000000    -2.3286260000
| 21>  H        0.4891530000     0.8901000000    -1.2549320000
| 22>  H        1.5811340000    -0.2856090000     0.6297900000
| 23>  H        3.7615170000    -0.8812680000    -1.2081030000
| 24>  H        2.7355240000    -1.9596450000    -0.5434410000
| 25>  H        4.1912380000     0.2554860000     1.4192940000
| 26>  H        3.0317480000     1.0914530000     2.2023650000
| 27>  H        3.5068490000     1.8442660000    -1.9022210000
| 28>  H        4.6161970000     2.4786930000    -0.5927020000
| 29>  H        1.5244690000     2.7366520000    -0.6536990000
| 30>  H        2.6358650000     3.3722850000     0.6487470000
| 31> *
| 32>
| 33>                          ****END OF INPUT****
 Total Charge           Charge          ....    0
 Multiplicity           Mult            ....    1
 Number of Electrons    NEL             ....   56
 Basis Dimension        Dim             ....  158

MULLIKEN ATOMIC CHARGES
-----------------------
   0 C :    0.011265
   1 C :    0.052477
   2 N :   -0.173116
   3 C :   -0.222286
   4 N :   -0.117729
   5 C :   -0.007822
   6 C :    0.014305
   7 H :    0.003364
   8 H :    0.008343
   9 H :    0.022421
  10 H :   -0.014102
  11 H :    0.083990
  12 H :    0.083181
  13 H :    0.082215
  14 H :    0.082416
  15 H :    0.027159
  16 H :    0.024165
  17 H :    0.015039
  18 H :    0.024715
Sum of atomic charges:   -0.0000000

LOEWDIN ATOMIC CHARGES
----------------------
   0 C :   -0.077947
   1 C :   -0.006182
   2 N :   -0.090781
   3 C :   -0.033680
   4 N :   -0.079259
   5 C :   -0.048515
   6 C :   -0.042849
   7 H :    0.022799
   8 H :    0.021461
   9 H :    0.026662
  10 H :    0.017847
  11 H :    0.049794
  12 H :    0.049588
  13 H :    0.045558
  14 H :    0.050033
  15 H :    0.017924
  16 H :    0.027968
  17 H :    0.020749
  18 H :    0.028830

  Mayer bond orders larger than 0.1
B(  0-C ,  1-C ) :   1.0750 B(  0-C ,  7-H ) :   0.9469 B(  0-C ,  8-H ) :   0.9499
B(  0-C ,  9-H ) :   0.9415 B(  1-C ,  2-N ) :   1.0803 B(  1-C ,  3-C ) :   0.9715
B(  1-C , 10-H ) :   0.8956 B(  2-N , 11-H ) :   0.9644 B(  2-N , 12-H ) :   0.9649
B(  3-C ,  4-N ) :   1.1585 B(  3-C ,  5-C ) :   0.9564 B(  3-C ,  6-C ) :   0.9975
B(  4-N , 13-H ) :   0.9561 B(  4-N , 14-H ) :   0.9645 B(  5-C ,  6-C ) :   1.0467
B(  5-C , 15-H ) :   0.9437 B(  5-C , 16-H ) :   0.9286 B(  6-C , 17-H ) :   0.9307
B(  6-C , 18-H ) :   0.9301

FINAL SINGLE POINT ENERGY      -306.592850016338

DIPOLE MOMENT
-------------
                                X             Y             Z
Electronic contribution:      1.91208       0.23659       2.29541
Nuclear contribution   :     -2.41448      -0.77768      -2.64643
                        -----------------------------------------
Total Dipole Moment    :     -0.50240      -0.54109      -0.35102
                        -----------------------------------------
Magnitude (a.u.)       :      0.81756
Magnitude (Debye)      :      2.07807

                             ****ORCA TERMINATED NORMALLY****
TOTAL RUN TIME: 0 days 0 hours 0 minutes 7 seconds 946 msec
