                         Program Version 3.0.3 - RELEASE   -
|  1> ! RI PBE def2-SVP def2-SVP/J NBO PAL2
|  2> % maxcore 2000
|  3> % output
|  4>     # printlevel mini
|  5>     print[ P_Basis ] 0
|  6>     print[ P_SCFInfo ] 1
|  7>     print[ P_SCFIterInfo ] 1
|  8>     print[ P_OrbEn ] 0
|  9>     print[ P_Cartesian ] 0
| 10> end
| 11> *xyz 0 1
| 12>  C        1.1770630000    -0.3110950000     0.1827210000
| 13>  C        2.6474400000    -0.0109310000    -0.0188910000
| 14>  N        3.0157990000    -0.1049330000    -1.4153310000
| 15>  C        4.4016590000     0.2190620000    -1.6756610000
| 16>  C        4.7046400000     0.1739300000    -3.1436090000
| 17>  C        4.4536940000     1.3878320000    -3.9894140000
| 18>  C        5.8570860000     0.9523710000    -3.6921890000
| 19>  H        0.9120780000    -0.2714180000     1.2414440000
| 20>  H        0.9313530000    -1.3033310000    -0.2010750000
| 21>  H        0.5511110000     0.4173440000    -0.3416480000
| 22>  H        3.2512720000    -0.7383860000     0.5357990000
| 23>  H        2.8869320000     0.9783560000     0.4131590000
| 24>  H        2.4212330000     0.5007900000    -1.9703350000
| 25>  H        5.0248170000    -0.5112460000    -1.1450080000
| 26>  H        4.6888500000     1.2135750000    -1.2827830000
| 27>  H        4.4995340000    -0.7839600000    -3.6104480000
| 28>  H        4.0927160000     2.2818230000    -3.4926950000
| 29>  H        4.0748120000     1.2498390000    -4.9943270000
| 30>  H        6.4345170000     1.5534810000    -2.9993920000
| 31>  H        6.4381940000     0.5129980000    -4.4931170000
| 32> *
| 33>
| 34>                          ****END OF INPUT****
 Total Charge           Charge          ....    0
 Multiplicity           Mult            ....    1
 Number of Electrons    NEL             ....   56
 Basis Dimension        Dim             ....  163

MULLIKEN ATOMIC CHARGES
-----------------------
   0 C :   -0.024602
   1 C :    0.065207
   2 N :   -0.270236
   3 C :    0.215312
   4 C :   -0.171319
   5 C :   -0.039461
   6 C :   -0.029036
   7 H :    0.019509
   8 H :    0.025802
   9 H :    0.017457
  10 H :    0.007978
  11 H :   -0.017849
  12 H :    0.092773
  13 H :    0.004878
  14 H :   -0.042828
  15 H :    0.021525
  16 H :    0.027490
  17 H :    0.033686
  18 H :    0.030107
  19 H :    0.033608
Sum of atomic charges:    0.0000000

LOEWDIN ATOMIC CHARGES
----------------------
   0 C :   -0.071743
   1 C :    0.007129
   2 N :   -0.103130
   3 C :    0.020690
   4 C :   -0.048808
   5 C :   -0.050676
   6 C :   -0.044714
   7 H :    0.028952
   8 H :    0.027590
   9 H :    0.022918
  10 H :    0.019463
  11 H :   -0.004756
  12 H :    0.051185
  13 H :    0.021902
  14 H :   -0.005455
  15 H :    0.027202
  16 H :    0.023113
  17 H :    0.026771
  18 H :    0.024974
  19 H :    0.027393

  Mayer bond orders larger than 0.1
B(  0-C ,  1-C ) :   1.1163 B(  0-C ,  7-H ) :   0.9586 B(  0-C ,  8-H ) :   0.9629
B(  0-C ,  9-H ) :   0.9654 B(  1-C ,  2-N ) :   1.0324 B(  1-C , 10-H ) :   0.9357
B(  1-C , 11-H ) :   0.9199 B(  2-N ,  3-C ) :   1.0435 B(  2-N , 12-H ) :   0.9425
B(  3-C ,  4-C ) :   1.0754 B(  3-C , 13-H ) :   0.9216 B(  3-C , 14-H ) :   0.8927
B(  4-C ,  5-C ) :   0.9935 B(  4-C ,  6-C ) :   0.9825 B(  4-C , 15-H ) :   0.9426
B(  5-C ,  6-C ) :   1.0460 B(  5-C , 16-H ) :   0.9469 B(  5-C , 17-H ) :   0.9491
B(  6-C , 18-H ) :   0.9452 B(  6-C , 19-H ) :   0.9464

FINAL SINGLE POINT ENERGY      -290.565096769078

DIPOLE MOMENT
-------------
                                X             Y             Z
Electronic contribution:      1.87251      -0.51165      -2.45563
Nuclear contribution   :     -1.90472       0.76933       2.47321
                        -----------------------------------------
Total Dipole Moment    :     -0.03221       0.25768       0.01757
                        -----------------------------------------
Magnitude (a.u.)       :      0.26028
Magnitude (Debye)      :      0.66159

                             ****ORCA TERMINATED NORMALLY****
TOTAL RUN TIME: 0 days 0 hours 0 minutes 7 seconds 909 msec
