                         Program Version 3.0.3 - RELEASE   -
|  1> ! RI PBE def2-SVP def2-SVP/J NBO PAL2
|  2> % maxcore 2000
|  3> % output
|  4>     # printlevel mini
|  5>     print[ P_Basis ] 0
|  6>     print[ P_SCFInfo ] 1
|  7>     print[ P_SCFIterInfo ] 1
|  8>     print[ P_OrbEn ] 0
|  9>     print[ P_Cartesian ] 0
| 10> end
| 11> *xyz 0 1
| 12>  C        2.9204710000     0.1932120000     1.4756950000
| 13>  C        2.5036640000     0.0186310000     0.0202530000
| 14>  N        1.0604330000    -0.0891250000    -0.1685380000
| 15>  C        3.0192440000     1.1385960000    -0.8781870000
| 16>  C        4.5176590000     1.2483070000    -0.9545790000
| 17>  C        5.1486020000     2.4999470000    -1.4816450000
| 18>  C        5.2812570000     2.1495750000    -0.0308570000
| 19>  H        2.5362970000    -0.6281440000     2.0870270000
| 20>  H        2.5178520000     1.1283460000     1.8795570000
| 21>  H        4.0067240000     0.2189110000     1.5878760000
| 22>  H        2.9346230000    -0.9214320000    -0.3485980000
| 23>  H        0.6105970000     0.7678620000     0.1373810000
| 24>  H        0.6854760000    -0.8305660000     0.4118810000
| 25>  H        2.6062170000     2.0955680000    -0.5289640000
| 26>  H        2.6079890000     0.9718810000    -1.8790160000
| 27>  H        5.0205000000     0.3243380000    -1.2284430000
| 28>  H        4.4886260000     3.3184940000    -1.7448020000
| 29>  H        6.0239110000     2.4121420000    -2.1130550000
| 30>  H        4.7114870000     2.7335220000     0.6825820000
| 31>  H        6.2484720000     1.8233250000     0.3317440000
| 32> *
| 33>
| 34>                          ****END OF INPUT****
 Total Charge           Charge          ....    0
 Multiplicity           Mult            ....    1
 Number of Electrons    NEL             ....   56
 Basis Dimension        Dim             ....  163

MULLIKEN ATOMIC CHARGES
-----------------------
   0 C :    0.021123
   1 C :   -0.068794
   2 N :   -0.166964
   3 C :    0.125903
   4 C :   -0.161126
   5 C :   -0.022649
   6 C :   -0.027657
   7 H :    0.007714
   8 H :   -0.000667
   9 H :    0.023092
  10 H :   -0.004047
  11 H :    0.079003
  12 H :    0.079197
  13 H :   -0.025449
  14 H :    0.013412
  15 H :    0.012884
  16 H :    0.026236
  17 H :    0.031256
  18 H :    0.030442
  19 H :    0.027090
Sum of atomic charges:   -0.0000000

LOEWDIN ATOMIC CHARGES
----------------------
   0 C :   -0.079326
   1 C :   -0.003588
   2 N :   -0.096839
   3 C :   -0.033250
   4 C :   -0.043510
   5 C :   -0.047208
   6 C :   -0.049530
   7 H :    0.020134
   8 H :    0.018725
   9 H :    0.027480
  10 H :    0.019769
  11 H :    0.046018
  12 H :    0.048197
  13 H :    0.018852
  14 H :    0.029191
  15 H :    0.024613
  16 H :    0.024870
  17 H :    0.026715
  18 H :    0.023833
  19 H :    0.024855

  Mayer bond orders larger than 0.1
B(  0-C ,  1-C ) :   1.0678 B(  0-C ,  7-H ) :   0.9563 B(  0-C ,  8-H ) :   0.9523
B(  0-C ,  9-H ) :   0.9431 B(  1-C ,  2-N ) :   1.0924 B(  1-C ,  3-C ) :   1.0682
B(  1-C , 10-H ) :   0.9053 B(  2-N , 11-H ) :   0.9667 B(  2-N , 12-H ) :   0.9659
B(  3-C ,  4-C ) :   1.0812 B(  3-C , 13-H ) :   0.9022 B(  3-C , 14-H ) :   0.9184
B(  4-C ,  5-C ) :   0.9866 B(  4-C ,  6-C ) :   0.9888 B(  4-C , 15-H ) :   0.9425
B(  5-C ,  6-C ) :   1.0502 B(  5-C , 16-H ) :   0.9449 B(  5-C , 17-H ) :   0.9432
B(  6-C , 18-H ) :   0.9455 B(  6-C , 19-H ) :   0.9472

FINAL SINGLE POINT ENERGY      -290.570808219354

DIPOLE MOMENT
-------------
                                X             Y             Z
Electronic contribution:     -0.22800      -0.34929      -2.00606
Nuclear contribution   :      0.24949       0.36355       2.43216
                        -----------------------------------------
Total Dipole Moment    :      0.02149       0.01426       0.42610
                        -----------------------------------------
Magnitude (a.u.)       :      0.42688
Magnitude (Debye)      :      1.08504

                             ****ORCA TERMINATED NORMALLY****
TOTAL RUN TIME: 0 days 0 hours 0 minutes 7 seconds 866 msec
