                         Program Version 3.0.3 - RELEASE   -
|  1> ! RI PBE def2-SVP def2-SVP/J NBO PAL2
|  2> % maxcore 2000
|  3> % output
|  4>     # printlevel mini
|  5>     print[ P_Basis ] 0
|  6>     print[ P_SCFInfo ] 1
|  7>     print[ P_SCFIterInfo ] 1
|  8>     print[ P_OrbEn ] 0
|  9>     print[ P_Cartesian ] 0
| 10> end
| 11> *xyz 0 1
| 12>  C        2.5853850000     1.0919310000     1.2165160000
| 13>  C        2.3603640000     0.8447010000    -0.2614640000
| 14>  N        3.1446600000    -0.2491770000    -0.8120160000
| 15>  C        2.7012000000    -0.5634620000    -2.1541970000
| 16>  C        4.5520340000     0.0002000000    -0.7827930000
| 17>  C        5.3555930000    -0.4212250000     0.4073740000
| 18>  C        5.4763980000    -1.1705590000    -0.8839650000
| 19>  H        1.8995650000     1.8658260000     1.5691890000
| 20>  H        3.6019360000     1.4279220000     1.4243960000
| 21>  H        2.4012330000     0.1826790000     1.7930900000
| 22>  H        2.5459530000     1.7803830000    -0.8236520000
| 23>  H        1.3072300000     0.5951450000    -0.4242670000
| 24>  H        1.6456160000    -0.8450150000    -2.1384740000
| 25>  H        3.2754050000    -1.4038080000    -2.5468320000
| 26>  H        2.8164200000     0.2844540000    -2.8531120000
| 27>  H        4.8828260000     0.9151740000    -1.2875970000
| 28>  H        4.8179590000    -0.9094310000     1.2092560000
| 29>  H        6.1771820000     0.2110270000     0.7212900000
| 30>  H        5.0162380000    -2.1499100000    -0.9275110000
| 31>  H        6.3810030000    -1.0622740000    -1.4688210000
| 32> *
| 33>
| 34>                          ****END OF INPUT****
 Total Charge           Charge          ....    0
 Multiplicity           Mult            ....    1
 Number of Electrons    NEL             ....   56
 Basis Dimension        Dim             ....  163

MULLIKEN ATOMIC CHARGES
-----------------------
   0 C :   -0.015011
   1 C :    0.073289
   2 N :   -0.296777
   3 C :    0.119392
   4 C :   -0.049253
   5 C :   -0.007944
   6 C :   -0.024460
   7 H :    0.018536
   8 H :    0.030360
   9 H :    0.025967
  10 H :   -0.021455
  11 H :    0.006852
  12 H :    0.016836
  13 H :    0.016819
  14 H :   -0.014569
  15 H :   -0.008068
  16 H :    0.032392
  17 H :    0.027586
  18 H :    0.036137
  19 H :    0.033371
Sum of atomic charges:   -0.0000000

LOEWDIN ATOMIC CHARGES
----------------------
   0 C :   -0.071940
   1 C :    0.015640
   2 N :   -0.103177
   3 C :    0.005491
   4 C :   -0.001314
   5 C :   -0.046952
   6 C :   -0.049125
   7 H :    0.029766
   8 H :    0.026978
   9 H :    0.026784
  10 H :   -0.002546
  11 H :    0.020117
  12 H :    0.019824
  13 H :    0.021702
  14 H :   -0.001691
  15 H :    0.000846
  16 H :    0.028202
  17 H :    0.025182
  18 H :    0.029440
  19 H :    0.026772

  Mayer bond orders larger than 0.1
B(  0-C ,  1-C ) :   1.1272 B(  0-C ,  7-H ) :   0.9544 B(  0-C ,  8-H ) :   0.9576
B(  0-C ,  9-H ) :   0.9584 B(  1-C ,  2-N ) :   1.0220 B(  1-C , 10-H ) :   0.9133
B(  1-C , 11-H ) :   0.9402 B(  2-N ,  3-C ) :   1.0283 B(  2-N ,  4-C ) :   1.0558
B(  3-C , 12-H ) :   0.9647 B(  3-C , 13-H ) :   0.9642 B(  3-C , 14-H ) :   0.9375
B(  4-C ,  5-C ) :   0.9980 B(  4-C ,  6-C ) :   1.0027 B(  4-C , 15-H ) :   0.9109
B(  5-C ,  6-C ) :   1.0602 B(  5-C , 16-H ) :   0.9372 B(  5-C , 17-H ) :   0.9424
B(  6-C , 18-H ) :   0.9357 B(  6-C , 19-H ) :   0.9437

FINAL SINGLE POINT ENERGY      -290.558200735090

DIPOLE MOMENT
-------------
                                X             Y             Z
Electronic contribution:      1.34808      -1.34262      -0.44093
Nuclear contribution   :     -1.35800       1.47716       0.34398
                        -----------------------------------------
Total Dipole Moment    :     -0.00991       0.13454      -0.09696
                        -----------------------------------------
Magnitude (a.u.)       :      0.16613
Magnitude (Debye)      :      0.42227

                             ****ORCA TERMINATED NORMALLY****
TOTAL RUN TIME: 0 days 0 hours 0 minutes 8 seconds 954 msec
