                         Program Version 3.0.3 - RELEASE   -
|  1> ! RI PBE def2-SVP def2-SVP/J NBO PAL2
|  2> % maxcore 2000
|  3> % output
|  4>     # printlevel mini
|  5>     print[ P_Basis ] 0
|  6>     print[ P_SCFInfo ] 1
|  7>     print[ P_SCFIterInfo ] 1
|  8>     print[ P_OrbEn ] 0
|  9>     print[ P_Cartesian ] 0
| 10> end
| 11> *xyz 0 1
| 12>  C        0.8372080000    -0.5478370000    -0.5027270000
| 13>  C        2.3478960000    -0.5624270000    -0.5955310000
| 14>  N        2.8019360000    -1.5729570000    -1.5340310000
| 15>  C        4.2375330000    -1.5940420000    -1.7386520000
| 16>  C        4.7457220000    -2.9518910000    -2.1709420000
| 17>  C        4.2860900000    -4.1782460000    -1.5018830000
| 18>  N        3.8847940000    -3.8901850000    -2.8805650000
| 19>  H        0.5003370000     0.1915380000     0.2266760000
| 20>  H        0.4591510000    -1.5279180000    -0.2045830000
| 21>  H        0.3852250000    -0.2898980000    -1.4653580000
| 22>  H        2.7767120000    -0.8004680000     0.3835830000
| 23>  H        2.7108880000     0.4466540000    -0.8575610000
| 24>  H        2.3359740000    -1.4200110000    -2.4207070000
| 25>  H        4.7216810000    -1.3322560000    -0.7915370000
| 26>  H        4.5661830000    -0.8367640000    -2.4678560000
| 27>  H        5.7647100000    -2.9339710000    -2.5494500000
| 28>  H        3.5315700000    -4.0610420000    -0.7303130000
| 29>  H        4.9595860000    -5.0197230000    -1.3808880000
| 30>  H        2.9302940000    -3.5422760000    -2.8474640000
| 31> *
| 32>
| 33>                          ****END OF INPUT****
 Total Charge           Charge          ....    0
 Multiplicity           Mult            ....    1
 Number of Electrons    NEL             ....   56
 Basis Dimension        Dim             ....  158

MULLIKEN ATOMIC CHARGES
-----------------------
   0 C :   -0.032157
   1 C :    0.058247
   2 N :   -0.292475
   3 C :    0.177399
   4 C :   -0.118412
   5 C :    0.043068
   6 N :   -0.199762
   7 H :    0.024908
   8 H :    0.029131
   9 H :    0.018709
  10 H :    0.017297
  11 H :   -0.007455
  12 H :    0.106098
  13 H :    0.011604
  14 H :    0.004657
  15 H :    0.017846
  16 H :    0.023501
  17 H :    0.030228
  18 H :    0.087568
Sum of atomic charges:    0.0000000

LOEWDIN ATOMIC CHARGES
----------------------
   0 C :   -0.071089
   1 C :    0.009182
   2 N :   -0.100544
   3 C :    0.008926
   4 C :   -0.021984
   5 C :   -0.003166
   6 N :   -0.107319
   7 H :    0.031668
   8 H :    0.028304
   9 H :    0.023681
  10 H :    0.021279
  11 H :    0.000603
  12 H :    0.053560
  13 H :    0.028086
  14 H :    0.009579
  15 H :    0.020223
  16 H :    0.011860
  17 H :    0.017138
  18 H :    0.040013

  Mayer bond orders larger than 0.1
B(  0-C ,  1-C ) :   1.1195 B(  0-C ,  7-H ) :   0.9587 B(  0-C ,  8-H ) :   0.9624
B(  0-C ,  9-H ) :   0.9661 B(  1-C ,  2-N ) :   1.0277 B(  1-C , 10-H ) :   0.9385
B(  1-C , 11-H ) :   0.9238 B(  2-N ,  3-C ) :   1.0222 B(  2-N , 12-H ) :   0.9299
B(  3-C ,  4-C ) :   1.0265 B(  3-C , 13-H ) :   0.9213 B(  3-C , 14-H ) :   0.9270
B(  4-C ,  5-C ) :   1.0531 B(  4-C ,  6-N ) :   1.0153 B(  4-C , 15-H ) :   0.9287
B(  5-C ,  6-N ) :   0.9945 B(  5-C , 16-H ) :   0.9388 B(  5-C , 17-H ) :   0.9420
B(  6-N , 18-H ) :   0.9409

FINAL SINGLE POINT ENERGY      -306.574438961756

DIPOLE MOMENT
-------------
                                X             Y             Z
Electronic contribution:      3.06764      -3.59139      -2.87137
Nuclear contribution   :     -3.33883       4.44422       3.27061
                        -----------------------------------------
Total Dipole Moment    :     -0.27119       0.85283       0.39924
                        -----------------------------------------
Magnitude (a.u.)       :      0.97993
Magnitude (Debye)      :      2.49077

                             ****ORCA TERMINATED NORMALLY****
TOTAL RUN TIME: 0 days 0 hours 0 minutes 7 seconds 972 msec
