                         Program Version 3.0.3 - RELEASE   -
|  1> ! RI PBE def2-SVP def2-SVP/J NBO PAL2
|  2> % maxcore 2000
|  3> % output
|  4>     # printlevel mini
|  5>     print[ P_Basis ] 0
|  6>     print[ P_SCFInfo ] 1
|  7>     print[ P_SCFIterInfo ] 1
|  8>     print[ P_OrbEn ] 0
|  9>     print[ P_Cartesian ] 0
| 10> end
| 11> *xyz 0 1
| 12>  C        2.8850500000     0.7557420000     1.6915760000
| 13>  C        2.6076990000    -0.2105830000     0.5455100000
| 14>  N        1.1943110000    -0.5207930000     0.3611570000
| 15>  C        3.1640850000     0.2858360000    -0.7858150000
| 16>  C        4.6556440000     0.4585570000    -0.8135790000
| 17>  C        5.2874340000     1.3702290000    -1.7841080000
| 18>  N        5.2896000000     1.6951580000    -0.3592940000
| 19>  H        2.4762450000     0.3679040000     2.6284930000
| 20>  H        2.4106370000     1.7245480000     1.4988570000
| 21>  H        3.9552340000     0.9234170000     1.8348760000
| 22>  H        3.1064720000    -1.1616020000     0.7723000000
| 23>  H        0.6815530000     0.3272520000     0.1417500000
| 24>  H        0.7988160000    -0.8781590000     1.2230340000
| 25>  H        2.6869320000     1.2420890000    -1.0454600000
| 26>  H        2.8645800000    -0.4305310000    -1.5575920000
| 27>  H        5.2181820000    -0.4281970000    -0.5275450000
| 28>  H        4.6301770000     1.9305140000    -2.4428900000
| 29>  H        6.2597020000     1.1365920000    -2.2040230000
| 30>  H        4.5785490000     2.3928170000    -0.1643500000
| 31> *
| 32>
| 33>                          ****END OF INPUT****
 Total Charge           Charge          ....    0
 Multiplicity           Mult            ....    1
 Number of Electrons    NEL             ....   56
 Basis Dimension        Dim             ....  158

MULLIKEN ATOMIC CHARGES
-----------------------
   0 C :    0.020467
   1 C :   -0.078486
   2 N :   -0.166830
   3 C :    0.121158
   4 C :   -0.120167
   5 C :    0.044537
   6 N :   -0.198550
   7 H :    0.007330
   8 H :   -0.002431
   9 H :    0.032579
  10 H :    0.004133
  11 H :    0.080844
  12 H :    0.082251
  13 H :   -0.030900
  14 H :    0.022949
  15 H :    0.021269
  16 H :    0.026481
  17 H :    0.031036
  18 H :    0.102331
Sum of atomic charges:   -0.0000000

LOEWDIN ATOMIC CHARGES
----------------------
   0 C :   -0.079943
   1 C :   -0.005101
   2 N :   -0.096904
   3 C :   -0.046524
   4 C :   -0.008219
   5 C :    0.000032
   6 N :   -0.107108
   7 H :    0.021514
   8 H :    0.017040
   9 H :    0.029886
  10 H :    0.022773
  11 H :    0.046689
  12 H :    0.049696
  13 H :    0.017470
  14 H :    0.035021
  15 H :    0.021692
  16 H :    0.014375
  17 H :    0.020395
  18 H :    0.047217

  Mayer bond orders larger than 0.1
B(  0-C ,  1-C ) :   1.0684 B(  0-C ,  7-H ) :   0.9563 B(  0-C ,  8-H ) :   0.9497
B(  0-C ,  9-H ) :   0.9421 B(  1-C ,  2-N ) :   1.0909 B(  1-C ,  3-C ) :   1.0689
B(  1-C , 10-H ) :   0.9050 B(  2-N , 11-H ) :   0.9669 B(  2-N , 12-H ) :   0.9659
B(  3-C ,  4-C ) :   1.0610 B(  3-C , 13-H ) :   0.8890 B(  3-C , 14-H ) :   0.9141
B(  4-C ,  5-C ) :   1.0462 B(  4-C ,  6-N ) :   0.9684 B(  4-C , 15-H ) :   0.9314
B(  5-C ,  6-N ) :   1.0092 B(  5-C , 16-H ) :   0.9404 B(  5-C , 17-H ) :   0.9388
B(  6-N , 18-H ) :   0.9428

FINAL SINGLE POINT ENERGY      -306.581788453262

DIPOLE MOMENT
-------------
                                X             Y             Z
Electronic contribution:      2.01686      -0.23972      -1.60435
Nuclear contribution   :     -2.60000       0.45599       1.67609
                        -----------------------------------------
Total Dipole Moment    :     -0.58314       0.21627       0.07174
                        -----------------------------------------
Magnitude (a.u.)       :      0.62607
Magnitude (Debye)      :      1.59135

                             ****ORCA TERMINATED NORMALLY****
TOTAL RUN TIME: 0 days 0 hours 0 minutes 8 seconds 342 msec
