                         Program Version 3.0.3 - RELEASE   -
|  1> ! RI PBE def2-SVP def2-SVP/J NBO PAL2
|  2> % maxcore 2000
|  3> % output
|  4>     # printlevel mini
|  5>     print[ P_Basis ] 0
|  6>     print[ P_SCFInfo ] 1
|  7>     print[ P_SCFIterInfo ] 1
|  8>     print[ P_OrbEn ] 0
|  9>     print[ P_Cartesian ] 0
| 10> end
| 11> *xyz 0 1
| 12>  C        0.8227800000     0.3592200000     0.0473150000
| 13>  C        2.3425760000     0.1893260000     0.0117200000
| 14>  N        3.0282190000     1.3581070000    -0.5322880000
| 15>  C        2.8318980000    -0.0784950000     1.4176460000
| 16>  C        3.8630560000     0.5114040000     2.0042270000
| 17>  C        2.7747030000    -0.9927320000    -0.8259790000
| 18>  C        1.9916960000    -1.9092100000    -1.3766510000
| 19>  H        0.5657840000     1.2334980000     0.6501130000
| 20>  H        0.3222670000    -0.5071320000     0.4872080000
| 21>  H        0.4300010000     0.5074290000    -0.9617090000
| 22>  H        2.7677780000     2.1853160000    -0.0064140000
| 23>  H        2.7398730000     1.5052460000    -1.4922150000
| 24>  H        2.2659910000    -0.8385370000     1.9511160000
| 25>  H        4.4571820000     1.2524220000     1.4822730000
| 26>  H        4.1488860000     0.2554710000     3.0179190000
| 27>  H        3.8531440000    -1.0525750000    -0.9508130000
| 28>  H        0.9121140000    -1.8892910000    -1.2778230000
| 29>  H        2.4125410000    -2.7253570000    -1.9525440000
| 30> *
| 31>
| 32>                          ****END OF INPUT****
 Total Charge           Charge          ....    0
 Multiplicity           Mult            ....    1
 Number of Electrons    NEL             ....   54
 Basis Dimension        Dim             ....  153

MULLIKEN ATOMIC CHARGES
-----------------------
   0 C :    0.069288
   1 C :   -0.163082
   2 N :   -0.141891
   3 C :   -0.015882
   4 C :   -0.025700
   5 C :    0.010900
   6 C :   -0.033677
   7 H :    0.014327
   8 H :    0.017430
   9 H :    0.012119
  10 H :    0.087439
  11 H :    0.086956
  12 H :   -0.006246
  13 H :    0.022109
  14 H :    0.020076
  15 H :    0.005281
  16 H :    0.019299
  17 H :    0.021252
Sum of atomic charges:    0.0000000

LOEWDIN ATOMIC CHARGES
----------------------
   0 C :   -0.060900
   1 C :   -0.029090
   2 N :   -0.075633
   3 C :   -0.019511
   4 C :   -0.063701
   5 C :   -0.012307
   6 C :   -0.068615
   7 H :    0.025830
   8 H :    0.025298
   9 H :    0.022695
  10 H :    0.050999
  11 H :    0.053301
  12 H :    0.026316
  13 H :    0.022046
  14 H :    0.024570
  15 H :    0.030142
  16 H :    0.021482
  17 H :    0.027076

  Mayer bond orders larger than 0.1
B(  0-C ,  1-C ) :   1.0687 B(  0-C ,  7-H ) :   0.9531 B(  0-C ,  8-H ) :   0.9334
B(  0-C ,  9-H ) :   0.9423 B(  1-C ,  2-N ) :   1.0657 B(  1-C ,  3-C ) :   0.9553
B(  1-C ,  5-C ) :   0.9678 B(  2-N , 10-H ) :   0.9515 B(  2-N , 11-H ) :   0.9622
B(  3-C ,  4-C ) :   2.0062 B(  3-C , 12-H ) :   0.9585 B(  4-C , 13-H ) :   0.9243
B(  4-C , 14-H ) :   0.9369 B(  5-C ,  6-C ) :   1.9915 B(  5-C , 15-H ) :   0.9548
B(  6-C , 16-H ) :   0.9300 B(  6-C , 17-H ) :   0.9359

FINAL SINGLE POINT ENERGY      -289.350403799570

DIPOLE MOMENT
-------------
                                X             Y             Z
Electronic contribution:      2.02888      -0.16918      -0.04509
Nuclear contribution   :     -2.48794       0.37615      -0.05512
                        -----------------------------------------
Total Dipole Moment    :     -0.45906       0.20697      -0.10021
                        -----------------------------------------
Magnitude (a.u.)       :      0.51343
Magnitude (Debye)      :      1.30504

                             ****ORCA TERMINATED NORMALLY****
TOTAL RUN TIME: 0 days 0 hours 0 minutes 8 seconds 19 msec
