                         Program Version 3.0.3 - RELEASE   -
|  1> ! RI PBE def2-SVP def2-SVP/J NBO PAL2
|  2> % maxcore 2000
|  3> % output
|  4>     # printlevel mini
|  5>     print[ P_Basis ] 0
|  6>     print[ P_SCFInfo ] 1
|  7>     print[ P_SCFIterInfo ] 1
|  8>     print[ P_OrbEn ] 0
|  9>     print[ P_Cartesian ] 0
| 10> end
| 11> *xyz 0 1
| 12>  C        0.9375900000     0.1216710000     0.0732170000
| 13>  C        2.4722190000     0.0484900000    -0.0438040000
| 14>  N        3.1220500000    -0.2988950000     1.2264470000
| 15>  C        2.8259110000    -1.0327270000    -1.0405840000
| 16>  C        3.3751540000    -0.8647930000    -2.2306880000
| 17>  C        2.9711660000     1.3595980000    -0.4642570000
| 18>  C        3.3417460000     2.4519000000    -0.7947160000
| 19>  H        0.5471350000    -0.8550790000     0.3718590000
| 20>  H        0.4814070000     0.4021630000    -0.8777170000
| 21>  H        0.6539710000     0.8577380000     0.8287730000
| 22>  H        2.7505890000    -1.1818590000     1.5602100000
| 23>  H        2.9017740000     0.4027250000     1.9243230000
| 24>  H        2.5634110000    -2.0334470000    -0.7004710000
| 25>  H        3.6497370000     0.1201250000    -2.5922010000
| 26>  H        3.5725580000    -1.7113370000    -2.8776350000
| 27>  H        3.6822840000     3.4174300000    -1.0857460000
| 28> *
| 29>
| 30>                          ****END OF INPUT****
 Total Charge           Charge          ....    0
 Multiplicity           Mult            ....    1
 Number of Electrons    NEL             ....   52
 Basis Dimension        Dim             ....  143

MULLIKEN ATOMIC CHARGES
-----------------------
   0 C :    0.096188
   1 C :   -0.119421
   2 N :   -0.143340
   3 C :   -0.020851
   4 C :   -0.002792
   5 C :    0.469870
   6 C :   -0.549693
   7 H :    0.005267
   8 H :    0.027266
   9 H :    0.018640
  10 H :    0.083670
  11 H :    0.091317
  12 H :   -0.003750
  13 H :    0.028260
  14 H :    0.022303
  15 H :   -0.002935
Sum of atomic charges:   -0.0000000

LOEWDIN ATOMIC CHARGES
----------------------
   0 C :   -0.048939
   1 C :   -0.033512
   2 N :   -0.074370
   3 C :   -0.014870
   4 C :   -0.049315
   5 C :    0.001195
   6 C :   -0.081345
   7 H :    0.021939
   8 H :    0.032759
   9 H :    0.026161
  10 H :    0.049433
  11 H :    0.053628
  12 H :    0.024622
  13 H :    0.029496
  14 H :    0.027558
  15 H :    0.035560

  Mayer bond orders larger than 0.1
B(  0-C ,  1-C ) :   1.0259 B(  0-C ,  7-H ) :   0.9467 B(  0-C ,  8-H ) :   0.9495
B(  0-C ,  9-H ) :   0.9503 B(  1-C ,  2-N ) :   1.0149 B(  1-C ,  3-C ) :   0.9341
B(  1-C ,  5-C ) :   0.9338 B(  2-N , 10-H ) :   0.9580 B(  2-N , 11-H ) :   0.9567
B(  3-C ,  4-C ) :   2.0577 B(  3-C , 12-H ) :   0.9485 B(  4-C , 13-H ) :   0.9148
B(  4-C , 14-H ) :   0.9373 B(  5-C ,  6-C ) :   2.2877 B(  5-C , 15-H ) :  -0.1226
B(  6-C , 15-H ) :   1.1112

FINAL SINGLE POINT ENERGY      -288.100127018925

DIPOLE MOMENT
-------------
                                X             Y             Z
Electronic contribution:      2.64092       2.24610      -0.13670
Nuclear contribution   :     -3.19592      -2.34635       0.35513
                        -----------------------------------------
Total Dipole Moment    :     -0.55501      -0.10025       0.21843
                        -----------------------------------------
Magnitude (a.u.)       :      0.60481
Magnitude (Debye)      :      1.53730

                             ****ORCA TERMINATED NORMALLY****
TOTAL RUN TIME: 0 days 0 hours 0 minutes 7 seconds 508 msec
