                         Program Version 3.0.3 - RELEASE   -
|  1> ! RI PBE def2-SVP def2-SVP/J NBO PAL2
|  2> % maxcore 2000
|  3> % output
|  4>     # printlevel mini
|  5>     print[ P_Basis ] 0
|  6>     print[ P_SCFInfo ] 1
|  7>     print[ P_SCFIterInfo ] 1
|  8>     print[ P_OrbEn ] 0
|  9>     print[ P_Cartesian ] 0
| 10> end
| 11> *xyz 0 1
| 12>  C        1.0419420000     0.0442500000     0.0711790000
| 13>  C        2.5830110000     0.0227030000     0.0242100000
| 14>  N        3.1228060000    -0.7208810000    -1.1177060000
| 15>  C        3.0712250000     1.4073390000    -0.0570000000
| 16>  C        3.4244820000     2.5495340000    -0.1451140000
| 17>  C        3.0831750000    -0.6025580000     1.2575350000
| 18>  C        3.4463190000    -1.1380550000     2.2667610000
| 19>  H        0.6592900000     0.5115680000    -0.8382970000
| 20>  H        0.6828290000     0.6065020000     0.9341730000
| 21>  H        0.6681790000    -0.9794430000     0.1368580000
| 22>  H        2.7831370000    -0.3038110000    -1.9769460000
| 23>  H        2.7899050000    -1.6776020000    -1.0792060000
| 24>  H        3.7548820000     3.5588080000    -0.2164750000
| 25>  H        3.7854280000    -1.6051550000     3.1610280000
| 26> *
| 27>
| 28>                          ****END OF INPUT****
 Total Charge           Charge          ....    0
 Multiplicity           Mult            ....    1
 Number of Electrons    NEL             ....   50
 Basis Dimension        Dim             ....  133

MULLIKEN ATOMIC CHARGES
-----------------------
   0 C :    0.092852
   1 C :   -0.135321
   2 N :   -0.130863
   3 C :    0.487885
   4 C :   -0.532278
   5 C :    0.485415
   6 C :   -0.531948
   7 H :    0.020176
   8 H :    0.035491
   9 H :    0.019877
  10 H :    0.093813
  11 H :    0.094644
  12 H :    0.000295
  13 H :   -0.000036
Sum of atomic charges:   -0.0000000

LOEWDIN ATOMIC CHARGES
----------------------
   0 C :   -0.041541
   1 C :   -0.033908
   2 N :   -0.067273
   3 C :   -0.000212
   4 C :   -0.067340
   5 C :   -0.000171
   6 C :   -0.067144
   7 H :    0.027732
   8 H :    0.036449
   9 H :    0.027533
  10 H :    0.055654
  11 H :    0.055870
  12 H :    0.037178
  13 H :    0.037172

  Mayer bond orders larger than 0.1
B(  0-C ,  1-C ) :   1.0573 B(  0-C ,  7-H ) :   0.9494 B(  0-C ,  8-H ) :   0.9475
B(  0-C ,  9-H ) :   0.9500 B(  1-C ,  2-N ) :   1.0695 B(  1-C ,  3-C ) :   0.9041
B(  1-C ,  5-C ) :   0.9058 B(  2-N , 10-H ) :   0.9558 B(  2-N , 11-H ) :   0.9551
B(  3-C ,  4-C ) :   2.3141 B(  3-C , 12-H ) :  -0.1251 B(  4-C , 12-H ) :   1.1140
B(  5-C ,  6-C ) :   2.3161 B(  5-C , 13-H ) :  -0.1238 B(  6-C , 13-H ) :   1.1127

FINAL SINGLE POINT ENERGY      -286.852060877839

DIPOLE MOMENT
-------------
                                X             Y             Z
Electronic contribution:      3.45013       1.00783       1.50929
Nuclear contribution   :     -4.07147      -1.13068      -1.69326
                        -----------------------------------------
Total Dipole Moment    :     -0.62134      -0.12285      -0.18398
                        -----------------------------------------
Magnitude (a.u.)       :      0.65954
Magnitude (Debye)      :      1.67642

                             ****ORCA TERMINATED NORMALLY****
TOTAL RUN TIME: 0 days 0 hours 0 minutes 6 seconds 349 msec
