                         Program Version 3.0.3 - RELEASE   -
|  1> ! RI PBE def2-SVP def2-SVP/J NBO PAL2
|  2> % maxcore 2000
|  3> % output
|  4>     # printlevel mini
|  5>     print[ P_Basis ] 0
|  6>     print[ P_SCFInfo ] 1
|  7>     print[ P_SCFIterInfo ] 1
|  8>     print[ P_OrbEn ] 0
|  9>     print[ P_Cartesian ] 0
| 10> end
| 11> *xyz 0 1
| 12>  C        2.1189150000    -0.9771470000     1.4298800000
| 13>  C        2.7901720000    -0.3993930000     0.1835970000
| 14>  N        1.9271290000    -0.4013130000    -0.9995620000
| 15>  C        3.2508670000     1.0003430000     0.4482730000
| 16>  C        4.4780460000     1.5086500000     0.3430440000
| 17>  C        5.6869850000     0.7445740000    -0.0970670000
| 18>  C        4.7401370000     2.9476700000     0.6668640000
| 19>  H        1.7628570000    -1.9943700000     1.2414640000
| 20>  H        1.2578330000    -0.3667920000     1.7199630000
| 21>  H        2.8100310000    -1.0103300000     2.2763660000
| 22>  H        3.6523010000    -1.0283150000    -0.0561140000
| 23>  H        1.1923460000     0.2894030000    -0.8894480000
| 24>  H        1.4668560000    -1.3004400000    -1.0923970000
| 25>  H        2.4563910000     1.6739630000     0.7748010000
| 26>  H        5.4728550000    -0.2905680000    -0.3571210000
| 27>  H        6.4514360000     0.7500590000     0.6875580000
| 28>  H        6.1375550000     1.2245320000    -0.9721870000
| 29>  H        3.8329420000     3.4647750000     0.9825790000
| 30>  H        5.1509670000     3.4731850000    -0.2021090000
| 31>  H        5.4839900000     3.0399050000     1.4659970000
| 32> *
| 33>
| 34>                          ****END OF INPUT****
 Total Charge           Charge          ....    0
 Multiplicity           Mult            ....    1
 Number of Electrons    NEL             ....   56
 Basis Dimension        Dim             ....  163

MULLIKEN ATOMIC CHARGES
-----------------------
   0 C :    0.025241
   1 C :   -0.017111
   2 N :   -0.164402
   3 C :   -0.026230
   4 C :   -0.196090
   5 C :    0.059126
   6 C :    0.040613
   7 H :    0.006359
   8 H :    0.003468
   9 H :    0.017829
  10 H :   -0.000951
  11 H :    0.078481
  12 H :    0.076041
  13 H :   -0.034900
  14 H :    0.014571
  15 H :    0.028533
  16 H :    0.022259
  17 H :    0.012278
  18 H :    0.028442
  19 H :    0.026445
Sum of atomic charges:    0.0000000

LOEWDIN ATOMIC CHARGES
----------------------
   0 C :   -0.075571
   1 C :   -0.006592
   2 N :   -0.096331
   3 C :   -0.055685
   4 C :   -0.038031
   5 C :   -0.058824
   6 C :   -0.057045
   7 H :    0.019681
   8 H :    0.018933
   9 H :    0.026816
  10 H :    0.020135
  11 H :    0.045530
  12 H :    0.045892
  13 H :    0.016083
  14 H :    0.028008
  15 H :    0.035464
  16 H :    0.036604
  17 H :    0.028008
  18 H :    0.034020
  19 H :    0.032904

  Mayer bond orders larger than 0.1
B(  0-C ,  1-C ) :   1.0562 B(  0-C ,  7-H ) :   0.9509 B(  0-C ,  8-H ) :   0.9519
B(  0-C ,  9-H ) :   0.9501 B(  1-C ,  2-N ) :   1.0705 B(  1-C ,  3-C ) :   1.0129
B(  1-C , 10-H ) :   0.9056 B(  2-N , 11-H ) :   0.9655 B(  2-N , 12-H ) :   0.9645
B(  3-C ,  4-C ) :   1.9213 B(  3-C , 13-H ) :   0.9179 B(  4-C ,  5-C ) :   1.1048
B(  4-C ,  6-C ) :   1.0820 B(  5-C , 14-H ) :   0.9430 B(  5-C , 15-H ) :   0.9424
B(  5-C , 16-H ) :   0.9374 B(  6-C , 17-H ) :   0.9510 B(  6-C , 18-H ) :   0.9451
B(  6-C , 19-H ) :   0.9472

FINAL SINGLE POINT ENERGY      -290.579627354069

DIPOLE MOMENT
-------------
                                X             Y             Z
Electronic contribution:     -1.07768      -0.06840      -1.57106
Nuclear contribution   :      0.97593       0.01205       1.86391
                        -----------------------------------------
Total Dipole Moment    :     -0.10175      -0.05635       0.29285
                        -----------------------------------------
Magnitude (a.u.)       :      0.31510
Magnitude (Debye)      :      0.80092

                             ****ORCA TERMINATED NORMALLY****
TOTAL RUN TIME: 0 days 0 hours 0 minutes 8 seconds 29 msec
