                         Program Version 3.0.3 - RELEASE   -
|  1> ! RI PBE def2-SVP def2-SVP/J NBO PAL2
|  2> % maxcore 2000
|  3> % output
|  4>     # printlevel mini
|  5>     print[ P_Basis ] 0
|  6>     print[ P_SCFInfo ] 1
|  7>     print[ P_SCFIterInfo ] 1
|  8>     print[ P_OrbEn ] 0
|  9>     print[ P_Cartesian ] 0
| 10> end
| 11> *xyz 0 1
| 12>  C        0.8829980000     0.5313990000     0.2745600000
| 13>  C        2.3335350000     0.1064890000     0.0955000000
| 14>  N        3.0886060000     0.0002220000     1.3426280000
| 15>  C        2.5125160000    -1.1768770000    -0.6555680000
| 16>  C        1.5559110000    -1.9192960000    -1.2169500000
| 17>  C        1.8141790000    -3.1536280000    -1.9297120000
| 18>  C        0.8717770000    -3.9048350000    -2.4988850000
| 19>  H        0.8355580000     1.4760620000     0.8216520000
| 20>  H        0.3244850000    -0.2165420000     0.8449700000
| 21>  H        0.3787420000     0.6770230000    -0.6844320000
| 22>  H        2.8418400000     0.8846790000    -0.4931090000
| 23>  H        2.6712830000    -0.7077940000     1.9369460000
| 24>  H        3.0514460000     0.8756590000     1.8513260000
| 25>  H        3.5462930000    -1.5115520000    -0.7183070000
| 26>  H        0.5159650000    -1.6062970000    -1.1567670000
| 27>  H        2.8543740000    -3.4673410000    -1.9902640000
| 28>  H       -0.1756280000    -3.6226320000    -2.4587040000
| 29>  H        1.1149430000    -4.8220300000    -3.0209840000
| 30> *
| 31>
| 32>                          ****END OF INPUT****
 Total Charge           Charge          ....    0
 Multiplicity           Mult            ....    1
 Number of Electrons    NEL             ....   54
 Basis Dimension        Dim             ....  153

MULLIKEN ATOMIC CHARGES
-----------------------
   0 C :    0.029898
   1 C :    0.016020
   2 N :   -0.197376
   3 C :   -0.075249
   4 C :    0.019015
   5 C :   -0.006859
   6 C :   -0.033417
   7 H :    0.008277
   8 H :    0.016785
   9 H :    0.021676
  10 H :    0.017096
  11 H :    0.087523
  12 H :    0.083690
  13 H :   -0.002365
  14 H :   -0.017617
  15 H :   -0.008560
  16 H :    0.017819
  17 H :    0.023641
Sum of atomic charges:   -0.0000000

LOEWDIN ATOMIC CHARGES
----------------------
   0 C :   -0.078145
   1 C :   -0.007183
   2 N :   -0.094109
   3 C :   -0.024734
   4 C :   -0.045659
   5 C :   -0.029604
   6 C :   -0.057638
   7 H :    0.023545
   8 H :    0.023406
   9 H :    0.027666
  10 H :    0.035583
  11 H :    0.050203
  12 H :    0.049256
  13 H :    0.026714
  14 H :    0.024939
  15 H :    0.028948
  16 H :    0.021902
  17 H :    0.024910

  Mayer bond orders larger than 0.1
B(  0-C ,  1-C ) :   1.1099 B(  0-C ,  7-H ) :   0.9501 B(  0-C ,  8-H ) :   0.9435
B(  0-C ,  9-H ) :   0.9332 B(  1-C ,  2-N ) :   1.0589 B(  1-C ,  3-C ) :   1.0086
B(  1-C , 10-H ) :   0.8795 B(  2-N , 11-H ) :   0.9717 B(  2-N , 12-H ) :   0.9659
B(  3-C ,  4-C ) :   1.7735 B(  3-C ,  6-C ) :   0.1367 B(  3-C , 13-H ) :   0.9693
B(  4-C ,  5-C ) :   1.1258 B(  4-C , 14-H ) :   0.9452 B(  5-C ,  6-C ) :   1.8837
B(  5-C , 15-H ) :   0.9667 B(  6-C , 16-H ) :   0.9464 B(  6-C , 17-H ) :   0.9405

FINAL SINGLE POINT ENERGY      -289.362808399694

DIPOLE MOMENT
-------------
                                X             Y             Z
Electronic contribution:      2.05432      -1.82759      -1.07839
Nuclear contribution   :     -2.38251       2.14057       1.36788
                        -----------------------------------------
Total Dipole Moment    :     -0.32819       0.31298       0.28949
                        -----------------------------------------
Magnitude (a.u.)       :      0.53802
Magnitude (Debye)      :      1.36754

                             ****ORCA TERMINATED NORMALLY****
TOTAL RUN TIME: 0 days 0 hours 0 minutes 7 seconds 680 msec
