                         Program Version 3.0.3 - RELEASE   -
|  1> ! RI PBE def2-SVP def2-SVP/J NBO PAL2
|  2> % maxcore 2000
|  3> % output
|  4>     # printlevel mini
|  5>     print[ P_Basis ] 0
|  6>     print[ P_SCFInfo ] 1
|  7>     print[ P_SCFIterInfo ] 1
|  8>     print[ P_OrbEn ] 0
|  9>     print[ P_Cartesian ] 0
| 10> end
| 11> *xyz 0 1
| 12>  C        0.8029610000     0.0185780000     0.0586350000
| 13>  C        2.3289690000     0.0653010000    -0.0376990000
| 14>  N        3.0134060000    -0.6916910000     1.0078520000
| 15>  C        2.7795190000    -0.4357560000    -1.3720580000
| 16>  C        3.3434760000     0.3205560000    -2.3141150000
| 17>  C        3.7402990000    -0.1566940000    -3.5883210000
| 18>  C        4.0887490000    -0.5296950000    -4.6782790000
| 19>  H        0.4728090000     0.3788630000     1.0370730000
| 20>  H        0.4412690000    -1.0070070000    -0.0630880000
| 21>  H        0.3331310000     0.6367460000    -0.7103890000
| 22>  H        2.6518730000     1.1078930000     0.0590240000
| 23>  H        2.7791270000    -1.6761160000     0.9336700000
| 24>  H        2.6932870000    -0.3872220000     1.9202790000
| 25>  H        2.6078080000    -1.4917900000    -1.5756140000
| 26>  H        3.5235540000     1.3754360000    -2.1173760000
| 27>  H        4.3956820000    -0.8685930000    -5.6391040000
| 28> *
| 29>
| 30>                          ****END OF INPUT****
 Total Charge           Charge          ....    0
 Multiplicity           Mult            ....    1
 Number of Electrons    NEL             ....   52
 Basis Dimension        Dim             ....  143

MULLIKEN ATOMIC CHARGES
-----------------------
   0 C :    0.035533
   1 C :   -0.015850
   2 N :   -0.177792
   3 C :    0.007655
   4 C :   -0.062858
   5 C :    0.382017
   6 C :   -0.414893
   7 H :    0.013462
   8 H :    0.007033
   9 H :    0.022201
  10 H :    0.001018
  11 H :    0.085015
  12 H :    0.084374
  13 H :    0.003646
  14 H :    0.024645
  15 H :    0.004793
Sum of atomic charges:   -0.0000000

LOEWDIN ATOMIC CHARGES
----------------------
   0 C :   -0.072137
   1 C :   -0.005364
   2 N :   -0.093401
   3 C :    0.009793
   4 C :   -0.054472
   5 C :   -0.018968
   6 C :   -0.070144
   7 H :    0.023016
   8 H :    0.021658
   9 H :    0.029450
  10 H :    0.025285
  11 H :    0.048332
  12 H :    0.050409
  13 H :    0.028614
  14 H :    0.042505
  15 H :    0.035424

  Mayer bond orders larger than 0.1
B(  0-C ,  1-C ) :   1.0485 B(  0-C ,  7-H ) :   0.9540 B(  0-C ,  8-H ) :   0.9547
B(  0-C ,  9-H ) :   0.9493 B(  1-C ,  2-N ) :   1.0521 B(  1-C ,  3-C ) :   1.0122
B(  1-C , 10-H ) :   0.9111 B(  2-N , 11-H ) :   0.9671 B(  2-N , 12-H ) :   0.9647
B(  3-C ,  4-C ) :   1.8450 B(  3-C ,  6-C ) :   0.1316 B(  3-C , 13-H ) :   0.9469
B(  4-C ,  5-C ) :   1.0398 B(  4-C , 14-H ) :   0.9375 B(  5-C ,  6-C ) :   2.2804
B(  6-C , 15-H ) :   1.0848

FINAL SINGLE POINT ENERGY      -288.114094919534

DIPOLE MOMENT
-------------
                                X             Y             Z
Electronic contribution:      4.47207      -0.05900      -5.83134
Nuclear contribution   :     -5.06631      -0.01737       6.25451
                        -----------------------------------------
Total Dipole Moment    :     -0.59425      -0.07637       0.42317
                        -----------------------------------------
Magnitude (a.u.)       :      0.73351
Magnitude (Debye)      :      1.86443

                             ****ORCA TERMINATED NORMALLY****
TOTAL RUN TIME: 0 days 0 hours 0 minutes 7 seconds 345 msec
