                         Program Version 3.0.3 - RELEASE   -
|  1> ! RI PBE def2-SVP def2-SVP/J NBO PAL2
|  2> % maxcore 2000
|  3> % output
|  4>     # printlevel mini
|  5>     print[ P_Basis ] 0
|  6>     print[ P_SCFInfo ] 1
|  7>     print[ P_SCFIterInfo ] 1
|  8>     print[ P_OrbEn ] 0
|  9>     print[ P_Cartesian ] 0
| 10> end
| 11> *xyz 0 1
| 12>  C        1.0385720000    -0.2407490000     0.3082240000
| 13>  C        2.4965690000     0.1238880000     0.0158400000
| 14>  N        3.1528680000    -0.8079890000    -0.8857230000
| 15>  C        2.6060400000     1.5501410000    -0.4762370000
| 16>  C        3.2039570000     1.8743790000    -1.6216780000
| 17>  C        2.0440240000     2.5710400000     0.4193420000
| 18>  C        1.4059490000     3.6734250000     0.0395700000
| 19>  H        0.9759200000    -1.2501240000     0.7230740000
| 20>  H        0.4527510000    -0.2117790000    -0.6153860000
| 21>  H        0.5732280000     0.4477130000     1.0174300000
| 22>  H        3.0495530000     0.0828700000     0.9651360000
| 23>  H        2.6200730000    -0.8869590000    -1.7458110000
| 24>  H        3.1658220000    -1.7314770000    -0.4707280000
| 25>  H        3.6458430000     1.1195810000    -2.2590160000
| 26>  H        3.3050540000     2.9113720000    -1.9195540000
| 27>  H        2.1650690000     2.3827060000     1.4858430000
| 28>  H        1.2150840000     3.8847020000    -1.0072310000
| 29>  H        1.0487330000     4.3950510000     0.7647050000
| 30> *
| 31>
| 32>                          ****END OF INPUT****
 Total Charge           Charge          ....    0
 Multiplicity           Mult            ....    1
 Number of Electrons    NEL             ....   54
 Basis Dimension        Dim             ....  153

MULLIKEN ATOMIC CHARGES
-----------------------
   0 C :    0.012387
   1 C :   -0.008787
   2 N :   -0.164391
   3 C :   -0.068306
   4 C :   -0.026390
   5 C :   -0.027307
   6 C :   -0.028447
   7 H :    0.010827
   8 H :    0.015429
   9 H :    0.021085
  10 H :    0.015170
  11 H :    0.089976
  12 H :    0.084608
  13 H :    0.012212
  14 H :    0.009998
  15 H :    0.005782
  16 H :    0.020649
  17 H :    0.025505
Sum of atomic charges:    0.0000000

LOEWDIN ATOMIC CHARGES
----------------------
   0 C :   -0.073622
   1 C :    0.001272
   2 N :   -0.085368
   3 C :   -0.039683
   4 C :   -0.052048
   5 C :   -0.027252
   6 C :   -0.048313
   7 H :    0.020704
   8 H :    0.025130
   9 H :    0.027020
  10 H :    0.031800
  11 H :    0.049832
  12 H :    0.052706
  13 H :    0.020076
  14 H :    0.021407
  15 H :    0.027725
  16 H :    0.023358
  17 H :    0.025258

  Mayer bond orders larger than 0.1
B(  0-C ,  1-C ) :   1.0656 B(  0-C ,  7-H ) :   0.9578 B(  0-C ,  8-H ) :   0.9542
B(  0-C ,  9-H ) :   0.9381 B(  1-C ,  2-N ) :   1.1245 B(  1-C ,  3-C ) :   0.9762
B(  1-C , 10-H ) :   0.8884 B(  2-N , 11-H ) :   0.9600 B(  2-N , 12-H ) :   0.9648
B(  3-C ,  4-C ) :   1.9665 B(  3-C ,  5-C ) :   1.0469 B(  4-C , 13-H ) :   0.9125
B(  4-C , 14-H ) :   0.9295 B(  5-C ,  6-C ) :   1.9595 B(  5-C , 15-H ) :   0.9443
B(  6-C , 16-H ) :   0.9481 B(  6-C , 17-H ) :   0.9387

FINAL SINGLE POINT ENERGY      -289.355061417895

DIPOLE MOMENT
-------------
                                X             Y             Z
Electronic contribution:      2.13919       1.33571      -0.29220
Nuclear contribution   :     -2.54420      -1.73332       0.44768
                        -----------------------------------------
Total Dipole Moment    :     -0.40501      -0.39762       0.15548
                        -----------------------------------------
Magnitude (a.u.)       :      0.58848
Magnitude (Debye)      :      1.49579

                             ****ORCA TERMINATED NORMALLY****
TOTAL RUN TIME: 0 days 0 hours 0 minutes 7 seconds 899 msec
