                         Program Version 3.0.3 - RELEASE   -
|  1> ! RI PBE def2-SVP def2-SVP/J NBO PAL2
|  2> % maxcore 2000
|  3> % output
|  4>     # printlevel mini
|  5>     print[ P_Basis ] 0
|  6>     print[ P_SCFInfo ] 1
|  7>     print[ P_SCFIterInfo ] 1
|  8>     print[ P_OrbEn ] 0
|  9>     print[ P_Cartesian ] 0
| 10> end
| 11> *xyz 0 1
| 12>  C        0.9673800000     0.0293170000     0.0721280000
| 13>  C        2.4863370000     0.1031240000    -0.0748160000
| 14>  N        3.2133470000     0.0577000000     1.1875060000
| 15>  C        2.9912920000    -1.0026580000    -0.9782390000
| 16>  C        3.4936890000    -0.7679470000    -2.1907320000
| 17>  C        2.8853280000    -2.3299340000    -0.4683600000
| 18>  C        2.7829440000    -3.4296510000     0.0103660000
| 19>  H        0.6131530000     0.8407400000     0.7138240000
| 20>  H        0.6709920000    -0.9197240000     0.5267990000
| 21>  H        0.4667030000     0.1164000000    -0.8956150000
| 22>  H        2.7445670000     1.0474230000    -0.5651670000
| 23>  H        3.0852790000    -0.8504580000     1.6221040000
| 24>  H        2.8353960000     0.7464070000     1.8275290000
| 25>  H        3.5799890000     0.2451570000    -2.5662730000
| 26>  H        3.8302150000    -1.5745630000    -2.8299590000
| 27>  H        2.7014880000    -4.4116540000     0.4128250000
| 28> *
| 29>
| 30>                          ****END OF INPUT****
 Total Charge           Charge          ....    0
 Multiplicity           Mult            ....    1
 Number of Electrons    NEL             ....   52
 Basis Dimension        Dim             ....  143

MULLIKEN ATOMIC CHARGES
-----------------------
   0 C :    0.045436
   1 C :    0.012088
   2 N :   -0.174546
   3 C :   -0.117690
   4 C :    0.013368
   5 C :    0.444350
   6 C :   -0.481161
   7 H :    0.012875
   8 H :    0.019205
   9 H :    0.013062
  10 H :   -0.012732
  11 H :    0.090058
  12 H :    0.086130
  13 H :    0.020718
  14 H :    0.023944
  15 H :    0.004895
Sum of atomic charges:   -0.0000000

LOEWDIN ATOMIC CHARGES
----------------------
   0 C :   -0.071727
   1 C :    0.009852
   2 N :   -0.092343
   3 C :   -0.041774
   4 C :   -0.020784
   5 C :   -0.007919
   6 C :   -0.070240
   7 H :    0.022658
   8 H :    0.025934
   9 H :    0.027659
  10 H :    0.024482
  11 H :    0.050136
  12 H :    0.050754
  13 H :    0.026182
  14 H :    0.030183
  15 H :    0.036947

  Mayer bond orders larger than 0.1
B(  0-C ,  1-C ) :   1.0609 B(  0-C ,  7-H ) :   0.9552 B(  0-C ,  8-H ) :   0.9537
B(  0-C ,  9-H ) :   0.9437 B(  1-C ,  2-N ) :   1.0820 B(  1-C ,  3-C ) :   1.0054
B(  1-C , 10-H ) :   0.8877 B(  2-N , 11-H ) :   0.9615 B(  2-N , 12-H ) :   0.9644
B(  3-C ,  4-C ) :   1.9397 B(  3-C ,  5-C ) :   0.9763 B(  4-C ,  6-C ) :   0.1268
B(  4-C , 13-H ) :   0.9286 B(  4-C , 14-H ) :   0.9346 B(  5-C ,  6-C ) :   2.2140
B(  5-C , 15-H ) :  -0.1098 B(  6-C , 15-H ) :   1.0996

FINAL SINGLE POINT ENERGY      -288.113268801412

DIPOLE MOMENT
-------------
                                X             Y             Z
Electronic contribution:      2.74185      -3.72240      -0.75249
Nuclear contribution   :     -3.20452       3.77915       0.91236
                        -----------------------------------------
Total Dipole Moment    :     -0.46267       0.05675       0.15987
                        -----------------------------------------
Magnitude (a.u.)       :      0.49279
Magnitude (Debye)      :      1.25258

                             ****ORCA TERMINATED NORMALLY****
TOTAL RUN TIME: 0 days 0 hours 0 minutes 7 seconds 105 msec
