                         Program Version 3.0.3 - RELEASE   -
|  1> ! RI PBE def2-SVP def2-SVP/J NBO PAL2
|  2> % maxcore 2000
|  3> % output
|  4>     # printlevel mini
|  5>     print[ P_Basis ] 0
|  6>     print[ P_SCFInfo ] 1
|  7>     print[ P_SCFIterInfo ] 1
|  8>     print[ P_OrbEn ] 0
|  9>     print[ P_Cartesian ] 0
| 10> end
| 11> *xyz 0 1
| 12>  C        3.0448410000    -1.1797560000    -0.5860590000
| 13>  C        2.4996830000     0.1009300000     0.0409460000
| 14>  N        1.0387290000     0.1262880000     0.0782030000
| 15>  C        3.0729840000     0.4207190000     1.4448350000
| 16>  C        2.6387170000     1.8322080000     1.8370600000
| 17>  C        2.5582960000    -0.5663550000     2.4914970000
| 18>  C        4.5996390000     0.3719130000     1.4134820000
| 19>  H        2.5811820000    -1.3355940000    -1.5637300000
| 20>  H        2.8134980000    -2.0547620000     0.0289200000
| 21>  H        4.1256620000    -1.1494560000    -0.7373020000
| 22>  H        2.8016570000     0.9389510000    -0.6003400000
| 23>  H        0.6861780000    -0.7342580000     0.4822570000
| 24>  H        0.6696070000     0.1692170000    -0.8636260000
| 25>  H        1.5524370000     1.9236240000     1.8097640000
| 26>  H        3.0586080000     2.5732080000     1.1496820000
| 27>  H        2.9887280000     2.0761950000     2.8441050000
| 28>  H        1.4737660000    -0.4967810000     2.6040920000
| 29>  H        3.0012180000    -0.3447680000     3.4662480000
| 30>  H        2.8175110000    -1.5995430000     2.2447880000
| 31>  H        4.9995550000     0.9992040000     0.6104600000
| 32>  H        4.9791220000    -0.6423980000     1.2713070000
| 33>  H        5.0063840000     0.7452940000     2.3571120000
| 34> *
| 35>
| 36>                          ****END OF INPUT****
 Total Charge           Charge          ....    0
 Multiplicity           Mult            ....    1
 Number of Electrons    NEL             ....   58
 Basis Dimension        Dim             ....  173

MULLIKEN ATOMIC CHARGES
-----------------------
   0 C :    0.046065
   1 C :   -0.039784
   2 N :   -0.157329
   3 C :   -0.314196
   4 C :    0.087864
   5 C :    0.039744
   6 C :    0.078870
   7 H :   -0.000036
   8 H :    0.004963
   9 H :    0.015102
  10 H :   -0.006403
  11 H :    0.081939
  12 H :    0.085469
  13 H :    0.019184
  14 H :   -0.005012
  15 H :    0.000296
  16 H :    0.021551
  17 H :    0.008434
  18 H :    0.009710
  19 H :    0.007081
  20 H :    0.011931
  21 H :    0.004557
Sum of atomic charges:   -0.0000000

LOEWDIN ATOMIC CHARGES
----------------------
   0 C :   -0.077719
   1 C :    0.004223
   2 N :   -0.086338
   3 C :   -0.067229
   4 C :   -0.049530
   5 C :   -0.055115
   6 C :   -0.047594
   7 H :    0.020685
   8 H :    0.020011
   9 H :    0.025104
  10 H :    0.019419
  11 H :    0.045905
  12 H :    0.050950
  13 H :    0.022996
  14 H :    0.019588
  15 H :    0.018871
  16 H :    0.024201
  17 H :    0.026107
  18 H :    0.019385
  19 H :    0.022073
  20 H :    0.020244
  21 H :    0.023763

  Mayer bond orders larger than 0.1
B(  0-C ,  1-C ) :   1.0819 B(  0-C ,  7-H ) :   0.9503 B(  0-C ,  8-H ) :   0.9481
B(  0-C ,  9-H ) :   0.9397 B(  1-C ,  2-N ) :   1.1100 B(  1-C ,  3-C ) :   0.9798
B(  1-C , 10-H ) :   0.9071 B(  2-N , 11-H ) :   0.9636 B(  2-N , 12-H ) :   0.9654
B(  3-C ,  4-C ) :   1.0523 B(  3-C ,  5-C ) :   1.0381 B(  3-C ,  6-C ) :   1.0538
B(  4-C , 13-H ) :   0.9488 B(  4-C , 14-H ) :   0.9505 B(  4-C , 15-H ) :   0.9550
B(  5-C , 16-H ) :   0.9559 B(  5-C , 17-H ) :   0.9539 B(  5-C , 18-H ) :   0.9559
B(  6-C , 19-H ) :   0.9557 B(  6-C , 20-H ) :   0.9517 B(  6-C , 21-H ) :   0.9528

FINAL SINGLE POINT ENERGY      -291.796027111463

DIPOLE MOMENT
-------------
                                X             Y             Z
Electronic contribution:     -1.96250       0.64860      -1.12249
Nuclear contribution   :      1.96609      -1.03009       0.80161
                        -----------------------------------------
Total Dipole Moment    :      0.00359      -0.38149      -0.32088
                        -----------------------------------------
Magnitude (a.u.)       :      0.49851
Magnitude (Debye)      :      1.26711

                             ****ORCA TERMINATED NORMALLY****
TOTAL RUN TIME: 0 days 0 hours 0 minutes 9 seconds 304 msec
