                         Program Version 3.0.3 - RELEASE   -
|  1> ! RI PBE def2-SVP def2-SVP/J NBO PAL2
|  2> % maxcore 2000
|  3> % output
|  4>     # printlevel mini
|  5>     print[ P_Basis ] 0
|  6>     print[ P_SCFInfo ] 1
|  7>     print[ P_SCFIterInfo ] 1
|  8>     print[ P_OrbEn ] 0
|  9>     print[ P_Cartesian ] 0
| 10> end
| 11> *xyz 0 1
| 12>  C        3.5322420000     1.0721400000     0.8001420000
| 13>  C        2.7492650000     0.7074590000    -0.4541770000
| 14>  N        2.6293110000     1.8029370000    -1.4114780000
| 15>  C        3.3270130000    -0.5445390000    -1.1475300000
| 16>  C        2.3364630000    -1.1076410000    -2.1622830000
| 17>  C        4.6421160000    -0.2639630000    -1.8057560000
| 18>  C        5.8141900000    -0.7550640000    -1.4259810000
| 19>  H        3.0919570000     1.9458030000     1.2880500000
| 20>  H        4.5711610000     1.3079400000     0.5518060000
| 21>  H        3.5400800000     0.2507370000     1.5227710000
| 22>  H        1.7266440000     0.4454320000    -0.1573280000
| 23>  H        3.5372810000     2.2263520000    -1.5689550000
| 24>  H        2.0356610000     2.5314000000    -1.0350840000
| 25>  H        3.4953420000    -1.2923080000    -0.3634910000
| 26>  H        2.1042640000    -0.3568620000    -2.9203110000
| 27>  H        1.4009370000    -1.3923200000    -1.6728640000
| 28>  H        2.7426320000    -1.9911970000    -2.6592880000
| 29>  H        4.6007050000     0.3829240000    -2.6813440000
| 30>  H        5.9005120000    -1.4174630000    -0.5695800000
| 31>  H        6.7288150000    -0.5214790000    -1.9594180000
| 32> *
| 33>
| 34>                          ****END OF INPUT****
 Total Charge           Charge          ....    0
 Multiplicity           Mult            ....    1
 Number of Electrons    NEL             ....   56
 Basis Dimension        Dim             ....  163

MULLIKEN ATOMIC CHARGES
-----------------------
   0 C :    0.042847
   1 C :   -0.053368
   2 N :   -0.174695
   3 C :   -0.034353
   4 C :    0.048342
   5 C :   -0.068886
   6 C :   -0.031537
   7 H :    0.004454
   8 H :    0.014325
   9 H :    0.010496
  10 H :   -0.007459
  11 H :    0.084002
  12 H :    0.090133
  13 H :   -0.009419
  14 H :    0.022929
  15 H :    0.003985
  16 H :    0.016756
  17 H :    0.005937
  18 H :    0.015749
  19 H :    0.019761
Sum of atomic charges:   -0.0000000

LOEWDIN ATOMIC CHARGES
----------------------
   0 C :   -0.079686
   1 C :    0.003998
   2 N :   -0.091180
   3 C :   -0.045108
   4 C :   -0.052919
   5 C :   -0.022750
   6 C :   -0.067723
   7 H :    0.019927
   8 H :    0.023494
   9 H :    0.025260
  10 H :    0.019995
  11 H :    0.047248
  12 H :    0.052509
  13 H :    0.025584
  14 H :    0.025816
  15 H :    0.023277
  16 H :    0.024608
  17 H :    0.024710
  18 H :    0.020174
  19 H :    0.022767

  Mayer bond orders larger than 0.1
B(  0-C ,  1-C ) :   1.0796 B(  0-C ,  7-H ) :   0.9552 B(  0-C ,  8-H ) :   0.9466
B(  0-C ,  9-H ) :   0.9437 B(  1-C ,  2-N ) :   1.1077 B(  1-C ,  3-C ) :   1.0003
B(  1-C , 10-H ) :   0.9092 B(  2-N , 11-H ) :   0.9640 B(  2-N , 12-H ) :   0.9666
B(  3-C ,  4-C ) :   1.0672 B(  3-C ,  5-C ) :   1.0197 B(  3-C , 13-H ) :   0.9078
B(  4-C , 14-H ) :   0.9542 B(  4-C , 15-H ) :   0.9508 B(  4-C , 16-H ) :   0.9621
B(  5-C ,  6-C ) :   1.9926 B(  5-C , 17-H ) :   0.9525 B(  6-C , 18-H ) :   0.9462
B(  6-C , 19-H ) :   0.9436

FINAL SINGLE POINT ENERGY      -290.574049119203

DIPOLE MOMENT
-------------
                                X             Y             Z
Electronic contribution:      0.59811       0.37524      -1.27142
Nuclear contribution   :     -0.59461      -0.05433       1.62680
                        -----------------------------------------
Total Dipole Moment    :      0.00351       0.32091       0.35538
                        -----------------------------------------
Magnitude (a.u.)       :      0.47884
Magnitude (Debye)      :      1.21711

                             ****ORCA TERMINATED NORMALLY****
TOTAL RUN TIME: 0 days 0 hours 0 minutes 8 seconds 860 msec
