                         Program Version 3.0.3 - RELEASE   -
|  1> ! RI PBE def2-SVP def2-SVP/J NBO PAL2
|  2> % maxcore 2000
|  3> % output
|  4>     # printlevel mini
|  5>     print[ P_Basis ] 0
|  6>     print[ P_SCFInfo ] 1
|  7>     print[ P_SCFIterInfo ] 1
|  8>     print[ P_OrbEn ] 0
|  9>     print[ P_Cartesian ] 0
| 10> end
| 11> *xyz 0 1
| 12>  C        0.9691270000    -0.0191840000    -0.1670020000
| 13>  C        2.4773640000    -0.0492140000     0.0444300000
| 14>  N        2.9418330000     0.7546920000     1.1634810000
| 15>  C        2.9994700000    -1.4928190000     0.1994880000
| 16>  C        4.5248280000    -1.5603470000     0.1403600000
| 17>  C        2.4956570000    -2.1010610000     1.4264910000
| 18>  C        2.0932780000    -2.5854500000     2.4500160000
| 19>  H        0.6236750000     1.0086980000    -0.3042630000
| 20>  H        0.4510970000    -0.4393120000     0.6995650000
| 21>  H        0.6735350000    -0.5931360000    -1.0504570000
| 22>  H        2.9630960000     0.3470620000    -0.8554770000
| 23>  H        2.5199140000     0.4182470000     2.0232760000
| 24>  H        2.6551640000     1.7185370000     1.0473820000
| 25>  H        2.5913850000    -2.0696900000    -0.6396820000
| 26>  H        4.9582710000    -0.9502560000     0.9324330000
| 27>  H        4.8771270000    -1.1779350000    -0.8207190000
| 28>  H        4.8735660000    -2.5879700000     0.2524650000
| 29>  H        1.7399230000    -3.0290310000     3.3506140000
| 30> *
| 31>
| 32>                          ****END OF INPUT****
 Total Charge           Charge          ....    0
 Multiplicity           Mult            ....    1
 Number of Electrons    NEL             ....   54
 Basis Dimension        Dim             ....  153

MULLIKEN ATOMIC CHARGES
-----------------------
   0 C :    0.054134
   1 C :   -0.045916
   2 N :   -0.176749
   3 C :   -0.049371
   4 C :    0.066385
   5 C :    0.391936
   6 C :   -0.528035
   7 H :    0.008021
   8 H :    0.019698
   9 H :    0.003909
  10 H :   -0.003524
  11 H :    0.089310
  12 H :    0.089312
  13 H :    0.026064
  14 H :    0.032409
  15 H :    0.006582
  16 H :    0.022179
  17 H :   -0.006342
Sum of atomic charges:   -0.0000000

LOEWDIN ATOMIC CHARGES
----------------------
   0 C :   -0.076137
   1 C :    0.007692
   2 N :   -0.090701
   3 C :   -0.051461
   4 C :   -0.041438
   5 C :   -0.010130
   6 C :   -0.099009
   7 H :    0.021436
   8 H :    0.026643
   9 H :    0.024396
  10 H :    0.021494
  11 H :    0.051111
  12 H :    0.052128
  13 H :    0.046208
  14 H :    0.030815
  15 H :    0.025278
  16 H :    0.027848
  17 H :    0.033829

  Mayer bond orders larger than 0.1
B(  0-C ,  1-C ) :   1.0678 B(  0-C ,  7-H ) :   0.9563 B(  0-C ,  8-H ) :   0.9510
B(  0-C ,  9-H ) :   0.9424 B(  1-C ,  2-N ) :   1.0822 B(  1-C ,  3-C ) :   1.0091
B(  1-C , 10-H ) :   0.9061 B(  2-N , 11-H ) :   0.9620 B(  2-N , 12-H ) :   0.9663
B(  3-C ,  4-C ) :   1.0654 B(  3-C ,  5-C ) :   1.0042 B(  3-C , 13-H ) :   0.8784
B(  4-C , 14-H ) :   0.9538 B(  4-C , 15-H ) :   0.9517 B(  4-C , 16-H ) :   0.9620
B(  5-C ,  6-C ) :   2.2794 B(  5-C , 17-H ) :  -0.1218 B(  6-C , 17-H ) :   1.1119

FINAL SINGLE POINT ENERGY      -289.332956443979

DIPOLE MOMENT
-------------
                                X             Y             Z
Electronic contribution:     -0.17494      -2.48623       2.94813
Nuclear contribution   :     -0.18399       2.73497      -3.09885
                        -----------------------------------------
Total Dipole Moment    :     -0.35894       0.24874      -0.15072
                        -----------------------------------------
Magnitude (a.u.)       :      0.46198
Magnitude (Debye)      :      1.17426

                             ****ORCA TERMINATED NORMALLY****
TOTAL RUN TIME: 0 days 0 hours 0 minutes 8 seconds 534 msec
