                         Program Version 3.0.3 - RELEASE   -
|  1> ! RI PBE def2-SVP def2-SVP/J NBO PAL2
|  2> % maxcore 2000
|  3> % output
|  4>     # printlevel mini
|  5>     print[ P_Basis ] 0
|  6>     print[ P_SCFInfo ] 1
|  7>     print[ P_SCFIterInfo ] 1
|  8>     print[ P_OrbEn ] 0
|  9>     print[ P_Cartesian ] 0
| 10> end
| 11> *xyz 0 1
| 12>  C        0.8949270000     0.0305210000    -0.0148000000
| 13>  C        2.4171950000    -0.1075200000     0.0805420000
| 14>  N        2.9070020000    -0.5737450000     1.3746580000
| 15>  C        2.9173390000    -0.9803420000    -0.9770590000
| 16>  C        3.3044690000    -1.7169830000    -1.8497410000
| 17>  C        3.7435040000    -2.5636920000    -2.8984800000
| 18>  C        4.7255990000    -3.4581770000    -2.7882490000
| 19>  H        0.5345220000     0.7175050000     0.7554460000
| 20>  H        0.4159780000    -0.9402690000     0.1328320000
| 21>  H        0.5920140000     0.4170910000    -0.9904140000
| 22>  H        2.8575000000     0.8851230000    -0.0823730000
| 23>  H        2.5960640000    -1.5248140000     1.5364610000
| 24>  H        2.5158490000     0.0004280000     2.1125960000
| 25>  H        3.2236890000    -2.4559620000    -3.8477120000
| 26>  H        5.2665000000    -3.5924510000    -1.8591600000
| 27>  H        5.0082500000    -4.0763030000    -3.6313560000
| 28> *
| 29>
| 30>                          ****END OF INPUT****
 Total Charge           Charge          ....    0
 Multiplicity           Mult            ....    1
 Number of Electrons    NEL             ....   52
 Basis Dimension        Dim             ....  143

MULLIKEN ATOMIC CHARGES
-----------------------
   0 C :    0.024883
   1 C :    0.008527
   2 N :   -0.176782
   3 C :   -0.009821
   4 C :   -0.084914
   5 C :   -0.101592
   6 C :   -0.014549
   7 H :    0.014278
   8 H :    0.018820
   9 H :    0.024399
  10 H :    0.023323
  11 H :    0.091644
  12 H :    0.086131
  13 H :    0.029169
  14 H :    0.034873
  15 H :    0.031609
Sum of atomic charges:    0.0000000

LOEWDIN ATOMIC CHARGES
----------------------
   0 C :   -0.065596
   1 C :   -0.010290
   2 N :   -0.088383
   3 C :   -0.031347
   4 C :   -0.053723
   5 C :   -0.047411
   6 C :   -0.029959
   7 H :    0.022422
   8 H :    0.025649
   9 H :    0.031074
  10 H :    0.044023
  11 H :    0.052350
  12 H :    0.051013
  13 H :    0.042576
  14 H :    0.030250
  15 H :    0.027351

  Mayer bond orders larger than 0.1
B(  0-C ,  1-C ) :   1.0656 B(  0-C ,  7-H ) :   0.9564 B(  0-C ,  8-H ) :   0.9553
B(  0-C ,  9-H ) :   0.9490 B(  1-C ,  2-N ) :   1.0825 B(  1-C ,  3-C ) :   1.0040
B(  1-C , 10-H ) :   0.8636 B(  2-N , 11-H ) :   0.9644 B(  2-N , 12-H ) :   0.9657
B(  3-C ,  4-C ) :   2.4843 B(  3-C ,  6-C ) :   0.1286 B(  4-C ,  5-C ) :   1.0590
B(  5-C ,  6-C ) :   1.9141 B(  5-C , 13-H ) :   0.9473 B(  6-C , 14-H ) :   0.9531
B(  6-C , 15-H ) :   0.9425

FINAL SINGLE POINT ENERGY      -288.118711936206

DIPOLE MOMENT
-------------
                                X             Y             Z
Electronic contribution:      2.71723      -1.05371      -2.14615
Nuclear contribution   :     -3.27393       1.12247       2.32336
                        -----------------------------------------
Total Dipole Moment    :     -0.55670       0.06876       0.17722
                        -----------------------------------------
Magnitude (a.u.)       :      0.58826
Magnitude (Debye)      :      1.49523

                             ****ORCA TERMINATED NORMALLY****
TOTAL RUN TIME: 0 days 0 hours 0 minutes 6 seconds 967 msec
