                         Program Version 3.0.3 - RELEASE   -
|  1> ! RI PBE def2-SVP def2-SVP/J NBO PAL2
|  2> % maxcore 2000
|  3> % output
|  4>     # printlevel mini
|  5>     print[ P_Basis ] 0
|  6>     print[ P_SCFInfo ] 1
|  7>     print[ P_SCFIterInfo ] 1
|  8>     print[ P_OrbEn ] 0
|  9>     print[ P_Cartesian ] 0
| 10> end
| 11> *xyz 0 1
| 12>  C        1.0365360000    -0.0220010000    -0.0497540000
| 13>  C        2.5666780000    -0.0826890000    -0.0904980000
| 14>  N        3.1256570000    -1.4187990000    -0.2661410000
| 15>  C        3.0798590000     0.8008010000    -1.1310240000
| 16>  C        3.4662890000     1.5360420000    -2.0079030000
| 17>  C        3.9121930000     2.3669920000    -2.9927960000
| 18>  C        4.3042460000     3.1015680000    -3.8647240000
| 19>  H        0.6644620000    -0.6537400000     0.7607720000
| 20>  H        0.6171410000    -0.3810590000    -0.9922580000
| 21>  H        0.6831910000     0.9978230000     0.1169320000
| 22>  H        2.9484430000     0.2950980000     0.8670130000
| 23>  H        2.8478240000    -1.7951360000    -1.1652890000
| 24>  H        2.7575250000    -2.0369510000     0.4474360000
| 25>  H        4.6527440000     3.7497510000    -4.6332660000
| 26> *
| 27>
| 28>                          ****END OF INPUT****
 Total Charge           Charge          ....    0
 Multiplicity           Mult            ....    1
 Number of Electrons    NEL             ....   50
 Basis Dimension        Dim             ....  133

MULLIKEN ATOMIC CHARGES
-----------------------
   0 C :    0.028127
   1 C :    0.012040
   2 N :   -0.178116
   3 C :   -0.043753
   4 C :   -0.027189
   5 C :    0.359339
   6 C :   -0.441647
   7 H :    0.016492
   8 H :    0.022606
   9 H :    0.028804
  10 H :    0.024305
  11 H :    0.095487
  12 H :    0.091693
  13 H :    0.011812
Sum of atomic charges:   -0.0000000

LOEWDIN ATOMIC CHARGES
----------------------
   0 C :   -0.062878
   1 C :   -0.010025
   2 N :   -0.085238
   3 C :    0.008523
   4 C :   -0.064986
   5 C :   -0.029399
   6 C :   -0.034576
   7 H :    0.024594
   8 H :    0.027303
   9 H :    0.032885
  10 H :    0.046797
  11 H :    0.054075
  12 H :    0.053604
  13 H :    0.039322

  Mayer bond orders larger than 0.1
B(  0-C ,  1-C ) :   1.0662 B(  0-C ,  7-H ) :   0.9549 B(  0-C ,  8-H ) :   0.9555
B(  0-C ,  9-H ) :   0.9494 B(  1-C ,  2-N ) :   1.0863 B(  1-C ,  3-C ) :   1.0100
B(  1-C , 10-H ) :   0.8594 B(  2-N , 11-H ) :   0.9649 B(  2-N , 12-H ) :   0.9645
B(  3-C ,  4-C ) :   2.3801 B(  3-C ,  6-C ) :   0.2636 B(  4-C ,  5-C ) :   0.9321
B(  5-C ,  6-C ) :   2.1408 B(  5-C , 13-H ) :  -0.1084 B(  6-C , 13-H ) :   1.0971

FINAL SINGLE POINT ENERGY      -286.880600835754

DIPOLE MOMENT
-------------
                                X             Y             Z
Electronic contribution:      4.83688       4.62903      -4.60834
Nuclear contribution   :     -5.48728      -4.98069       4.86729
                        -----------------------------------------
Total Dipole Moment    :     -0.65040      -0.35166       0.25895
                        -----------------------------------------
Magnitude (a.u.)       :      0.78341
Magnitude (Debye)      :      1.99128

                             ****ORCA TERMINATED NORMALLY****
TOTAL RUN TIME: 0 days 0 hours 0 minutes 6 seconds 308 msec
