                         Program Version 3.0.3 - RELEASE   -
|  1> ! RI PBE def2-SVP def2-SVP/J NBO PAL2
|  2> % maxcore 2000
|  3> % output
|  4>     # printlevel mini
|  5>     print[ P_Basis ] 0
|  6>     print[ P_SCFInfo ] 1
|  7>     print[ P_SCFIterInfo ] 1
|  8>     print[ P_OrbEn ] 0
|  9>     print[ P_Cartesian ] 0
| 10> end
| 11> *xyz 0 1
| 12>  C        2.7677280000    -0.3778100000    -1.6341130000
| 13>  C        2.5812880000     0.2440620000    -0.2564180000
| 14>  N        1.1889070000     0.3472180000     0.1662490000
| 15>  C        3.3430530000    -0.5264850000     0.8243100000
| 16>  C        4.8303860000    -0.5970230000     0.6369110000
| 17>  C        5.5701420000     0.7050890000     0.6447800000
| 18>  C        5.4630610000    -1.7581810000     0.4950620000
| 19>  H        2.2199760000     0.1882880000    -2.3924070000
| 20>  H        2.3908110000    -1.4060030000    -1.6420550000
| 21>  H        3.8203080000    -0.4099270000    -1.9273750000
| 22>  H        2.9692110000     1.2691990000    -0.2825220000
| 23>  H        0.7779910000    -0.5792630000     0.2216030000
| 24>  H        0.6504390000     0.8577320000    -0.5240500000
| 25>  H        2.9364540000    -1.5432230000     0.8780740000
| 26>  H        3.1188010000    -0.0423000000     1.7819130000
| 27>  H        5.2748710000     1.3368960000    -0.1990100000
| 28>  H        6.6485350000     0.5519320000     0.5896210000
| 29>  H        5.3461570000     1.2738140000     1.5532950000
| 30>  H        4.9237500000    -2.6993450000     0.4949300000
| 31>  H        6.5408210000    -1.8071710000     0.3813220000
| 32> *
| 33>
| 34>                          ****END OF INPUT****
 Total Charge           Charge          ....    0
 Multiplicity           Mult            ....    1
 Number of Electrons    NEL             ....   56
 Basis Dimension        Dim             ....  163

MULLIKEN ATOMIC CHARGES
-----------------------
   0 C :    0.032007
   1 C :   -0.088907
   2 N :   -0.172986
   3 C :    0.119972
   4 C :   -0.188151
   5 C :    0.052470
   6 C :   -0.042094
   7 H :    0.009747
   8 H :    0.000286
   9 H :    0.018816
  10 H :    0.003249
  11 H :    0.081436
  12 H :    0.081665
  13 H :   -0.017433
  14 H :    0.016222
  15 H :    0.035426
  16 H :    0.016760
  17 H :    0.029348
  18 H :    0.005566
  19 H :    0.006602
Sum of atomic charges:   -0.0000000

LOEWDIN ATOMIC CHARGES
----------------------
   0 C :   -0.078372
   1 C :   -0.002071
   2 N :   -0.096468
   3 C :   -0.032145
   4 C :   -0.027818
   5 C :   -0.059644
   6 C :   -0.082316
   7 H :    0.020605
   8 H :    0.020733
   9 H :    0.027062
  10 H :    0.018925
  11 H :    0.047041
  12 H :    0.049400
  13 H :    0.022746
  14 H :    0.033757
  15 H :    0.033875
  16 H :    0.031724
  17 H :    0.036737
  18 H :    0.017972
  19 H :    0.018256

  Mayer bond orders larger than 0.1
B(  0-C ,  1-C ) :   1.0638 B(  0-C ,  7-H ) :   0.9581 B(  0-C ,  8-H ) :   0.9503
B(  0-C ,  9-H ) :   0.9416 B(  1-C ,  2-N ) :   1.0907 B(  1-C ,  3-C ) :   1.0568
B(  1-C , 10-H ) :   0.9068 B(  2-N , 11-H ) :   0.9665 B(  2-N , 12-H ) :   0.9661
B(  3-C ,  4-C ) :   1.0605 B(  3-C , 13-H ) :   0.9034 B(  3-C , 14-H ) :   0.9045
B(  4-C ,  5-C ) :   1.0866 B(  4-C ,  6-C ) :   1.9682 B(  5-C , 15-H ) :   0.9382
B(  5-C , 16-H ) :   0.9466 B(  5-C , 17-H ) :   0.9418 B(  6-C , 18-H ) :   0.9379
B(  6-C , 19-H ) :   0.9333

FINAL SINGLE POINT ENERGY      -290.579004081988

DIPOLE MOMENT
-------------
                                X             Y             Z
Electronic contribution:     -0.58741      -0.34909       1.81118
Nuclear contribution   :      0.44018       0.36749      -2.20398
                        -----------------------------------------
Total Dipole Moment    :     -0.14722       0.01840      -0.39280
                        -----------------------------------------
Magnitude (a.u.)       :      0.41989
Magnitude (Debye)      :      1.06728

                             ****ORCA TERMINATED NORMALLY****
TOTAL RUN TIME: 0 days 0 hours 0 minutes 8 seconds 796 msec
