                         Program Version 3.0.3 - RELEASE   -
|  1> ! RI PBE def2-SVP def2-SVP/J NBO PAL2
|  2> % maxcore 2000
|  3> % output
|  4>     # printlevel mini
|  5>     print[ P_Basis ] 0
|  6>     print[ P_SCFInfo ] 1
|  7>     print[ P_SCFIterInfo ] 1
|  8>     print[ P_OrbEn ] 0
|  9>     print[ P_Cartesian ] 0
| 10> end
| 11> *xyz 0 1
| 12>  C        1.1586000000     0.4696790000     0.0796520000
| 13>  C        2.6710200000     0.3160990000     0.1922980000
| 14>  N        3.1909340000     0.5763780000     1.5304020000
| 15>  C        3.1156890000    -1.0698060000    -0.2610760000
| 16>  C        4.6288430000    -1.2154890000    -0.3895550000
| 17>  C        5.0497030000    -2.6132740000    -0.6931270000
| 18>  C        5.7166760000    -2.9998210000    -1.7721960000
| 19>  H        0.8413870000     1.4652000000     0.4017860000
| 20>  H        0.6504370000    -0.2652510000     0.7128270000
| 21>  H        0.8130240000     0.3221380000    -0.9475410000
| 22>  H        3.1423190000     1.0526740000    -0.4711830000
| 23>  H        2.7303680000    -0.0306450000     2.2009260000
| 24>  H        2.9860520000     1.5274050000     1.8121900000
| 25>  H        2.6424010000    -1.3054510000    -1.2196660000
| 26>  H        2.7336780000    -1.8097430000     0.4559320000
| 27>  H        5.0798100000    -0.8861010000     0.5528940000
| 28>  H        4.9988340000    -0.5424990000    -1.1705720000
| 29>  H        4.7683430000    -3.3645260000     0.0446010000
| 30>  H        6.0174140000    -2.2882570000    -2.5356330000
| 31>  H        5.9913680000    -4.0363100000    -1.9310700000
| 32> *
| 33>
| 34>                          ****END OF INPUT****
 Total Charge           Charge          ....    0
 Multiplicity           Mult            ....    1
 Number of Electrons    NEL             ....   56
 Basis Dimension        Dim             ....  163

MULLIKEN ATOMIC CHARGES
-----------------------
   0 C :    0.051108
   1 C :   -0.060081
   2 N :   -0.178297
   3 C :   -0.013587
   4 C :    0.099701
   5 C :   -0.084189
   6 C :   -0.034991
   7 H :    0.003502
   8 H :    0.003844
   9 H :    0.009456
  10 H :   -0.000107
  11 H :    0.082942
  12 H :    0.084323
  13 H :    0.005467
  14 H :   -0.007674
  15 H :    0.016689
  16 H :   -0.008435
  17 H :    0.001449
  18 H :    0.011913
  19 H :    0.016967
Sum of atomic charges:   -0.0000000

LOEWDIN ATOMIC CHARGES
----------------------
   0 C :   -0.074892
   1 C :   -0.005918
   2 N :   -0.090362
   3 C :   -0.037235
   4 C :   -0.040697
   5 C :   -0.028676
   6 C :   -0.074007
   7 H :    0.019431
   8 H :    0.020534
   9 H :    0.024940
  10 H :    0.021523
  11 H :    0.047857
  12 H :    0.050422
  13 H :    0.024865
  14 H :    0.018757
  15 H :    0.033240
  16 H :    0.025596
  17 H :    0.023334
  18 H :    0.019471
  19 H :    0.021816

  Mayer bond orders larger than 0.1
B(  0-C ,  1-C ) :   1.0730 B(  0-C ,  7-H ) :   0.9571 B(  0-C ,  8-H ) :   0.9520
B(  0-C ,  9-H ) :   0.9480 B(  1-C ,  2-N ) :   1.0768 B(  1-C ,  3-C ) :   1.0581
B(  1-C , 10-H ) :   0.9051 B(  2-N , 11-H ) :   0.9677 B(  2-N , 12-H ) :   0.9688
B(  3-C ,  4-C ) :   1.0731 B(  3-C , 13-H ) :   0.9355 B(  3-C , 14-H ) :   0.9224
B(  4-C ,  5-C ) :   1.0645 B(  4-C , 15-H ) :   0.8954 B(  4-C , 16-H ) :   0.9270
B(  5-C ,  6-C ) :   2.0181 B(  5-C , 17-H ) :   0.9511 B(  6-C , 18-H ) :   0.9451
B(  6-C , 19-H ) :   0.9424

FINAL SINGLE POINT ENERGY      -290.575254871939

DIPOLE MOMENT
-------------
                                X             Y             Z
Electronic contribution:      2.58959      -0.94351       0.36297
Nuclear contribution   :     -3.16348       1.24736      -0.13152
                        -----------------------------------------
Total Dipole Moment    :     -0.57388       0.30385       0.23145
                        -----------------------------------------
Magnitude (a.u.)       :      0.68937
Magnitude (Debye)      :      1.75224

                             ****ORCA TERMINATED NORMALLY****
TOTAL RUN TIME: 0 days 0 hours 0 minutes 8 seconds 581 msec
