                         Program Version 3.0.3 - RELEASE   -
|  1> ! RI PBE def2-SVP def2-SVP/J NBO PAL2
|  2> % maxcore 2000
|  3> % output
|  4>     # printlevel mini
|  5>     print[ P_Basis ] 0
|  6>     print[ P_SCFInfo ] 1
|  7>     print[ P_SCFIterInfo ] 1
|  8>     print[ P_OrbEn ] 0
|  9>     print[ P_Cartesian ] 0
| 10> end
| 11> *xyz 0 1
| 12>  C        0.8087560000     0.0273430000     0.1982720000
| 13>  C        2.3153270000    -0.1232930000     0.0238110000
| 14>  N        2.7396970000    -1.4751240000    -0.3228970000
| 15>  C        2.8411180000     0.8527170000    -1.0209830000
| 16>  C        4.3667570000     0.8700630000    -1.1028710000
| 17>  C        4.8684210000     1.7499050000    -2.1437590000
| 18>  C        5.2623900000     2.4826170000    -3.0102370000
| 19>  H        0.4316920000    -0.6705750000     0.9504130000
| 20>  H        0.2905880000    -0.1815830000    -0.7433490000
| 21>  H        0.5379580000     1.0394680000     0.5119900000
| 22>  H        2.7980010000     0.1162990000     0.9802940000
| 23>  H        2.2644380000    -1.7798250000    -1.1663760000
| 24>  H        2.4813230000    -2.1273010000     0.4075610000
| 25>  H        2.4751810000     1.8588590000    -0.7982120000
| 26>  H        2.4297040000     0.5851700000    -2.0016520000
| 27>  H        4.7249220000    -0.1493730000    -1.2717270000
| 28>  H        4.7813370000     1.1850460000    -0.1382590000
| 29>  H        5.6186000000     3.1288890000    -3.7767090000
| 30> *
| 31>
| 32>                          ****END OF INPUT****
 Total Charge           Charge          ....    0
 Multiplicity           Mult            ....    1
 Number of Electrons    NEL             ....   54
 Basis Dimension        Dim             ....  153

MULLIKEN ATOMIC CHARGES
-----------------------
   0 C :    0.047949
   1 C :   -0.053807
   2 N :   -0.187250
   3 C :   -0.027229
   4 C :    0.117771
   5 C :    0.349124
   6 C :   -0.519289
   7 H :    0.008969
   8 H :    0.007159
   9 H :    0.011994
  10 H :   -0.003618
  11 H :    0.084750
  12 H :    0.089835
  13 H :    0.016870
  14 H :    0.009722
  15 H :    0.033540
  16 H :    0.021047
  17 H :   -0.007536
Sum of atomic charges:   -0.0000000

LOEWDIN ATOMIC CHARGES
----------------------
   0 C :   -0.074871
   1 C :   -0.006485
   2 N :   -0.091289
   3 C :   -0.030310
   4 C :   -0.045064
   5 C :   -0.019134
   6 C :   -0.103584
   7 H :    0.020997
   8 H :    0.021830
   9 H :    0.026408
  10 H :    0.021122
  11 H :    0.049233
  12 H :    0.052241
  13 H :    0.028949
  14 H :    0.025727
  15 H :    0.046786
  16 H :    0.046048
  17 H :    0.031396

  Mayer bond orders larger than 0.1
B(  0-C ,  1-C ) :   1.0784 B(  0-C ,  7-H ) :   0.9578 B(  0-C ,  8-H ) :   0.9522
B(  0-C ,  9-H ) :   0.9460 B(  1-C ,  2-N ) :   1.0734 B(  1-C ,  3-C ) :   1.0577
B(  1-C , 10-H ) :   0.9021 B(  2-N , 11-H ) :   0.9685 B(  2-N , 12-H ) :   0.9682
B(  3-C ,  4-C ) :   1.0767 B(  3-C , 13-H ) :   0.9378 B(  3-C , 14-H ) :   0.9261
B(  4-C ,  5-C ) :   1.0556 B(  4-C , 15-H ) :   0.8806 B(  4-C , 16-H ) :   0.8918
B(  5-C ,  6-C ) :   2.3234 B(  5-C , 17-H ) :  -0.1125 B(  6-C , 17-H ) :   1.1032

FINAL SINGLE POINT ENERGY      -289.333380689553

DIPOLE MOMENT
-------------
                                X             Y             Z
Electronic contribution:      5.54430       2.43029      -3.27277
Nuclear contribution   :     -6.21989      -2.79399       3.62941
                        -----------------------------------------
Total Dipole Moment    :     -0.67560      -0.36370       0.35663
                        -----------------------------------------
Magnitude (a.u.)       :      0.84610
Magnitude (Debye)      :      2.15063

                             ****ORCA TERMINATED NORMALLY****
TOTAL RUN TIME: 0 days 0 hours 0 minutes 8 seconds 258 msec
