                         Program Version 3.0.3 - RELEASE   -
|  1> ! RI PBE def2-SVP def2-SVP/J NBO PAL2
|  2> % maxcore 2000
|  3> % output
|  4>     # printlevel mini
|  5>     print[ P_Basis ] 0
|  6>     print[ P_SCFInfo ] 1
|  7>     print[ P_SCFIterInfo ] 1
|  8>     print[ P_OrbEn ] 0
|  9>     print[ P_Cartesian ] 0
| 10> end
| 11> *xyz 0 1
| 12>  C        1.1118450000    -0.0545020000    -0.3303150000
| 13>  C        2.5753080000    -0.4601470000    -0.3443010000
| 14>  N        3.1194080000    -0.6629860000     0.9854320000
| 15>  C        2.6412990000    -1.8830060000     1.5896770000
| 16>  C        4.5719670000    -0.5137950000     1.0852340000
| 17>  C        5.3775670000    -1.4118450000     0.1455310000
| 18>  C        4.9878060000     0.9422240000     0.9362370000
| 19>  H        0.7699120000     0.1597600000    -1.3459340000
| 20>  H        0.9705320000     0.8399720000     0.2799210000
| 21>  H        0.4688480000    -0.8416250000     0.0686270000
| 22>  H        3.1468900000     0.3348400000    -0.8284780000
| 23>  H        2.6976450000    -1.3594540000    -0.9756000000
| 24>  H        1.5528800000    -1.8647790000     1.6697200000
| 25>  H        3.0407840000    -1.9751070000     2.6023240000
| 26>  H        2.9156270000    -2.7952380000     1.0293810000
| 27>  H        4.8134510000    -0.8098370000     2.1127650000
| 28>  H        5.2347060000    -1.1221130000    -0.8989710000
| 29>  H        5.0965080000    -2.4626830000     0.2471760000
| 30>  H        6.4450550000    -1.3326770000     0.3651530000
| 31>  H        4.8489800000     1.3073090000    -0.0848290000
| 32>  H        6.0474300000     1.0580350000     1.1768770000
| 33>  H        4.4056610000     1.5752640000     1.6080540000
| 34> *
| 35>
| 36>                          ****END OF INPUT****
 Total Charge           Charge          ....    0
 Multiplicity           Mult            ....    1
 Number of Electrons    NEL             ....   58
 Basis Dimension        Dim             ....  173

MULLIKEN ATOMIC CHARGES
-----------------------
   0 C :   -0.005820
   1 C :    0.068352
   2 N :   -0.325323
   3 C :    0.109770
   4 C :   -0.047696
   5 C :    0.000118
   6 C :    0.042422
   7 H :    0.013169
   8 H :    0.021492
   9 H :    0.022060
  10 H :    0.007341
  11 H :   -0.016539
  12 H :    0.018481
  13 H :    0.012784
  14 H :   -0.013956
  15 H :   -0.007593
  16 H :    0.020081
  17 H :    0.019671
  18 H :    0.017884
  19 H :    0.011973
  20 H :    0.012457
  21 H :    0.018871
Sum of atomic charges:   -0.0000000

LOEWDIN ATOMIC CHARGES
----------------------
   0 C :   -0.071234
   1 C :    0.013631
   2 N :   -0.110491
   3 C :    0.001842
   4 C :    0.004998
   5 C :   -0.076724
   6 C :   -0.063839
   7 H :    0.027405
   8 H :    0.026426
   9 H :    0.022522
  10 H :    0.019695
  11 H :   -0.002320
  12 H :    0.020235
  13 H :    0.021471
  14 H :   -0.005142
  15 H :    0.020687
  16 H :    0.024222
  17 H :    0.024543
  18 H :    0.027854
  19 H :    0.020174
  20 H :    0.027462
  21 H :    0.026583

  Mayer bond orders larger than 0.1
B(  0-C ,  1-C ) :   1.1244 B(  0-C ,  7-H ) :   0.9534 B(  0-C ,  8-H ) :   0.9597
B(  0-C ,  9-H ) :   0.9583 B(  1-C ,  2-N ) :   1.0112 B(  1-C , 10-H ) :   0.9358
B(  1-C , 11-H ) :   0.9120 B(  2-N ,  3-C ) :   1.0394 B(  2-N ,  4-C ) :   1.0285
B(  3-C , 12-H ) :   0.9633 B(  3-C , 13-H ) :   0.9609 B(  3-C , 14-H ) :   0.9336
B(  4-C ,  5-C ) :   1.0612 B(  4-C ,  6-C ) :   1.0905 B(  4-C , 15-H ) :   0.9171
B(  5-C , 16-H ) :   0.9534 B(  5-C , 17-H ) :   0.9557 B(  5-C , 18-H ) :   0.9547
B(  6-C , 19-H ) :   0.9514 B(  6-C , 20-H ) :   0.9529 B(  6-C , 21-H ) :   0.9540

FINAL SINGLE POINT ENERGY      -291.781792317436

DIPOLE MOMENT
-------------
                                X             Y             Z
Electronic contribution:     -0.13927       0.34962       1.38953
Nuclear contribution   :      0.25944      -0.47351      -1.45848
                        -----------------------------------------
Total Dipole Moment    :      0.12017      -0.12389      -0.06895
                        -----------------------------------------
Magnitude (a.u.)       :      0.18585
Magnitude (Debye)      :      0.47241

                             ****ORCA TERMINATED NORMALLY****
TOTAL RUN TIME: 0 days 0 hours 0 minutes 9 seconds 815 msec
