                         Program Version 3.0.3 - RELEASE   -
|  1> ! RI PBE def2-SVP def2-SVP/J NBO PAL2
|  2> % maxcore 2000
|  3> % output
|  4>     # printlevel mini
|  5>     print[ P_Basis ] 0
|  6>     print[ P_SCFInfo ] 1
|  7>     print[ P_SCFIterInfo ] 1
|  8>     print[ P_OrbEn ] 0
|  9>     print[ P_Cartesian ] 0
| 10> end
| 11> *xyz 0 1
| 12>  C        2.9703220000     1.1454420000    -0.3782280000
| 13>  C        2.6393200000    -0.3345620000    -0.3543410000
| 14>  N        3.0830790000    -1.0171770000     0.8477510000
| 15>  C        2.4361710000    -2.3028060000     0.9842850000
| 16>  C        4.5268150000    -1.1470140000     0.9170590000
| 17>  C        4.9997990000    -1.5426650000     2.2780490000
| 18>  C        5.8295940000    -2.5443070000     2.5308680000
| 19>  H        2.5121390000     1.6155370000    -1.2515390000
| 20>  H        4.0438150000     1.3360460000    -0.4374330000
| 21>  H        2.5866820000     1.6357960000     0.5189300000
| 22>  H        3.0385300000    -0.8242870000    -1.2637210000
| 23>  H        1.5522650000    -0.4485280000    -0.4008940000
| 24>  H        1.3530710000    -2.1693830000     1.0277960000
| 25>  H        2.7587750000    -2.7876490000     1.9070300000
| 26>  H        2.6651000000    -2.9874900000     0.1464730000
| 27>  H        4.9644240000    -0.1727940000     0.6782330000
| 28>  H        4.9120330000    -1.8625820000     0.1652110000
| 29>  H        4.6246770000    -0.9284440000     3.0941210000
| 30>  H        6.2083740000    -3.1797300000     1.7358340000
| 31>  H        6.1653850000    -2.7635100000     3.5378460000
| 32> *
| 33>
| 34>                          ****END OF INPUT****
 Total Charge           Charge          ....    0
 Multiplicity           Mult            ....    1
 Number of Electrons    NEL             ....   56
 Basis Dimension        Dim             ....  163

MULLIKEN ATOMIC CHARGES
-----------------------
   0 C :   -0.015241
   1 C :    0.069876
   2 N :   -0.348707
   3 C :    0.094911
   4 C :    0.183749
   5 C :   -0.102062
   6 C :   -0.020790
   7 H :    0.017505
   8 H :    0.024256
   9 H :    0.028654
  10 H :   -0.023533
  11 H :    0.011762
  12 H :    0.025743
  13 H :    0.025831
  14 H :   -0.013084
  15 H :    0.019013
  16 H :   -0.027646
  17 H :    0.009054
  18 H :    0.017126
  19 H :    0.023581
Sum of atomic charges:   -0.0000000

LOEWDIN ATOMIC CHARGES
----------------------
   0 C :   -0.073037
   1 C :    0.011601
   2 N :   -0.112058
   3 C :    0.000118
   4 C :    0.016832
   5 C :   -0.032708
   6 C :   -0.062895
   7 H :    0.031048
   8 H :    0.022353
   9 H :    0.028615
  10 H :   -0.002669
  11 H :    0.023242
  12 H :    0.021675
  13 H :    0.023563
  14 H :   -0.001813
  15 H :    0.031592
  16 H :    0.001118
  17 H :    0.027703
  18 H :    0.021142
  19 H :    0.024577

  Mayer bond orders larger than 0.1
B(  0-C ,  1-C ) :   1.1239 B(  0-C ,  7-H ) :   0.9514 B(  0-C ,  8-H ) :   0.9572
B(  0-C ,  9-H ) :   0.9618 B(  1-C ,  2-N ) :   1.0196 B(  1-C , 10-H ) :   0.9085
B(  1-C , 11-H ) :   0.9399 B(  2-N ,  3-C ) :   1.0312 B(  2-N ,  4-C ) :   0.9986
B(  3-C , 12-H ) :   0.9667 B(  3-C , 13-H ) :   0.9604 B(  3-C , 14-H ) :   0.9349
B(  4-C ,  5-C ) :   1.0583 B(  4-C , 15-H ) :   0.9115 B(  4-C , 16-H ) :   0.9020
B(  5-C ,  6-C ) :   1.9890 B(  5-C , 17-H ) :   0.9566 B(  6-C , 18-H ) :   0.9436
B(  6-C , 19-H ) :   0.9443

FINAL SINGLE POINT ENERGY      -290.558665465313

DIPOLE MOMENT
-------------
                                X             Y             Z
Electronic contribution:      1.25051      -0.65250       2.40271
Nuclear contribution   :     -1.29842       0.66498      -2.58936
                        -----------------------------------------
Total Dipole Moment    :     -0.04791       0.01248      -0.18664
                        -----------------------------------------
Magnitude (a.u.)       :      0.19310
Magnitude (Debye)      :      0.49081

                             ****ORCA TERMINATED NORMALLY****
TOTAL RUN TIME: 0 days 0 hours 0 minutes 8 seconds 389 msec
