                         Program Version 3.0.3 - RELEASE   -
|  1> ! RI PBE def2-SVP def2-SVP/J NBO PAL2
|  2> % maxcore 2000
|  3> % output
|  4>     # printlevel mini
|  5>     print[ P_Basis ] 0
|  6>     print[ P_SCFInfo ] 1
|  7>     print[ P_SCFIterInfo ] 1
|  8>     print[ P_OrbEn ] 0
|  9>     print[ P_Cartesian ] 0
| 10> end
| 11> *xyz 0 1
| 12>  C        3.1464950000    -0.9725590000    -0.8775400000
| 13>  C        2.6680900000     0.0247950000     0.1584570000
| 14>  N        3.1473690000     1.3779460000    -0.0722280000
| 15>  C        2.5104030000     2.3215260000     0.8194490000
| 16>  C        4.5925910000     1.5044060000    -0.0519410000
| 17>  C        5.2379140000     1.1475000000     1.2179480000
| 18>  C        5.7361150000     0.8424650000     2.2676840000
| 19>  H        2.6316820000    -1.9256560000    -0.7389020000
| 20>  H        4.2170690000    -1.1725950000    -0.7961580000
| 21>  H        2.9363410000    -0.6129750000    -1.8875710000
| 22>  H        2.9378640000    -0.3311570000     1.1686080000
| 23>  H        1.5755130000     0.0748790000     0.1275340000
| 24>  H        1.4278930000     2.2742490000     0.6817420000
| 25>  H        2.8376480000     3.3361250000     0.5794130000
| 26>  H        2.7303470000     2.1330410000     1.8831950000
| 27>  H        4.8461770000     2.5406380000    -0.2968480000
| 28>  H        5.0188410000     0.8886440000    -0.8481220000
| 29>  H        6.1862490000     0.5767180000     3.1949800000
| 30> *
| 31>
| 32>                          ****END OF INPUT****
 Total Charge           Charge          ....    0
 Multiplicity           Mult            ....    1
 Number of Electrons    NEL             ....   54
 Basis Dimension        Dim             ....  153

MULLIKEN ATOMIC CHARGES
-----------------------
   0 C :   -0.026852
   1 C :    0.063537
   2 N :   -0.330200
   3 C :    0.088139
   4 C :    0.198911
   5 C :    0.299856
   6 C :   -0.503265
   7 H :    0.019461
   8 H :    0.034062
   9 H :    0.026754
  10 H :   -0.001154
  11 H :    0.013472
  12 H :    0.025982
  13 H :    0.016099
  14 H :    0.011295
  15 H :    0.029498
  16 H :    0.038013
  17 H :   -0.003607
Sum of atomic charges:   -0.0000000

LOEWDIN ATOMIC CHARGES
----------------------
   0 C :   -0.073692
   1 C :    0.012391
   2 N :   -0.102651
   3 C :    0.001166
   4 C :    0.008801
   5 C :   -0.040662
   6 C :   -0.088637
   7 H :    0.032969
   8 H :    0.026468
   9 H :    0.027405
  10 H :    0.002969
  11 H :    0.023067
  12 H :    0.023418
  13 H :    0.022062
  14 H :    0.005253
  15 H :    0.043421
  16 H :    0.041967
  17 H :    0.034283

  Mayer bond orders larger than 0.1
B(  0-C ,  1-C ) :   1.1173 B(  0-C ,  7-H ) :   0.9517 B(  0-C ,  8-H ) :   0.9603
B(  0-C ,  9-H ) :   0.9598 B(  1-C ,  2-N ) :   1.0235 B(  1-C , 10-H ) :   0.9188
B(  1-C , 11-H ) :   0.9406 B(  2-N ,  3-C ) :   1.0291 B(  2-N ,  4-C ) :   1.0675
B(  3-C , 12-H ) :   0.9673 B(  3-C , 13-H ) :   0.9626 B(  3-C , 14-H ) :   0.9429
B(  4-C ,  5-C ) :   0.9912 B(  4-C , 15-H ) :   0.9051 B(  4-C , 16-H ) :   0.9071
B(  5-C ,  6-C ) :   2.3431 B(  5-C , 17-H ) :  -0.1161 B(  6-C , 17-H ) :   1.1061

FINAL SINGLE POINT ENERGY      -289.314875318004

DIPOLE MOMENT
-------------
                                X             Y             Z
Electronic contribution:      4.03019       1.74864       1.89444
Nuclear contribution   :     -4.12731      -1.79017      -1.85428
                        -----------------------------------------
Total Dipole Moment    :     -0.09712      -0.04153       0.04016
                        -----------------------------------------
Magnitude (a.u.)       :      0.11300
Magnitude (Debye)      :      0.28724

                             ****ORCA TERMINATED NORMALLY****
TOTAL RUN TIME: 0 days 0 hours 0 minutes 8 seconds 452 msec
