                         Program Version 3.0.3 - RELEASE   -
|  1> ! RI PBE def2-SVP def2-SVP/J NBO PAL2
|  2> % maxcore 2000
|  3> % output
|  4>     # printlevel mini
|  5>     print[ P_Basis ] 0
|  6>     print[ P_SCFInfo ] 1
|  7>     print[ P_SCFIterInfo ] 1
|  8>     print[ P_OrbEn ] 0
|  9>     print[ P_Cartesian ] 0
| 10> end
| 11> *xyz 0 1
| 12>  C        4.2424060000     0.2566890000     1.6696070000
| 13>  C        4.1331340000     1.6792490000     1.1541590000
| 14>  N        4.0325640000     1.7694410000    -0.2903260000
| 15>  C        3.7008800000     3.1094920000    -0.7396010000
| 16>  C        2.2519880000     3.4878390000    -0.4858500000
| 17>  C        5.1526900000     1.1897850000    -1.0115350000
| 18>  C        6.5214560000     1.8312610000    -0.7958220000
| 19>  H        4.1623410000     0.2480240000     2.7589280000
| 20>  H        5.1962300000    -0.2079640000     1.4109360000
| 21>  H        3.4399880000    -0.3616750000     1.2606330000
| 22>  H        4.9749040000     2.2797430000     1.5471670000
| 23>  H        3.2280730000     2.1263470000     1.5718300000
| 24>  H        3.8841660000     3.1462070000    -1.8179580000
| 25>  H        4.3605490000     3.8734950000    -0.2888350000
| 26>  H        1.5824520000     2.7521930000    -0.9362370000
| 27>  H        2.0374390000     4.4666780000    -0.9220810000
| 28>  H        2.0184030000     3.5514200000     0.5788010000
| 29>  H        4.9019440000     1.2302110000    -2.0764440000
| 30>  H        5.2092820000     0.1274070000    -0.7593450000
| 31>  H        6.5223610000     2.8877520000    -1.0748810000
| 32>  H        7.2713360000     1.3267390000    -1.4103820000
| 33>  H        6.8483150000     1.7590690000     0.2445070000
| 34> *
| 35>
| 36>                          ****END OF INPUT****
 Total Charge           Charge          ....    0
 Multiplicity           Mult            ....    1
 Number of Electrons    NEL             ....   58
 Basis Dimension        Dim             ....  173

MULLIKEN ATOMIC CHARGES
-----------------------
   0 C :   -0.031086
   1 C :    0.080351
   2 N :   -0.326665
   3 C :    0.064942
   4 C :   -0.005695
   5 C :    0.056873
   6 C :   -0.043647
   7 H :    0.024199
   8 H :    0.024037
   9 H :    0.027530
  10 H :   -0.016981
  11 H :    0.002830
  12 H :    0.008070
  13 H :   -0.011866
  14 H :    0.023488
  15 H :    0.011957
  16 H :    0.020584
  17 H :    0.011205
  18 H :    0.013372
  19 H :    0.023695
  20 H :    0.018553
  21 H :    0.024253
Sum of atomic charges:   -0.0000000

LOEWDIN ATOMIC CHARGES
----------------------
   0 C :   -0.074365
   1 C :    0.013451
   2 N :   -0.111560
   3 C :    0.012758
   4 C :   -0.072153
   5 C :    0.007198
   6 C :   -0.086441
   7 H :    0.031554
   8 H :    0.021965
   9 H :    0.028509
  10 H :   -0.004528
  11 H :    0.019792
  12 H :    0.021426
  13 H :   -0.001661
  14 H :    0.026744
  15 H :    0.027895
  16 H :    0.021744
  17 H :    0.020245
  18 H :    0.019467
  19 H :    0.024816
  20 H :    0.029434
  21 H :    0.023708

  Mayer bond orders larger than 0.1
B(  0-C ,  1-C ) :   1.1158 B(  0-C ,  7-H ) :   0.9554 B(  0-C ,  8-H ) :   0.9587
B(  0-C ,  9-H ) :   0.9567 B(  1-C ,  2-N ) :   1.0298 B(  1-C , 10-H ) :   0.9138
B(  1-C , 11-H ) :   0.9365 B(  2-N ,  3-C ) :   1.0232 B(  2-N ,  5-C ) :   1.0586
B(  3-C ,  4-C ) :   1.1273 B(  3-C , 12-H ) :   0.9377 B(  3-C , 13-H ) :   0.9109
B(  4-C , 14-H ) :   0.9598 B(  4-C , 15-H ) :   0.9516 B(  4-C , 16-H ) :   0.9571
B(  5-C ,  6-C ) :   1.0873 B(  5-C , 17-H ) :   0.9423 B(  5-C , 18-H ) :   0.9397
B(  6-C , 19-H ) :   0.9604 B(  6-C , 20-H ) :   0.9527 B(  6-C , 21-H ) :   0.9588

FINAL SINGLE POINT ENERGY      -291.781549020849

DIPOLE MOMENT
-------------
                                X             Y             Z
Electronic contribution:     -0.93232      -0.46342      -0.95866
Nuclear contribution   :      1.08909       0.55890       0.98259
                        -----------------------------------------
Total Dipole Moment    :      0.15678       0.09548       0.02394
                        -----------------------------------------
Magnitude (a.u.)       :      0.18512
Magnitude (Debye)      :      0.47053

                             ****ORCA TERMINATED NORMALLY****
TOTAL RUN TIME: 0 days 0 hours 0 minutes 9 seconds 745 msec
