                         Program Version 3.0.3 - RELEASE   -
|  1> ! RI PBE def2-SVP def2-SVP/J NBO PAL2
|  2> % maxcore 2000
|  3> % output
|  4>     # printlevel mini
|  5>     print[ P_Basis ] 0
|  6>     print[ P_SCFInfo ] 1
|  7>     print[ P_SCFIterInfo ] 1
|  8>     print[ P_OrbEn ] 0
|  9>     print[ P_Cartesian ] 0
| 10> end
| 11> *xyz 0 1
| 12>  C        2.1497550000    -1.3468690000     1.4649650000
| 13>  C        3.4864910000    -0.8002580000     1.0089710000
| 14>  N        4.1394030000    -1.7239870000     0.1034960000
| 15>  C        5.3383600000    -1.2150920000    -0.5463370000
| 16>  C        6.4619560000    -1.0212190000     0.4609680000
| 17>  C        5.7388300000    -2.1564460000    -1.6821130000
| 18>  C        6.1339330000    -3.5612080000    -1.2528780000
| 19>  H        1.6691290000    -0.6651150000     2.1696390000
| 20>  H        2.2767080000    -2.3160830000     1.9519060000
| 21>  H        1.4687290000    -1.4813140000     0.6187480000
| 22>  H        4.1292620000    -0.6495460000     1.8813250000
| 23>  H        3.3435990000     0.1968510000     0.5524410000
| 24>  H        3.4756240000    -1.9978130000    -0.6129760000
| 25>  H        5.1379080000    -0.2284600000    -1.0071410000
| 26>  H        6.6448990000    -1.9412660000     1.0200040000
| 27>  H        6.2260720000    -0.2330970000     1.1784270000
| 28>  H        7.3842100000    -0.7326490000    -0.0494610000
| 29>  H        6.5620430000    -1.6915000000    -2.2344920000
| 30>  H        4.9008330000    -2.2142180000    -2.3882910000
| 31>  H        7.0481960000    -3.5578230000    -0.6554430000
| 32>  H        6.3170180000    -4.1934270000    -2.1248110000
| 33>  H        5.3480620000    -4.0242590000    -0.6536670000
| 34> *
| 35>
| 36>                          ****END OF INPUT****
 Total Charge           Charge          ....    0
 Multiplicity           Mult            ....    1
 Number of Electrons    NEL             ....   58
 Basis Dimension        Dim             ....  173

MULLIKEN ATOMIC CHARGES
-----------------------
   0 C :   -0.050667
   1 C :    0.072940
   2 N :   -0.231854
   3 C :   -0.026002
   4 C :    0.018999
   5 C :   -0.027836
   6 C :   -0.015651
   7 H :    0.025962
   8 H :    0.030048
   9 H :    0.020381
  10 H :    0.014017
  11 H :   -0.019768
  12 H :    0.092631
  13 H :   -0.024337
  14 H :    0.021930
  15 H :    0.018974
  16 H :    0.010599
  17 H :    0.008379
  18 H :    0.004013
  19 H :    0.017939
  20 H :    0.016207
  21 H :    0.023095
Sum of atomic charges:   -0.0000000

LOEWDIN ATOMIC CHARGES
----------------------
   0 C :   -0.074838
   1 C :    0.008948
   2 N :   -0.097020
   3 C :    0.003922
   4 C :   -0.065877
   5 C :   -0.047708
   6 C :   -0.069666
   7 H :    0.030607
   8 H :    0.028767
   9 H :    0.022774
  10 H :    0.018652
  11 H :   -0.003547
  12 H :    0.049983
  13 H :   -0.001407
  14 H :    0.026287
  15 H :    0.023969
  16 H :    0.027240
  17 H :    0.025072
  18 H :    0.019413
  19 H :    0.024292
  20 H :    0.025725
  21 H :    0.024415

  Mayer bond orders larger than 0.1
B(  0-C ,  1-C ) :   1.1228 B(  0-C ,  7-H ) :   0.9586 B(  0-C ,  8-H ) :   0.9602
B(  0-C ,  9-H ) :   0.9637 B(  1-C ,  2-N ) :   1.0410 B(  1-C , 10-H ) :   0.9348
B(  1-C , 11-H ) :   0.9136 B(  2-N ,  3-C ) :   1.0356 B(  2-N , 12-H ) :   0.9315
B(  3-C ,  4-C ) :   1.0820 B(  3-C ,  5-C ) :   1.0699 B(  3-C , 13-H ) :   0.8965
B(  4-C , 14-H ) :   0.9486 B(  4-C , 15-H ) :   0.9537 B(  4-C , 16-H ) :   0.9561
B(  5-C ,  6-C ) :   1.1101 B(  5-C , 17-H ) :   0.9324 B(  5-C , 18-H ) :   0.9318
B(  6-C , 19-H ) :   0.9626 B(  6-C , 20-H ) :   0.9574 B(  6-C , 21-H ) :   0.9619

FINAL SINGLE POINT ENERGY      -291.791709267548

DIPOLE MOMENT
-------------
                                X             Y             Z
Electronic contribution:     -0.53010       0.50294      -0.59839
Nuclear contribution   :      0.37855      -0.30197       0.42965
                        -----------------------------------------
Total Dipole Moment    :     -0.15155       0.20097      -0.16874
                        -----------------------------------------
Magnitude (a.u.)       :      0.30303
Magnitude (Debye)      :      0.77025

                             ****ORCA TERMINATED NORMALLY****
TOTAL RUN TIME: 0 days 0 hours 0 minutes 9 seconds 834 msec
