                         Program Version 3.0.3 - RELEASE   -
|  1> ! RI PBE def2-SVP def2-SVP/J NBO PAL2
|  2> % maxcore 2000
|  3> % output
|  4>     # printlevel mini
|  5>     print[ P_Basis ] 0
|  6>     print[ P_SCFInfo ] 1
|  7>     print[ P_SCFIterInfo ] 1
|  8>     print[ P_OrbEn ] 0
|  9>     print[ P_Cartesian ] 0
| 10> end
| 11> *xyz 0 1
| 12>  C        3.2597480000    -2.0902090000    -2.3402360000
| 13>  C        4.5766810000    -1.5433790000    -1.8262150000
| 14>  N        4.6084370000    -1.5975800000    -0.3784390000
| 15>  C        5.8169140000    -1.1326810000     0.3085000000
| 16>  C        5.9866660000     0.3651970000     0.0720250000
| 17>  C        7.0856880000    -1.8714670000    -0.1311360000
| 18>  C        5.5827050000    -1.3783130000     1.7949250000
| 19>  H        3.2103980000    -2.0295690000    -3.4296390000
| 20>  H        2.4212210000    -1.5311440000    -1.9201910000
| 21>  H        3.1356640000    -3.1415370000    -2.0623370000
| 22>  H        4.6764230000    -0.4994510000    -2.1374590000
| 23>  H        5.4045940000    -2.0925410000    -2.3049640000
| 24>  H        4.4081600000    -2.5454310000    -0.0782640000
| 25>  H        5.0718580000     0.8962730000     0.3435020000
| 26>  H        6.2175390000     0.5887960000    -0.9719710000
| 27>  H        6.8083890000     0.7533350000     0.6783670000
| 28>  H        7.3007000000    -1.7056820000    -1.1890940000
| 29>  H        6.9827670000    -2.9486930000     0.0306610000
| 30>  H        7.9533110000    -1.5283350000     0.4385140000
| 31>  H        4.6852880000    -0.8538900000     2.1294680000
| 32>  H        6.4333690000    -1.0329410000     2.3867350000
| 33>  H        5.4479690000    -2.4458780000     1.9970500000
| 34> *
| 35>
| 36>                          ****END OF INPUT****
 Total Charge           Charge          ....    0
 Multiplicity           Mult            ....    1
 Number of Electrons    NEL             ....   58
 Basis Dimension        Dim             ....  173

MULLIKEN ATOMIC CHARGES
-----------------------
   0 C :   -0.045941
   1 C :    0.074965
   2 N :   -0.216501
   3 C :   -0.251354
   4 C :    0.064982
   5 C :    0.063229
   6 C :    0.059120
   7 H :    0.025065
   8 H :    0.024735
   9 H :    0.016665
  10 H :    0.008003
  11 H :   -0.007658
  12 H :    0.085374
  13 H :    0.020012
  14 H :    0.011818
  15 H :    0.008204
  16 H :    0.015322
  17 H :    0.005328
  18 H :    0.006469
  19 H :    0.016844
  20 H :    0.011223
  21 H :    0.004097
Sum of atomic charges:    0.0000000

LOEWDIN ATOMIC CHARGES
----------------------
   0 C :   -0.072810
   1 C :    0.007209
   2 N :   -0.091022
   3 C :   -0.023600
   4 C :   -0.053649
   5 C :   -0.066196
   6 C :   -0.052918
   7 H :    0.029269
   8 H :    0.026891
   9 H :    0.022205
  10 H :    0.018885
  11 H :   -0.002539
  12 H :    0.047134
  13 H :    0.027171
  14 H :    0.020675
  15 H :    0.025749
  16 H :    0.021632
  17 H :    0.020748
  18 H :    0.024845
  19 H :    0.025796
  20 H :    0.024760
  21 H :    0.019764

  Mayer bond orders larger than 0.1
B(  0-C ,  1-C ) :   1.1267 B(  0-C ,  7-H ) :   0.9596 B(  0-C ,  8-H ) :   0.9605
B(  0-C ,  9-H ) :   0.9638 B(  1-C ,  2-N ) :   1.0330 B(  1-C , 10-H ) :   0.9319
B(  1-C , 11-H ) :   0.9148 B(  2-N ,  3-C ) :   1.0222 B(  2-N , 12-H ) :   0.9351
B(  3-C ,  4-C ) :   1.0520 B(  3-C ,  5-C ) :   1.0341 B(  3-C ,  6-C ) :   1.0597
B(  4-C , 13-H ) :   0.9538 B(  4-C , 14-H ) :   0.9506 B(  4-C , 15-H ) :   0.9554
B(  5-C , 16-H ) :   0.9495 B(  5-C , 17-H ) :   0.9532 B(  5-C , 18-H ) :   0.9494
B(  6-C , 19-H ) :   0.9543 B(  6-C , 20-H ) :   0.9578 B(  6-C , 21-H ) :   0.9529

FINAL SINGLE POINT ENERGY      -291.792588694439

DIPOLE MOMENT
-------------
                                X             Y             Z
Electronic contribution:     -0.82889      -0.03764       0.51227
Nuclear contribution   :      1.01906      -0.16306      -0.57772
                        -----------------------------------------
Total Dipole Moment    :      0.19017      -0.20070      -0.06545
                        -----------------------------------------
Magnitude (a.u.)       :      0.28412
Magnitude (Debye)      :      0.72219

                             ****ORCA TERMINATED NORMALLY****
TOTAL RUN TIME: 0 days 0 hours 0 minutes 9 seconds 589 msec
