                         Program Version 3.0.3 - RELEASE   -
|  1> ! RI PBE def2-SVP def2-SVP/J NBO PAL2
|  2> % maxcore 2000
|  3> % output
|  4>     # printlevel mini
|  5>     print[ P_Basis ] 0
|  6>     print[ P_SCFInfo ] 1
|  7>     print[ P_SCFIterInfo ] 1
|  8>     print[ P_OrbEn ] 0
|  9>     print[ P_Cartesian ] 0
| 10> end
| 11> *xyz 0 1
| 12>  C        1.6192810000     1.2426220000     1.6497010000
| 13>  C        2.9788460000     0.6617390000     1.3215430000
| 14>  N        4.0357950000     1.5085140000     1.8404770000
| 15>  C        5.3783060000     0.9469060000     1.7575860000
| 16>  C        5.8437670000     0.8637430000     0.3080590000
| 17>  C        6.3039120000     1.8199290000     2.5466850000
| 18>  C        7.0314380000     1.4147680000     3.5773510000
| 19>  H        0.8209680000     0.6245280000     1.2338610000
| 20>  H        1.5243070000     2.2516500000     1.2430800000
| 21>  H        1.4650260000     1.2987890000     2.7316240000
| 22>  H        3.0856650000     0.5896000000     0.2353010000
| 23>  H        3.0453660000    -0.3706880000     1.7107760000
| 24>  H        3.8381800000     1.7204900000     2.8119620000
| 25>  H        5.4156070000    -0.0707850000     2.1885760000
| 26>  H        5.8105070000     1.8533660000    -0.1543680000
| 27>  H        5.2142540000     0.1912560000    -0.2778300000
| 28>  H        6.8677060000     0.4884280000     0.2620290000
| 29>  H        6.3510170000     2.8572950000     2.2194280000
| 30>  H        6.9956920000     0.3866280000     3.9254040000
| 31>  H        7.6931590000     2.0903020000     4.1073640000
| 32> *
| 33>
| 34>                          ****END OF INPUT****
 Total Charge           Charge          ....    0
 Multiplicity           Mult            ....    1
 Number of Electrons    NEL             ....   56
 Basis Dimension        Dim             ....  163

MULLIKEN ATOMIC CHARGES
-----------------------
   0 C :   -0.033699
   1 C :    0.060123
   2 N :   -0.250829
   3 C :    0.038566
   4 C :    0.026974
   5 C :   -0.057930
   6 C :   -0.034514
   7 H :    0.022100
   8 H :    0.026167
   9 H :    0.020255
  10 H :    0.021248
  11 H :   -0.017784
  12 H :    0.095888
  13 H :   -0.026624
  14 H :    0.020660
  15 H :    0.020911
  16 H :    0.018669
  17 H :    0.004479
  18 H :    0.018727
  19 H :    0.026615
Sum of atomic charges:   -0.0000000

LOEWDIN ATOMIC CHARGES
----------------------
   0 C :   -0.070989
   1 C :    0.007111
   2 N :   -0.098834
   3 C :    0.003855
   4 C :   -0.059972
   5 C :   -0.025000
   6 C :   -0.063887
   7 H :    0.030455
   8 H :    0.028318
   9 H :    0.022864
  10 H :    0.019355
  11 H :   -0.002860
  12 H :    0.052394
  13 H :    0.001836
  14 H :    0.027539
  15 H :    0.024168
  16 H :    0.029878
  17 H :    0.026831
  18 H :    0.021649
  19 H :    0.025290

  Mayer bond orders larger than 0.1
B(  0-C ,  1-C ) :   1.1217 B(  0-C ,  7-H ) :   0.9572 B(  0-C ,  8-H ) :   0.9603
B(  0-C ,  9-H ) :   0.9666 B(  1-C ,  2-N ) :   1.0352 B(  1-C , 10-H ) :   0.9364
B(  1-C , 11-H ) :   0.9149 B(  2-N ,  3-C ) :   1.0019 B(  2-N , 12-H ) :   0.9382
B(  3-C ,  4-C ) :   1.0680 B(  3-C ,  5-C ) :   1.0293 B(  3-C , 13-H ) :   0.8992
B(  4-C , 14-H ) :   0.9524 B(  4-C , 15-H ) :   0.9511 B(  4-C , 16-H ) :   0.9562
B(  5-C ,  6-C ) :   1.9924 B(  5-C , 17-H ) :   0.9533 B(  6-C , 18-H ) :   0.9464
B(  6-C , 19-H ) :   0.9426

FINAL SINGLE POINT ENERGY      -290.567505589881

DIPOLE MOMENT
-------------
                                X             Y             Z
Electronic contribution:      2.57245       1.32595       1.68209
Nuclear contribution   :     -2.69121      -1.53533      -1.54958
                        -----------------------------------------
Total Dipole Moment    :     -0.11876      -0.20938       0.13252
                        -----------------------------------------
Magnitude (a.u.)       :      0.27478
Magnitude (Debye)      :      0.69844

                             ****ORCA TERMINATED NORMALLY****
TOTAL RUN TIME: 0 days 0 hours 0 minutes 8 seconds 542 msec
