                         Program Version 3.0.3 - RELEASE   -
|  1> ! RI PBE def2-SVP def2-SVP/J NBO PAL2
|  2> % maxcore 2000
|  3> % output
|  4>     # printlevel mini
|  5>     print[ P_Basis ] 0
|  6>     print[ P_SCFInfo ] 1
|  7>     print[ P_SCFIterInfo ] 1
|  8>     print[ P_OrbEn ] 0
|  9>     print[ P_Cartesian ] 0
| 10> end
| 11> *xyz 0 1
| 12>  C        1.0335570000    -0.0646020000    -0.1843830000
| 13>  C        2.5407280000    -0.0996480000    -0.0445350000
| 14>  N        3.1421570000     1.0462740000    -0.7022490000
| 15>  C        4.5908790000     1.1168940000    -0.6022580000
| 16>  C        5.1123610000     2.2767380000    -1.4411110000
| 17>  C        5.0815330000     1.2136360000     0.7810580000
| 18>  C        5.4486760000     1.3119000000     1.9211850000
| 19>  H        0.5809940000    -0.9443900000     0.2777600000
| 20>  H        0.7421280000    -0.0344430000    -1.2362750000
| 21>  H        0.6142300000     0.8181430000     0.3077540000
| 22>  H        2.9358130000    -1.0018520000    -0.5251550000
| 23>  H        2.8159200000    -0.1651620000     1.0201880000
| 24>  H        2.7447110000     1.9008240000    -0.3255060000
| 25>  H        4.9820120000     0.1824090000    -1.0240380000
| 26>  H        4.7345880000     3.2265730000    -1.0547540000
| 27>  H        4.7747170000     2.1596440000    -2.4716510000
| 28>  H        6.2022450000     2.3144820000    -1.4178770000
| 29>  H        5.7802510000     1.3958920000     2.9291360000
| 30> *
| 31>
| 32>                          ****END OF INPUT****
 Total Charge           Charge          ....    0
 Multiplicity           Mult            ....    1
 Number of Electrons    NEL             ....   54
 Basis Dimension        Dim             ....  153

MULLIKEN ATOMIC CHARGES
-----------------------
   0 C :   -0.026372
   1 C :    0.079724
   2 N :   -0.242872
   3 C :    0.049817
   4 C :    0.029739
   5 C :    0.374049
   6 C :   -0.527916
   7 H :    0.021054
   8 H :    0.025210
   9 H :    0.018064
  10 H :    0.000191
  11 H :    0.003439
  12 H :    0.096063
  13 H :    0.020313
  14 H :    0.019733
  15 H :    0.029291
  16 H :    0.034964
  17 H :   -0.004492
Sum of atomic charges:   -0.0000000

LOEWDIN ATOMIC CHARGES
----------------------
   0 C :   -0.069710
   1 C :    0.009308
   2 N :   -0.082230
   3 C :   -0.004514
   4 C :   -0.050706
   5 C :   -0.033359
   6 C :   -0.094012
   7 H :    0.030352
   8 H :    0.026613
   9 H :    0.023724
  10 H :    0.019562
  11 H :    0.004211
  12 H :    0.053600
  13 H :    0.040811
  14 H :    0.027857
  15 H :    0.030807
  16 H :    0.034012
  17 H :    0.033675

  Mayer bond orders larger than 0.1
B(  0-C ,  1-C ) :   1.1177 B(  0-C ,  7-H ) :   0.9583 B(  0-C ,  8-H ) :   0.9645
B(  0-C ,  9-H ) :   0.9664 B(  1-C ,  2-N ) :   1.0250 B(  1-C , 10-H ) :   0.9322
B(  1-C , 11-H ) :   0.9211 B(  2-N ,  3-C ) :   1.0526 B(  2-N , 12-H ) :   0.9381
B(  3-C ,  4-C ) :   1.0840 B(  3-C ,  5-C ) :   0.9457 B(  3-C , 13-H ) :   0.8790
B(  4-C , 14-H ) :   0.9561 B(  4-C , 15-H ) :   0.9535 B(  4-C , 16-H ) :   0.9598
B(  5-C ,  6-C ) :   2.3248 B(  5-C , 17-H ) :  -0.1190 B(  6-C , 17-H ) :   1.1086

FINAL SINGLE POINT ENERGY      -289.325592720284

DIPOLE MOMENT
-------------
                                X             Y             Z
Electronic contribution:      4.28895       0.76430       2.53892
Nuclear contribution   :     -4.37654      -0.70975      -2.43301
                        -----------------------------------------
Total Dipole Moment    :     -0.08759       0.05456       0.10592
                        -----------------------------------------
Magnitude (a.u.)       :      0.14788
Magnitude (Debye)      :      0.37587

                             ****ORCA TERMINATED NORMALLY****
TOTAL RUN TIME: 0 days 0 hours 0 minutes 8 seconds 43 msec
