                         Program Version 3.0.3 - RELEASE   -
|  1> ! RI PBE def2-SVP def2-SVP/J NBO PAL2
|  2> % maxcore 2000
|  3> % output
|  4>     # printlevel mini
|  5>     print[ P_Basis ] 0
|  6>     print[ P_SCFInfo ] 1
|  7>     print[ P_SCFIterInfo ] 1
|  8>     print[ P_OrbEn ] 0
|  9>     print[ P_Cartesian ] 0
| 10> end
| 11> *xyz 0 1
| 12>  C        1.0711050000    -0.0580540000     0.3776290000
| 13>  C        2.5659810000    -0.1734280000     0.1669190000
| 14>  N        3.0516950000    -1.4791260000     0.5615640000
| 15>  C        4.4713450000    -1.6649190000     0.3306490000
| 16>  C        4.9134730000    -3.0219500000     0.7644340000
| 17>  C        5.5265520000    -3.9010200000    -0.0191010000
| 18>  C        5.9840110000    -5.2555060000     0.4010230000
| 19>  H        0.7152150000     0.9387180000     0.1083890000
| 20>  H        0.8136620000    -0.2497800000     1.4212700000
| 21>  H        0.5292550000    -0.7799730000    -0.2409940000
| 22>  H        3.0835760000     0.5740260000     0.7791650000
| 23>  H        2.8121300000     0.0667600000    -0.8836760000
| 24>  H        2.5367420000    -2.2006300000     0.0693040000
| 25>  H        4.9982020000    -0.9035370000     0.9214310000
| 26>  H        4.7647920000    -1.4991900000    -0.7213830000
| 27>  H        4.6929140000    -3.2820300000     1.7986060000
| 28>  H        5.7254040000    -3.6220060000    -1.0537830000
| 29>  H        5.7373230000    -5.4542380000     1.4456610000
| 30>  H        7.0670900000    -5.3609540000     0.2804400000
| 31>  H        5.5246330000    -6.0359420000    -0.2140390000
| 32> *
| 33>
| 34>                          ****END OF INPUT****
 Total Charge           Charge          ....    0
 Multiplicity           Mult            ....    1
 Number of Electrons    NEL             ....   56
 Basis Dimension        Dim             ....  163

MULLIKEN ATOMIC CHARGES
-----------------------
   0 C :   -0.021267
   1 C :    0.073317
   2 N :   -0.286787
   3 C :    0.192769
   4 C :   -0.085770
   5 C :   -0.100647
   6 C :    0.035565
   7 H :    0.016912
   8 H :    0.025629
   9 H :    0.017579
  10 H :    0.005180
  11 H :   -0.020230
  12 H :    0.095131
  13 H :    0.008282
  14 H :   -0.027184
  15 H :   -0.007064
  16 H :   -0.006470
  17 H :    0.018364
  18 H :    0.035844
  19 H :    0.030847
Sum of atomic charges:    0.0000000

LOEWDIN ATOMIC CHARGES
----------------------
   0 C :   -0.070745
   1 C :    0.007541
   2 N :   -0.104979
   3 C :    0.013128
   4 C :   -0.052822
   5 C :   -0.045048
   6 C :   -0.066897
   7 H :    0.028733
   8 H :    0.027360
   9 H :    0.023001
  10 H :    0.019132
  11 H :   -0.004605
  12 H :    0.051862
  13 H :    0.027384
  14 H :   -0.000752
  15 H :    0.022917
  16 H :    0.020520
  17 H :    0.030939
  18 H :    0.037239
  19 H :    0.036092

  Mayer bond orders larger than 0.1
B(  0-C ,  1-C ) :   1.1154 B(  0-C ,  7-H ) :   0.9577 B(  0-C ,  8-H ) :   0.9640
B(  0-C ,  9-H ) :   0.9667 B(  1-C ,  2-N ) :   1.0342 B(  1-C , 10-H ) :   0.9357
B(  1-C , 11-H ) :   0.9180 B(  2-N ,  3-C ) :   1.0079 B(  2-N , 12-H ) :   0.9445
B(  3-C ,  4-C ) :   1.0576 B(  3-C , 13-H ) :   0.9081 B(  3-C , 14-H ) :   0.9096
B(  4-C ,  5-C ) :   1.9133 B(  4-C , 15-H ) :   0.9557 B(  5-C ,  6-C ) :   1.0892
B(  5-C , 16-H ) :   0.9490 B(  6-C , 17-H ) :   0.9595 B(  6-C , 18-H ) :   0.9473
B(  6-C , 19-H ) :   0.9465

FINAL SINGLE POINT ENERGY      -290.572424712936

DIPOLE MOMENT
-------------
                                X             Y             Z
Electronic contribution:      1.61769      -0.79548       0.61820
Nuclear contribution   :     -1.59958       0.69870      -0.93108
                        -----------------------------------------
Total Dipole Moment    :      0.01811      -0.09678      -0.31287
                        -----------------------------------------
Magnitude (a.u.)       :      0.32800
Magnitude (Debye)      :      0.83371

                             ****ORCA TERMINATED NORMALLY****
TOTAL RUN TIME: 0 days 0 hours 0 minutes 8 seconds 198 msec
