                         Program Version 3.0.3 - RELEASE   -
|  1> ! RI PBE def2-SVP def2-SVP/J NBO PAL2
|  2> % maxcore 2000
|  3> % output
|  4>     # printlevel mini
|  5>     print[ P_Basis ] 0
|  6>     print[ P_SCFInfo ] 1
|  7>     print[ P_SCFIterInfo ] 1
|  8>     print[ P_OrbEn ] 0
|  9>     print[ P_Cartesian ] 0
| 10> end
| 11> *xyz 0 1
| 12>  C        3.5009610000    -0.2009670000     0.3478390000
| 13>  C        4.1984650000    -1.2072050000    -0.5431280000
| 14>  N        3.3740270000    -1.5632520000    -1.6786710000
| 15>  C        4.0176950000    -2.4727780000    -2.6021980000
| 16>  C        3.1185020000    -2.8420470000    -3.7756480000
| 17>  C        3.8916500000    -3.6638460000    -4.7964370000
| 18>  C        1.8653440000    -3.5719390000    -3.3152470000
| 19>  H        4.1139260000     0.0398540000     1.2189920000
| 20>  H        2.5424010000    -0.5929390000     0.6940300000
| 21>  H        3.3090710000     0.7333530000    -0.1886660000
| 22>  H        4.4007100000    -2.1233900000     0.0231560000
| 23>  H        5.1847040000    -0.8114010000    -0.8482190000
| 24>  H        3.1014080000    -0.7201800000    -2.1728270000
| 25>  H        4.2750800000    -3.3868510000    -2.0510310000
| 26>  H        4.9713280000    -2.0694030000    -2.9909020000
| 27>  H        2.8107890000    -1.9040520000    -4.2605110000
| 28>  H        4.2400640000    -4.6024230000    -4.3532660000
| 29>  H        4.7674170000    -3.1259730000    -5.1691030000
| 30>  H        3.2635770000    -3.9185570000    -5.6535770000
| 31>  H        2.1277410000    -4.5398300000    -2.8752690000
| 32>  H        1.1895530000    -3.7609600000    -4.1533940000
| 33>  H        1.3314890000    -2.9954250000    -2.5587120000
| 34> *
| 35>
| 36>                          ****END OF INPUT****
 Total Charge           Charge          ....    0
 Multiplicity           Mult            ....    1
 Number of Electrons    NEL             ....   58
 Basis Dimension        Dim             ....  173

MULLIKEN ATOMIC CHARGES
-----------------------
   0 C :   -0.025348
   1 C :    0.068214
   2 N :   -0.257370
   3 C :    0.130718
   4 C :   -0.161552
   5 C :    0.024980
   6 C :    0.027685
   7 H :    0.020916
   8 H :    0.024598
   9 H :    0.017250
  10 H :    0.008384
  11 H :   -0.018722
  12 H :    0.094522
  13 H :   -0.006258
  14 H :   -0.024700
  15 H :    0.000024
  16 H :    0.010581
  17 H :    0.012805
  18 H :    0.015943
  19 H :    0.004349
  20 H :    0.013078
  21 H :    0.019904
Sum of atomic charges:    0.0000000

LOEWDIN ATOMIC CHARGES
----------------------
   0 C :   -0.072103
   1 C :    0.007959
   2 N :   -0.098682
   3 C :    0.015702
   4 C :   -0.054536
   5 C :   -0.057484
   6 C :   -0.060363
   7 H :    0.029542
   8 H :    0.027427
   9 H :    0.022621
  10 H :    0.019575
  11 H :   -0.004217
  12 H :    0.050920
  13 H :    0.017657
  14 H :   -0.004534
  15 H :    0.020153
  16 H :    0.023756
  17 H :    0.022703
  18 H :    0.025494
  19 H :    0.022663
  20 H :    0.022343
  21 H :    0.023403

  Mayer bond orders larger than 0.1
B(  0-C ,  1-C ) :   1.1199 B(  0-C ,  7-H ) :   0.9570 B(  0-C ,  8-H ) :   0.9613
B(  0-C ,  9-H ) :   0.9662 B(  1-C ,  2-N ) :   1.0363 B(  1-C , 10-H ) :   0.9377
B(  1-C , 11-H ) :   0.9160 B(  2-N ,  3-C ) :   1.0499 B(  2-N , 12-H ) :   0.9370
B(  3-C ,  4-C ) :   1.0508 B(  3-C , 13-H ) :   0.9206 B(  3-C , 14-H ) :   0.9192
B(  4-C ,  5-C ) :   1.0866 B(  4-C ,  6-C ) :   1.0846 B(  4-C , 15-H ) :   0.9103
B(  5-C , 16-H ) :   0.9590 B(  5-C , 17-H ) :   0.9573 B(  5-C , 18-H ) :   0.9606
B(  6-C , 19-H ) :   0.9571 B(  6-C , 20-H ) :   0.9609 B(  6-C , 21-H ) :   0.9520

FINAL SINGLE POINT ENERGY      -291.792732789217

DIPOLE MOMENT
-------------
                                X             Y             Z
Electronic contribution:     -0.03176       0.83784       0.29925
Nuclear contribution   :      0.23072      -0.59033      -0.39854
                        -----------------------------------------
Total Dipole Moment    :      0.19896       0.24751      -0.09929
                        -----------------------------------------
Magnitude (a.u.)       :      0.33272
Magnitude (Debye)      :      0.84571

                             ****ORCA TERMINATED NORMALLY****
TOTAL RUN TIME: 0 days 0 hours 0 minutes 8 seconds 388 msec
