                         Program Version 3.0.3 - RELEASE   -
|  1> ! RI PBE def2-SVP def2-SVP/J NBO PAL2
|  2> % maxcore 2000
|  3> % output
|  4>     # printlevel mini
|  5>     print[ P_Basis ] 0
|  6>     print[ P_SCFInfo ] 1
|  7>     print[ P_SCFIterInfo ] 1
|  8>     print[ P_OrbEn ] 0
|  9>     print[ P_Cartesian ] 0
| 10> end
| 11> *xyz 0 1
| 12>  C        1.6978000000    -0.3710730000    -0.1190110000
| 13>  C        3.0792470000     0.1804000000     0.1635030000
| 14>  N        3.0200210000     1.5830330000     0.5202990000
| 15>  C        4.3119740000     2.1460240000     0.8663600000
| 16>  C        4.2093370000     3.6119510000     1.1789140000
| 17>  C        3.7073050000     4.4906160000     0.0783710000
| 18>  C        4.5545750000     4.0805480000     2.3741740000
| 19>  H        1.7509400000    -1.4197650000    -0.4189460000
| 20>  H        1.2130060000     0.1950550000    -0.9169500000
| 21>  H        1.0618540000    -0.3139670000     0.7695300000
| 22>  H        3.7034840000     0.0902040000    -0.7327810000
| 23>  H        3.5703360000    -0.4302570000     0.9429050000
| 24>  H        2.3853250000     1.7083760000     1.3016100000
| 25>  H        4.9684490000     2.0114200000    -0.0039020000
| 26>  H        4.7953610000     1.6240780000     1.7093250000
| 27>  H        2.7318430000     4.1453730000    -0.2722790000
| 28>  H        4.3808540000     4.4464770000    -0.7844080000
| 29>  H        3.6260520000     5.5298280000     0.3993530000
| 30>  H        4.9179560000     3.4209640000     3.1552800000
| 31>  H        4.4937800000     5.1379050000     2.6088530000
| 32> *
| 33>
| 34>                          ****END OF INPUT****
 Total Charge           Charge          ....    0
 Multiplicity           Mult            ....    1
 Number of Electrons    NEL             ....   56
 Basis Dimension        Dim             ....  163

MULLIKEN ATOMIC CHARGES
-----------------------
   0 C :   -0.031043
   1 C :    0.064732
   2 N :   -0.274301
   3 C :    0.181077
   4 C :   -0.221037
   5 C :    0.088666
   6 C :   -0.027731
   7 H :    0.021627
   8 H :    0.028160
   9 H :    0.021928
  10 H :    0.006957
  11 H :   -0.012656
  12 H :    0.097320
  13 H :    0.007413
  14 H :   -0.023695
  15 H :    0.024995
  16 H :    0.023300
  17 H :    0.011188
  18 H :    0.006237
  19 H :    0.006866
Sum of atomic charges:   -0.0000000

LOEWDIN ATOMIC CHARGES
----------------------
   0 C :   -0.073276
   1 C :    0.007010
   2 N :   -0.100143
   3 C :    0.019912
   4 C :   -0.038539
   5 C :   -0.056310
   6 C :   -0.076612
   7 H :    0.030477
   8 H :    0.027999
   9 H :    0.023941
  10 H :    0.019551
  11 H :   -0.002424
  12 H :    0.053935
  13 H :    0.026152
  14 H :    0.001305
  15 H :    0.034543
  16 H :    0.036794
  17 H :    0.028106
  18 H :    0.018441
  19 H :    0.019137

  Mayer bond orders larger than 0.1
B(  0-C ,  1-C ) :   1.1193 B(  0-C ,  7-H ) :   0.9542 B(  0-C ,  8-H ) :   0.9618
B(  0-C ,  9-H ) :   0.9664 B(  1-C ,  2-N ) :   1.0355 B(  1-C , 10-H ) :   0.9367
B(  1-C , 11-H ) :   0.9199 B(  2-N ,  3-C ) :   1.0252 B(  2-N , 12-H ) :   0.9382
B(  3-C ,  4-C ) :   1.0510 B(  3-C , 13-H ) :   0.9113 B(  3-C , 14-H ) :   0.9048
B(  4-C ,  5-C ) :   1.0838 B(  4-C ,  6-C ) :   1.9785 B(  5-C , 15-H ) :   0.9344
B(  5-C , 16-H ) :   0.9392 B(  5-C , 17-H ) :   0.9510 B(  6-C , 18-H ) :   0.9314
B(  6-C , 19-H ) :   0.9353

FINAL SINGLE POINT ENERGY      -290.572843069744

DIPOLE MOMENT
-------------
                                X             Y             Z
Electronic contribution:      1.49899       2.09081       1.36851
Nuclear contribution   :     -1.55090      -2.32518      -1.29009
                        -----------------------------------------
Total Dipole Moment    :     -0.05191      -0.23437       0.07842
                        -----------------------------------------
Magnitude (a.u.)       :      0.25253
Magnitude (Debye)      :      0.64189

                             ****ORCA TERMINATED NORMALLY****
TOTAL RUN TIME: 0 days 0 hours 0 minutes 8 seconds 460 msec
