                         Program Version 3.0.3 - RELEASE   -
|  1> ! RI PBE def2-SVP def2-SVP/J NBO PAL2
|  2> % maxcore 2000
|  3> % output
|  4>     # printlevel mini
|  5>     print[ P_Basis ] 0
|  6>     print[ P_SCFInfo ] 1
|  7>     print[ P_SCFIterInfo ] 1
|  8>     print[ P_OrbEn ] 0
|  9>     print[ P_Cartesian ] 0
| 10> end
| 11> *xyz 0 1
| 12>  C        1.3066370000    -0.2296220000     0.6114040000
| 13>  C        2.7625660000     0.1001190000     0.3605440000
| 14>  N        3.0803260000     0.0117840000    -1.0494650000
| 15>  C        4.4552280000     0.3789890000    -1.3385190000
| 16>  C        4.7149770000     0.4480370000    -2.7687910000
| 17>  C        4.9234730000     0.5241760000    -3.9502130000
| 18>  C        5.1767510000     0.6036450000    -5.3765450000
| 19>  H        1.0780850000    -0.1947940000     1.6786320000
| 20>  H        1.0683450000    -1.2266530000     0.2360270000
| 21>  H        0.6489550000     0.4861930000     0.1091740000
| 22>  H        3.3997630000    -0.6158740000     0.8926670000
| 23>  H        2.9981560000     1.0942980000     0.7828970000
| 24>  H        2.4575070000     0.6052560000    -1.5850120000
| 25>  H        5.1128140000    -0.3741580000    -0.8871940000
| 26>  H        4.7402160000     1.3444830000    -0.8810380000
| 27>  H        5.9050410000    -0.1491110000    -5.6886670000
| 28>  H        5.5669620000     1.5858900000    -5.6547650000
| 29>  H        4.2582880000     0.4347310000    -5.9443280000
| 30> *
| 31>
| 32>                          ****END OF INPUT****
 Total Charge           Charge          ....    0
 Multiplicity           Mult            ....    1
 Number of Electrons    NEL             ....   54
 Basis Dimension        Dim             ....  153

MULLIKEN ATOMIC CHARGES
-----------------------
   0 C :   -0.024352
   1 C :    0.062642
   2 N :   -0.276382
   3 C :    0.196190
   4 C :   -0.097004
   5 C :   -0.240233
   6 C :    0.051907
   7 H :    0.021973
   8 H :    0.028973
   9 H :    0.019700
  10 H :    0.008829
  11 H :   -0.015775
  12 H :    0.100182
  13 H :    0.021627
  14 H :    0.001071
  15 H :    0.048557
  16 H :    0.043977
  17 H :    0.048117
Sum of atomic charges:    0.0000000

LOEWDIN ATOMIC CHARGES
----------------------
   0 C :   -0.071009
   1 C :    0.006391
   2 N :   -0.098771
   3 C :    0.007944
   4 C :   -0.071959
   5 C :   -0.064013
   6 C :   -0.068531
   7 H :    0.029977
   8 H :    0.029011
   9 H :    0.023987
  10 H :    0.020193
  11 H :   -0.003991
  12 H :    0.054532
  13 H :    0.039301
  14 H :    0.016406
  15 H :    0.050279
  16 H :    0.048678
  17 H :    0.051575

  Mayer bond orders larger than 0.1
B(  0-C ,  1-C ) :   1.1183 B(  0-C ,  7-H ) :   0.9580 B(  0-C ,  8-H ) :   0.9626
B(  0-C ,  9-H ) :   0.9649 B(  1-C ,  2-N ) :   1.0341 B(  1-C , 10-H ) :   0.9342
B(  1-C , 11-H ) :   0.9195 B(  2-N ,  3-C ) :   1.0258 B(  2-N , 12-H ) :   0.9418
B(  3-C ,  4-C ) :   1.0351 B(  3-C , 13-H ) :   0.8881 B(  3-C , 14-H ) :   0.8904
B(  4-C ,  5-C ) :   2.6066 B(  5-C ,  6-C ) :   1.1363 B(  6-C , 15-H ) :   0.9340
B(  6-C , 16-H ) :   0.9331 B(  6-C , 17-H ) :   0.9304

FINAL SINGLE POINT ENERGY      -289.332469388542

DIPOLE MOMENT
-------------
                                X             Y             Z
Electronic contribution:      3.38504       0.17434      -3.46605
Nuclear contribution   :     -3.41598       0.13768       3.38398
                        -----------------------------------------
Total Dipole Moment    :     -0.03095       0.31202      -0.08206
                        -----------------------------------------
Magnitude (a.u.)       :      0.32411
Magnitude (Debye)      :      0.82382

                             ****ORCA TERMINATED NORMALLY****
TOTAL RUN TIME: 0 days 0 hours 0 minutes 7 seconds 257 msec
