                         Program Version 3.0.3 - RELEASE   -
|  1> ! RI PBE def2-SVP def2-SVP/J NBO PAL2
|  2> % maxcore 2000
|  3> % output
|  4>     # printlevel mini
|  5>     print[ P_Basis ] 0
|  6>     print[ P_SCFInfo ] 1
|  7>     print[ P_SCFIterInfo ] 1
|  8>     print[ P_OrbEn ] 0
|  9>     print[ P_Cartesian ] 0
| 10> end
| 11> *xyz 0 1
| 12>  C        1.1459580000     0.5881550000     1.0436780000
| 13>  C        2.5516600000     0.3505140000     0.5332940000
| 14>  N        3.3161120000    -0.4556050000     1.4622410000
| 15>  C        4.6517090000    -0.7646170000     1.0020450000
| 16>  C        5.3953200000    -1.6274620000     2.0125930000
| 17>  C        6.7682770000    -1.9927920000     1.5571640000
| 18>  C        7.8889040000    -1.6872200000     2.1960500000
| 19>  H        0.5835210000     1.2233130000     0.3561480000
| 20>  H        1.1692290000     1.0698670000     2.0232310000
| 21>  H        0.5991070000    -0.3543700000     1.1442660000
| 22>  H        3.0692500000     1.3096250000     0.4189000000
| 23>  H        2.5094020000    -0.0979960000    -0.4761070000
| 24>  H        2.8149960000    -1.3165930000     1.6531020000
| 25>  H        5.1935950000     0.1781080000     0.8677140000
| 26>  H        4.6576620000    -1.2668260000     0.0165930000
| 27>  H        4.8152960000    -2.5465780000     2.1759000000
| 28>  H        5.4375060000    -1.1040050000     2.9713810000
| 29>  H        6.8318980000    -2.5460000000     0.6208960000
| 30>  H        7.8737750000    -1.1357040000     3.1313350000
| 31>  H        8.8598330000    -1.9783240000     1.8120750000
| 32> *
| 33>
| 34>                          ****END OF INPUT****
 Total Charge           Charge          ....    0
 Multiplicity           Mult            ....    1
 Number of Electrons    NEL             ....   56
 Basis Dimension        Dim             ....  163

MULLIKEN ATOMIC CHARGES
-----------------------
   0 C :   -0.041164
   1 C :    0.067591
   2 N :   -0.264054
   3 C :    0.082684
   4 C :    0.056521
   5 C :   -0.094411
   6 C :   -0.030694
   7 H :    0.025313
   8 H :    0.029860
   9 H :    0.019807
  10 H :    0.009500
  11 H :   -0.016607
  12 H :    0.094096
  13 H :    0.009899
  14 H :   -0.017631
  15 H :    0.016748
  16 H :    0.009172
  17 H :    0.005535
  18 H :    0.016581
  19 H :    0.021253
Sum of atomic charges:   -0.0000000

LOEWDIN ATOMIC CHARGES
----------------------
   0 C :   -0.074617
   1 C :    0.008052
   2 N :   -0.104126
   3 C :    0.015263
   4 C :   -0.046379
   5 C :   -0.029049
   6 C :   -0.065300
   7 H :    0.030413
   8 H :    0.028641
   9 H :    0.023108
  10 H :    0.020007
  11 H :   -0.003761
  12 H :    0.050356
  13 H :    0.021626
  14 H :   -0.004339
  15 H :    0.030993
  16 H :    0.029860
  17 H :    0.024278
  18 H :    0.021552
  19 H :    0.023423

  Mayer bond orders larger than 0.1
B(  0-C ,  1-C ) :   1.1203 B(  0-C ,  7-H ) :   0.9577 B(  0-C ,  8-H ) :   0.9610
B(  0-C ,  9-H ) :   0.9656 B(  1-C ,  2-N ) :   1.0376 B(  1-C , 10-H ) :   0.9375
B(  1-C , 11-H ) :   0.9180 B(  2-N ,  3-C ) :   1.0422 B(  2-N , 12-H ) :   0.9393
B(  3-C ,  4-C ) :   1.0677 B(  3-C , 13-H ) :   0.9308 B(  3-C , 14-H ) :   0.9198
B(  4-C ,  5-C ) :   1.0538 B(  4-C , 15-H ) :   0.9119 B(  4-C , 16-H ) :   0.9266
B(  5-C ,  6-C ) :   2.0175 B(  5-C , 17-H ) :   0.9524 B(  6-C , 18-H ) :   0.9463
B(  6-C , 19-H ) :   0.9454

FINAL SINGLE POINT ENERGY      -290.566539357583

DIPOLE MOMENT
-------------
                                X             Y             Z
Electronic contribution:      3.14002      -1.59122       0.99951
Nuclear contribution   :     -3.36364       1.39470      -1.23406
                        -----------------------------------------
Total Dipole Moment    :     -0.22362      -0.19652      -0.23455
                        -----------------------------------------
Magnitude (a.u.)       :      0.37900
Magnitude (Debye)      :      0.96334

                             ****ORCA TERMINATED NORMALLY****
TOTAL RUN TIME: 0 days 0 hours 0 minutes 8 seconds 287 msec
