                         Program Version 3.0.3 - RELEASE   -
|  1> ! RI PBE def2-SVP def2-SVP/J NBO PAL2
|  2> % maxcore 2000
|  3> % output
|  4>     # printlevel mini
|  5>     print[ P_Basis ] 0
|  6>     print[ P_SCFInfo ] 1
|  7>     print[ P_SCFIterInfo ] 1
|  8>     print[ P_OrbEn ] 0
|  9>     print[ P_Cartesian ] 0
| 10> end
| 11> *xyz 0 1
| 12>  C        1.2157450000     0.4086490000    -0.5756350000
| 13>  C        2.7013220000     0.1770030000    -0.7532150000
| 14>  N        3.3297260000    -0.1728040000     0.5052930000
| 15>  C        4.7388800000    -0.4689260000     0.3840850000
| 16>  C        5.3378590000    -0.7726470000     1.7543100000
| 17>  C        6.7605610000    -1.0571660000     1.6952440000
| 18>  C        7.9367220000    -1.2878050000     1.6254780000
| 19>  H        0.7530590000     0.7057810000    -1.5189700000
| 20>  H        1.0339730000     1.1916730000     0.1632500000
| 21>  H        0.7130130000    -0.5013370000    -0.2341400000
| 22>  H        3.1766970000     1.0937520000    -1.1193700000
| 23>  H        2.8676330000    -0.5888430000    -1.5318320000
| 24>  H        2.8472480000    -0.9679240000     0.9105010000
| 25>  H        5.2399810000     0.4085290000    -0.0363510000
| 26>  H        4.9523730000    -1.3081260000    -0.2994730000
| 27>  H        4.8204540000    -1.6314030000     2.1988280000
| 28>  H        5.1538200000     0.0781820000     2.4173730000
| 29>  H        8.9796130000    -1.4917890000     1.5699360000
| 30> *
| 31>
| 32>                          ****END OF INPUT****
 Total Charge           Charge          ....    0
 Multiplicity           Mult            ....    1
 Number of Electrons    NEL             ....   54
 Basis Dimension        Dim             ....  153

MULLIKEN ATOMIC CHARGES
-----------------------
   0 C :   -0.030895
   1 C :    0.066212
   2 N :   -0.263929
   3 C :    0.063335
   4 C :    0.077428
   5 C :    0.329783
   6 C :   -0.497610
   7 H :    0.021981
   8 H :    0.031054
   9 H :    0.019200
  10 H :    0.007298
  11 H :   -0.007926
  12 H :    0.095654
  13 H :    0.017236
  14 H :    0.002615
  15 H :    0.030236
  16 H :    0.042047
  17 H :   -0.003716
Sum of atomic charges:    0.0000000

LOEWDIN ATOMIC CHARGES
----------------------
   0 C :   -0.071804
   1 C :    0.008999
   2 N :   -0.104713
   3 C :    0.022236
   4 C :   -0.052258
   5 C :   -0.020991
   6 C :   -0.092507
   7 H :    0.030619
   8 H :    0.028719
   9 H :    0.023282
  10 H :    0.020296
  11 H :   -0.000930
  12 H :    0.051430
  13 H :    0.025341
  14 H :    0.003530
  15 H :    0.045125
  16 H :    0.050374
  17 H :    0.033253

  Mayer bond orders larger than 0.1
B(  0-C ,  1-C ) :   1.1183 B(  0-C ,  7-H ) :   0.9567 B(  0-C ,  8-H ) :   0.9636
B(  0-C ,  9-H ) :   0.9655 B(  1-C ,  2-N ) :   1.0258 B(  1-C , 10-H ) :   0.9357
B(  1-C , 11-H ) :   0.9241 B(  2-N ,  3-C ) :   1.0495 B(  2-N , 12-H ) :   0.9361
B(  3-C ,  4-C ) :   1.0637 B(  3-C , 13-H ) :   0.9323 B(  3-C , 14-H ) :   0.9254
B(  4-C ,  5-C ) :   1.0580 B(  4-C , 15-H ) :   0.8942 B(  4-C , 16-H ) :   0.8912
B(  5-C ,  6-C ) :   2.3425 B(  5-C , 17-H ) :  -0.1116 B(  6-C , 17-H ) :   1.1025

FINAL SINGLE POINT ENERGY      -289.324254429893

DIPOLE MOMENT
-------------
                                X             Y             Z
Electronic contribution:      7.49792      -1.78014       3.72998
Nuclear contribution   :     -7.87102       1.58397      -3.92730
                        -----------------------------------------
Total Dipole Moment    :     -0.37310      -0.19617      -0.19732
                        -----------------------------------------
Magnitude (a.u.)       :      0.46542
Magnitude (Debye)      :      1.18301

                             ****ORCA TERMINATED NORMALLY****
TOTAL RUN TIME: 0 days 0 hours 0 minutes 7 seconds 538 msec
