                         Program Version 3.0.3 - RELEASE   -
|  1> ! RI PBE def2-SVP def2-SVP/J NBO PAL2
|  2> % maxcore 2000
|  3> % output
|  4>     # printlevel mini
|  5>     print[ P_Basis ] 0
|  6>     print[ P_SCFInfo ] 1
|  7>     print[ P_SCFIterInfo ] 1
|  8>     print[ P_OrbEn ] 0
|  9>     print[ P_Cartesian ] 0
| 10> end
| 11> *xyz 0 1
| 12>  C        3.6027010000    -1.4673270000     4.0116160000
| 13>  C        4.2272070000    -2.2032610000     2.8446690000
| 14>  N        3.5864320000    -1.8437060000     1.5970380000
| 15>  C        4.1762190000    -2.4531290000     0.4176560000
| 16>  C        3.6464680000    -3.8599690000     0.1720610000
| 17>  C        2.1805230000    -3.8739810000    -0.2291460000
| 18>  N        1.9977890000    -3.2553130000    -1.5361810000
| 19>  H        4.0745430000    -1.7547820000     4.9536490000
| 20>  H        2.5344480000    -1.6842680000     4.0768860000
| 21>  H        3.7194170000    -0.3848080000     3.9004920000
| 22>  H        4.1146420000    -3.2820560000     2.9944170000
| 23>  H        5.3155650000    -2.0097180000     2.8217000000
| 24>  H        3.5876550000    -0.8368870000     1.4997580000
| 25>  H        5.2777540000    -2.4829400000     0.4811760000
| 26>  H        3.9154700000    -1.8423900000    -0.4500770000
| 27>  H        3.7798310000    -4.4748640000     1.0682330000
| 28>  H        4.2464240000    -4.3339680000    -0.6144230000
| 29>  H        1.6217740000    -3.2857420000     0.5040220000
| 30>  H        1.7994300000    -4.9052270000    -0.1766010000
| 31>  H        2.3563010000    -3.8582350000    -2.2671440000
| 32>  H        1.0162090000    -3.1077490000    -1.7308890000
| 33> *
| 34>
| 35>                          ****END OF INPUT****
 Total Charge           Charge          ....    0
 Multiplicity           Mult            ....    1
 Number of Electrons    NEL             ....   58
 Basis Dimension        Dim             ....  168

MULLIKEN ATOMIC CHARGES
-----------------------
   0 C :   -0.033128
   1 C :    0.053983
   2 N :   -0.248936
   3 C :    0.083226
   4 C :   -0.007076
   5 C :    0.070061
   6 N :   -0.220666
   7 H :    0.016954
   8 H :    0.027829
   9 H :    0.019921
  10 H :    0.013585
  11 H :   -0.013559
  12 H :    0.096556
  13 H :   -0.016820
  14 H :    0.001259
  15 H :   -0.000733
  16 H :   -0.005938
  17 H :    0.003298
  18 H :   -0.012508
  19 H :    0.084540
  20 H :    0.088150
Sum of atomic charges:   -0.0000000

LOEWDIN ATOMIC CHARGES
----------------------
   0 C :   -0.073414
   1 C :    0.005571
   2 N :   -0.097187
   3 C :    0.008449
   4 C :   -0.058297
   5 C :    0.004275
   6 N :   -0.110272
   7 H :    0.028591
   8 H :    0.027622
   9 H :    0.022670
  10 H :    0.017283
  11 H :   -0.002970
  12 H :    0.053604
  13 H :   -0.001549
  14 H :    0.019186
  15 H :    0.021222
  16 H :    0.020264
  17 H :    0.017558
  18 H :   -0.002767
  19 H :    0.048329
  20 H :    0.051832

  Mayer bond orders larger than 0.1
B(  0-C ,  1-C ) :   1.1160 B(  0-C ,  7-H ) :   0.9571 B(  0-C ,  8-H ) :   0.9619
B(  0-C ,  9-H ) :   0.9669 B(  1-C ,  2-N ) :   1.0364 B(  1-C , 10-H ) :   0.9363
B(  1-C , 11-H ) :   0.9175 B(  2-N ,  3-C ) :   1.0737 B(  2-N , 12-H ) :   0.9439
B(  3-C ,  4-C ) :   1.0906 B(  3-C , 13-H ) :   0.9130 B(  3-C , 14-H ) :   0.9247
B(  4-C ,  5-C ) :   1.0900 B(  4-C , 15-H ) :   0.9226 B(  4-C , 16-H ) :   0.9251
B(  5-C ,  6-N ) :   1.0805 B(  5-C , 17-H ) :   0.9264 B(  5-C , 18-H ) :   0.9333
B(  6-N , 19-H ) :   0.9705 B(  6-N , 20-H ) :   0.9684

FINAL SINGLE POINT ENERGY      -307.804643854614

DIPOLE MOMENT
-------------
                                X             Y             Z
Electronic contribution:     -0.77067       0.19849      -2.65873
Nuclear contribution   :      0.70231      -0.34672       2.53311
                        -----------------------------------------
Total Dipole Moment    :     -0.06835      -0.14823      -0.12562
                        -----------------------------------------
Magnitude (a.u.)       :      0.20597
Magnitude (Debye)      :      0.52354

                             ****ORCA TERMINATED NORMALLY****
TOTAL RUN TIME: 0 days 0 hours 0 minutes 8 seconds 300 msec
