                         Program Version 3.0.3 - RELEASE   -
|  1> ! RI PBE def2-SVP def2-SVP/J NBO PAL2
|  2> % maxcore 2000
|  3> % output
|  4>     # printlevel mini
|  5>     print[ P_Basis ] 0
|  6>     print[ P_SCFInfo ] 1
|  7>     print[ P_SCFIterInfo ] 1
|  8>     print[ P_OrbEn ] 0
|  9>     print[ P_Cartesian ] 0
| 10> end
| 11> *xyz 0 1
| 12>  C        1.0221690000    -0.1826430000    -0.2972430000
| 13>  C        2.2789150000     0.0428600000     0.0757880000
| 14>  N        2.9847140000    -0.6861780000     1.0274930000
| 15>  C        2.2931550000    -1.4399430000     1.9774160000
| 16>  C        2.7430050000    -2.5467080000     2.5600080000
| 17>  C        4.3756400000    -0.6511500000     1.0444730000
| 18>  N        5.1660640000    -0.2747900000     0.1317780000
| 19>  H        0.5428140000     0.4929010000    -0.9919390000
| 20>  H        0.4482090000    -1.0266820000     0.0637040000
| 21>  H        2.8402110000     0.8757210000    -0.3346810000
| 22>  H        1.3240840000    -1.0224390000     2.2324340000
| 23>  H        3.6789920000    -3.0156630000     2.2834020000
| 24>  H        2.1618610000    -3.0099850000     3.3455070000
| 25>  H        4.7801990000    -0.9775390000     2.0017920000
| 26>  H        4.6813880000    -0.0490630000    -0.7353430000
| 27> *
| 28>
| 29>                          ****END OF INPUT****
 Total Charge           Charge          ....    0
 Multiplicity           Mult            ....    1
 Number of Electrons    NEL             ....   52
 Basis Dimension        Dim             ....  138

MULLIKEN ATOMIC CHARGES
-----------------------
   0 C :   -0.079568
   1 C :    0.048473
   2 N :   -0.155487
   3 C :    0.060767
   4 C :   -0.073590
   5 C :    0.015398
   6 N :   -0.113014
   7 H :    0.034591
   8 H :    0.038277
   9 H :    0.016386
  10 H :    0.019722
  11 H :    0.039509
  12 H :    0.036102
  13 H :    0.025199
  14 H :    0.087236
Sum of atomic charges:    0.0000000

LOEWDIN ATOMIC CHARGES
----------------------
   0 C :   -0.096520
   1 C :    0.005766
   2 N :    0.014573
   3 C :    0.014815
   4 C :   -0.091355
   5 C :    0.033398
   6 N :   -0.124828
   7 H :    0.033937
   8 H :    0.028092
   9 H :    0.025915
  10 H :    0.028447
  11 H :    0.029156
  12 H :    0.034315
  13 H :    0.020338
  14 H :    0.043952

  Mayer bond orders larger than 0.1
B(  0-C ,  1-C ) :   1.9000 B(  0-C ,  7-H ) :   0.9390 B(  0-C ,  8-H ) :   0.9504
B(  1-C ,  2-N ) :   1.0656 B(  1-C ,  9-H ) :   0.9421 B(  2-N ,  3-C ) :   1.0560
B(  2-N ,  5-C ) :   1.0505 B(  3-C ,  4-C ) :   1.9050 B(  3-C , 10-H ) :   0.9455
B(  4-C , 11-H ) :   0.9509 B(  4-C , 12-H ) :   0.9411 B(  5-C ,  6-N ) :   2.0215
B(  5-C , 13-H ) :   0.9366 B(  6-N , 14-H ) :   0.9442

FINAL SINGLE POINT ENERGY      -304.179275769268

DIPOLE MOMENT
-------------
                                X             Y             Z
Electronic contribution:      2.35354       1.05912      -0.33712
Nuclear contribution   :     -3.23985      -1.11141       0.46150
                        -----------------------------------------
Total Dipole Moment    :     -0.88631      -0.05229       0.12438
                        -----------------------------------------
Magnitude (a.u.)       :      0.89652
Magnitude (Debye)      :      2.27877

                             ****ORCA TERMINATED NORMALLY****
TOTAL RUN TIME: 0 days 0 hours 0 minutes 6 seconds 980 msec
