                         Program Version 3.0.3 - RELEASE   -
|  1> ! RI PBE def2-SVP def2-SVP/J NBO PAL2
|  2> % maxcore 2000
|  3> % output
|  4>     # printlevel mini
|  5>     print[ P_Basis ] 0
|  6>     print[ P_SCFInfo ] 1
|  7>     print[ P_SCFIterInfo ] 1
|  8>     print[ P_OrbEn ] 0
|  9>     print[ P_Cartesian ] 0
| 10> end
| 11> *xyz 0 1
| 12>  C        0.7986340000    -0.0588050000    -0.1684960000
| 13>  C        2.3108010000    -0.1962490000    -0.0353390000
| 14>  N        2.7762790000    -1.5793990000     0.0069980000
| 15>  C        3.0201080000     0.5508840000    -1.1580770000
| 16>  C        4.5414850000     0.5368210000    -1.0815640000
| 17>  C        5.1200710000     1.1907920000     0.1627650000
| 18>  N        4.6788830000     2.5737610000     0.2919690000
| 19>  H        0.2848120000    -0.5827720000     0.6424220000
| 20>  H        0.4542160000    -0.4870080000    -1.1159980000
| 21>  H        0.4883750000     0.9896330000    -0.1411350000
| 22>  H        2.6062940000     0.2623000000     0.9155690000
| 23>  H        2.5115370000    -2.0559310000    -0.8494690000
| 24>  H        2.3266750000    -2.0796080000     0.7646750000
| 25>  H        2.6651600000     1.5847000000    -1.1575320000
| 26>  H        2.7078960000     0.1118280000    -2.1155170000
| 27>  H        4.9426310000     1.0456780000    -1.9674150000
| 28>  H        4.9015220000    -0.4944870000    -1.1217210000
| 29>  H        6.2153800000     1.0812800000     0.1339130000
| 30>  H        4.7816330000     0.6455520000     1.0488100000
| 31>  H        5.0484270000     3.1321080000    -0.4689560000
| 32>  H        5.0267720000     2.9826020000     1.1497990000
| 33> *
| 34>
| 35>                          ****END OF INPUT****
 Total Charge           Charge          ....    0
 Multiplicity           Mult            ....    1
 Number of Electrons    NEL             ....   58
 Basis Dimension        Dim             ....  168

MULLIKEN ATOMIC CHARGES
-----------------------
   0 C :    0.045205
   1 C :   -0.085774
   2 N :   -0.177424
   3 C :    0.025341
   4 C :    0.023414
   5 C :    0.038412
   6 N :   -0.213643
   7 H :    0.002017
   8 H :   -0.002735
   9 H :    0.011066
  10 H :    0.009551
  11 H :    0.079689
  12 H :    0.081366
  13 H :    0.004195
  14 H :   -0.013464
  15 H :   -0.008249
  16 H :    0.001916
  17 H :   -0.004300
  18 H :    0.012685
  19 H :    0.085367
  20 H :    0.085364
Sum of atomic charges:   -0.0000000

LOEWDIN ATOMIC CHARGES
----------------------
   0 C :   -0.074951
   1 C :   -0.006887
   2 N :   -0.095640
   3 C :   -0.041906
   4 C :   -0.048441
   5 C :    0.002835
   6 N :   -0.113251
   7 H :    0.018013
   8 H :    0.017666
   9 H :    0.025939
  10 H :    0.020803
  11 H :    0.046095
  12 H :    0.048563
  13 H :    0.023361
  14 H :    0.016931
  15 H :    0.017746
  16 H :    0.024270
  17 H :    0.000440
  18 H :    0.018568
  19 H :    0.048635
  20 H :    0.051209

  Mayer bond orders larger than 0.1
B(  0-C ,  1-C ) :   1.0813 B(  0-C ,  7-H ) :   0.9562 B(  0-C ,  8-H ) :   0.9527
B(  0-C ,  9-H ) :   0.9489 B(  1-C ,  2-N ) :   1.0689 B(  1-C ,  3-C ) :   1.0668
B(  1-C , 10-H ) :   0.9061 B(  2-N , 11-H ) :   0.9668 B(  2-N , 12-H ) :   0.9688
B(  3-C ,  4-C ) :   1.0921 B(  3-C , 13-H ) :   0.9213 B(  3-C , 14-H ) :   0.9197
B(  4-C ,  5-C ) :   1.1048 B(  4-C , 15-H ) :   0.9271 B(  4-C , 16-H ) :   0.9123
B(  5-C ,  6-N ) :   1.0748 B(  5-C , 17-H ) :   0.9294 B(  5-C , 18-H ) :   0.9324
B(  6-N , 19-H ) :   0.9683 B(  6-N , 20-H ) :   0.9674

FINAL SINGLE POINT ENERGY      -307.812046533392

DIPOLE MOMENT
-------------
                                X             Y             Z
Electronic contribution:      1.48165      -0.00378       0.52562
Nuclear contribution   :     -1.44235       0.04786      -0.47536
                        -----------------------------------------
Total Dipole Moment    :      0.03930       0.04408       0.05026
                        -----------------------------------------
Magnitude (a.u.)       :      0.07755
Magnitude (Debye)      :      0.19711

                             ****ORCA TERMINATED NORMALLY****
TOTAL RUN TIME: 0 days 0 hours 0 minutes 8 seconds 528 msec
