                         Program Version 3.0.3 - RELEASE   -
|  1> ! RI PBE def2-SVP def2-SVP/J NBO PAL2
|  2> % maxcore 2000
|  3> % output
|  4>     # printlevel mini
|  5>     print[ P_Basis ] 0
|  6>     print[ P_SCFInfo ] 1
|  7>     print[ P_SCFIterInfo ] 1
|  8>     print[ P_OrbEn ] 0
|  9>     print[ P_Cartesian ] 0
| 10> end
| 11> *xyz 0 1
| 12>  C        0.9246490000    -0.1325430000     0.0251040000
| 13>  C        2.4212630000    -0.0920600000    -0.0333380000
| 14>  N        3.0595610000    -0.7727080000     0.9488880000
| 15>  C        3.0925950000     0.5830000000    -1.0075160000
| 16>  C        2.4482360000     1.3546760000    -2.1210990000
| 17>  C        4.5051000000     0.5465680000    -0.9549660000
| 18>  N        5.6577450000     0.4883800000    -0.8710130000
| 19>  H        0.5791740000    -0.7217150000     0.8753450000
| 20>  H        0.5094200000    -0.5765610000    -0.8815050000
| 21>  H        0.5094340000     0.8722590000     0.1224570000
| 22>  H        2.5435870000    -1.2609220000     1.6534080000
| 23>  H        4.0647220000    -0.7967170000     0.9835080000
| 24>  H        1.3614560000     1.3102860000    -2.0570270000
| 25>  H        2.7391130000     0.9621480000    -3.0998160000
| 26>  H        2.7391270000     2.4089010000    -2.0972710000
| 27> *
| 28>
| 29>                          ****END OF INPUT****
 Total Charge           Charge          ....    0
 Multiplicity           Mult            ....    1
 Number of Electrons    NEL             ....   52
 Basis Dimension        Dim             ....  138

MULLIKEN ATOMIC CHARGES
-----------------------
   0 C :    0.042550
   1 C :   -0.122954
   2 N :   -0.012703
   3 C :   -0.255969
   4 C :    0.091874
   5 C :   -0.198471
   6 N :    0.024014
   7 H :    0.012152
   8 H :    0.056347
   9 H :    0.056702
  10 H :    0.107776
  11 H :    0.122632
  12 H :    0.007262
  13 H :    0.031806
  14 H :    0.036981
Sum of atomic charges:   -0.0000000

LOEWDIN ATOMIC CHARGES
----------------------
   0 C :   -0.056025
   1 C :    0.028112
   2 N :    0.034509
   3 C :   -0.180637
   4 C :   -0.045030
   5 C :   -0.053253
   6 N :   -0.108210
   7 H :    0.031722
   8 H :    0.047987
   9 H :    0.047882
  10 H :    0.071686
  11 H :    0.079140
  12 H :    0.029129
  13 H :    0.036007
  14 H :    0.036982

  Mayer bond orders larger than 0.1
B(  0-C ,  1-C ) :   1.0791 B(  0-C ,  7-H ) :   0.9407 B(  0-C ,  8-H ) :   0.9430
B(  0-C ,  9-H ) :   0.9438 B(  1-C ,  2-N ) :   1.3659 B(  1-C ,  3-C ) :   1.5774
B(  2-N , 10-H ) :   0.9368 B(  2-N , 11-H ) :   0.9301 B(  3-C ,  4-C ) :   1.1125
B(  3-C ,  5-C ) :   1.1627 B(  4-C , 12-H ) :   0.9327 B(  4-C , 13-H ) :   0.9467
B(  4-C , 14-H ) :   0.9474 B(  5-C ,  6-N ) :   2.9278

FINAL SINGLE POINT ENERGY      -304.219889391919

DIPOLE MOMENT
-------------
                                X             Y             Z
Electronic contribution:      7.29817      -0.60242       0.86967
Nuclear contribution   :     -9.14543       0.07637      -0.11009
                        -----------------------------------------
Total Dipole Moment    :     -1.84726      -0.52606       0.75959
                        -----------------------------------------
Magnitude (a.u.)       :      2.06545
Magnitude (Debye)      :      5.24995

                             ****ORCA TERMINATED NORMALLY****
TOTAL RUN TIME: 0 days 0 hours 0 minutes 7 seconds 192 msec
