                         Program Version 3.0.3 - RELEASE   -
|  1> ! RI PBE def2-SVP def2-SVP/J NBO PAL2
|  2> % maxcore 2000
|  3> % output
|  4>     # printlevel mini
|  5>     print[ P_Basis ] 0
|  6>     print[ P_SCFInfo ] 1
|  7>     print[ P_SCFIterInfo ] 1
|  8>     print[ P_OrbEn ] 0
|  9>     print[ P_Cartesian ] 0
| 10> end
| 11> *xyz 0 1
| 12>  C        3.8129660000     0.8941040000    -1.0350930000
| 13>  C        3.4256200000     0.3134430000     0.3251560000
| 14>  N        2.1665590000     0.8393380000     0.8515960000
| 15>  C        3.3412620000    -1.1797990000     0.2537730000
| 16>  C        4.1453560000    -2.0265380000     0.8815530000
| 17>  C        4.0543470000    -3.5128900000     0.7861590000
| 18>  N        5.3293830000    -4.0717830000     0.3542420000
| 19>  H        3.8639430000     1.9858400000    -0.9871330000
| 20>  H        3.0705320000     0.6247230000    -1.7931180000
| 21>  H        4.7855420000     0.5212320000    -1.3663810000
| 22>  H        4.2067400000     0.5721620000     1.0485900000
| 23>  H        1.3986690000     0.5592020000     0.2503500000
| 24>  H        2.1840440000     1.8531120000     0.8402610000
| 25>  H        2.5490690000    -1.5771080000    -0.3844750000
| 26>  H        4.9477790000    -1.6451430000     1.5107580000
| 27>  H        3.2003840000    -3.7816280000     0.1454780000
| 28>  H        3.8422490000    -3.9196250000     1.7821800000
| 29>  H        5.5333320000    -3.7819310000    -0.5944210000
| 30>  H        5.2987420000    -5.0834010000     0.3614240000
| 31> *
| 32>
| 33>                          ****END OF INPUT****
 Total Charge           Charge          ....    0
 Multiplicity           Mult            ....    1
 Number of Electrons    NEL             ....   56
 Basis Dimension        Dim             ....  158

MULLIKEN ATOMIC CHARGES
-----------------------
   0 C :    0.021992
   1 C :   -0.017589
   2 N :   -0.175294
   3 C :   -0.005529
   4 C :   -0.094739
   5 C :    0.152048
   6 N :   -0.231486
   7 H :    0.016346
   8 H :    0.005527
   9 H :    0.012894
  10 H :    0.003664
  11 H :    0.079578
  12 H :    0.081914
  13 H :   -0.020997
  14 H :   -0.003173
  15 H :   -0.012930
  16 H :    0.012414
  17 H :    0.086406
  18 H :    0.088954
Sum of atomic charges:   -0.0000000

LOEWDIN ATOMIC CHARGES
----------------------
   0 C :   -0.078121
   1 C :   -0.005566
   2 N :   -0.095159
   3 C :   -0.035820
   4 C :   -0.040894
   5 C :    0.006441
   6 N :   -0.112937
   7 H :    0.021708
   8 H :    0.019802
   9 H :    0.026503
  10 H :    0.025321
  11 H :    0.045927
  12 H :    0.048364
  13 H :    0.016273
  14 H :    0.024985
  15 H :    0.001998
  16 H :    0.029970
  17 H :    0.049730
  18 H :    0.051475

  Mayer bond orders larger than 0.1
B(  0-C ,  1-C ) :   1.0551 B(  0-C ,  7-H ) :   0.9552 B(  0-C ,  8-H ) :   0.9532
B(  0-C ,  9-H ) :   0.9464 B(  1-C ,  2-N ) :   1.0561 B(  1-C ,  3-C ) :   1.0127
B(  1-C , 10-H ) :   0.9136 B(  2-N , 11-H ) :   0.9683 B(  2-N , 12-H ) :   0.9663
B(  3-C ,  4-C ) :   1.9139 B(  3-C , 13-H ) :   0.9388 B(  4-C ,  5-C ) :   1.0652
B(  4-C , 14-H ) :   0.9588 B(  5-C ,  6-N ) :   1.0590 B(  5-C , 15-H ) :   0.9232
B(  5-C , 16-H ) :   0.9101 B(  6-N , 17-H ) :   0.9719 B(  6-N , 18-H ) :   0.9666

FINAL SINGLE POINT ENERGY      -306.588545663733

DIPOLE MOMENT
-------------
                                X             Y             Z
Electronic contribution:     -0.09098      -1.29723       2.14607
Nuclear contribution   :     -0.13169       1.24734      -2.85981
                        -----------------------------------------
Total Dipole Moment    :     -0.22267      -0.04990      -0.71374
                        -----------------------------------------
Magnitude (a.u.)       :      0.74933
Magnitude (Debye)      :      1.90463

                             ****ORCA TERMINATED NORMALLY****
TOTAL RUN TIME: 0 days 0 hours 0 minutes 7 seconds 984 msec
