                         Program Version 3.0.3 - RELEASE   -
|  1> ! RI PBE def2-SVP def2-SVP/J NBO PAL2
|  2> % maxcore 2000
|  3> % output
|  4>     # printlevel mini
|  5>     print[ P_Basis ] 0
|  6>     print[ P_SCFInfo ] 1
|  7>     print[ P_SCFIterInfo ] 1
|  8>     print[ P_OrbEn ] 0
|  9>     print[ P_Cartesian ] 0
| 10> end
| 11> *xyz 0 1
| 12>  C        1.9232420000    -1.0740090000    -0.2516720000
| 13>  C        3.2337400000    -0.3443910000     0.0057110000
| 14>  N        3.4995180000     0.7406240000    -0.9414930000
| 15>  C        3.3800380000     0.2073260000     1.4068270000
| 16>  C        2.3597590000     0.3888990000     2.2370330000
| 17>  C        4.7945870000     0.5530370000     1.7809020000
| 18>  N        4.8939900000     1.3234880000     3.0080870000
| 19>  H        1.9242370000    -1.4936030000    -1.2610490000
| 20>  H        1.0710500000    -0.3926380000    -0.1793810000
| 21>  H        1.7668170000    -1.8918180000     0.4560560000
| 22>  H        4.0508530000    -1.0669870000    -0.1316880000
| 23>  H        2.7530200000     1.4250100000    -0.8852130000
| 24>  H        3.5049500000     0.3843970000    -1.8901440000
| 25>  H        1.3451580000     0.1248980000     1.9655720000
| 26>  H        2.5277230000     0.7913670000     3.2286830000
| 27>  H        5.2542090000     1.0357290000     0.9065330000
| 28>  H        5.3390400000    -0.3889160000     1.9297750000
| 29>  H        4.5179900000     2.2533860000     2.8640780000
| 30>  H        5.8641790000     1.4345910000     3.2720940000
| 31> *
| 32>
| 33>                          ****END OF INPUT****
 Total Charge           Charge          ....    0
 Multiplicity           Mult            ....    1
 Number of Electrons    NEL             ....   56
 Basis Dimension        Dim             ....  158

MULLIKEN ATOMIC CHARGES
-----------------------
   0 C :    0.036106
   1 C :   -0.017012
   2 N :   -0.176316
   3 C :   -0.180866
   4 C :   -0.027705
   5 C :    0.152792
   6 N :   -0.202291
   7 H :    0.003297
   8 H :    0.015416
   9 H :    0.017975
  10 H :    0.003354
  11 H :    0.083758
  12 H :    0.083324
  13 H :    0.003022
  14 H :    0.008662
  15 H :    0.006272
  16 H :    0.008878
  17 H :    0.092136
  18 H :    0.089200
Sum of atomic charges:    0.0000000

LOEWDIN ATOMIC CHARGES
----------------------
   0 C :   -0.074718
   1 C :   -0.000503
   2 N :   -0.088843
   3 C :   -0.040712
   4 C :   -0.078287
   5 C :    0.006575
   6 N :   -0.102464
   7 H :    0.021064
   8 H :    0.021528
   9 H :    0.028498
  10 H :    0.026579
  11 H :    0.048644
  12 H :    0.048846
  13 H :    0.016598
  14 H :    0.020014
  15 H :    0.009271
  16 H :    0.031240
  17 H :    0.052833
  18 H :    0.053837

  Mayer bond orders larger than 0.1
B(  0-C ,  1-C ) :   1.0924 B(  0-C ,  7-H ) :   0.9510 B(  0-C ,  8-H ) :   0.9436
B(  0-C ,  9-H ) :   0.9441 B(  1-C ,  2-N ) :   1.0695 B(  1-C ,  3-C ) :   1.0009
B(  1-C , 10-H ) :   0.8966 B(  2-N , 11-H ) :   0.9673 B(  2-N , 12-H ) :   0.9676
B(  3-C ,  4-C ) :   2.0105 B(  3-C ,  5-C ) :   1.0215 B(  4-C , 13-H ) :   0.9228
B(  4-C , 14-H ) :   0.9022 B(  5-C ,  6-N ) :   1.1184 B(  5-C , 15-H ) :   0.9113
B(  5-C , 16-H ) :   0.8988 B(  6-N , 17-H ) :   0.9656 B(  6-N , 18-H ) :   0.9617

FINAL SINGLE POINT ENERGY      -306.590888638465

DIPOLE MOMENT
-------------
                                X             Y             Z
Electronic contribution:      1.53395       1.17723       1.21531
Nuclear contribution   :     -1.46045      -1.05050      -1.76866
                        -----------------------------------------
Total Dipole Moment    :      0.07349       0.12673      -0.55335
                        -----------------------------------------
Magnitude (a.u.)       :      0.57241
Magnitude (Debye)      :      1.45496

                             ****ORCA TERMINATED NORMALLY****
TOTAL RUN TIME: 0 days 0 hours 0 minutes 7 seconds 984 msec
