                         Program Version 3.0.3 - RELEASE   -
|  1> ! RI PBE def2-SVP def2-SVP/J NBO PAL2
|  2> % maxcore 2000
|  3> % output
|  4>     # printlevel mini
|  5>     print[ P_Basis ] 0
|  6>     print[ P_SCFInfo ] 1
|  7>     print[ P_SCFIterInfo ] 1
|  8>     print[ P_OrbEn ] 0
|  9>     print[ P_Cartesian ] 0
| 10> end
| 11> *xyz 0 1
| 12>  C        1.0380800000    -0.0273060000     0.1823160000
| 13>  C        2.5567820000     0.0510770000     0.0709820000
| 14>  N        3.0734780000    -0.6735630000    -1.0889460000
| 15>  C        3.0825200000     1.4913780000     0.0352980000
| 16>  C        2.4637840000     2.3869710000     1.0986130000
| 17>  C        4.6058920000     1.5138850000     0.1472900000
| 18>  N        5.1347180000     2.8342340000    -0.1813970000
| 19>  H        0.7117410000    -1.0701020000     0.1424190000
| 20>  H        0.5629690000     0.5033080000    -0.6500400000
| 21>  H        0.6633090000     0.4028780000     1.1132900000
| 22>  H        2.9891830000    -0.4328170000     0.9579530000
| 23>  H        2.6374920000    -0.3156410000    -1.9328790000
| 24>  H        2.8217400000    -1.6531030000    -1.0309460000
| 25>  H        2.8196290000     1.9007100000    -0.9535870000
| 26>  H        2.5619450000     1.9335570000     2.0912580000
| 27>  H        1.4041680000     2.5781450000     0.9206780000
| 28>  H        2.9869650000     3.3443440000     1.1141070000
| 29>  H        5.0159550000     0.7068360000    -0.4701010000
| 30>  H        4.8762430000     1.2974170000     1.1878590000
| 31>  H        5.0670460000     2.9935350000    -1.1799780000
| 32>  H        6.1181500000     2.8877570000     0.0513900000
| 33> *
| 34>
| 35>                          ****END OF INPUT****
 Total Charge           Charge          ....    0
 Multiplicity           Mult            ....    1
 Number of Electrons    NEL             ....   58
 Basis Dimension        Dim             ....  168

MULLIKEN ATOMIC CHARGES
-----------------------
   0 C :    0.040502
   1 C :   -0.036306
   2 N :   -0.175851
   3 C :   -0.125720
   4 C :    0.033701
   5 C :    0.117016
   6 N :   -0.203027
   7 H :    0.001077
   8 H :    0.006173
   9 H :    0.014679
  10 H :   -0.006915
  11 H :    0.079503
  12 H :    0.085679
  13 H :   -0.019666
  14 H :    0.006524
  15 H :    0.015434
  16 H :    0.018805
  17 H :   -0.004754
  18 H :   -0.018059
  19 H :    0.084341
  20 H :    0.086866
Sum of atomic charges:   -0.0000000

LOEWDIN ATOMIC CHARGES
----------------------
   0 C :   -0.076049
   1 C :    0.001027
   2 N :   -0.090930
   3 C :   -0.051693
   4 C :   -0.061222
   5 C :    0.009888
   6 N :   -0.109044
   7 H :    0.018901
   8 H :    0.021044
   9 H :    0.025273
  10 H :    0.018901
  11 H :    0.046277
  12 H :    0.049910
  13 H :    0.015563
  14 H :    0.021128
  15 H :    0.020548
  16 H :    0.026497
  17 H :   -0.000904
  18 H :    0.014581
  19 H :    0.048675
  20 H :    0.051629

  Mayer bond orders larger than 0.1
B(  0-C ,  1-C ) :   1.0802 B(  0-C ,  7-H ) :   0.9560 B(  0-C ,  8-H ) :   0.9532
B(  0-C ,  9-H ) :   0.9393 B(  1-C ,  2-N ) :   1.0679 B(  1-C ,  3-C ) :   1.0107
B(  1-C , 10-H ) :   0.9009 B(  2-N , 11-H ) :   0.9685 B(  2-N , 12-H ) :   0.9667
B(  3-C ,  4-C ) :   1.0835 B(  3-C ,  5-C ) :   1.0574 B(  3-C , 13-H ) :   0.8998
B(  4-C , 14-H ) :   0.9590 B(  4-C , 15-H ) :   0.9531 B(  4-C , 16-H ) :   0.9382
B(  5-C ,  6-N ) :   1.0906 B(  5-C , 17-H ) :   0.9231 B(  5-C , 18-H ) :   0.9222
B(  6-N , 19-H ) :   0.9709 B(  6-N , 20-H ) :   0.9657

FINAL SINGLE POINT ENERGY      -307.810929163563

DIPOLE MOMENT
-------------
                                X             Y             Z
Electronic contribution:      2.54936      -0.33390      -1.37050
Nuclear contribution   :     -2.64819      -0.06084       1.01174
                        -----------------------------------------
Total Dipole Moment    :     -0.09883      -0.39474      -0.35876
                        -----------------------------------------
Magnitude (a.u.)       :      0.54249
Magnitude (Debye)      :      1.37891

                             ****ORCA TERMINATED NORMALLY****
TOTAL RUN TIME: 0 days 0 hours 0 minutes 8 seconds 668 msec
