                         Program Version 3.0.3 - RELEASE   -
|  1> ! RI PBE def2-SVP def2-SVP/J NBO PAL2
|  2> % maxcore 2000
|  3> % output
|  4>     # printlevel mini
|  5>     print[ P_Basis ] 0
|  6>     print[ P_SCFInfo ] 1
|  7>     print[ P_SCFIterInfo ] 1
|  8>     print[ P_OrbEn ] 0
|  9>     print[ P_Cartesian ] 0
| 10> end
| 11> *xyz 0 1
| 12>  C        2.9936430000    -1.3017470000    -0.5081710000
| 13>  C        2.4046210000    -0.0654820000     0.1587220000
| 14>  N        0.9736930000     0.0820350000    -0.1082730000
| 15>  C        2.6204880000    -0.0222740000     1.6917540000
| 16>  C        2.3096070000     1.3869630000     2.1976110000
| 17>  C        4.0526000000    -0.3829600000     2.0614980000
| 18>  N        1.7329480000    -1.0263770000     2.2860420000
| 19>  H        2.7199070000    -1.3177690000    -1.5664250000
| 20>  H        2.5979980000    -2.2051100000    -0.0359320000
| 21>  H        4.0837420000    -1.3330960000    -0.4503020000
| 22>  H        2.8959900000     0.8247670000    -0.2511550000
| 23>  H        0.5248500000    -0.8204030000     0.0080340000
| 24>  H        0.8243930000     0.3536350000    -1.0716790000
| 25>  H        2.3746660000     1.4205460000     3.2888540000
| 26>  H        1.3033370000     1.6817940000     1.8941150000
| 27>  H        3.0152970000     2.1208660000     1.7960230000
| 28>  H        4.2130320000    -0.2260250000     3.1324830000
| 29>  H        4.2717950000    -1.4278310000     1.8372730000
| 30>  H        4.7684690000     0.2462670000     1.5269440000
| 31>  H        0.7856850000    -0.6648680000     2.2985910000
| 32>  H        1.9944160000    -1.1900220000     3.2511020000
| 33> *
| 34>
| 35>                          ****END OF INPUT****
 Total Charge           Charge          ....    0
 Multiplicity           Mult            ....    1
 Number of Electrons    NEL             ....   58
 Basis Dimension        Dim             ....  168

MULLIKEN ATOMIC CHARGES
-----------------------
   0 C :    0.037128
   1 C :   -0.008237
   2 N :   -0.176080
   3 C :   -0.260755
   4 C :    0.088920
   5 C :    0.069115
   6 N :   -0.147695
   7 H :   -0.000931
   8 H :    0.017774
   9 H :    0.012717
  10 H :   -0.011582
  11 H :    0.086142
  12 H :    0.086025
  13 H :   -0.000853
  14 H :    0.012854
  15 H :   -0.004637
  16 H :    0.006048
  17 H :    0.019673
  18 H :    0.011113
  19 H :    0.084211
  20 H :    0.079048
Sum of atomic charges:    0.0000000

LOEWDIN ATOMIC CHARGES
----------------------
   0 C :   -0.079632
   1 C :    0.002323
   2 N :   -0.091338
   3 C :   -0.028781
   4 C :   -0.068248
   5 C :   -0.055276
   6 N :   -0.088641
   7 H :    0.018302
   8 H :    0.024300
   9 H :    0.023394
  10 H :    0.017587
  11 H :    0.047590
  12 H :    0.050958
  13 H :    0.016140
  14 H :    0.021180
  15 H :    0.020320
  16 H :    0.022264
  17 H :    0.024770
  18 H :    0.026900
  19 H :    0.047445
  20 H :    0.048443

  Mayer bond orders larger than 0.1
B(  0-C ,  1-C ) :   1.0874 B(  0-C ,  7-H ) :   0.9538 B(  0-C ,  8-H ) :   0.9413
B(  0-C ,  9-H ) :   0.9401 B(  1-C ,  2-N ) :   1.1040 B(  1-C ,  3-C ) :   0.9606
B(  1-C , 10-H ) :   0.9112 B(  2-N , 11-H ) :   0.9613 B(  2-N , 12-H ) :   0.9669
B(  3-C ,  4-C ) :   1.0526 B(  3-C ,  5-C ) :   1.0682 B(  3-C ,  6-N ) :   1.0576
B(  4-C , 13-H ) :   0.9523 B(  4-C , 14-H ) :   0.9399 B(  4-C , 15-H ) :   0.9419
B(  5-C , 16-H ) :   0.9490 B(  5-C , 17-H ) :   0.9425 B(  5-C , 18-H ) :   0.9543
B(  6-N , 19-H ) :   0.9544 B(  6-N , 20-H ) :   0.9605

FINAL SINGLE POINT ENERGY      -307.816911947406

DIPOLE MOMENT
-------------
                                X             Y             Z
Electronic contribution:     -2.33682      -0.23260      -0.16156
Nuclear contribution   :      2.32404       0.24081       0.09177
                        -----------------------------------------
Total Dipole Moment    :     -0.01277       0.00820      -0.06979
                        -----------------------------------------
Magnitude (a.u.)       :      0.07142
Magnitude (Debye)      :      0.18154

                             ****ORCA TERMINATED NORMALLY****
TOTAL RUN TIME: 0 days 0 hours 0 minutes 8 seconds 823 msec
