                         Program Version 3.0.3 - RELEASE   -
|  1> ! RI PBE def2-SVP def2-SVP/J NBO PAL2
|  2> % maxcore 2000
|  3> % output
|  4>     # printlevel mini
|  5>     print[ P_Basis ] 0
|  6>     print[ P_SCFInfo ] 1
|  7>     print[ P_SCFIterInfo ] 1
|  8>     print[ P_OrbEn ] 0
|  9>     print[ P_Cartesian ] 0
| 10> end
| 11> *xyz 0 1
| 12>  C        1.0952840000     0.2052780000     0.3558040000
| 13>  C        2.5431520000    -0.0353990000    -0.0797590000
| 14>  N        2.7362910000    -1.2127870000    -0.9230770000
| 15>  C        3.0724290000     1.1480550000    -0.7529780000
| 16>  C        3.4722470000     2.1437330000    -1.2957970000
| 17>  C        3.9729070000     3.3279800000    -1.9781360000
| 18>  N        2.8933850000     4.2482260000    -2.3206050000
| 19>  H        0.7169960000    -0.6685920000     0.8930080000
| 20>  H        0.4608110000     0.3785450000    -0.5167110000
| 21>  H        1.0183050000     1.0751390000     1.0116130000
| 22>  H        3.1462600000    -0.1946730000     0.8232030000
| 23>  H        2.2651890000    -1.0775430000    -1.8104020000
| 24>  H        2.3133470000    -2.0202760000    -0.4796070000
| 25>  H        4.5677350000     2.9931340000    -2.8426780000
| 26>  H        4.6669160000     3.8507150000    -1.3109510000
| 27>  H        2.2147730000     3.7781740000    -2.9070280000
| 28>  H        3.2631020000     5.0267900000    -2.8524790000
| 29> *
| 30>
| 31>                          ****END OF INPUT****
 Total Charge           Charge          ....    0
 Multiplicity           Mult            ....    1
 Number of Electrons    NEL             ....   54
 Basis Dimension        Dim             ....  148

MULLIKEN ATOMIC CHARGES
-----------------------
   0 C :    0.018934
   1 C :    0.001682
   2 N :   -0.170713
   3 C :   -0.075921
   4 C :   -0.187333
   5 C :    0.156565
   6 N :   -0.215650
   7 H :    0.011579
   8 H :    0.015711
   9 H :    0.030836
  10 H :    0.020087
  11 H :    0.088887
  12 H :    0.081426
  13 H :    0.018042
  14 H :    0.025856
  15 H :    0.092043
  16 H :    0.087971
Sum of atomic charges:   -0.0000000

LOEWDIN ATOMIC CHARGES
----------------------
   0 C :   -0.067511
   1 C :   -0.010574
   2 N :   -0.089419
   3 C :   -0.050925
   4 C :   -0.062937
   5 C :    0.000258
   6 N :   -0.107853
   7 H :    0.021096
   8 H :    0.024646
   9 H :    0.032586
  10 H :    0.041720
  11 H :    0.050632
  12 H :    0.049117
  13 H :    0.022487
  14 H :    0.042164
  15 H :    0.052058
  16 H :    0.052456

  Mayer bond orders larger than 0.1
B(  0-C ,  1-C ) :   1.0665 B(  0-C ,  7-H ) :   0.9553 B(  0-C ,  8-H ) :   0.9526
B(  0-C ,  9-H ) :   0.9500 B(  1-C ,  2-N ) :   1.0892 B(  1-C ,  3-C ) :   1.0092
B(  1-C , 10-H ) :   0.8662 B(  2-N , 11-H ) :   0.9646 B(  2-N , 12-H ) :   0.9653
B(  3-C ,  4-C ) :   2.6533 B(  4-C ,  5-C ) :   1.0716 B(  5-C ,  6-N ) :   1.0806
B(  5-C , 13-H ) :   0.9036 B(  5-C , 14-H ) :   0.8900 B(  6-N , 15-H ) :   0.9684
B(  6-N , 16-H ) :   0.9618

FINAL SINGLE POINT ENERGY      -305.347043343750

DIPOLE MOMENT
-------------
                                X             Y             Z
Electronic contribution:      2.72944       0.73472      -0.64449
Nuclear contribution   :     -3.05263      -0.79519       0.23115
                        -----------------------------------------
Total Dipole Moment    :     -0.32319      -0.06047      -0.41334
                        -----------------------------------------
Magnitude (a.u.)       :      0.52816
Magnitude (Debye)      :      1.34248

                             ****ORCA TERMINATED NORMALLY****
TOTAL RUN TIME: 0 days 0 hours 0 minutes 7 seconds 376 msec
