                         Program Version 3.0.3 - RELEASE   -
|  1> ! RI PBE def2-SVP def2-SVP/J NBO PAL2
|  2> % maxcore 2000
|  3> % output
|  4>     # printlevel mini
|  5>     print[ P_Basis ] 0
|  6>     print[ P_SCFInfo ] 1
|  7>     print[ P_SCFIterInfo ] 1
|  8>     print[ P_OrbEn ] 0
|  9>     print[ P_Cartesian ] 0
| 10> end
| 11> *xyz 0 1
| 12>  C        3.3771900000    -1.4270130000    -1.8428550000
| 13>  C        3.0991540000    -0.0931020000    -1.1578940000
| 14>  N        1.6773890000     0.1919000000    -0.9915700000
| 15>  C        3.7538020000     0.0052720000     0.2142160000
| 16>  C        5.2695450000    -0.1387680000     0.2660960000
| 17>  C        5.9849230000     0.9153850000    -0.5722350000
| 18>  N        5.6668310000    -0.1351870000     1.6705340000
| 19>  H        2.8524420000    -1.4833980000    -2.8005710000
| 20>  H        3.0306850000    -2.2579030000    -1.2194610000
| 21>  H        4.4415970000    -1.5787360000    -2.0422700000
| 22>  H        3.4972680000     0.7083140000    -1.7918050000
| 23>  H        1.2560460000    -0.5054140000    -0.3863960000
| 24>  H        1.1988390000     0.1273090000    -1.8825370000
| 25>  H        3.3247010000    -0.7633240000     0.8686310000
| 26>  H        3.4738050000     0.9735000000     0.6469540000
| 27>  H        5.5387290000    -1.1280850000    -0.1230010000
| 28>  H        5.7084640000     1.9216830000    -0.2405700000
| 29>  H        5.7443020000     0.8350790000    -1.6359080000
| 30>  H        7.0691540000     0.8142780000    -0.4723540000
| 31>  H        5.4158650000     0.7513980000     2.0959720000
| 32>  H        6.6734790000    -0.2191790000     1.7518240000
| 33> *
| 34>
| 35>                          ****END OF INPUT****
 Total Charge           Charge          ....    0
 Multiplicity           Mult            ....    1
 Number of Electrons    NEL             ....   58
 Basis Dimension        Dim             ....  168

MULLIKEN ATOMIC CHARGES
-----------------------
   0 C :    0.024838
   1 C :   -0.069346
   2 N :   -0.170407
   3 C :    0.043106
   4 C :   -0.041326
   5 C :   -0.002747
   6 N :   -0.177809
   7 H :    0.005878
   8 H :    0.005999
   9 H :    0.014725
  10 H :    0.003099
  11 H :    0.080987
  12 H :    0.078634
  13 H :    0.002730
  14 H :   -0.000599
  15 H :   -0.003608
  16 H :    0.010097
  17 H :    0.022145
  18 H :    0.013489
  19 H :    0.081206
  20 H :    0.078911
Sum of atomic charges:   -0.0000000

LOEWDIN ATOMIC CHARGES
----------------------
   0 C :   -0.079445
   1 C :   -0.005802
   2 N :   -0.095049
   3 C :   -0.041751
   4 C :   -0.003147
   5 C :   -0.082364
   6 N :   -0.095873
   7 H :    0.021023
   8 H :    0.021902
   9 H :    0.022289
  10 H :    0.018958
  11 H :    0.046839
  12 H :    0.047820
  13 H :    0.022835
  14 H :    0.021853
  15 H :    0.017736
  16 H :    0.022552
  17 H :    0.023303
  18 H :    0.021959
  19 H :    0.046698
  20 H :    0.047663

  Mayer bond orders larger than 0.1
B(  0-C ,  1-C ) :   1.0656 B(  0-C ,  7-H ) :   0.9548 B(  0-C ,  8-H ) :   0.9524
B(  0-C ,  9-H ) :   0.9410 B(  1-C ,  2-N ) :   1.0907 B(  1-C ,  3-C ) :   1.0566
B(  1-C , 10-H ) :   0.9013 B(  2-N , 11-H ) :   0.9673 B(  2-N , 12-H ) :   0.9649
B(  3-C ,  4-C ) :   1.0595 B(  3-C , 13-H ) :   0.9163 B(  3-C , 14-H ) :   0.9190
B(  4-C ,  5-C ) :   1.0612 B(  4-C ,  6-N ) :   1.0826 B(  4-C , 15-H ) :   0.9015
B(  5-C , 16-H ) :   0.9554 B(  5-C , 17-H ) :   0.9425 B(  5-C , 18-H ) :   0.9570
B(  6-N , 19-H ) :   0.9670 B(  6-N , 20-H ) :   0.9663

FINAL SINGLE POINT ENERGY      -307.813122689864

DIPOLE MOMENT
-------------
                                X             Y             Z
Electronic contribution:     -1.27052       0.35688       1.94291
Nuclear contribution   :      1.49178      -0.42009      -2.28759
                        -----------------------------------------
Total Dipole Moment    :      0.22125      -0.06321      -0.34467
                        -----------------------------------------
Magnitude (a.u.)       :      0.41443
Magnitude (Debye)      :      1.05338

                             ****ORCA TERMINATED NORMALLY****
TOTAL RUN TIME: 0 days 0 hours 0 minutes 8 seconds 693 msec
