                         Program Version 3.0.3 - RELEASE   -
|  1> ! RI PBE def2-SVP def2-SVP/J NBO PAL2
|  2> % maxcore 2000
|  3> % output
|  4>     # printlevel mini
|  5>     print[ P_Basis ] 0
|  6>     print[ P_SCFInfo ] 1
|  7>     print[ P_SCFIterInfo ] 1
|  8>     print[ P_OrbEn ] 0
|  9>     print[ P_Cartesian ] 0
| 10> end
| 11> *xyz 0 1
| 12>  C        2.4187230000    -0.7323170000     1.1630200000
| 13>  C        2.5416520000     0.1445430000    -0.0720630000
| 14>  N        3.0161590000     1.4802240000     0.2168570000
| 15>  C        2.1225500000     2.4800530000     0.5544810000
| 16>  C        0.8002750000     2.3792150000     0.6875850000
| 17>  C        4.3666380000     1.7599180000     0.2110480000
| 18>  N        5.3528400000     0.9919100000     0.0023180000
| 19>  H        2.0411390000    -1.7204160000     0.8907130000
| 20>  H        1.7316870000    -0.2914340000     1.8873690000
| 21>  H        3.3873870000    -0.8600950000     1.6503330000
| 22>  H        1.5787990000     0.2386260000    -0.5789410000
| 23>  H        3.2249750000    -0.3046380000    -0.7974460000
| 24>  H        2.6064970000     3.4376430000     0.7194990000
| 25>  H        0.2518870000     1.4555600000     0.5598340000
| 26>  H        0.2313300000     3.2622610000     0.9413900000
| 27>  H        4.5676400000     2.8125410000     0.4178860000
| 28>  H        5.0756210000     0.0271250000    -0.1660710000
| 29> *
| 30>
| 31>                          ****END OF INPUT****
 Total Charge           Charge          ....    0
 Multiplicity           Mult            ....    1
 Number of Electrons    NEL             ....   54
 Basis Dimension        Dim             ....  148

MULLIKEN ATOMIC CHARGES
-----------------------
   0 C :   -0.006926
   1 C :    0.018705
   2 N :   -0.173716
   3 C :    0.062679
   4 C :   -0.091457
   5 C :   -0.002227
   6 N :   -0.116165
   7 H :    0.031746
   8 H :    0.038799
   9 H :    0.031083
  10 H :    0.030365
  11 H :    0.023077
  12 H :    0.011915
  13 H :    0.021433
  14 H :    0.024754
  15 H :    0.017765
  16 H :    0.078170
Sum of atomic charges:   -0.0000000

LOEWDIN ATOMIC CHARGES
----------------------
   0 C :   -0.069383
   1 C :    0.024358
   2 N :    0.004385
   3 C :    0.012174
   4 C :   -0.136199
   5 C :    0.025276
   6 N :   -0.147894
   7 H :    0.034054
   8 H :    0.033024
   9 H :    0.029840
  10 H :    0.030851
  11 H :    0.023211
  12 H :    0.029301
  13 H :    0.019875
  14 H :    0.031387
  15 H :    0.017851
  16 H :    0.037887

  Mayer bond orders larger than 0.1
B(  0-C ,  1-C ) :   1.1225 B(  0-C ,  7-H ) :   0.9598 B(  0-C ,  8-H ) :   0.9604
B(  0-C ,  9-H ) :   0.9593 B(  1-C ,  2-N ) :   0.9856 B(  1-C , 10-H ) :   0.9249
B(  1-C , 11-H ) :   0.9294 B(  2-N ,  3-C ) :   1.1057 B(  2-N ,  5-C ) :   1.0908
B(  3-C ,  4-C ) :   1.8786 B(  3-C , 12-H ) :   0.9453 B(  4-C , 13-H ) :   0.9464
B(  4-C , 14-H ) :   0.9297 B(  5-C ,  6-N ) :   2.0047 B(  5-C , 15-H ) :   0.9367
B(  6-N , 16-H ) :   0.9482

FINAL SINGLE POINT ENERGY      -305.401587297869

DIPOLE MOMENT
-------------
                                X             Y             Z
Electronic contribution:      3.58453       3.11031      -1.39759
Nuclear contribution   :     -4.46497      -3.45113       1.43324
                        -----------------------------------------
Total Dipole Moment    :     -0.88045      -0.34081       0.03565
                        -----------------------------------------
Magnitude (a.u.)       :      0.94478
Magnitude (Debye)      :      2.40145

                             ****ORCA TERMINATED NORMALLY****
TOTAL RUN TIME: 0 days 0 hours 0 minutes 7 seconds 830 msec
