                         Program Version 3.0.3 - RELEASE   -
|  1> ! RI PBE def2-SVP def2-SVP/J NBO PAL2
|  2> % maxcore 2000
|  3> % output
|  4>     # printlevel mini
|  5>     print[ P_Basis ] 0
|  6>     print[ P_SCFInfo ] 1
|  7>     print[ P_SCFIterInfo ] 1
|  8>     print[ P_OrbEn ] 0
|  9>     print[ P_Cartesian ] 0
| 10> end
| 11> *xyz 0 1
| 12>  C        0.9342430000    -0.2256170000    -0.6091410000
| 13>  C        1.8744110000    -1.4154990000    -0.6445790000
| 14>  N        2.7940770000    -1.4692380000     0.4781320000
| 15>  C        2.1055970000    -1.6983010000     1.7286460000
| 16>  C        3.8340590000    -2.4527650000     0.2492050000
| 17>  C        5.0073310000    -2.3381060000     1.2088600000
| 18>  N        6.0686000000    -3.2366840000     0.7817210000
| 19>  H        0.3711210000    -0.1697390000    -1.5435350000
| 20>  H        1.4976950000     0.7025600000    -0.4899680000
| 21>  H        0.2068450000    -0.2912800000     0.2020250000
| 22>  H        2.4798260000    -1.3555620000    -1.5538220000
| 23>  H        1.2849880000    -2.3499890000    -0.7234520000
| 24>  H        1.3689130000    -0.9146750000     1.9065510000
| 25>  H        2.8089070000    -1.6723890000     2.5614690000
| 26>  H        1.5835580000    -2.6736050000     1.7512240000
| 27>  H        4.2164160000    -2.2969010000    -0.7659530000
| 28>  H        3.4470370000    -3.4879570000     0.2821420000
| 29>  H        4.7061420000    -2.6443310000     2.2141750000
| 30>  H        5.3010520000    -1.2792440000     1.2684220000
| 31>  H        6.4816610000    -2.9114640000    -0.0840860000
| 32>  H        6.8106310000    -3.2682020000     1.4682650000
| 33> *
| 34>
| 35>                          ****END OF INPUT****
 Total Charge           Charge          ....    0
 Multiplicity           Mult            ....    1
 Number of Electrons    NEL             ....   58
 Basis Dimension        Dim             ....  168

MULLIKEN ATOMIC CHARGES
-----------------------
   0 C :   -0.016824
   1 C :    0.075089
   2 N :   -0.338103
   3 C :    0.105008
   4 C :    0.087420
   5 C :    0.080287
   6 N :   -0.221514
   7 H :    0.016622
   8 H :    0.023547
   9 H :    0.029099
  10 H :    0.005039
  11 H :   -0.021816
  12 H :    0.018286
  13 H :    0.022562
  14 H :   -0.017150
  15 H :   -0.008192
  16 H :   -0.014511
  17 H :    0.002680
  18 H :   -0.004350
  19 H :    0.087031
  20 H :    0.089791
Sum of atomic charges:   -0.0000000

LOEWDIN ATOMIC CHARGES
----------------------
   0 C :   -0.072845
   1 C :    0.014112
   2 N :   -0.113944
   3 C :    0.002119
   4 C :    0.009398
   5 C :    0.000101
   6 N :   -0.110210
   7 H :    0.030276
   8 H :    0.027211
   9 H :    0.023475
  10 H :    0.020124
  11 H :   -0.004181
  12 H :    0.021015
  13 H :    0.021167
  14 H :   -0.002085
  15 H :    0.016578
  16 H :   -0.000366
  17 H :    0.016876
  18 H :   -0.000954
  19 H :    0.049295
  20 H :    0.052838

  Mayer bond orders larger than 0.1
B(  0-C ,  1-C ) :   1.1140 B(  0-C ,  7-H ) :   0.9538 B(  0-C ,  8-H ) :   0.9605
B(  0-C ,  9-H ) :   0.9611 B(  1-C ,  2-N ) :   1.0243 B(  1-C , 10-H ) :   0.9388
B(  1-C , 11-H ) :   0.9149 B(  2-N ,  3-C ) :   1.0262 B(  2-N ,  4-C ) :   1.0242
B(  3-C , 12-H ) :   0.9630 B(  3-C , 13-H ) :   0.9640 B(  3-C , 14-H ) :   0.9306
B(  4-C ,  5-C ) :   1.0769 B(  4-C , 15-H ) :   0.9362 B(  4-C , 16-H ) :   0.9107
B(  5-C ,  6-N ) :   1.0848 B(  5-C , 17-H ) :   0.9234 B(  5-C , 18-H ) :   0.9290
B(  6-N , 19-H ) :   0.9695 B(  6-N , 20-H ) :   0.9650

FINAL SINGLE POINT ENERGY      -307.794166036134

DIPOLE MOMENT
-------------
                                X             Y             Z
Electronic contribution:      2.98857      -0.87124       0.03222
Nuclear contribution   :     -2.76332       1.11765      -0.00022
                        -----------------------------------------
Total Dipole Moment    :      0.22524       0.24642       0.03201
                        -----------------------------------------
Magnitude (a.u.)       :      0.33538
Magnitude (Debye)      :      0.85247

                             ****ORCA TERMINATED NORMALLY****
TOTAL RUN TIME: 0 days 0 hours 0 minutes 9 seconds 85 msec
