                         Program Version 3.0.3 - RELEASE   -
|  1> ! RI PBE def2-SVP def2-SVP/J NBO PAL2
|  2> % maxcore 2000
|  3> % output
|  4>     # printlevel mini
|  5>     print[ P_Basis ] 0
|  6>     print[ P_SCFInfo ] 1
|  7>     print[ P_SCFIterInfo ] 1
|  8>     print[ P_OrbEn ] 0
|  9>     print[ P_Cartesian ] 0
| 10> end
| 11> *xyz 0 1
| 12>  C        2.6353030000    -0.6680060000    -0.8151510000
| 13>  C        2.7045750000     0.2514960000     0.3967160000
| 14>  N        3.3166310000     1.5365510000     0.1372100000
| 15>  C        2.4564630000     2.5290470000    -0.4612500000
| 16>  C        4.6903410000     1.6484130000     0.1144680000
| 17>  C        5.2514040000     2.9976160000    -0.2372220000
| 18>  N        5.5309290000     0.7246680000     0.3924190000
| 19>  H        2.1680630000    -1.6189700000    -0.5483780000
| 20>  H        3.6322040000    -0.8757690000    -1.2085420000
| 21>  H        2.0432250000    -0.2182990000    -1.6155520000
| 22>  H        3.2449110000    -0.2346510000     1.2137240000
| 23>  H        1.6958910000     0.4415420000     0.7750930000
| 24>  H        1.4813210000     2.5029590000     0.0312550000
| 25>  H        2.2939780000     2.3680910000    -1.5359430000
| 26>  H        2.8626600000     3.5291630000    -0.3291620000
| 27>  H        4.8891570000     3.7757550000     0.4397730000
| 28>  H        4.9883820000     3.2932400000    -1.2562800000
| 29>  H        6.3333750000     2.9332090000    -0.1576550000
| 30>  H        5.0799790000    -0.1622640000     0.5982780000
| 31> *
| 32>
| 33>                          ****END OF INPUT****
 Total Charge           Charge          ....    0
 Multiplicity           Mult            ....    1
 Number of Electrons    NEL             ....   56
 Basis Dimension        Dim             ....  158

MULLIKEN ATOMIC CHARGES
-----------------------
   0 C :   -0.015443
   1 C :    0.043360
   2 N :   -0.252888
   3 C :    0.105126
   4 C :   -0.144530
   5 C :    0.029171
   6 N :   -0.119791
   7 H :    0.026155
   8 H :    0.031849
   9 H :    0.022677
  10 H :    0.020802
  11 H :    0.010060
  12 H :    0.017189
  13 H :    0.024982
  14 H :    0.032298
  15 H :    0.040092
  16 H :    0.031885
  17 H :    0.034807
  18 H :    0.062199
Sum of atomic charges:   -0.0000000

LOEWDIN ATOMIC CHARGES
----------------------
   0 C :   -0.075992
   1 C :    0.017690
   2 N :   -0.050948
   3 C :    0.017065
   4 C :    0.006391
   5 C :   -0.071441
   6 N :   -0.179994
   7 H :    0.031461
   8 H :    0.028989
   9 H :    0.026013
  10 H :    0.020856
  11 H :    0.023549
  12 H :    0.023974
  13 H :    0.013908
  14 H :    0.029348
  15 H :    0.034705
  16 H :    0.034054
  17 H :    0.042473
  18 H :    0.027898

  Mayer bond orders larger than 0.1
B(  0-C ,  1-C ) :   1.1185 B(  0-C ,  7-H ) :   0.9582 B(  0-C ,  8-H ) :   0.9592
B(  0-C ,  9-H ) :   0.9593 B(  1-C ,  2-N ) :   1.0114 B(  1-C , 10-H ) :   0.9299
B(  1-C , 11-H ) :   0.9326 B(  2-N ,  3-C ) :   1.0125 B(  2-N ,  4-C ) :   1.1243
B(  3-C , 12-H ) :   0.9579 B(  3-C , 13-H ) :   0.9554 B(  3-C , 14-H ) :   0.9570
B(  4-C ,  5-C ) :   1.0522 B(  4-C ,  6-N ) :   2.0079 B(  5-C , 15-H ) :   0.9417
B(  5-C , 16-H ) :   0.9443 B(  5-C , 17-H ) :   0.9399 B(  6-N , 18-H ) :   0.9429

FINAL SINGLE POINT ENERGY      -306.614919567974

DIPOLE MOMENT
-------------
                                X             Y             Z
Electronic contribution:      3.01084      -0.07412       2.20685
Nuclear contribution   :     -4.28442       0.29313      -2.44083
                        -----------------------------------------
Total Dipole Moment    :     -1.27358       0.21901      -0.23398
                        -----------------------------------------
Magnitude (a.u.)       :      1.31328
Magnitude (Debye)      :      3.33810

                             ****ORCA TERMINATED NORMALLY****
TOTAL RUN TIME: 0 days 0 hours 0 minutes 8 seconds 941 msec
