                         Program Version 3.0.3 - RELEASE   -
|  1> ! RI PBE def2-SVP def2-SVP/J NBO PAL2
|  2> % maxcore 2000
|  3> % output
|  4>     # printlevel mini
|  5>     print[ P_Basis ] 0
|  6>     print[ P_SCFInfo ] 1
|  7>     print[ P_SCFIterInfo ] 1
|  8>     print[ P_OrbEn ] 0
|  9>     print[ P_Cartesian ] 0
| 10> end
| 11> *xyz 0 1
| 12>  C        3.3381100000    -1.1397090000     0.0468270000
| 13>  C        2.8028220000     0.2314970000     0.4064100000
| 14>  N        3.1681940000     1.2681190000    -0.5485780000
| 15>  C        2.4667940000     2.5077140000    -0.2875190000
| 16>  C        4.5900800000     1.4707240000    -0.6782140000
| 17>  C        5.2564330000     1.9119430000     0.5640030000
| 18>  N        5.7267700000     2.2474130000     1.5585290000
| 19>  H        2.9042370000    -1.8897850000     0.7109250000
| 20>  H        4.4226270000    -1.2076960000     0.1582540000
| 21>  H        3.0771830000    -1.3999730000    -0.9814760000
| 22>  H        3.1181320000     0.5009830000     1.4296200000
| 23>  H        1.7099020000     0.1970470000     0.4170880000
| 24>  H        1.3912290000     2.3243450000    -0.3164700000
| 25>  H        2.7060160000     3.2386240000    -1.0634390000
| 26>  H        2.7143180000     2.9494750000     0.6914290000
| 27>  H        4.7783650000     2.2252060000    -1.4467500000
| 28>  H        5.0756990000     0.5506450000    -1.0102180000
| 29> *
| 30>
| 31>                          ****END OF INPUT****
 Total Charge           Charge          ....    0
 Multiplicity           Mult            ....    1
 Number of Electrons    NEL             ....   54
 Basis Dimension        Dim             ....  148

MULLIKEN ATOMIC CHARGES
-----------------------
   0 C :   -0.027774
   1 C :    0.044409
   2 N :   -0.322538
   3 C :    0.079844
   4 C :    0.196093
   5 C :   -0.314953
   6 N :    0.035097
   7 H :    0.029244
   8 H :    0.034912
   9 H :    0.029000
  10 H :    0.012187
  11 H :    0.022180
  12 H :    0.032190
  13 H :    0.025875
  14 H :    0.019275
  15 H :    0.050607
  16 H :    0.054352
Sum of atomic charges:   -0.0000000

LOEWDIN ATOMIC CHARGES
----------------------
   0 C :   -0.073265
   1 C :    0.011787
   2 N :   -0.096375
   3 C :    0.002393
   4 C :   -0.001147
   5 C :   -0.069291
   6 N :   -0.064909
   7 H :    0.037112
   8 H :    0.026648
   9 H :    0.029244
  10 H :    0.007562
  11 H :    0.026916
  12 H :    0.027281
  13 H :    0.025379
  14 H :    0.008901
  15 H :    0.051898
  16 H :    0.049867

  Mayer bond orders larger than 0.1
B(  0-C ,  1-C ) :   1.1214 B(  0-C ,  7-H ) :   0.9515 B(  0-C ,  8-H ) :   0.9596
B(  0-C ,  9-H ) :   0.9584 B(  1-C ,  2-N ) :   1.0228 B(  1-C , 10-H ) :   0.9177
B(  1-C , 11-H ) :   0.9408 B(  2-N ,  3-C ) :   1.0252 B(  2-N ,  4-C ) :   1.0935
B(  3-C , 12-H ) :   0.9663 B(  3-C , 13-H ) :   0.9624 B(  3-C , 14-H ) :   0.9421
B(  4-C ,  5-C ) :   0.9991 B(  4-C , 15-H ) :   0.9051 B(  4-C , 16-H ) :   0.9039
B(  5-C ,  6-N ) :   3.0557

FINAL SINGLE POINT ENERGY      -305.394627808146

DIPOLE MOMENT
-------------
                                X             Y             Z
Electronic contribution:      5.51736       3.71475       1.70391
Nuclear contribution   :     -6.23776      -4.11631      -2.59513
                        -----------------------------------------
Total Dipole Moment    :     -0.72040      -0.40156      -0.89122
                        -----------------------------------------
Magnitude (a.u.)       :      1.21429
Magnitude (Debye)      :      3.08649

                             ****ORCA TERMINATED NORMALLY****
TOTAL RUN TIME: 0 days 0 hours 0 minutes 7 seconds 838 msec
