                         Program Version 3.0.3 - RELEASE   -
|  1> ! RI PBE def2-SVP def2-SVP/J NBO PAL2
|  2> % maxcore 2000
|  3> % output
|  4>     # printlevel mini
|  5>     print[ P_Basis ] 0
|  6>     print[ P_SCFInfo ] 1
|  7>     print[ P_SCFIterInfo ] 1
|  8>     print[ P_OrbEn ] 0
|  9>     print[ P_Cartesian ] 0
| 10> end
| 11> *xyz 0 1
| 12>  C        2.0367970000     0.5122520000    -1.2954620000
| 13>  C        2.3038510000     0.1076330000     0.1471310000
| 14>  N        2.9543730000     1.1389640000     0.9210960000
| 15>  C        2.1308700000     2.0400900000     1.6968400000
| 16>  C        1.6331050000     1.4478480000     3.0056330000
| 17>  C        4.3078230000     1.2949430000     0.8846030000
| 18>  N        5.1958630000     0.6314740000     0.2577770000
| 19>  H        1.5482470000    -0.2998120000    -1.8394480000
| 20>  H        2.9678020000     0.7577690000    -1.8096480000
| 21>  H        1.3860560000     1.3886380000    -1.3410540000
| 22>  H        2.9172940000    -0.7989660000     0.1792770000
| 23>  H        1.3648600000    -0.1474090000     0.6454270000
| 24>  H        1.2804800000     2.3627320000     1.0844060000
| 25>  H        2.7179840000     2.9398090000     1.8988570000
| 26>  H        1.0398090000     0.5457660000     2.8380400000
| 27>  H        1.0018060000     2.1661990000     3.5346920000
| 28>  H        2.4714090000     1.1838400000     3.6537440000
| 29>  H        4.6437170000     2.1297750000     1.5051810000
| 30>  H        4.7971540000    -0.1223450000    -0.2986940000
| 31> *
| 32>
| 33>                          ****END OF INPUT****
 Total Charge           Charge          ....    0
 Multiplicity           Mult            ....    1
 Number of Electrons    NEL             ....   56
 Basis Dimension        Dim             ....  158

MULLIKEN ATOMIC CHARGES
-----------------------
   0 C :   -0.020657
   1 C :    0.040650
   2 N :   -0.232444
   3 C :    0.068878
   4 C :   -0.028841
   5 C :    0.002109
   6 N :   -0.154729
   7 H :    0.029452
   8 H :    0.036102
   9 H :    0.024846
  10 H :    0.022252
  11 H :    0.012068
  12 H :    0.014831
  13 H :    0.025094
  14 H :    0.027355
  15 H :    0.029427
  16 H :    0.032295
  17 H :    0.004137
  18 H :    0.067174
Sum of atomic charges:   -0.0000000

LOEWDIN ATOMIC CHARGES
----------------------
   0 C :   -0.074633
   1 C :    0.019492
   2 N :   -0.038210
   3 C :    0.025650
   4 C :   -0.078267
   5 C :    0.011745
   6 N :   -0.180837
   7 H :    0.031372
   8 H :    0.030272
   9 H :    0.027075
  10 H :    0.021120
  11 H :    0.024633
  12 H :    0.020243
  13 H :    0.028474
  14 H :    0.025760
  15 H :    0.031750
  16 H :    0.030778
  17 H :    0.011869
  18 H :    0.031715

  Mayer bond orders larger than 0.1
B(  0-C ,  1-C ) :   1.1215 B(  0-C ,  7-H ) :   0.9580 B(  0-C ,  8-H ) :   0.9609
B(  0-C ,  9-H ) :   0.9581 B(  1-C ,  2-N ) :   0.9946 B(  1-C , 10-H ) :   0.9296
B(  1-C , 11-H ) :   0.9278 B(  2-N ,  3-C ) :   1.0063 B(  2-N ,  5-C ) :   1.1482
B(  2-N ,  6-N ) :   0.1092 B(  3-C ,  4-C ) :   1.1250 B(  3-C , 12-H ) :   0.9314
B(  3-C , 13-H ) :   0.9322 B(  4-C , 14-H ) :   0.9591 B(  4-C , 15-H ) :   0.9551
B(  4-C , 16-H ) :   0.9584 B(  5-C ,  6-N ) :   1.9665 B(  5-C , 17-H ) :   0.9341
B(  6-N , 18-H ) :   0.9507

FINAL SINGLE POINT ENERGY      -306.614182452530

DIPOLE MOMENT
-------------
                                X             Y             Z
Electronic contribution:      4.92613       0.15428      -0.26380
Nuclear contribution   :     -6.36556      -0.09634       0.44023
                        -----------------------------------------
Total Dipole Moment    :     -1.43943       0.05794       0.17643
                        -----------------------------------------
Magnitude (a.u.)       :      1.45136
Magnitude (Debye)      :      3.68906

                             ****ORCA TERMINATED NORMALLY****
TOTAL RUN TIME: 0 days 0 hours 0 minutes 8 seconds 940 msec
