                         Program Version 3.0.3 - RELEASE   -
|  1> ! RI PBE def2-SVP def2-SVP/J NBO PAL2
|  2> % maxcore 2000
|  3> % output
|  4>     # printlevel mini
|  5>     print[ P_Basis ] 0
|  6>     print[ P_SCFInfo ] 1
|  7>     print[ P_SCFIterInfo ] 1
|  8>     print[ P_OrbEn ] 0
|  9>     print[ P_Cartesian ] 0
| 10> end
| 11> *xyz 0 1
| 12>  C        1.4462760000     0.8943200000     0.1472990000
| 13>  C        2.6499700000    -0.0040800000    -0.0469460000
| 14>  N        3.1751690000    -0.4646170000     1.2189080000
| 15>  C        4.4703000000    -0.7812320000     1.4112430000
| 16>  C        4.9832700000    -1.4492720000     2.4680810000
| 17>  C        6.3704050000    -1.6683820000     2.5887280000
| 18>  N        7.5044590000    -1.8596230000     2.7011460000
| 19>  H        1.0583850000     1.2240810000    -0.8181240000
| 20>  H        1.7061360000     1.7751020000     0.7374010000
| 21>  H        0.6390850000     0.3648150000     0.6611650000
| 22>  H        3.4494750000     0.5412540000    -0.5549730000
| 23>  H        2.3828250000    -0.8511810000    -0.6935250000
| 24>  H        2.5052630000    -0.8336970000     1.8754600000
| 25>  H        5.1412900000    -0.4279730000     0.6335920000
| 26>  H        4.3490920000    -1.8305240000     3.2611360000
| 27> *
| 28>
| 29>                          ****END OF INPUT****
 Total Charge           Charge          ....    0
 Multiplicity           Mult            ....    1
 Number of Electrons    NEL             ....   52
 Basis Dimension        Dim             ....  138

MULLIKEN ATOMIC CHARGES
-----------------------
   0 C :   -0.049640
   1 C :    0.068169
   2 N :   -0.135798
   3 C :    0.070874
   4 C :   -0.153863
   5 C :   -0.138134
   6 N :    0.005770
   7 H :    0.034090
   8 H :    0.040813
   9 H :    0.029619
  10 H :    0.035845
  11 H :    0.032513
  12 H :    0.116731
  13 H :    0.021562
  14 H :    0.021450
Sum of atomic charges:   -0.0000000

LOEWDIN ATOMIC CHARGES
----------------------
   0 C :   -0.070874
   1 C :    0.024350
   2 N :    0.019855
   3 C :    0.043742
   4 C :   -0.166842
   5 C :   -0.057723
   6 N :   -0.099013
   7 H :    0.037195
   8 H :    0.032586
   9 H :    0.028262
  10 H :    0.032602
  11 H :    0.020834
  12 H :    0.077594
  13 H :    0.037457
  14 H :    0.039976

  Mayer bond orders larger than 0.1
B(  0-C ,  1-C ) :   1.1220 B(  0-C ,  7-H ) :   0.9551 B(  0-C ,  8-H ) :   0.9665
B(  0-C ,  9-H ) :   0.9662 B(  1-C ,  2-N ) :   0.9975 B(  1-C , 10-H ) :   0.9367
B(  1-C , 11-H ) :   0.9373 B(  2-N ,  3-C ) :   1.2787 B(  2-N , 12-H ) :   0.9335
B(  3-C ,  4-C ) :   1.6475 B(  3-C , 13-H ) :   0.9483 B(  4-C ,  5-C ) :   1.1934
B(  4-C , 14-H ) :   0.9347 B(  5-C ,  6-N ) :   2.9354

FINAL SINGLE POINT ENERGY      -304.207916053098

DIPOLE MOMENT
-------------
                                X             Y             Z
Electronic contribution:      9.55716      -4.62411       5.15649
Nuclear contribution   :    -12.09900       5.32535      -6.05546
                        -----------------------------------------
Total Dipole Moment    :     -2.54184       0.70124      -0.89897
                        -----------------------------------------
Magnitude (a.u.)       :      2.78583
Magnitude (Debye)      :      7.08100

                             ****ORCA TERMINATED NORMALLY****
TOTAL RUN TIME: 0 days 0 hours 0 minutes 6 seconds 467 msec
