                         Program Version 3.0.3 - RELEASE   -
|  1> ! RI PBE def2-SVP def2-SVP/J NBO PAL2
|  2> % maxcore 2000
|  3> % output
|  4>     # printlevel mini
|  5>     print[ P_Basis ] 0
|  6>     print[ P_SCFInfo ] 1
|  7>     print[ P_SCFIterInfo ] 1
|  8>     print[ P_OrbEn ] 0
|  9>     print[ P_Cartesian ] 0
| 10> end
| 11> *xyz 0 1
| 12>  C        2.3842940000    -2.8791190000    -2.3276670000
| 13>  C        3.1821440000    -2.0292820000    -1.3607870000
| 14>  N        4.5429750000    -1.8554500000    -1.8307380000
| 15>  C        5.3477600000    -0.8900460000    -1.0964470000
| 16>  C        5.5472590000    -1.3220990000     0.3463890000
| 17>  C        6.6834240000    -0.7247460000    -1.8283220000
| 18>  N        7.5287160000    -1.9004230000    -1.9095330000
| 19>  H        1.3678650000    -3.0361950000    -1.9610610000
| 20>  H        2.8574420000    -3.8538740000    -2.4645000000
| 21>  H        2.3111240000    -2.3989430000    -3.3084360000
| 22>  H        3.2073430000    -2.5226400000    -0.3849280000
| 23>  H        2.6701060000    -1.0616340000    -1.2085440000
| 24>  H        4.5115500000    -1.5688460000    -2.8037650000
| 25>  H        4.8615460000     0.1049340000    -1.0849270000
| 26>  H        5.9604050000    -2.3326680000     0.3930210000
| 27>  H        4.6105550000    -1.3165850000     0.9060650000
| 28>  H        6.2342990000    -0.6393920000     0.8530050000
| 29>  H        7.2501760000     0.0808250000    -1.3519560000
| 30>  H        6.4733470000    -0.3835930000    -2.8504300000
| 31>  H        7.9088150000    -2.1275510000    -0.9992570000
| 32>  H        6.9669470000    -2.6946520000    -2.1959930000
| 33> *
| 34>
| 35>                          ****END OF INPUT****
 Total Charge           Charge          ....    0
 Multiplicity           Mult            ....    1
 Number of Electrons    NEL             ....   58
 Basis Dimension        Dim             ....  168

MULLIKEN ATOMIC CHARGES
-----------------------
   0 C :   -0.033178
   1 C :    0.065574
   2 N :   -0.238577
   3 C :   -0.043940
   4 C :    0.014246
   5 C :    0.073245
   6 N :   -0.192420
   7 H :    0.022031
   8 H :    0.027360
   9 H :    0.018571
  10 H :    0.015210
  11 H :   -0.012385
  12 H :    0.092129
  13 H :   -0.022411
  14 H :    0.002885
  15 H :    0.024646
  16 H :    0.014853
  17 H :    0.006540
  18 H :    0.001024
  19 H :    0.084145
  20 H :    0.080455
Sum of atomic charges:   -0.0000000

LOEWDIN ATOMIC CHARGES
----------------------
   0 C :   -0.071086
   1 C :    0.007578
   2 N :   -0.099682
   3 C :   -0.017103
   4 C :   -0.070729
   5 C :   -0.000421
   6 N :   -0.098599
   7 H :    0.030661
   8 H :    0.028056
   9 H :    0.022477
  10 H :    0.019117
  11 H :   -0.001267
  12 H :    0.050013
  13 H :   -0.000645
  14 H :    0.018665
  15 H :    0.025482
  16 H :    0.028218
  17 H :    0.022081
  18 H :    0.015334
  19 H :    0.048263
  20 H :    0.043589

  Mayer bond orders larger than 0.1
B(  0-C ,  1-C ) :   1.1248 B(  0-C ,  7-H ) :   0.9570 B(  0-C ,  8-H ) :   0.9604
B(  0-C ,  9-H ) :   0.9650 B(  1-C ,  2-N ) :   1.0350 B(  1-C , 10-H ) :   0.9334
B(  1-C , 11-H ) :   0.9171 B(  2-N ,  3-C ) :   1.0215 B(  2-N , 12-H ) :   0.9304
B(  3-C ,  4-C ) :   1.0753 B(  3-C ,  5-C ) :   1.0210 B(  3-C , 13-H ) :   0.8891
B(  4-C , 14-H ) :   0.9408 B(  4-C , 15-H ) :   0.9537 B(  4-C , 16-H ) :   0.9573
B(  5-C ,  6-N ) :   1.1507 B(  5-C , 17-H ) :   0.9383 B(  5-C , 18-H ) :   0.9311
B(  6-N , 19-H ) :   0.9768 B(  6-N , 20-H ) :   0.9682

FINAL SINGLE POINT ENERGY      -307.808028874041

DIPOLE MOMENT
-------------
                                X             Y             Z
Electronic contribution:      2.60181       0.41798      -1.24397
Nuclear contribution   :     -3.12587      -0.33257       1.47660
                        -----------------------------------------
Total Dipole Moment    :     -0.52406       0.08541       0.23263
                        -----------------------------------------
Magnitude (a.u.)       :      0.57970
Magnitude (Debye)      :      1.47347

                             ****ORCA TERMINATED NORMALLY****
TOTAL RUN TIME: 0 days 0 hours 0 minutes 8 seconds 520 msec
