                         Program Version 3.0.3 - RELEASE   -
|  1> ! RI PBE def2-SVP def2-SVP/J NBO PAL2
|  2> % maxcore 2000
|  3> % output
|  4>     # printlevel mini
|  5>     print[ P_Basis ] 0
|  6>     print[ P_SCFInfo ] 1
|  7>     print[ P_SCFIterInfo ] 1
|  8>     print[ P_OrbEn ] 0
|  9>     print[ P_Cartesian ] 0
| 10> end
| 11> *xyz 0 1
| 12>  C        0.9038490000     0.0740490000     0.0540360000
| 13>  C        2.4165220000     0.0410010000     0.0213620000
| 14>  N        2.9551120000     1.3884810000    -0.0622880000
| 15>  C        4.3974840000     1.4729490000    -0.0831750000
| 16>  C        4.8554430000     2.9128000000    -0.2674610000
| 17>  C        5.0240240000     0.8912410000     1.1247150000
| 18>  N        5.4647920000     0.4420800000     2.0879890000
| 19>  H        0.4976680000    -0.9386850000     0.0838530000
| 20>  H        0.5070390000     0.5828320000    -0.8266950000
| 21>  H        0.5415510000     0.5998510000     0.9422800000
| 22>  H        2.7569660000    -0.5062150000    -0.8646560000
| 23>  H        2.7972130000    -0.5076970000     0.8972860000
| 24>  H        2.5911750000     1.9564670000     0.6953320000
| 25>  H        4.7509570000     0.8752250000    -0.9315120000
| 26>  H        4.5209930000     3.5319870000     0.5678550000
| 27>  H        4.4259470000     3.3062530000    -1.1889240000
| 28>  H        5.9430730000     2.9737690000    -0.3193060000
| 29> *
| 30>
| 31>                          ****END OF INPUT****
 Total Charge           Charge          ....    0
 Multiplicity           Mult            ....    1
 Number of Electrons    NEL             ....   54
 Basis Dimension        Dim             ....  148

MULLIKEN ATOMIC CHARGES
-----------------------
   0 C :   -0.024273
   1 C :    0.049711
   2 N :   -0.233099
   3 C :    0.037036
   4 C :    0.026255
   5 C :   -0.253615
   6 N :    0.029432
   7 H :    0.026431
   8 H :    0.030484
   9 H :    0.021248
  10 H :    0.012794
  11 H :    0.019115
  12 H :    0.104717
  13 H :    0.037564
  14 H :    0.035623
  15 H :    0.036555
  16 H :    0.044020
Sum of atomic charges:   -0.0000000

LOEWDIN ATOMIC CHARGES
----------------------
   0 C :   -0.068017
   1 C :    0.007949
   2 N :   -0.074044
   3 C :   -0.015843
   4 C :   -0.047132
   5 C :   -0.063738
   6 N :   -0.071589
   7 H :    0.033256
   8 H :    0.028863
   9 H :    0.025754
  10 H :    0.022721
  11 H :    0.008948
  12 H :    0.057834
  13 H :    0.047967
  14 H :    0.033020
  15 H :    0.035371
  16 H :    0.038678

  Mayer bond orders larger than 0.1
B(  0-C ,  1-C ) :   1.1210 B(  0-C ,  7-H ) :   0.9585 B(  0-C ,  8-H ) :   0.9640
B(  0-C ,  9-H ) :   0.9654 B(  1-C ,  2-N ) :   1.0205 B(  1-C , 10-H ) :   0.9355
B(  1-C , 11-H ) :   0.9210 B(  2-N ,  3-C ) :   1.0837 B(  2-N , 12-H ) :   0.9351
B(  3-C ,  4-C ) :   1.0975 B(  3-C ,  5-C ) :   0.9609 B(  3-C , 13-H ) :   0.8811
B(  4-C , 14-H ) :   0.9553 B(  4-C , 15-H ) :   0.9550 B(  4-C , 16-H ) :   0.9572
B(  5-C ,  6-N ) :   3.0651

FINAL SINGLE POINT ENERGY      -305.405401478915

DIPOLE MOMENT
-------------
                                X             Y             Z
Electronic contribution:      6.12314      -0.89074       3.62897
Nuclear contribution   :     -6.77770       1.35275      -4.47562
                        -----------------------------------------
Total Dipole Moment    :     -0.65456       0.46201      -0.84666
                        -----------------------------------------
Magnitude (a.u.)       :      1.16564
Magnitude (Debye)      :      2.96283

                             ****ORCA TERMINATED NORMALLY****
TOTAL RUN TIME: 0 days 0 hours 0 minutes 7 seconds 414 msec
