                         Program Version 3.0.3 - RELEASE   -
|  1> ! RI PBE def2-SVP def2-SVP/J NBO PAL2
|  2> % maxcore 2000
|  3> % output
|  4>     # printlevel mini
|  5>     print[ P_Basis ] 0
|  6>     print[ P_SCFInfo ] 1
|  7>     print[ P_SCFIterInfo ] 1
|  8>     print[ P_OrbEn ] 0
|  9>     print[ P_Cartesian ] 0
| 10> end
| 11> *xyz 0 1
| 12>  C        1.2577730000    -0.2678420000     0.1959390000
| 13>  C        2.6911520000     0.1999940000     0.3357980000
| 14>  N        3.2819920000    -0.2851610000     1.5668600000
| 15>  C        4.6831870000     0.0545790000     1.7131360000
| 16>  C        5.1844230000    -0.2522170000     3.1219390000
| 17>  C        4.6491070000     0.7457510000     4.1411950000
| 18>  N        4.8687010000    -1.6436320000     3.4417900000
| 19>  H        0.8064820000     0.1244590000    -0.7179010000
| 20>  H        0.6602450000     0.0622300000     1.0483530000
| 21>  H        1.2033190000    -1.3596730000     0.1485850000
| 22>  H        2.7210890000     1.2951380000     0.3568700000
| 23>  H        3.2683200000    -0.1071970000    -0.5551480000
| 24>  H        3.1997400000    -1.2958900000     1.5926510000
| 25>  H        4.7969250000     1.1265610000     1.5194570000
| 26>  H        5.3181300000    -0.4750150000     0.9838650000
| 27>  H        6.2770260000    -0.1758800000     3.0925000000
| 28>  H        3.5561260000     0.7395000000     4.1313430000
| 29>  H        4.9827580000     1.7635120000     3.9188050000
| 30>  H        4.9895860000     0.4932900000     5.1489420000
| 31>  H        3.8947980000    -1.7070960000     3.7193590000
| 32>  H        5.4094070000    -1.9501920000     4.2408620000
| 33> *
| 34>
| 35>                          ****END OF INPUT****
 Total Charge           Charge          ....    0
 Multiplicity           Mult            ....    1
 Number of Electrons    NEL             ....   58
 Basis Dimension        Dim             ....  168

MULLIKEN ATOMIC CHARGES
-----------------------
   0 C :   -0.041140
   1 C :    0.072535
   2 N :   -0.288879
   3 C :    0.151362
   4 C :   -0.065713
   5 C :    0.020354
   6 N :   -0.194033
   7 H :    0.018105
   8 H :    0.029418
   9 H :    0.023655
  10 H :    0.012668
  11 H :   -0.018508
  12 H :    0.096448
  13 H :   -0.007206
  14 H :   -0.017987
  15 H :    0.003717
  16 H :    0.022695
  17 H :    0.003860
  18 H :    0.003532
  19 H :    0.086447
  20 H :    0.088669
Sum of atomic charges:   -0.0000000

LOEWDIN ATOMIC CHARGES
----------------------
   0 C :   -0.074933
   1 C :    0.008313
   2 N :   -0.105361
   3 C :    0.013420
   4 C :   -0.012181
   5 C :   -0.079313
   6 N :   -0.098357
   7 H :    0.029124
   8 H :    0.027394
   9 H :    0.023930
  10 H :    0.019005
  11 H :   -0.002957
  12 H :    0.049159
  13 H :    0.017763
  14 H :    0.000014
  15 H :    0.022225
  16 H :    0.023483
  17 H :    0.023263
  18 H :    0.017615
  19 H :    0.046664
  20 H :    0.051728

  Mayer bond orders larger than 0.1
B(  0-C ,  1-C ) :   1.1150 B(  0-C ,  7-H ) :   0.9564 B(  0-C ,  8-H ) :   0.9625
B(  0-C ,  9-H ) :   0.9679 B(  1-C ,  2-N ) :   1.0358 B(  1-C , 10-H ) :   0.9395
B(  1-C , 11-H ) :   0.9159 B(  2-N ,  3-C ) :   1.0301 B(  2-N , 12-H ) :   0.9271
B(  3-C ,  4-C ) :   1.0399 B(  3-C , 13-H ) :   0.9308 B(  3-C , 14-H ) :   0.9088
B(  4-C ,  5-C ) :   1.0729 B(  4-C ,  6-N ) :   1.0957 B(  4-C , 15-H ) :   0.9129
B(  5-C , 16-H ) :   0.9525 B(  5-C , 17-H ) :   0.9468 B(  5-C , 18-H ) :   0.9601
B(  6-N , 19-H ) :   0.9632 B(  6-N , 20-H ) :   0.9690

FINAL SINGLE POINT ENERGY      -307.808623123891

DIPOLE MOMENT
-------------
                                X             Y             Z
Electronic contribution:      1.90659      -1.55485       0.73361
Nuclear contribution   :     -1.87444       1.53747      -0.54361
                        -----------------------------------------
Total Dipole Moment    :      0.03215      -0.01738       0.18999
                        -----------------------------------------
Magnitude (a.u.)       :      0.19348
Magnitude (Debye)      :      0.49178

                             ****ORCA TERMINATED NORMALLY****
TOTAL RUN TIME: 0 days 0 hours 0 minutes 8 seconds 482 msec
