                         Program Version 3.0.3 - RELEASE   -
|  1> ! RI PBE def2-SVP def2-SVP/J NBO PAL2
|  2> % maxcore 2000
|  3> % output
|  4>     # printlevel mini
|  5>     print[ P_Basis ] 0
|  6>     print[ P_SCFInfo ] 1
|  7>     print[ P_SCFIterInfo ] 1
|  8>     print[ P_OrbEn ] 0
|  9>     print[ P_Cartesian ] 0
| 10> end
| 11> *xyz 0 1
| 12>  C        0.9350180000     0.0987800000    -0.0024340000
| 13>  C        2.4481170000     0.0625340000     0.0150920000
| 14>  N        2.9917600000     0.3958310000    -1.2887220000
| 15>  C        4.4338250000     0.4406650000    -1.3165770000
| 16>  C        4.9161600000     0.6843800000    -2.7447000000
| 17>  C        6.3656190000     0.7127160000    -2.8406980000
| 18>  N        7.5136780000     0.7305610000    -2.8976430000
| 19>  H        0.5295450000    -0.1865530000     0.9701590000
| 20>  H        0.5419580000    -0.5848770000    -0.7574400000
| 21>  H        0.5669850000     1.1035620000    -0.2308390000
| 22>  H        2.7911690000    -0.9459560000     0.2703420000
| 23>  H        2.8276150000     0.7297300000     0.8085140000
| 24>  H        2.6133360000     1.2875350000    -1.5902160000
| 25>  H        4.8153780000    -0.5252020000    -0.9724510000
| 26>  H        4.8668710000     1.2045570000    -0.6496140000
| 27>  H        4.5302420000     1.6383500000    -3.1190280000
| 28>  H        4.5275340000    -0.0987120000    -3.4008340000
| 29> *
| 30>
| 31>                          ****END OF INPUT****
 Total Charge           Charge          ....    0
 Multiplicity           Mult            ....    1
 Number of Electrons    NEL             ....   54
 Basis Dimension        Dim             ....  148

MULLIKEN ATOMIC CHARGES
-----------------------
   0 C :   -0.027858
   1 C :    0.072210
   2 N :   -0.265876
   3 C :    0.061297
   4 C :    0.073662
   5 C :   -0.280217
   6 N :    0.051725
   7 H :    0.023998
   8 H :    0.032788
   9 H :    0.018073
  10 H :    0.009886
  11 H :   -0.006949
  12 H :    0.097757
  13 H :    0.024818
  14 H :    0.012974
  15 H :    0.043813
  16 H :    0.057898
Sum of atomic charges:   -0.0000000

LOEWDIN ATOMIC CHARGES
----------------------
   0 C :   -0.069405
   1 C :    0.011312
   2 N :   -0.103602
   3 C :    0.025966
   4 C :   -0.061891
   5 C :   -0.045012
   6 N :   -0.067867
   7 H :    0.032073
   8 H :    0.029710
   9 H :    0.023403
  10 H :    0.021343
  11 H :    0.000817
  12 H :    0.052884
  13 H :    0.028933
  14 H :    0.007644
  15 H :    0.054039
  16 H :    0.059655

  Mayer bond orders larger than 0.1
B(  0-C ,  1-C ) :   1.1168 B(  0-C ,  7-H ) :   0.9576 B(  0-C ,  8-H ) :   0.9642
B(  0-C ,  9-H ) :   0.9673 B(  1-C ,  2-N ) :   1.0211 B(  1-C , 10-H ) :   0.9374
B(  1-C , 11-H ) :   0.9238 B(  2-N ,  3-C ) :   1.0611 B(  2-N , 12-H ) :   0.9347
B(  3-C ,  4-C ) :   1.0768 B(  3-C , 13-H ) :   0.9323 B(  3-C , 14-H ) :   0.9252
B(  4-C ,  5-C ) :   1.1103 B(  4-C , 15-H ) :   0.8896 B(  4-C , 16-H ) :   0.8832
B(  5-C ,  6-N ) :   3.0554

FINAL SINGLE POINT ENERGY      -305.403770787010

DIPOLE MOMENT
-------------
                                X             Y             Z
Electronic contribution:     10.36084       0.95672      -5.79642
Nuclear contribution   :    -11.89525      -0.75246       6.20865
                        -----------------------------------------
Total Dipole Moment    :     -1.53442       0.20426       0.41222
                        -----------------------------------------
Magnitude (a.u.)       :      1.60190
Magnitude (Debye)      :      4.07171

                             ****ORCA TERMINATED NORMALLY****
TOTAL RUN TIME: 0 days 0 hours 0 minutes 7 seconds 171 msec
