                         Program Version 3.0.3 - RELEASE   -
|  1> ! RI PBE def2-SVP def2-SVP/J NBO PAL2
|  2> % maxcore 2000
|  3> % output
|  4>     # printlevel mini
|  5>     print[ P_Basis ] 0
|  6>     print[ P_SCFInfo ] 1
|  7>     print[ P_SCFIterInfo ] 1
|  8>     print[ P_OrbEn ] 0
|  9>     print[ P_Cartesian ] 0
| 10> end
| 11> *xyz 0 1
| 12>  C        2.1726750000     0.3887950000    -3.5752980000
| 13>  C        2.7911110000     0.5122370000    -2.1986980000
| 14>  N        4.0582990000     1.2115010000    -2.2555440000
| 15>  C        4.6615340000     1.4242260000    -0.9580740000
| 16>  C        5.9858760000     2.1507230000    -1.0843130000
| 17>  N        6.5879650000     2.3683310000     0.2128070000
| 18>  C        7.8536730000     3.0631480000     0.1418960000
| 19>  H        1.2330290000    -0.1659610000    -3.5325900000
| 20>  H        2.8515320000    -0.1274380000    -4.2571670000
| 21>  H        1.9549490000     1.3742940000    -3.9982190000
| 22>  H        2.9783520000    -0.4863860000    -1.7878220000
| 23>  H        2.0744170000     0.9978880000    -1.5117470000
| 24>  H        3.9249260000     2.1054330000    -2.7158700000
| 25>  H        4.8323790000     0.4401200000    -0.5026980000
| 26>  H        4.0136460000     1.9820020000    -0.2605590000
| 27>  H        5.8159920000     3.1337970000    -1.5426190000
| 28>  H        6.6356660000     1.5916880000    -1.7794960000
| 29>  H        6.7147420000     1.4775130000     0.6777980000
| 30>  H        7.6924370000     4.0785130000    -0.2316160000
| 31>  H        8.5946650000     2.5820360000    -0.5186990000
| 32>  H        8.2878420000     3.1456370000     1.1403370000
| 33> *
| 34>
| 35>                          ****END OF INPUT****
 Total Charge           Charge          ....    0
 Multiplicity           Mult            ....    1
 Number of Electrons    NEL             ....   58
 Basis Dimension        Dim             ....  168

MULLIKEN ATOMIC CHARGES
-----------------------
   0 C :   -0.030940
   1 C :    0.062385
   2 N :   -0.271420
   3 C :    0.087926
   4 C :    0.082592
   5 N :   -0.271714
   6 C :    0.065587
   7 H :    0.021120
   8 H :    0.030622
   9 H :    0.016959
  10 H :    0.007095
  11 H :   -0.013218
  12 H :    0.096107
  13 H :   -0.004810
  14 H :   -0.003949
  15 H :   -0.003608
  16 H :   -0.004397
  17 H :    0.100253
  18 H :    0.018110
  19 H :   -0.006000
  20 H :    0.021300
Sum of atomic charges:   -0.0000000

LOEWDIN ATOMIC CHARGES
----------------------
   0 C :   -0.073288
   1 C :    0.007015
   2 N :   -0.103786
   3 C :    0.005107
   4 C :    0.003684
   5 N :   -0.105822
   6 C :   -0.007906
   7 H :    0.029867
   8 H :    0.028403
   9 H :    0.022672
  10 H :    0.018888
  11 H :   -0.002766
  12 H :    0.051372
  13 H :    0.016214
  14 H :    0.000421
  15 H :    0.016075
  16 H :   -0.000363
  17 H :    0.053329
  18 H :    0.021095
  19 H :   -0.002332
  20 H :    0.022120

  Mayer bond orders larger than 0.1
B(  0-C ,  1-C ) :   1.1208 B(  0-C ,  7-H ) :   0.9555 B(  0-C ,  8-H ) :   0.9623
B(  0-C ,  9-H ) :   0.9649 B(  1-C ,  2-N ) :   1.0395 B(  1-C , 10-H ) :   0.9362
B(  1-C , 11-H ) :   0.9190 B(  2-N ,  3-C ) :   1.0317 B(  2-N , 12-H ) :   0.9388
B(  3-C ,  4-C ) :   1.0754 B(  3-C , 13-H ) :   0.9252 B(  3-C , 14-H ) :   0.9184
B(  4-C ,  5-N ) :   1.0391 B(  4-C , 15-H ) :   0.9253 B(  4-C , 16-H ) :   0.9185
B(  5-N ,  6-C ) :   1.0707 B(  5-N , 17-H ) :   0.9441 B(  6-C , 18-H ) :   0.9676
B(  6-C , 19-H ) :   0.9430 B(  6-C , 20-H ) :   0.9723

FINAL SINGLE POINT ENERGY      -307.796524710724

DIPOLE MOMENT
-------------
                                X             Y             Z
Electronic contribution:      0.73195       0.16591       1.31317
Nuclear contribution   :     -0.72561      -0.18921      -1.30534
                        -----------------------------------------
Total Dipole Moment    :      0.00634      -0.02330       0.00783
                        -----------------------------------------
Magnitude (a.u.)       :      0.02538
Magnitude (Debye)      :      0.06452

                             ****ORCA TERMINATED NORMALLY****
TOTAL RUN TIME: 0 days 0 hours 0 minutes 8 seconds 75 msec
