                         Program Version 3.0.3 - RELEASE   -
|  1> ! RI PBE def2-SVP def2-SVP/J NBO PAL2
|  2> % maxcore 2000
|  3> % output
|  4>     # printlevel mini
|  5>     print[ P_Basis ] 0
|  6>     print[ P_SCFInfo ] 1
|  7>     print[ P_SCFIterInfo ] 1
|  8>     print[ P_OrbEn ] 0
|  9>     print[ P_Cartesian ] 0
| 10> end
| 11> *xyz 0 1
| 12>  C        1.9257900000     0.5836110000     0.3402800000
| 13>  C        3.3934290000     0.5027820000    -0.0304810000
| 14>  N        4.0213850000    -0.6083940000     0.6410870000
| 15>  C        5.2623840000    -0.8289720000     0.4433080000
| 16>  C        6.1609190000    -0.0183290000    -0.4489310000
| 17>  N        5.8602880000    -1.8763050000     1.0748670000
| 18>  C        5.1317070000    -2.7419680000     1.9593500000
| 19>  H        1.4372660000     1.4225350000    -0.1623310000
| 20>  H        1.8120190000     0.7111470000     1.4190350000
| 21>  H        1.4106580000    -0.3374570000     0.0588660000
| 22>  H        3.8811220000     1.4553900000     0.2306310000
| 23>  H        3.4811850000     0.4104580000    -1.1246770000
| 24>  H        5.7795930000    -0.0228030000    -1.4727600000
| 25>  H        7.1850130000    -0.3940920000    -0.4622770000
| 26>  H        6.1809080000     1.0228790000    -0.1185590000
| 27>  H        6.8341500000    -2.0424920000     0.9145250000
| 28>  H        4.7041060000    -2.1817900000     2.7958520000
| 29>  H        5.8085060000    -3.5038130000     2.3469300000
| 30>  H        4.3018810000    -3.2291970000     1.4393760000
| 31> *
| 32>
| 33>                          ****END OF INPUT****
 Total Charge           Charge          ....    0
 Multiplicity           Mult            ....    1
 Number of Electrons    NEL             ....   56
 Basis Dimension        Dim             ....  158

MULLIKEN ATOMIC CHARGES
-----------------------
   0 C :    0.014950
   1 C :    0.043076
   2 N :   -0.223992
   3 C :   -0.141967
   4 C :    0.057924
   5 N :   -0.131579
   6 C :    0.111368
   7 H :    0.000747
   8 H :    0.016652
   9 H :    0.016362
  10 H :   -0.014792
  11 H :   -0.002048
  12 H :    0.045872
  13 H :   -0.000605
  14 H :    0.046290
  15 H :    0.101188
  16 H :    0.025269
  17 H :    0.009949
  18 H :    0.025338
Sum of atomic charges:   -0.0000000

LOEWDIN ATOMIC CHARGES
----------------------
   0 C :   -0.072876
   1 C :   -0.001234
   2 N :   -0.181167
   3 C :   -0.000953
   4 C :   -0.079269
   5 N :   -0.005338
   6 C :    0.009707
   7 H :    0.019763
   8 H :    0.023979
   9 H :    0.023869
  10 H :    0.006316
  11 H :    0.008615
  12 H :    0.043999
  13 H :    0.025427
  14 H :    0.043904
  15 H :    0.066163
  16 H :    0.023648
  17 H :    0.021783
  18 H :    0.023665

  Mayer bond orders larger than 0.1
B(  0-C ,  1-C ) :   1.1089 B(  0-C ,  7-H ) :   0.9532 B(  0-C ,  8-H ) :   0.9640
B(  0-C ,  9-H ) :   0.9636 B(  1-C ,  2-N ) :   1.0428 B(  1-C , 10-H ) :   0.9191
B(  1-C , 11-H ) :   0.9238 B(  2-N ,  3-C ) :   1.8195 B(  3-C ,  4-C ) :   1.0513
B(  3-C ,  5-N ) :   1.2336 B(  4-C , 12-H ) :   0.9414 B(  4-C , 13-H ) :   0.9332
B(  4-C , 14-H ) :   0.9419 B(  5-N ,  6-C ) :   1.0330 B(  5-N , 15-H ) :   0.9307
B(  6-C , 16-H ) :   0.9611 B(  6-C , 17-H ) :   0.9662 B(  6-C , 18-H ) :   0.9609

FINAL SINGLE POINT ENERGY      -306.620146652851

DIPOLE MOMENT
-------------
                                X             Y             Z
Electronic contribution:      2.56723      -1.95336       0.74248
Nuclear contribution   :     -1.51513       1.76694      -0.91642
                        -----------------------------------------
Total Dipole Moment    :      1.05210      -0.18642      -0.17394
                        -----------------------------------------
Magnitude (a.u.)       :      1.08255
Magnitude (Debye)      :      2.75163

                             ****ORCA TERMINATED NORMALLY****
TOTAL RUN TIME: 0 days 0 hours 0 minutes 7 seconds 278 msec
