                         Program Version 3.0.3 - RELEASE   -
|  1> ! RI PBE def2-SVP def2-SVP/J NBO PAL2
|  2> % maxcore 2000
|  3> % output
|  4>     # printlevel mini
|  5>     print[ P_Basis ] 0
|  6>     print[ P_SCFInfo ] 1
|  7>     print[ P_SCFIterInfo ] 1
|  8>     print[ P_OrbEn ] 0
|  9>     print[ P_Cartesian ] 0
| 10> end
| 11> *xyz 0 1
| 12>  C        2.6746460000    -2.2664760000     0.8201570000
| 13>  C        2.8758440000    -0.8788500000     0.2277330000
| 14>  N        3.2868880000    -0.8723200000    -1.1549640000
| 15>  C        2.3453720000    -1.2995080000    -2.1570520000
| 16>  C        4.6069380000    -0.8097480000    -1.4740410000
| 17>  N        5.0680300000    -1.0530660000    -2.6301780000
| 18>  C        6.4766950000    -0.8586440000    -2.8320480000
| 19>  H        2.3666900000    -2.1935290000     1.8662170000
| 20>  H        3.5991010000    -2.8471030000     0.7752710000
| 21>  H        1.9009840000    -2.8205550000     0.2839340000
| 22>  H        3.6332410000    -0.3383430000     0.8027040000
| 23>  H        1.9476270000    -0.3024210000     0.3144670000
| 24>  H        1.3481350000    -0.9431280000    -1.8886370000
| 25>  H        2.3120180000    -2.3902250000    -2.2691630000
| 26>  H        2.6384020000    -0.8810900000    -3.1194790000
| 27>  H        5.2423150000    -0.5013060000    -0.6304240000
| 28>  H        6.6487940000    -0.0916000000    -3.5946430000
| 29>  H        6.9339920000    -1.7802230000    -3.2062210000
| 30>  H        7.0170770000    -0.5551350000    -1.9207420000
| 31> *
| 32>
| 33>                          ****END OF INPUT****
 Total Charge           Charge          ....    0
 Multiplicity           Mult            ....    1
 Number of Electrons    NEL             ....   56
 Basis Dimension        Dim             ....  158

MULLIKEN ATOMIC CHARGES
-----------------------
   0 C :   -0.028123
   1 C :    0.057119
   2 N :   -0.248262
   3 C :    0.110431
   4 C :    0.061788
   5 N :   -0.231728
   6 C :    0.076715
   7 H :    0.025551
   8 H :    0.029673
   9 H :    0.028409
  10 H :    0.022689
  11 H :    0.017023
  12 H :    0.012278
  13 H :    0.028031
  14 H :    0.038535
  15 H :   -0.029409
  16 H :    0.023572
  17 H :    0.022649
  18 H :   -0.016941
Sum of atomic charges:    0.0000000

LOEWDIN ATOMIC CHARGES
----------------------
   0 C :   -0.078949
   1 C :    0.022207
   2 N :   -0.030325
   3 C :    0.016776
   4 C :    0.015370
   5 N :   -0.167589
   6 C :   -0.009957
   7 H :    0.031365
   8 H :    0.029325
   9 H :    0.027287
  10 H :    0.025211
  11 H :    0.020888
  12 H :    0.020987
  13 H :    0.018859
  14 H :    0.032313
  15 H :   -0.012989
  16 H :    0.021207
  17 H :    0.020607
  18 H :   -0.002594

  Mayer bond orders larger than 0.1
B(  0-C ,  1-C ) :   1.1089 B(  0-C ,  7-H ) :   0.9543 B(  0-C ,  8-H ) :   0.9607
B(  0-C ,  9-H ) :   0.9627 B(  1-C ,  2-N ) :   1.0299 B(  1-C , 10-H ) :   0.9345
B(  1-C , 11-H ) :   0.9384 B(  2-N ,  3-C ) :   1.0079 B(  2-N ,  4-C ) :   1.1807
B(  3-C , 12-H ) :   0.9599 B(  3-C , 13-H ) :   0.9617 B(  3-C , 14-H ) :   0.9520
B(  4-C ,  5-N ) :   1.7911 B(  4-C , 15-H ) :   0.9163 B(  5-N ,  6-C ) :   1.0599
B(  6-C , 16-H ) :   0.9620 B(  6-C , 17-H ) :   0.9644 B(  6-C , 18-H ) :   0.9363

FINAL SINGLE POINT ENERGY      -306.610837877554

DIPOLE MOMENT
-------------
                                X             Y             Z
Electronic contribution:      0.79059       1.65820      -2.13852
Nuclear contribution   :     -1.16737      -1.61887       2.88054
                        -----------------------------------------
Total Dipole Moment    :     -0.37678       0.03933       0.74202
                        -----------------------------------------
Magnitude (a.u.)       :      0.83313
Magnitude (Debye)      :      2.11765

                             ****ORCA TERMINATED NORMALLY****
TOTAL RUN TIME: 0 days 0 hours 0 minutes 7 seconds 860 msec
