                         Program Version 3.0.3 - RELEASE   -
|  1> ! RI PBE def2-SVP def2-SVP/J NBO PAL2
|  2> % maxcore 2000
|  3> % output
|  4>     # printlevel mini
|  5>     print[ P_Basis ] 0
|  6>     print[ P_SCFInfo ] 1
|  7>     print[ P_SCFIterInfo ] 1
|  8>     print[ P_OrbEn ] 0
|  9>     print[ P_Cartesian ] 0
| 10> end
| 11> *xyz 0 1
| 12>  C        2.8772070000     0.5893060000    -0.1897440000
| 13>  C        1.3989340000     0.4078160000    -0.4971050000
| 14>  N        0.9727700000    -0.9738890000    -0.5601210000
| 15>  C        0.8046510000    -1.7175380000     0.6682650000
| 16>  C       -0.6239690000    -2.1887270000     0.8990940000
| 17>  N        1.2428330000    -1.5748770000    -1.7163710000
| 18>  C        1.1626250000    -2.8409610000    -1.8625170000
| 19>  H        3.1383430000     1.6504270000    -0.1694550000
| 20>  H        3.4842710000     0.1011330000    -0.9548170000
| 21>  H        3.1414690000     0.1622390000     0.7814120000
| 22>  H        1.1607860000     0.8538840000    -1.4642710000
| 23>  H        0.7867150000     0.9159890000     0.2544390000
| 24>  H        1.1133270000    -1.0702300000     1.4928460000
| 25>  H        1.4951750000    -2.5728380000     0.6718490000
| 26>  H       -1.2991890000    -1.3350600000     0.9860710000
| 27>  H       -0.6901470000    -2.7731840000     1.8204060000
| 28>  H       -0.9799500000    -2.8101190000     0.0761280000
| 29>  H        1.3894830000    -3.2304820000    -2.8474540000
| 30>  H        0.8757450000    -3.5452890000    -1.0827440000
| 31> *
| 32>
| 33>                          ****END OF INPUT****
 Total Charge           Charge          ....    0
 Multiplicity           Mult            ....    1
 Number of Electrons    NEL             ....   56
 Basis Dimension        Dim             ....  158

MULLIKEN ATOMIC CHARGES
-----------------------
   0 C :   -0.029425
   1 C :    0.099435
   2 N :   -0.224770
   3 C :    0.055184
   4 C :   -0.011508
   5 N :   -0.065729
   6 C :   -0.088244
   7 H :    0.023443
   8 H :    0.036517
   9 H :    0.013576
  10 H :    0.021887
  11 H :    0.010764
  12 H :    0.017258
  13 H :    0.018708
  14 H :    0.026265
  15 H :    0.022468
  16 H :    0.033493
  17 H :    0.027608
  18 H :    0.013070
Sum of atomic charges:    0.0000000

LOEWDIN ATOMIC CHARGES
----------------------
   0 C :   -0.078749
   1 C :    0.014640
   2 N :   -0.002699
   3 C :    0.006774
   4 C :   -0.073434
   5 N :   -0.028854
   6 C :   -0.107397
   7 H :    0.029695
   8 H :    0.031138
   9 H :    0.022274
  10 H :    0.028726
  11 H :    0.019354
  12 H :    0.026414
  13 H :    0.019703
  14 H :    0.029012
  15 H :    0.029648
  16 H :    0.029139
  17 H :    0.014505
  18 H :   -0.009889

  Mayer bond orders larger than 0.1
B(  0-C ,  1-C ) :   1.1191 B(  0-C ,  7-H ) :   0.9587 B(  0-C ,  8-H ) :   0.9610
B(  0-C ,  9-H ) :   0.9595 B(  1-C ,  2-N ) :   1.0077 B(  1-C , 10-H ) :   0.9339
B(  1-C , 11-H ) :   0.9368 B(  2-N ,  3-C ) :   0.9792 B(  2-N ,  5-N ) :   1.1307
B(  2-N ,  6-C ) :   0.1526 B(  3-C ,  4-C ) :   1.1224 B(  3-C , 12-H ) :   0.9317
B(  3-C , 13-H ) :   0.9146 B(  4-C , 14-H ) :   0.9577 B(  4-C , 15-H ) :   0.9571
B(  4-C , 16-H ) :   0.9627 B(  5-N ,  6-C ) :   1.8438 B(  6-C , 17-H ) :   0.9553
B(  6-C , 18-H ) :   0.9154

FINAL SINGLE POINT ENERGY      -306.578040723834

DIPOLE MOMENT
-------------
                                X             Y             Z
Electronic contribution:     -0.20989      -0.40122      -3.76600
Nuclear contribution   :      0.15721       0.51160       4.54264
                        -----------------------------------------
Total Dipole Moment    :     -0.05267       0.11038       0.77664
                        -----------------------------------------
Magnitude (a.u.)       :      0.78621
Magnitude (Debye)      :      1.99838

                             ****ORCA TERMINATED NORMALLY****
TOTAL RUN TIME: 0 days 0 hours 0 minutes 8 seconds 327 msec
