                         Program Version 3.0.3 - RELEASE   -
|  1> ! RI PBE def2-SVP def2-SVP/J NBO PAL2
|  2> % maxcore 2000
|  3> % output
|  4>     # printlevel mini
|  5>     print[ P_Basis ] 0
|  6>     print[ P_SCFInfo ] 1
|  7>     print[ P_SCFIterInfo ] 1
|  8>     print[ P_OrbEn ] 0
|  9>     print[ P_Cartesian ] 0
| 10> end
| 11> *xyz 0 1
| 12>  C        3.1000340000    -1.3867970000     0.6808100000
| 13>  C        2.6890150000    -0.1639810000    -0.1286260000
| 14>  N        1.2516700000    -0.0494410000    -0.3478360000
| 15>  C        3.1623450000     1.1416910000     0.4954590000
| 16>  N        4.6020630000     1.1982140000     0.6369620000
| 17>  C        5.1119240000     2.2882920000     1.4391370000
| 18>  C        5.1487730000     0.8998550000     1.9448680000
| 19>  H        2.7383890000    -2.3006240000     0.2016700000
| 20>  H        2.6720200000    -1.3454700000     1.6885070000
| 21>  H        4.1856600000    -1.4624340000     0.7734110000
| 22>  H        3.1591870000    -0.2289420000    -1.1160720000
| 23>  H        0.7641550000    -0.0504060000     0.5421920000
| 24>  H        0.9106440000    -0.8529500000    -0.8614690000
| 25>  H        2.6518390000     1.2889230000     1.4669090000
| 26>  H        2.8469220000     1.9580920000    -0.1592380000
| 27>  H        4.3882400000     2.9609780000     1.8943000000
| 28>  H        6.0148270000     2.7656040000     1.0737040000
| 29>  H        4.4501280000     0.6439930000     2.7382150000
| 30>  H        6.0800550000     0.3436130000     1.9569070000
| 31> *
| 32>
| 33>                          ****END OF INPUT****
 Total Charge           Charge          ....    0
 Multiplicity           Mult            ....    1
 Number of Electrons    NEL             ....   56
 Basis Dimension        Dim             ....  158

MULLIKEN ATOMIC CHARGES
-----------------------
   0 C :    0.014696
   1 C :   -0.040520
   2 N :   -0.179286
   3 C :    0.126142
   4 N :   -0.293363
   5 C :    0.041352
   6 C :    0.032588
   7 H :    0.005934
   8 H :   -0.004320
   9 H :    0.030537
  10 H :    0.008543
  11 H :    0.080373
  12 H :    0.083829
  13 H :   -0.035290
  14 H :    0.016219
  15 H :    0.021953
  16 H :    0.033483
  17 H :    0.021755
  18 H :    0.035376
Sum of atomic charges:   -0.0000000

LOEWDIN ATOMIC CHARGES
----------------------
   0 C :   -0.080095
   1 C :   -0.008541
   2 N :   -0.094883
   3 C :    0.011981
   4 N :   -0.108857
   5 C :    0.005447
   6 C :    0.000800
   7 H :    0.020863
   8 H :    0.017527
   9 H :    0.029487
  10 H :    0.025774
  11 H :    0.045976
  12 H :    0.050209
  13 H :   -0.005022
  14 H :    0.025386
  15 H :    0.013338
  16 H :    0.020415
  17 H :    0.010579
  18 H :    0.019615

  Mayer bond orders larger than 0.1
B(  0-C ,  1-C ) :   1.0772 B(  0-C ,  7-H ) :   0.9580 B(  0-C ,  8-H ) :   0.9483
B(  0-C ,  9-H ) :   0.9427 B(  1-C ,  2-N ) :   1.0861 B(  1-C ,  3-C ) :   1.0561
B(  1-C , 10-H ) :   0.9003 B(  2-N , 11-H ) :   0.9668 B(  2-N , 12-H ) :   0.9667
B(  3-C ,  4-N ) :   1.0186 B(  3-C , 13-H ) :   0.8948 B(  3-C , 14-H ) :   0.9316
B(  4-N ,  5-C ) :   0.9631 B(  4-N ,  6-C ) :   0.9628 B(  5-C ,  6-C ) :   1.0973
B(  5-C , 15-H ) :   0.9295 B(  5-C , 16-H ) :   0.9502 B(  6-C , 17-H ) :   0.9276
B(  6-C , 18-H ) :   0.9480

FINAL SINGLE POINT ENERGY      -306.573903285585

DIPOLE MOMENT
-------------
                                X             Y             Z
Electronic contribution:      1.28612       2.19923      -1.46041
Nuclear contribution   :     -1.45204      -2.49089       1.96932
                        -----------------------------------------
Total Dipole Moment    :     -0.16592      -0.29166       0.50891
                        -----------------------------------------
Magnitude (a.u.)       :      0.60958
Magnitude (Debye)      :      1.54943

                             ****ORCA TERMINATED NORMALLY****
TOTAL RUN TIME: 0 days 0 hours 0 minutes 8 seconds 386 msec
