                         Program Version 3.0.3 - RELEASE   -
|  1> ! RI PBE def2-SVP def2-SVP/J NBO PAL2
|  2> % maxcore 2000
|  3> % output
|  4>     # printlevel mini
|  5>     print[ P_Basis ] 0
|  6>     print[ P_SCFInfo ] 1
|  7>     print[ P_SCFIterInfo ] 1
|  8>     print[ P_OrbEn ] 0
|  9>     print[ P_Cartesian ] 0
| 10> end
| 11> *xyz 0 1
| 12>  C        2.5011980000    -0.9902000000     0.6483950000
| 13>  C        2.9593890000     0.1222910000    -0.2771600000
| 14>  N        3.0807930000     1.3702270000     0.4366540000
| 15>  C        4.1909800000     1.9654320000     0.3950930000
| 16>  N        4.4080050000     3.2140200000     0.9568960000
| 17>  C        3.7467430000     3.5780070000     2.1802870000
| 18>  C        5.2142630000     3.3430890000     2.1544870000
| 19>  H        2.3473650000    -1.9176730000     0.0917530000
| 20>  H        1.5628050000    -0.7184210000     1.1357400000
| 21>  H        3.2435020000    -1.1780830000     1.4279310000
| 22>  H        2.2115940000     0.2584260000    -1.0668430000
| 23>  H        3.9012120000    -0.1630950000    -0.7737430000
| 24>  H        5.0681570000     1.5758740000    -0.1397600000
| 25>  H        3.1184430000     2.8201180000     2.6360820000
| 26>  H        3.3671700000     4.5926380000     2.2234030000
| 27>  H        5.5765000000     2.4295440000     2.6175580000
| 28>  H        5.9039720000     4.1797960000     2.1717460000
| 29> *
| 30>
| 31>                          ****END OF INPUT****
 Total Charge           Charge          ....    0
 Multiplicity           Mult            ....    1
 Number of Electrons    NEL             ....   54
 Basis Dimension        Dim             ....  148

MULLIKEN ATOMIC CHARGES
-----------------------
   0 C :   -0.028145
   1 C :    0.080377
   2 N :   -0.183921
   3 C :    0.044049
   4 N :   -0.212526
   5 C :    0.047281
   6 C :    0.023930
   7 H :    0.018864
   8 H :    0.027976
   9 H :    0.015981
  10 H :    0.024183
  11 H :   -0.018587
  12 H :   -0.012941
  13 H :    0.045772
  14 H :    0.039842
  15 H :    0.040224
  16 H :    0.047643
Sum of atomic charges:    0.0000000

LOEWDIN ATOMIC CHARGES
----------------------
   0 C :   -0.071679
   1 C :    0.006415
   2 N :   -0.121276
   3 C :    0.020126
   4 N :   -0.066610
   5 C :    0.024342
   6 C :    0.021751
   7 H :    0.027390
   8 H :    0.028575
   9 H :    0.022788
  10 H :    0.026023
  11 H :    0.000214
  12 H :   -0.008012
  13 H :    0.021018
  14 H :    0.025641
  15 H :    0.019671
  16 H :    0.023622

  Mayer bond orders larger than 0.1
B(  0-C ,  1-C ) :   1.1128 B(  0-C ,  7-H ) :   0.9586 B(  0-C ,  8-H ) :   0.9627
B(  0-C ,  9-H ) :   0.9660 B(  1-C ,  2-N ) :   1.0226 B(  1-C , 10-H ) :   0.9307
B(  1-C , 11-H ) :   0.9124 B(  2-N ,  3-C ) :   1.8645 B(  3-C ,  4-N ) :   1.1206
B(  3-C , 12-H ) :   0.9310 B(  4-N ,  5-C ) :   0.9628 B(  4-N ,  6-C ) :   0.9434
B(  5-C ,  6-C ) :   1.0783 B(  5-C , 13-H ) :   0.9367 B(  5-C , 14-H ) :   0.9496
B(  6-C , 15-H ) :   0.9415 B(  6-C , 16-H ) :   0.9509

FINAL SINGLE POINT ENERGY      -305.375851038421

DIPOLE MOMENT
-------------
                                X             Y             Z
Electronic contribution:      1.29966       5.21534      -0.65034
Nuclear contribution   :     -0.83653      -5.33789       0.96597
                        -----------------------------------------
Total Dipole Moment    :      0.46313      -0.12255       0.31563
                        -----------------------------------------
Magnitude (a.u.)       :      0.57370
Magnitude (Debye)      :      1.45822

                             ****ORCA TERMINATED NORMALLY****
TOTAL RUN TIME: 0 days 0 hours 0 minutes 7 seconds 305 msec
