                         Program Version 3.0.3 - RELEASE   -
|  1> ! RI PBE def2-SVP def2-SVP/J NBO PAL2
|  2> % maxcore 2000
|  3> % output
|  4>     # printlevel mini
|  5>     print[ P_Basis ] 0
|  6>     print[ P_SCFInfo ] 1
|  7>     print[ P_SCFIterInfo ] 1
|  8>     print[ P_OrbEn ] 0
|  9>     print[ P_Cartesian ] 0
| 10> end
| 11> *xyz 0 1
| 12>  C        1.0556330000     0.0351300000    -0.0507600000
| 13>  C        2.3930760000     0.0852520000     0.0053440000
| 14>  N        3.2603830000    -1.0005430000     0.1270280000
| 15>  C        2.9088940000    -2.3235810000     0.2132210000
| 16>  N        3.6791670000    -3.3237600000     0.3237800000
| 17>  C        3.0754030000     1.3383520000    -0.0596980000
| 18>  C        3.6826980000     2.3737820000    -0.1115530000
| 19>  H        0.4968360000    -0.8885280000    -0.0054980000
| 20>  H        0.5021570000     0.9569120000    -0.1457160000
| 21>  H        4.2423690000    -0.7781910000     0.1533560000
| 22>  H        1.8352640000    -2.4968760000     0.1795700000
| 23>  H        4.6624990000    -3.0504490000     0.3457650000
| 24>  H        4.2052300000     3.3002190000    -0.1588290000
| 25> *
| 26>
| 27>                          ****END OF INPUT****
 Total Charge           Charge          ....    0
 Multiplicity           Mult            ....    1
 Number of Electrons    NEL             ....   50
 Basis Dimension        Dim             ....  128

MULLIKEN ATOMIC CHARGES
-----------------------
   0 C :   -0.035530
   1 C :   -0.010992
   2 N :   -0.047331
   3 C :   -0.014096
   4 N :   -0.119223
   5 C :    0.382088
   6 C :   -0.433609
   7 H :    0.028382
   8 H :    0.027830
   9 H :    0.109436
  10 H :    0.025242
  11 H :    0.074743
  12 H :    0.013061
Sum of atomic charges:    0.0000000

LOEWDIN ATOMIC CHARGES
----------------------
   0 C :   -0.087425
   1 C :   -0.009723
   2 N :    0.029160
   3 C :    0.029805
   4 N :   -0.140622
   5 C :   -0.021083
   6 C :   -0.048980
   7 H :    0.025879
   8 H :    0.037985
   9 H :    0.081263
  10 H :    0.021407
  11 H :    0.041897
  12 H :    0.040436

  Mayer bond orders larger than 0.1
B(  0-C ,  1-C ) :   1.8361 B(  0-C ,  6-C ) :   0.1062 B(  0-C ,  7-H ) :   0.9308
B(  0-C ,  8-H ) :   0.9206 B(  1-C ,  2-N ) :   1.1190 B(  1-C ,  5-C ) :   0.9696
B(  2-N ,  3-C ) :   1.1264 B(  2-N ,  9-H ) :   0.9138 B(  3-C ,  4-N ) :   2.0040
B(  3-C , 10-H ) :   0.9390 B(  4-N , 11-H ) :   0.9406 B(  5-C ,  6-C ) :   2.2900
B(  5-C , 12-H ) :  -0.1018 B(  6-C , 12-H ) :   1.0924

FINAL SINGLE POINT ENERGY      -302.939640097712

DIPOLE MOMENT
-------------
                                X             Y             Z
Electronic contribution:      1.61840       1.03435      -0.00801
Nuclear contribution   :     -1.23159      -0.07564      -0.04985
                        -----------------------------------------
Total Dipole Moment    :      0.38681       0.95872      -0.05787
                        -----------------------------------------
Magnitude (a.u.)       :      1.03543
Magnitude (Debye)      :      2.63185

                             ****ORCA TERMINATED NORMALLY****
TOTAL RUN TIME: 0 days 0 hours 0 minutes 6 seconds 130 msec
