                         Program Version 3.0.3 - RELEASE   -
|  1> ! RI PBE def2-SVP def2-SVP/J NBO PAL2
|  2> % maxcore 2000
|  3> % output
|  4>     # printlevel mini
|  5>     print[ P_Basis ] 0
|  6>     print[ P_SCFInfo ] 1
|  7>     print[ P_SCFIterInfo ] 1
|  8>     print[ P_OrbEn ] 0
|  9>     print[ P_Cartesian ] 0
| 10> end
| 11> *xyz 0 1
| 12>  C        1.0225780000    -0.1781720000     0.0194540000
| 13>  C        2.3285400000     0.0330060000    -0.1280650000
| 14>  N        3.0991910000     0.8451380000     0.6738800000
| 15>  C        4.4787710000     0.8968170000     0.6822180000
| 16>  N        5.2839630000     0.1166040000     0.0724860000
| 17>  C        5.0711890000     1.9861940000     1.4796620000
| 18>  C        4.4424770000     3.0608250000     1.9416270000
| 19>  H        0.4918950000    -0.7981330000    -0.6883840000
| 20>  H        0.4531720000     0.2609610000     0.8311280000
| 21>  H        2.8670170000    -0.4220000000    -0.9518990000
| 22>  H        2.6231620000     1.3785160000     1.3818000000
| 23>  H        4.8021950000    -0.6250010000    -0.4298270000
| 24>  H        6.1336400000     1.8522850000     1.6478090000
| 25>  H        3.3913770000     3.2580320000     1.7565260000
| 26>  H        4.9747440000     3.8125180000     2.5114960000
| 27> *
| 28>
| 29>                          ****END OF INPUT****
 Total Charge           Charge          ....    0
 Multiplicity           Mult            ....    1
 Number of Electrons    NEL             ....   52
 Basis Dimension        Dim             ....  138

MULLIKEN ATOMIC CHARGES
-----------------------
   0 C :   -0.077995
   1 C :    0.027740
   2 N :   -0.040227
   3 C :   -0.141876
   4 N :   -0.079882
   5 C :    0.047410
   6 C :   -0.049868
   7 H :    0.030768
   8 H :    0.015009
   9 H :    0.008073
  10 H :    0.112331
  11 H :    0.076565
  12 H :    0.010799
  13 H :    0.020660
  14 H :    0.040493
Sum of atomic charges:    0.0000000

LOEWDIN ATOMIC CHARGES
----------------------
   0 C :   -0.119560
   1 C :    0.007452
   2 N :    0.031530
   3 C :    0.001905
   4 N :   -0.138482
   5 C :   -0.024313
   6 C :   -0.049379
   7 H :    0.031611
   8 H :    0.021206
   9 H :    0.024859
  10 H :    0.079009
  11 H :    0.038563
  12 H :    0.042566
  13 H :    0.019576
  14 H :    0.033456

  Mayer bond orders larger than 0.1
B(  0-C ,  1-C ) :   1.9014 B(  0-C ,  7-H ) :   0.9405 B(  0-C ,  8-H ) :   0.9533
B(  1-C ,  2-N ) :   1.1387 B(  1-C ,  9-H ) :   0.9405 B(  2-N ,  3-C ) :   1.1359
B(  2-N , 10-H ) :   0.9016 B(  3-C ,  4-N ) :   1.9775 B(  3-C ,  5-C ) :   1.0357
B(  4-N , 11-H ) :   0.9386 B(  5-C ,  6-C ) :   1.9157 B(  5-C , 12-H ) :   0.9459
B(  6-C , 13-H ) :   0.9428 B(  6-C , 14-H ) :   0.9394

FINAL SINGLE POINT ENERGY      -304.189295575297

DIPOLE MOMENT
-------------
                                X             Y             Z
Electronic contribution:      2.51505      -0.67049      -0.32356
Nuclear contribution   :     -3.30483       0.99763       0.64163
                        -----------------------------------------
Total Dipole Moment    :     -0.78978       0.32715       0.31807
                        -----------------------------------------
Magnitude (a.u.)       :      0.91211
Magnitude (Debye)      :      2.31839

                             ****ORCA TERMINATED NORMALLY****
TOTAL RUN TIME: 0 days 0 hours 0 minutes 7 seconds 286 msec
