                         Program Version 3.0.3 - RELEASE   -
|  1> ! RI PBE def2-SVP def2-SVP/J NBO PAL2
|  2> % maxcore 2000
|  3> % output
|  4>     # printlevel mini
|  5>     print[ P_Basis ] 0
|  6>     print[ P_SCFInfo ] 1
|  7>     print[ P_SCFIterInfo ] 1
|  8>     print[ P_OrbEn ] 0
|  9>     print[ P_Cartesian ] 0
| 10> end
| 11> *xyz 0 1
| 12>  C        1.0871550000     0.0592980000    -0.0290640000
| 13>  C        2.4091480000     0.2053690000     0.0134940000
| 14>  N        3.2559580000    -0.5029320000     0.8369310000
| 15>  C        4.6308760000    -0.3699210000     0.9000540000
| 16>  N        5.3928450000     0.4053800000     0.2383340000
| 17>  C        5.2159360000    -1.2625810000     1.8693570000
| 18>  C        5.6726630000    -2.0168210000     2.6830380000
| 19>  H        0.4992540000     0.6592190000    -0.7081540000
| 20>  H        0.5627670000    -0.6502980000     0.6010880000
| 21>  H        2.9007170000     0.9245100000    -0.6307950000
| 22>  H        2.8476870000    -1.1843720000     1.4556000000
| 23>  H        4.8777510000     0.9898520000    -0.4151350000
| 24>  H        6.1012550000    -2.6774030000     3.3998510000
| 25> *
| 26>
| 27>                          ****END OF INPUT****
 Total Charge           Charge          ....    0
 Multiplicity           Mult            ....    1
 Number of Electrons    NEL             ....   50
 Basis Dimension        Dim             ....  128

MULLIKEN ATOMIC CHARGES
-----------------------
   0 C :   -0.067513
   1 C :    0.035366
   2 N :   -0.030902
   3 C :   -0.132294
   4 N :   -0.068381
   5 C :    0.419603
   6 C :   -0.422925
   7 H :    0.031647
   8 H :    0.018555
   9 H :    0.004207
  10 H :    0.117783
  11 H :    0.080082
  12 H :    0.014774
Sum of atomic charges:   -0.0000000

LOEWDIN ATOMIC CHARGES
----------------------
   0 C :   -0.111517
   1 C :    0.007840
   2 N :    0.039375
   3 C :   -0.007329
   4 N :   -0.123870
   5 C :   -0.018581
   6 C :   -0.037890
   7 H :    0.032923
   8 H :    0.023167
   9 H :    0.024673
  10 H :    0.089225
  11 H :    0.041315
  12 H :    0.040671

  Mayer bond orders larger than 0.1
B(  0-C ,  1-C ) :   1.9058 B(  0-C ,  7-H ) :   0.9386 B(  0-C ,  8-H ) :   0.9520
B(  1-C ,  2-N ) :   1.1295 B(  1-C ,  9-H ) :   0.9424 B(  2-N ,  3-C ) :   1.1478
B(  2-N , 10-H ) :   0.9092 B(  3-C ,  4-N ) :   1.9897 B(  3-C ,  5-C ) :   0.9042
B(  4-N , 11-H ) :   0.9349 B(  5-C ,  6-C ) :   2.3452 B(  6-C , 12-H ) :   1.0893

FINAL SINGLE POINT ENERGY      -302.939599653428

DIPOLE MOMENT
-------------
                                X             Y             Z
Electronic contribution:      4.37236      -1.19737       1.81061
Nuclear contribution   :     -5.28406       0.81598      -1.56005
                        -----------------------------------------
Total Dipole Moment    :     -0.91170      -0.38139       0.25056
                        -----------------------------------------
Magnitude (a.u.)       :      1.01952
Magnitude (Debye)      :      2.59142

                             ****ORCA TERMINATED NORMALLY****
TOTAL RUN TIME: 0 days 0 hours 0 minutes 6 seconds 336 msec
