                         Program Version 3.0.3 - RELEASE   -
|  1> ! RI PBE def2-SVP def2-SVP/J NBO PAL2
|  2> % maxcore 2000
|  3> % output
|  4>     # printlevel mini
|  5>     print[ P_Basis ] 0
|  6>     print[ P_SCFInfo ] 1
|  7>     print[ P_SCFIterInfo ] 1
|  8>     print[ P_OrbEn ] 0
|  9>     print[ P_Cartesian ] 0
| 10> end
| 11> *xyz 0 1
| 12>  C        0.8158500000    -0.1053510000    -0.0584800000
| 13>  C        2.3460090000    -0.0208770000    -0.0574040000
| 14>  N        2.9475450000    -0.8328980000    -1.1072570000
| 15>  C        2.7853710000     1.4349180000    -0.3146100000
| 16>  N        2.4363700000     1.8663880000    -1.6618280000
| 17>  C        2.8625990000    -0.4307570000     1.2924090000
| 18>  C        3.8521420000    -1.2814660000     1.5242240000
| 19>  H        0.4298440000     0.2872770000    -1.0018680000
| 20>  H        0.3778220000     0.4734410000     0.7605710000
| 21>  H        0.4913560000    -1.1431570000     0.0524580000
| 22>  H        2.5542540000    -0.5350550000    -1.9937730000
| 23>  H        2.6845030000    -1.8041630000    -0.9812290000
| 24>  H        3.8619970000     1.4951480000    -0.1211130000
| 25>  H        2.2858510000     2.0804570000     0.4130090000
| 26>  H        3.2288520000     1.7816180000    -2.2830140000
| 27>  H        2.1415730000     2.8314790000    -1.6799730000
| 28>  H        2.3563840000     0.0381760000     2.1344610000
| 29>  H        4.3891360000    -1.7546090000     0.7098900000
| 30>  H        4.1618330000    -1.5179580000     2.5357280000
| 31> *
| 32>
| 33>                          ****END OF INPUT****
 Total Charge           Charge          ....    0
 Multiplicity           Mult            ....    1
 Number of Electrons    NEL             ....   56
 Basis Dimension        Dim             ....  158

MULLIKEN ATOMIC CHARGES
-----------------------
   0 C :    0.073577
   1 C :   -0.180047
   2 N :   -0.150759
   3 C :    0.108822
   4 N :   -0.194455
   5 C :   -0.020289
   6 C :   -0.024386
   7 H :    0.010637
   8 H :   -0.004308
   9 H :    0.006137
  10 H :    0.077983
  11 H :    0.088617
  12 H :    0.004447
  13 H :   -0.006459
  14 H :    0.098789
  15 H :    0.094013
  16 H :   -0.013214
  17 H :    0.016519
  18 H :    0.014376
Sum of atomic charges:   -0.0000000

LOEWDIN ATOMIC CHARGES
----------------------
   0 C :   -0.062535
   1 C :   -0.038597
   2 N :   -0.084688
   3 C :    0.018123
   4 N :   -0.100244
   5 C :   -0.025974
   6 C :   -0.065963
   7 H :    0.020565
   8 H :    0.019030
   9 H :    0.020011
  10 H :    0.044780
  11 H :    0.049481
  12 H :    0.011234
  13 H :    0.017710
  14 H :    0.055773
  15 H :    0.055940
  16 H :    0.023137
  17 H :    0.020480
  18 H :    0.021736

  Mayer bond orders larger than 0.1
B(  0-C ,  1-C ) :   1.0257 B(  0-C ,  7-H ) :   0.9428 B(  0-C ,  8-H ) :   0.9453
B(  0-C ,  9-H ) :   0.9602 B(  1-C ,  2-N ) :   1.0795 B(  1-C ,  3-C ) :   0.9766
B(  1-C ,  5-C ) :   0.9750 B(  2-N , 10-H ) :   0.9498 B(  2-N , 11-H ) :   0.9520
B(  3-C ,  4-N ) :   1.1447 B(  3-C , 12-H ) :   0.9350 B(  3-C , 13-H ) :   0.9373
B(  4-N , 14-H ) :   0.9663 B(  4-N , 15-H ) :   0.9690 B(  5-C ,  6-C ) :   2.0150
B(  5-C , 16-H ) :   0.9549 B(  6-C , 17-H ) :   0.9232 B(  6-C , 18-H ) :   0.9376

FINAL SINGLE POINT ENERGY      -306.591041484227

DIPOLE MOMENT
-------------
                                X             Y             Z
Electronic contribution:      1.51604      -0.30569      -0.14244
Nuclear contribution   :     -1.67671       0.76377      -0.07586
                        -----------------------------------------
Total Dipole Moment    :     -0.16067       0.45809      -0.21830
                        -----------------------------------------
Magnitude (a.u.)       :      0.53227
Magnitude (Debye)      :      1.35293

                             ****ORCA TERMINATED NORMALLY****
TOTAL RUN TIME: 0 days 0 hours 0 minutes 8 seconds 451 msec
