                         Program Version 3.0.3 - RELEASE   -
|  1> ! RI PBE def2-SVP def2-SVP/J NBO PAL2
|  2> % maxcore 2000
|  3> % output
|  4>     # printlevel mini
|  5>     print[ P_Basis ] 0
|  6>     print[ P_SCFInfo ] 1
|  7>     print[ P_SCFIterInfo ] 1
|  8>     print[ P_OrbEn ] 0
|  9>     print[ P_Cartesian ] 0
| 10> end
| 11> *xyz 0 1
| 12>  C        0.9439640000    -0.2021130000     0.1100340000
| 13>  C        2.4714670000    -0.1608100000     0.0010450000
| 14>  N        3.0882070000    -1.4908600000     0.0119860000
| 15>  C        2.8756020000     0.5196100000    -1.3313400000
| 16>  N        4.2886480000     0.6699680000    -1.5628370000
| 17>  C        3.0172710000     0.6097740000     1.1194070000
| 18>  C        3.4502280000     1.2634940000     2.0289350000
| 19>  H        0.5309570000    -0.7536010000    -0.7398310000
| 20>  H        0.5170970000     0.8032590000     0.1069490000
| 21>  H        0.6364700000    -0.7018270000     1.0306420000
| 22>  H        2.5751070000    -2.1029570000    -0.6134540000
| 23>  H        3.0415990000    -1.8969790000     0.9383240000
| 24>  H        2.3921940000     1.4985420000    -1.3863730000
| 25>  H        2.4461600000    -0.0914320000    -2.1352890000
| 26>  H        4.7424750000    -0.2188770000    -1.3790640000
| 27>  H        4.6758040000     1.3308390000    -0.8990000000
| 28>  H        3.8343500000     1.8379710000     2.8385680000
| 29> *
| 30>
| 31>                          ****END OF INPUT****
 Total Charge           Charge          ....    0
 Multiplicity           Mult            ....    1
 Number of Electrons    NEL             ....   54
 Basis Dimension        Dim             ....  148

MULLIKEN ATOMIC CHARGES
-----------------------
   0 C :    0.088712
   1 C :   -0.253518
   2 N :   -0.135298
   3 C :    0.130747
   4 N :   -0.172575
   5 C :    0.477396
   6 C :   -0.541463
   7 H :    0.010206
   8 H :    0.021769
   9 H :    0.017073
  10 H :    0.086236
  11 H :    0.095644
  12 H :    0.007913
  13 H :    0.000127
  14 H :    0.082594
  15 H :    0.087219
  16 H :   -0.002782
Sum of atomic charges:    0.0000000

LOEWDIN ATOMIC CHARGES
----------------------
   0 C :   -0.052973
   1 C :   -0.056020
   2 N :   -0.075511
   3 C :    0.013548
   4 N :   -0.093203
   5 C :   -0.011261
   6 C :   -0.087946
   7 H :    0.023093
   8 H :    0.031071
   9 H :    0.026071
  10 H :    0.052308
  11 H :    0.055974
  12 H :    0.023102
  13 H :    0.017952
  14 H :    0.045989
  15 H :    0.052324
  16 H :    0.035483

  Mayer bond orders larger than 0.1
B(  0-C ,  1-C ) :   1.0340 B(  0-C ,  7-H ) :   0.9463 B(  0-C ,  8-H ) :   0.9464
B(  0-C ,  9-H ) :   0.9528 B(  1-C ,  2-N ) :   1.0478 B(  1-C ,  3-C ) :   0.9558
B(  1-C ,  5-C ) :   0.9169 B(  2-N , 10-H ) :   0.9605 B(  2-N , 11-H ) :   0.9556
B(  3-C ,  4-N ) :   1.1800 B(  3-C , 12-H ) :   0.9376 B(  3-C , 13-H ) :   0.9253
B(  4-N , 14-H ) :   0.9601 B(  4-N , 15-H ) :   0.9720 B(  5-C ,  6-C ) :   2.2740
B(  5-C , 16-H ) :  -0.1261 B(  6-C , 16-H ) :   1.1153

FINAL SINGLE POINT ENERGY      -305.347991510551

DIPOLE MOMENT
-------------
                                X             Y             Z
Electronic contribution:      2.63510       1.09964       2.52613
Nuclear contribution   :     -3.14002      -1.48582      -2.03010
                        -----------------------------------------
Total Dipole Moment    :     -0.50492      -0.38618       0.49603
                        -----------------------------------------
Magnitude (a.u.)       :      0.80630
Magnitude (Debye)      :      2.04946

                             ****ORCA TERMINATED NORMALLY****
TOTAL RUN TIME: 0 days 0 hours 0 minutes 7 seconds 384 msec
