                         Program Version 3.0.3 - RELEASE   -
|  1> ! RI PBE def2-SVP def2-SVP/J NBO PAL2
|  2> % maxcore 2000
|  3> % output
|  4>     # printlevel mini
|  5>     print[ P_Basis ] 0
|  6>     print[ P_SCFInfo ] 1
|  7>     print[ P_SCFIterInfo ] 1
|  8>     print[ P_OrbEn ] 0
|  9>     print[ P_Cartesian ] 0
| 10> end
| 11> *xyz 0 1
| 12>  C        2.8965890000     1.4118590000     0.3290080000
| 13>  C        2.5354500000    -0.0035100000    -0.0956000000
| 14>  N        2.9869140000    -0.3606440000    -1.4371410000
| 15>  C        3.0313010000    -1.0765000000     0.9011630000
| 16>  N        2.4947050000    -2.4005740000     0.6121950000
| 17>  C        4.5286170000    -1.1642060000     0.9262570000
| 18>  C        5.3099140000    -0.6690760000     1.8747840000
| 19>  H        2.4772260000     2.1416450000    -0.3684430000
| 20>  H        3.9814820000     1.5452080000     0.3521330000
| 21>  H        2.5114590000     1.6407320000     1.3273290000
| 22>  H        1.4422020000    -0.0956660000    -0.1028030000
| 23>  H        3.9596360000    -0.1004410000    -1.5579810000
| 24>  H        2.4621840000     0.1481670000    -2.1370140000
| 25>  H        2.6908220000    -0.7815030000     1.8996440000
| 26>  H        2.5991300000    -2.5639190000    -0.3857280000
| 27>  H        1.4990670000    -2.4155480000     0.8010240000
| 28>  H        4.9779070000    -1.6928920000     0.0872800000
| 29>  H        4.8981350000    -0.1557400000     2.7386870000
| 30>  H        6.3886500000    -0.7683820000     1.8323850000
| 31> *
| 32>
| 33>                          ****END OF INPUT****
 Total Charge           Charge          ....    0
 Multiplicity           Mult            ....    1
 Number of Electrons    NEL             ....   56
 Basis Dimension        Dim             ....  158

MULLIKEN ATOMIC CHARGES
-----------------------
   0 C :    0.043175
   1 C :   -0.071812
   2 N :   -0.179284
   3 C :    0.050421
   4 N :   -0.165217
   5 C :   -0.035792
   6 C :   -0.030241
   7 H :    0.004402
   8 H :    0.019468
   9 H :    0.006459
  10 H :   -0.003813
  11 H :    0.086458
  12 H :    0.091573
  13 H :   -0.013245
  14 H :    0.082142
  15 H :    0.078684
  16 H :    0.001358
  17 H :    0.011748
  18 H :    0.023517
Sum of atomic charges:   -0.0000000

LOEWDIN ATOMIC CHARGES
----------------------
   0 C :   -0.079339
   1 C :   -0.019109
   2 N :   -0.090190
   3 C :   -0.004729
   4 N :   -0.089837
   5 C :   -0.021923
   6 C :   -0.066282
   7 H :    0.020698
   8 H :    0.023963
   9 H :    0.025258
  10 H :    0.016442
  11 H :    0.049758
  12 H :    0.053376
  13 H :    0.022396
  14 H :    0.042444
  15 H :    0.048300
  16 H :    0.024754
  17 H :    0.019957
  18 H :    0.024061

  Mayer bond orders larger than 0.1
B(  0-C ,  1-C ) :   1.0665 B(  0-C ,  7-H ) :   0.9490 B(  0-C ,  8-H ) :   0.9505
B(  0-C ,  9-H ) :   0.9433 B(  1-C ,  2-N ) :   1.0899 B(  1-C ,  3-C ) :   0.9753
B(  1-C , 10-H ) :   0.9085 B(  2-N , 11-H ) :   0.9672 B(  2-N , 12-H ) :   0.9665
B(  3-C ,  4-N ) :   1.0820 B(  3-C ,  5-C ) :   1.0121 B(  3-C , 13-H ) :   0.9115
B(  4-N , 14-H ) :   0.9587 B(  4-N , 15-H ) :   0.9672 B(  5-C ,  6-C ) :   2.0161
B(  5-C , 16-H ) :   0.9462 B(  6-C , 17-H ) :   0.9404 B(  6-C , 18-H ) :   0.9413

FINAL SINGLE POINT ENERGY      -306.589939838110

DIPOLE MOMENT
-------------
                                X             Y             Z
Electronic contribution:      0.13240      -3.07054      -0.11974
Nuclear contribution   :     -0.44117       3.80958      -0.32241
                        -----------------------------------------
Total Dipole Moment    :     -0.30877       0.73905      -0.44215
                        -----------------------------------------
Magnitude (a.u.)       :      0.91489
Magnitude (Debye)      :      2.32546

                             ****ORCA TERMINATED NORMALLY****
TOTAL RUN TIME: 0 days 0 hours 0 minutes 8 seconds 434 msec
