                         Program Version 3.0.3 - RELEASE   -
|  1> ! RI PBE def2-SVP def2-SVP/J NBO PAL2
|  2> % maxcore 2000
|  3> % output
|  4>     # printlevel mini
|  5>     print[ P_Basis ] 0
|  6>     print[ P_SCFInfo ] 1
|  7>     print[ P_SCFIterInfo ] 1
|  8>     print[ P_OrbEn ] 0
|  9>     print[ P_Cartesian ] 0
| 10> end
| 11> *xyz 0 1
| 12>  C        0.9661730000    -0.0510210000    -0.0074690000
| 13>  C        2.4811170000     0.0451110000     0.0948910000
| 14>  N        2.9937180000     1.3850470000     0.3333960000
| 15>  C        3.0567030000    -0.8944680000     1.1807080000
| 16>  N        4.5095030000    -0.9640970000     1.1944840000
| 17>  C        2.5655800000    -0.4979750000     2.5019780000
| 18>  C        2.1470840000    -0.1369170000     3.5679750000
| 19>  H        0.5956640000     0.5836300000    -0.8163990000
| 20>  H        0.4971490000     0.2745000000     0.9247030000
| 21>  H        0.6408130000    -1.0760590000    -0.2094140000
| 22>  H        2.9211640000    -0.3003110000    -0.8486760000
| 23>  H        2.5543770000     1.7791370000     1.1590130000
| 24>  H        2.7785340000     1.9960560000    -0.4437660000
| 25>  H        2.6756820000    -1.9032090000     0.9814620000
| 26>  H        4.8648110000    -0.0126050000     1.1902880000
| 27>  H        4.8275000000    -1.3963470000     0.3345740000
| 28>  H        1.7904380000     0.1612270000     4.5254620000
| 29> *
| 30>
| 31>                          ****END OF INPUT****
 Total Charge           Charge          ....    0
 Multiplicity           Mult            ....    1
 Number of Electrons    NEL             ....   54
 Basis Dimension        Dim             ....  148

MULLIKEN ATOMIC CHARGES
-----------------------
   0 C :    0.046201
   1 C :   -0.054664
   2 N :   -0.180182
   3 C :    0.055494
   4 N :   -0.142151
   5 C :    0.405593
   6 C :   -0.525086
   7 H :    0.007749
   8 H :    0.022176
   9 H :    0.007755
  10 H :   -0.011611
  11 H :    0.091346
  12 H :    0.092741
  13 H :    0.018730
  14 H :    0.087047
  15 H :    0.082806
  16 H :   -0.003944
Sum of atomic charges:   -0.0000000

LOEWDIN ATOMIC CHARGES
----------------------
   0 C :   -0.076295
   1 C :   -0.012972
   2 N :   -0.089465
   3 C :   -0.011695
   4 N :   -0.080714
   5 C :   -0.010769
   6 C :   -0.091299
   7 H :    0.021994
   8 H :    0.027459
   9 H :    0.025876
  10 H :    0.016647
  11 H :    0.052860
  12 H :    0.053727
  13 H :    0.041776
  14 H :    0.047539
  15 H :    0.050994
  16 H :    0.034337

  Mayer bond orders larger than 0.1
B(  0-C ,  1-C ) :   1.0566 B(  0-C ,  7-H ) :   0.9526 B(  0-C ,  8-H ) :   0.9513
B(  0-C ,  9-H ) :   0.9449 B(  1-C ,  2-N ) :   1.0749 B(  1-C ,  3-C ) :   0.9845
B(  1-C , 10-H ) :   0.9034 B(  2-N , 11-H ) :   0.9647 B(  2-N , 12-H ) :   0.9664
B(  3-C ,  4-N ) :   1.1342 B(  3-C ,  5-C ) :   0.9788 B(  3-C , 13-H ) :   0.8730
B(  4-N , 14-H ) :   0.9556 B(  4-N , 15-H ) :   0.9630 B(  5-C ,  6-C ) :   2.3058
B(  5-C , 16-H ) :  -0.1178 B(  6-C , 16-H ) :   1.1074

FINAL SINGLE POINT ENERGY      -305.347541072351

DIPOLE MOMENT
-------------
                                X             Y             Z
Electronic contribution:      2.09147      -0.90270       4.05081
Nuclear contribution   :     -2.58526       1.29199      -4.75303
                        -----------------------------------------
Total Dipole Moment    :     -0.49380       0.38929      -0.70222
                        -----------------------------------------
Magnitude (a.u.)       :      0.94260
Magnitude (Debye)      :      2.39590

                             ****ORCA TERMINATED NORMALLY****
TOTAL RUN TIME: 0 days 0 hours 0 minutes 7 seconds 286 msec
