                         Program Version 3.0.3 - RELEASE   -
|  1> ! RI PBE def2-SVP def2-SVP/J NBO PAL2
|  2> % maxcore 2000
|  3> % output
|  4>     # printlevel mini
|  5>     print[ P_Basis ] 0
|  6>     print[ P_SCFInfo ] 1
|  7>     print[ P_SCFIterInfo ] 1
|  8>     print[ P_OrbEn ] 0
|  9>     print[ P_Cartesian ] 0
| 10> end
| 11> *xyz 0 1
| 12>  C        3.2632890000     1.5554330000    -1.5373630000
| 13>  C        2.6122810000     0.8206670000    -0.3747170000
| 14>  N        1.2992900000     0.2603730000    -0.6737030000
| 15>  C        3.4854210000    -0.3227660000     0.1330520000
| 16>  N        4.8263160000     0.0680250000     0.5174150000
| 17>  C        4.8452280000     0.8624390000     1.7238340000
| 18>  C        5.6894080000    -1.0818930000     0.6494800000
| 19>  H        2.6386410000     2.3896370000    -1.8684170000
| 20>  H        3.3986300000     0.8769030000    -2.3864740000
| 21>  H        4.2471350000     1.9408690000    -1.2622500000
| 22>  H        2.4578060000     1.5305590000     0.4460320000
| 23>  H        1.3654890000    -0.3666050000    -1.4691750000
| 24>  H        0.6581380000     0.9966170000    -0.9432250000
| 25>  H        3.5756240000    -1.0575050000    -0.6769060000
| 26>  H        2.9484230000    -0.8255110000     0.9576280000
| 27>  H        4.2735570000     1.7825580000     1.5919070000
| 28>  H        5.8734550000     1.1438910000     1.9618880000
| 29>  H        4.4278690000     0.3236680000     2.5948320000
| 30>  H        5.7189370000    -1.6367110000    -0.2909720000
| 31>  H        5.3642450000    -1.7767430000     1.4459020000
| 32>  H        6.7062120000    -0.7572070000     0.8831420000
| 33> *
| 34>
| 35>                          ****END OF INPUT****
 Total Charge           Charge          ....    0
 Multiplicity           Mult            ....    1
 Number of Electrons    NEL             ....   58
 Basis Dimension        Dim             ....  168

MULLIKEN ATOMIC CHARGES
-----------------------
   0 C :    0.041817
   1 C :   -0.066452
   2 N :   -0.181843
   3 C :    0.122545
   4 N :   -0.333959
   5 C :    0.104722
   6 C :    0.096048
   7 H :    0.007261
   8 H :   -0.001246
   9 H :    0.011974
  10 H :    0.003541
  11 H :    0.082414
  12 H :    0.083254
  13 H :   -0.010636
  14 H :   -0.010892
  15 H :    0.024018
  16 H :    0.014347
  17 H :   -0.014405
  18 H :    0.020687
  19 H :   -0.010861
  20 H :    0.017667
Sum of atomic charges:   -0.0000000

LOEWDIN ATOMIC CHARGES
----------------------
   0 C :   -0.078015
   1 C :   -0.013334
   2 N :   -0.093086
   3 C :    0.013923
   4 N :   -0.111089
   5 C :    0.002985
   6 C :    0.002231
   7 H :    0.018629
   8 H :    0.019852
   9 H :    0.025029
  10 H :    0.019290
  11 H :    0.046862
  12 H :    0.050206
  13 H :    0.016658
  14 H :    0.000840
  15 H :    0.018958
  16 H :    0.021764
  17 H :   -0.001534
  18 H :    0.021007
  19 H :   -0.001859
  20 H :    0.020684

  Mayer bond orders larger than 0.1
B(  0-C ,  1-C ) :   1.0662 B(  0-C ,  7-H ) :   0.9586 B(  0-C ,  8-H ) :   0.9535
B(  0-C ,  9-H ) :   0.9374 B(  1-C ,  2-N ) :   1.0811 B(  1-C ,  3-C ) :   1.0533
B(  1-C , 10-H ) :   0.9002 B(  2-N , 11-H ) :   0.9691 B(  2-N , 12-H ) :   0.9660
B(  3-C ,  4-N ) :   1.0335 B(  3-C , 13-H ) :   0.9239 B(  3-C , 14-H ) :   0.9128
B(  4-N ,  5-C ) :   1.0324 B(  4-N ,  6-C ) :   1.0393 B(  5-C , 15-H ) :   0.9625
B(  5-C , 16-H ) :   0.9643 B(  5-C , 17-H ) :   0.9351 B(  6-C , 18-H ) :   0.9665
B(  6-C , 19-H ) :   0.9371 B(  6-C , 20-H ) :   0.9668

FINAL SINGLE POINT ENERGY      -307.798581505909

DIPOLE MOMENT
-------------
                                X             Y             Z
Electronic contribution:     -1.57679      -0.14709      -0.39375
Nuclear contribution   :      1.63198       0.26665       0.15797
                        -----------------------------------------
Total Dipole Moment    :      0.05519       0.11956      -0.23579
                        -----------------------------------------
Magnitude (a.u.)       :      0.27007
Magnitude (Debye)      :      0.68646

                             ****ORCA TERMINATED NORMALLY****
TOTAL RUN TIME: 0 days 0 hours 0 minutes 8 seconds 289 msec
