                         Program Version 3.0.3 - RELEASE   -
|  1> ! RI PBE def2-SVP def2-SVP/J NBO PAL2
|  2> % maxcore 2000
|  3> % output
|  4>     # printlevel mini
|  5>     print[ P_Basis ] 0
|  6>     print[ P_SCFInfo ] 1
|  7>     print[ P_SCFIterInfo ] 1
|  8>     print[ P_OrbEn ] 0
|  9>     print[ P_Cartesian ] 0
| 10> end
| 11> *xyz 0 1
| 12>  C        1.0405030000    -0.8315480000     0.1451120000
| 13>  C        2.2806850000     0.0287850000     0.3339750000
| 14>  N        2.0931170000     1.3876000000    -0.1433990000
| 15>  C        2.3250750000     1.7600230000    -1.4354040000
| 16>  N        1.9977820000     2.8280180000    -2.0397330000
| 17>  C        2.7967050000     0.0839630000     1.7438010000
| 18>  C        2.2753320000    -0.5296000000     2.7961490000
| 19>  H        0.7420700000    -0.8265840000    -0.9045930000
| 20>  H        0.2038890000    -0.4481480000     0.7350920000
| 21>  H        1.2247410000    -1.8658550000     0.4436680000
| 22>  H        3.0857910000    -0.3894300000    -0.2846240000
| 23>  H        1.4790870000     1.9724260000     0.4033770000
| 24>  H        2.9048980000     1.0142170000    -1.9867320000
| 25>  H        1.4585540000     3.4533400000    -1.4398280000
| 26>  H        3.6766790000     0.7107310000     1.8698820000
| 27>  H        1.3964050000    -1.1602490000     2.7231200000
| 28>  H        2.7195960000    -0.4248600000     3.7789460000
| 29> *
| 30>
| 31>                          ****END OF INPUT****
 Total Charge           Charge          ....    0
 Multiplicity           Mult            ....    1
 Number of Electrons    NEL             ....   54
 Basis Dimension        Dim             ....  148

MULLIKEN ATOMIC CHARGES
-----------------------
   0 C :    0.029928
   1 C :    0.031338
   2 N :   -0.134316
   3 C :   -0.036641
   4 N :   -0.141730
   5 C :   -0.068078
   6 C :   -0.031273
   7 H :    0.027168
   8 H :    0.022875
   9 H :    0.034084
  10 H :    0.029448
  11 H :    0.099931
  12 H :    0.008830
  13 H :    0.068363
  14 H :    0.008506
  15 H :    0.023341
  16 H :    0.028227
Sum of atomic charges:   -0.0000000

LOEWDIN ATOMIC CHARGES
----------------------
   0 C :   -0.067639
   1 C :    0.011243
   2 N :   -0.010358
   3 C :    0.007883
   4 N :   -0.173497
   5 C :   -0.037496
   6 C :   -0.059998
   7 H :    0.032664
   8 H :    0.026947
   9 H :    0.032528
  10 H :    0.040153
  11 H :    0.065368
  12 H :    0.013242
  13 H :    0.037718
  14 H :    0.028959
  15 H :    0.023408
  16 H :    0.028874

  Mayer bond orders larger than 0.1
B(  0-C ,  1-C ) :   1.1093 B(  0-C ,  7-H ) :   0.9502 B(  0-C ,  8-H ) :   0.9462
B(  0-C ,  9-H ) :   0.9456 B(  1-C ,  2-N ) :   0.9686 B(  1-C ,  5-C ) :   1.0128
B(  1-C , 10-H ) :   0.8856 B(  2-N ,  3-C ) :   1.1699 B(  2-N ,  4-N ) :   0.1108
B(  2-N , 11-H ) :   0.9295 B(  3-C ,  4-N ) :   1.9878 B(  3-C , 12-H ) :   0.9302
B(  4-N , 13-H ) :   0.9409 B(  5-C ,  6-C ) :   1.9945 B(  5-C , 14-H ) :   0.9632
B(  6-C , 15-H ) :   0.9319 B(  6-C , 16-H ) :   0.9418

FINAL SINGLE POINT ENERGY      -305.395285160142

DIPOLE MOMENT
-------------
                                X             Y             Z
Electronic contribution:      1.60051       3.83822      -2.19697
Nuclear contribution   :     -1.87985      -4.50235       3.28851
                        -----------------------------------------
Total Dipole Moment    :     -0.27934      -0.66413       1.09154
                        -----------------------------------------
Magnitude (a.u.)       :      1.30789
Magnitude (Debye)      :      3.32439

                             ****ORCA TERMINATED NORMALLY****
TOTAL RUN TIME: 0 days 0 hours 0 minutes 7 seconds 690 msec
