                         Program Version 3.0.3 - RELEASE   -
|  1> ! RI PBE def2-SVP def2-SVP/J NBO PAL2
|  2> % maxcore 2000
|  3> % output
|  4>     # printlevel mini
|  5>     print[ P_Basis ] 0
|  6>     print[ P_SCFInfo ] 1
|  7>     print[ P_SCFIterInfo ] 1
|  8>     print[ P_OrbEn ] 0
|  9>     print[ P_Cartesian ] 0
| 10> end
| 11> *xyz 0 1
| 12>  C        0.7584840000    -0.3946370000    -0.1114450000
| 13>  C        2.2133670000     0.0474420000    -0.0023780000
| 14>  N        2.2971750000     1.4384990000     0.4010030000
| 15>  C        3.3302680000     2.2450010000     0.0006120000
| 16>  N        3.7024840000     3.3606950000     0.4736850000
| 17>  C        2.9681600000    -0.8376040000     0.8914570000
| 18>  C        3.5744770000    -1.5488130000     1.6448050000
| 19>  H        0.2325020000     0.2412590000    -0.8247360000
| 20>  H        0.2625510000    -0.3205760000     0.8589630000
| 21>  H        0.6983240000    -1.4328770000    -0.4398180000
| 22>  H        2.6686170000    -0.0125090000    -0.9970420000
| 23>  H        1.8905440000     1.6504340000     1.3007290000
| 24>  H        3.8530660000     1.8547070000    -0.8764500000
| 25>  H        3.1550530000     3.6290420000     1.2921900000
| 26>  H        4.1206380000    -2.1764610000     2.3090340000
| 27> *
| 28>
| 29>                          ****END OF INPUT****
 Total Charge           Charge          ....    0
 Multiplicity           Mult            ....    1
 Number of Electrons    NEL             ....   52
 Basis Dimension        Dim             ....  138

MULLIKEN ATOMIC CHARGES
-----------------------
   0 C :    0.026390
   1 C :    0.024914
   2 N :   -0.125355
   3 C :   -0.014199
   4 N :   -0.139246
   5 C :    0.394014
   6 C :   -0.497194
   7 H :    0.035193
   8 H :    0.029976
   9 H :    0.036556
  10 H :    0.039178
  11 H :    0.103401
  12 H :    0.011562
  13 H :    0.070525
  14 H :    0.004285
Sum of atomic charges:   -0.0000000

LOEWDIN ATOMIC CHARGES
----------------------
   0 C :   -0.050070
   1 C :    0.007389
   2 N :   -0.010375
   3 C :    0.016627
   4 N :   -0.163633
   5 C :   -0.035879
   6 C :   -0.071581
   7 H :    0.032770
   8 H :    0.030709
   9 H :    0.037351
  10 H :    0.048286
  11 H :    0.066758
  12 H :    0.014949
  13 H :    0.039308
  14 H :    0.037389

  Mayer bond orders larger than 0.1
B(  0-C ,  1-C ) :   1.0868 B(  0-C ,  7-H ) :   0.9569 B(  0-C ,  8-H ) :   0.9564
B(  0-C ,  9-H ) :   0.9562 B(  1-C ,  2-N ) :   1.0112 B(  1-C ,  5-C ) :   0.9793
B(  1-C , 10-H ) :   0.8770 B(  2-N ,  3-C ) :   1.1502 B(  2-N ,  4-N ) :   0.1035
B(  2-N , 11-H ) :   0.9277 B(  3-C ,  4-N ) :   2.0020 B(  3-C , 12-H ) :   0.9318
B(  4-N , 13-H ) :   0.9413 B(  5-C ,  6-C ) :   2.3397 B(  5-C , 14-H ) :  -0.1153
B(  6-C , 14-H ) :   1.1055

FINAL SINGLE POINT ENERGY      -304.149140936778

DIPOLE MOMENT
-------------
                                X             Y             Z
Electronic contribution:      3.22094       0.89994       1.23766
Nuclear contribution   :     -4.09316      -1.82046      -0.97464
                        -----------------------------------------
Total Dipole Moment    :     -0.87223      -0.92052       0.26302
                        -----------------------------------------
Magnitude (a.u.)       :      1.29512
Magnitude (Debye)      :      3.29192

                             ****ORCA TERMINATED NORMALLY****
TOTAL RUN TIME: 0 days 0 hours 0 minutes 6 seconds 846 msec
