                         Program Version 3.0.3 - RELEASE   -
|  1> ! RI PBE def2-SVP def2-SVP/J NBO PAL2
|  2> % maxcore 2000
|  3> % output
|  4>     # printlevel mini
|  5>     print[ P_Basis ] 0
|  6>     print[ P_SCFInfo ] 1
|  7>     print[ P_SCFIterInfo ] 1
|  8>     print[ P_OrbEn ] 0
|  9>     print[ P_Cartesian ] 0
| 10> end
| 11> *xyz 0 1
| 12>  C        3.1565840000    -0.6267470000    -1.6831460000
| 13>  C        3.3239800000    -0.1551840000    -0.2531240000
| 14>  N        4.2092690000     0.9904810000    -0.1940560000
| 15>  C        4.4411200000     1.4899460000     0.9506720000
| 16>  N        5.2496990000     2.5603560000     1.1392260000
| 17>  C        5.4652540000     3.0711990000     2.4698130000
| 18>  C        5.8738070000     3.1573890000    -0.0147610000
| 19>  H        2.4897550000    -1.4911330000    -1.7368730000
| 20>  H        4.1228880000    -0.9071560000    -2.1082430000
| 21>  H        2.7405120000     0.1713350000    -2.3020350000
| 22>  H        3.7164890000    -0.9832880000     0.3549220000
| 23>  H        2.3361270000     0.0935560000     0.1613550000
| 24>  H        4.0091890000     1.1005310000     1.8845550000
| 25>  H        4.5344480000     3.4116380000     2.9372810000
| 26>  H        6.1383930000     3.9257670000     2.4193500000
| 27>  H        5.9263180000     2.3265530000     3.1284090000
| 28>  H        5.1228410000     3.5065630000    -0.7300790000
| 29>  H        6.5016970000     2.4315380000    -0.5405450000
| 30>  H        6.4870110000     3.9998680000     0.3026780000
| 31> *
| 32>
| 33>                          ****END OF INPUT****
 Total Charge           Charge          ....    0
 Multiplicity           Mult            ....    1
 Number of Electrons    NEL             ....   56
 Basis Dimension        Dim             ....  158

MULLIKEN ATOMIC CHARGES
-----------------------
   0 C :   -0.003188
   1 C :    0.059522
   2 N :   -0.245556
   3 C :    0.079457
   4 N :   -0.268684
   5 C :    0.088724
   6 C :    0.115823
   7 H :    0.007177
   8 H :    0.017199
   9 H :    0.019846
  10 H :   -0.003856
  11 H :   -0.002572
  12 H :   -0.035848
  13 H :    0.032439
  14 H :    0.030069
  15 H :    0.034901
  16 H :    0.029699
  17 H :    0.031145
  18 H :    0.013705
Sum of atomic charges:   -0.0000000

LOEWDIN ATOMIC CHARGES
----------------------
   0 C :   -0.075641
   1 C :    0.001891
   2 N :   -0.172322
   3 C :    0.023273
   4 N :   -0.036035
   5 C :    0.013760
   6 C :    0.018602
   7 H :    0.022076
   8 H :    0.024110
   9 H :    0.024691
  10 H :    0.010126
  11 H :    0.010168
  12 H :   -0.011743
  13 H :    0.022248
  14 H :    0.030382
  15 H :    0.022572
  16 H :    0.025535
  17 H :    0.025491
  18 H :    0.020816

  Mayer bond orders larger than 0.1
B(  0-C ,  1-C ) :   1.1200 B(  0-C ,  7-H ) :   0.9540 B(  0-C ,  8-H ) :   0.9633
B(  0-C ,  9-H ) :   0.9632 B(  1-C ,  2-N ) :   1.0155 B(  1-C , 10-H ) :   0.9280
B(  1-C , 11-H ) :   0.9292 B(  2-N ,  3-C ) :   1.7855 B(  3-C ,  4-N ) :   1.1975
B(  3-C , 12-H ) :   0.9238 B(  4-N ,  5-C ) :   1.0096 B(  4-N ,  6-C ) :   1.0131
B(  5-C , 13-H ) :   0.9633 B(  5-C , 14-H ) :   0.9669 B(  5-C , 15-H ) :   0.9640
B(  6-C , 16-H ) :   0.9598 B(  6-C , 17-H ) :   0.9604 B(  6-C , 18-H ) :   0.9625

FINAL SINGLE POINT ENERGY      -306.605378966922

DIPOLE MOMENT
-------------
                                X             Y             Z
Electronic contribution:      0.56823       0.94656       1.18780
Nuclear contribution   :     -0.29379      -0.44533      -0.35991
                        -----------------------------------------
Total Dipole Moment    :      0.27443       0.50122       0.82788
                        -----------------------------------------
Magnitude (a.u.)       :      1.00595
Magnitude (Debye)      :      2.55692

                             ****ORCA TERMINATED NORMALLY****
TOTAL RUN TIME: 0 days 0 hours 0 minutes 8 seconds 273 msec
