                         Program Version 3.0.3 - RELEASE   -
|  1> ! RI PBE def2-SVP def2-SVP/J NBO PAL2
|  2> % maxcore 2000
|  3> % output
|  4>     # printlevel mini
|  5>     print[ P_Basis ] 0
|  6>     print[ P_SCFInfo ] 1
|  7>     print[ P_SCFIterInfo ] 1
|  8>     print[ P_OrbEn ] 0
|  9>     print[ P_Cartesian ] 0
| 10> end
| 11> *xyz 0 1
| 12>  C        1.2056260000     0.4050720000    -0.2246920000
| 13>  C        2.6678600000     0.1329990000     0.0615450000
| 14>  N        3.1406080000    -0.9935250000    -0.7201630000
| 15>  C        4.3471350000    -1.3401400000    -0.5846930000
| 16>  N        4.8820280000    -2.3886630000    -1.2784040000
| 17>  C        6.1849790000    -2.8155740000    -1.1757070000
| 18>  C        6.7271460000    -3.8337110000    -1.8410330000
| 19>  H        0.8439480000     1.2532100000     0.3616800000
| 20>  H        0.5987580000    -0.4692290000     0.0199050000
| 21>  H        1.0580480000     0.6277680000    -1.2835320000
| 22>  H        2.7974030000    -0.0626190000     1.1350070000
| 23>  H        3.2559460000     1.0327230000    -0.1664910000
| 24>  H        5.0673380000    -0.8494280000     0.0843880000
| 25>  H        4.2519080000    -2.8669720000    -1.9048410000
| 26>  H        6.7770690000    -2.2338430000    -0.4756100000
| 27>  H        6.1594260000    -4.4308080000    -2.5454380000
| 28>  H        7.7654840000    -4.0875780000    -1.6865330000
| 29> *
| 30>
| 31>                          ****END OF INPUT****
 Total Charge           Charge          ....    0
 Multiplicity           Mult            ....    1
 Number of Electrons    NEL             ....   54
 Basis Dimension        Dim             ....  148

MULLIKEN ATOMIC CHARGES
-----------------------
   0 C :   -0.002775
   1 C :    0.044218
   2 N :   -0.206329
   3 C :    0.028581
   4 N :   -0.027513
   5 C :    0.024361
   6 C :   -0.083045
   7 H :    0.009947
   8 H :    0.024008
   9 H :    0.021753
  10 H :    0.012773
  11 H :    0.004920
  12 H :   -0.018118
  13 H :    0.114057
  14 H :    0.011933
  15 H :    0.014463
  16 H :    0.026765
Sum of atomic charges:   -0.0000000

LOEWDIN ATOMIC CHARGES
----------------------
   0 C :   -0.073397
   1 C :    0.002266
   2 N :   -0.151726
   3 C :    0.030528
   4 N :    0.055110
   5 C :    0.005463
   6 C :   -0.134192
   7 H :    0.024147
   8 H :    0.026535
   9 H :    0.026180
  10 H :    0.015815
  11 H :    0.014525
  12 H :   -0.006012
  13 H :    0.085077
  14 H :    0.028124
  15 H :    0.021475
  16 H :    0.030082

  Mayer bond orders larger than 0.1
B(  0-C ,  1-C ) :   1.1181 B(  0-C ,  7-H ) :   0.9546 B(  0-C ,  8-H ) :   0.9650
B(  0-C ,  9-H ) :   0.9649 B(  1-C ,  2-N ) :   1.0066 B(  1-C , 10-H ) :   0.9341
B(  1-C , 11-H ) :   0.9302 B(  2-N ,  3-C ) :   1.8556 B(  3-C ,  4-N ) :   1.1515
B(  3-C , 12-H ) :   0.9240 B(  4-N ,  5-C ) :   1.1566 B(  4-N , 13-H ) :   0.9194
B(  5-C ,  6-C ) :   1.8789 B(  5-C , 14-H ) :   0.9505 B(  6-C , 15-H ) :   0.9541
B(  6-C , 16-H ) :   0.9403

FINAL SINGLE POINT ENERGY      -305.404533086493

DIPOLE MOMENT
-------------
                                X             Y             Z
Electronic contribution:      2.90617      -2.83655      -1.35962
Nuclear contribution   :     -2.53141       2.90638       1.55647
                        -----------------------------------------
Total Dipole Moment    :      0.37476       0.06983       0.19685
                        -----------------------------------------
Magnitude (a.u.)       :      0.42903
Magnitude (Debye)      :      1.09052

                             ****ORCA TERMINATED NORMALLY****
TOTAL RUN TIME: 0 days 0 hours 0 minutes 7 seconds 286 msec
