                         Program Version 3.0.3 - RELEASE   -
|  1> ! RI PBE def2-SVP def2-SVP/J NBO PAL2
|  2> % maxcore 2000
|  3> % output
|  4>     # printlevel mini
|  5>     print[ P_Basis ] 0
|  6>     print[ P_SCFInfo ] 1
|  7>     print[ P_SCFIterInfo ] 1
|  8>     print[ P_OrbEn ] 0
|  9>     print[ P_Cartesian ] 0
| 10> end
| 11> *xyz 0 1
| 12>  C        2.1148690000    -0.7199890000    -1.0455610000
| 13>  C        2.0657920000     0.6279180000    -0.3418410000
| 14>  N        2.5243820000     0.6099740000     1.0320060000
| 15>  C        1.7125390000    -0.0732500000     2.0014000000
| 16>  N        3.8652190000     0.5742650000     1.1352330000
| 17>  C        4.4426820000     0.1649640000     2.1962810000
| 18>  C        5.9275050000     0.2104350000     2.3001210000
| 19>  H        1.7816640000    -0.6229600000    -2.0818900000
| 20>  H        1.4695230000    -1.4545220000    -0.5566950000
| 21>  H        3.1353390000    -1.1090530000    -1.0505410000
| 22>  H        1.0450240000     1.0226630000    -0.3468960000
| 23>  H        2.6972410000     1.3461980000    -0.8679460000
| 24>  H        0.6675150000     0.0052380000     1.7021460000
| 25>  H        1.8168760000     0.3904800000     2.9872080000
| 26>  H        1.9728080000    -1.1389800000     2.1018510000
| 27>  H        3.8887460000    -0.2080480000     3.0605600000
| 28>  H        6.3572800000     0.5795050000     1.3686920000
| 29>  H        6.3400780000    -0.7815410000     2.5111930000
| 30>  H        6.2483190000     0.8662110000     3.1167890000
| 31> *
| 32>
| 33>                          ****END OF INPUT****
 Total Charge           Charge          ....    0
 Multiplicity           Mult            ....    1
 Number of Electrons    NEL             ....   56
 Basis Dimension        Dim             ....  158

MULLIKEN ATOMIC CHARGES
-----------------------
   0 C :   -0.035512
   1 C :    0.089007
   2 N :   -0.238033
   3 C :    0.095667
   4 N :   -0.046734
   5 C :   -0.167728
   6 C :    0.064947
   7 H :    0.023244
   8 H :    0.017826
   9 H :    0.033295
  10 H :    0.009126
  11 H :    0.022227
  12 H :    0.028034
  13 H :    0.035502
  14 H :    0.020991
  15 H :   -0.021067
  16 H :    0.022810
  17 H :    0.021707
  18 H :    0.024691
Sum of atomic charges:    0.0000000

LOEWDIN ATOMIC CHARGES
----------------------
   0 C :   -0.081996
   1 C :    0.011213
   2 N :   -0.016602
   3 C :   -0.007486
   4 N :   -0.043479
   5 C :   -0.074751
   6 C :   -0.073410
   7 H :    0.030511
   8 H :    0.023003
   9 H :    0.029558
  10 H :    0.018210
  11 H :    0.027728
  12 H :    0.030353
  13 H :    0.025730
  14 H :    0.013234
  15 H :   -0.009148
  16 H :    0.032980
  17 H :    0.031636
  18 H :    0.032717

  Mayer bond orders larger than 0.1
B(  0-C ,  1-C ) :   1.1134 B(  0-C ,  7-H ) :   0.9558 B(  0-C ,  8-H ) :   0.9599
B(  0-C ,  9-H ) :   0.9608 B(  1-C ,  2-N ) :   1.0211 B(  1-C , 10-H ) :   0.9405
B(  1-C , 11-H ) :   0.9347 B(  2-N ,  3-C ) :   1.0157 B(  2-N ,  4-N ) :   1.0915
B(  2-N ,  5-C ) :   0.1343 B(  3-C , 12-H ) :   0.9559 B(  3-C , 13-H ) :   0.9508
B(  3-C , 14-H ) :   0.9372 B(  4-N ,  5-C ) :   1.8425 B(  5-C ,  6-C ) :   1.0742
B(  5-C , 15-H ) :   0.9182 B(  6-C , 16-H ) :   0.9551 B(  6-C , 17-H ) :   0.9484
B(  6-C , 18-H ) :   0.9445

FINAL SINGLE POINT ENERGY      -306.584917089181

DIPOLE MOMENT
-------------
                                X             Y             Z
Electronic contribution:      0.60808       2.74957       0.65011
Nuclear contribution   :     -1.14752      -3.05478      -0.45761
                        -----------------------------------------
Total Dipole Moment    :     -0.53944      -0.30521       0.19250
                        -----------------------------------------
Magnitude (a.u.)       :      0.64900
Magnitude (Debye)      :      1.64964

                             ****ORCA TERMINATED NORMALLY****
TOTAL RUN TIME: 0 days 0 hours 0 minutes 8 seconds 192 msec
