                         Program Version 3.0.3 - RELEASE   -
|  1> ! RI PBE def2-SVP def2-SVP/J NBO PAL2
|  2> % maxcore 2000
|  3> % output
|  4>     # printlevel mini
|  5>     print[ P_Basis ] 0
|  6>     print[ P_SCFInfo ] 1
|  7>     print[ P_SCFIterInfo ] 1
|  8>     print[ P_OrbEn ] 0
|  9>     print[ P_Cartesian ] 0
| 10> end
| 11> *xyz 0 1
| 12>  C        0.6864790000     0.9342530000    -1.0437480000
| 13>  C        2.0454980000     1.3312550000    -1.5779470000
| 14>  N        3.0934920000     0.6307350000    -0.8781850000
| 15>  C        4.4038570000     0.8094560000    -1.1682030000
| 16>  N        4.8053400000     1.6023940000    -2.0728490000
| 17>  C        6.2356340000     1.7027870000    -2.2848050000
| 18>  C        6.5420600000     2.6856400000    -3.3964530000
| 19>  H       -0.1018520000     1.4674840000    -1.5770430000
| 20>  H        0.5917110000     1.1754740000     0.0187300000
| 21>  H        0.5079330000    -0.1372890000    -1.1700150000
| 22>  H        2.2025590000     2.4108640000    -1.4768770000
| 23>  H        2.1199230000     1.1157410000    -2.6496050000
| 24>  H        2.8465910000    -0.0128100000    -0.1499460000
| 25>  H        5.0751530000     0.2014030000    -0.5440910000
| 26>  H        6.6610080000     0.7224730000    -2.5443700000
| 27>  H        6.7437110000     2.0296290000    -1.3659240000
| 28>  H        6.0699390000     2.3667240000    -4.3282990000
| 29>  H        7.6191880000     2.7678160000    -3.5631520000
| 30>  H        6.1526970000     3.6754720000    -3.1483280000
| 31> *
| 32>
| 33>                          ****END OF INPUT****
 Total Charge           Charge          ....    0
 Multiplicity           Mult            ....    1
 Number of Electrons    NEL             ....   56
 Basis Dimension        Dim             ....  158

MULLIKEN ATOMIC CHARGES
-----------------------
   0 C :   -0.068735
   1 C :    0.099444
   2 N :   -0.136526
   3 C :    0.043085
   4 N :   -0.249456
   5 C :    0.058969
   6 C :    0.001729
   7 H :    0.033773
   8 H :    0.027621
   9 H :    0.027791
  10 H :    0.027556
  11 H :    0.025174
  12 H :    0.110018
  13 H :   -0.032452
  14 H :   -0.003429
  15 H :   -0.002286
  16 H :    0.014377
  17 H :    0.007641
  18 H :    0.015706
Sum of atomic charges:   -0.0000000

LOEWDIN ATOMIC CHARGES
----------------------
   0 C :   -0.074316
   1 C :    0.023724
   2 N :   -0.002243
   3 C :    0.021488
   4 N :   -0.178789
   5 C :    0.001616
   6 C :   -0.073709
   7 H :    0.037047
   8 H :    0.025734
   9 H :    0.025652
  10 H :    0.024508
  11 H :    0.024198
  12 H :    0.069172
  13 H :   -0.013372
  14 H :    0.009811
  15 H :    0.010060
  16 H :    0.023643
  17 H :    0.021906
  18 H :    0.023869

  Mayer bond orders larger than 0.1
B(  0-C ,  1-C ) :   1.1110 B(  0-C ,  7-H ) :   0.9597 B(  0-C ,  8-H ) :   0.9636
B(  0-C ,  9-H ) :   0.9648 B(  1-C ,  2-N ) :   1.0031 B(  1-C , 10-H ) :   0.9392
B(  1-C , 11-H ) :   0.9377 B(  2-N ,  3-C ) :   1.2357 B(  2-N , 12-H ) :   0.9379
B(  3-C ,  4-N ) :   1.7963 B(  3-C , 13-H ) :   0.9233 B(  4-N ,  5-C ) :   1.0147
B(  5-C ,  6-C ) :   1.1176 B(  5-C , 14-H ) :   0.9292 B(  5-C , 15-H ) :   0.9299
B(  6-C , 16-H ) :   0.9640 B(  6-C , 17-H ) :   0.9556 B(  6-C , 18-H ) :   0.9639

FINAL SINGLE POINT ENERGY      -306.616547258172

DIPOLE MOMENT
-------------
                                X             Y             Z
Electronic contribution:      0.47118      -1.64928       1.79672
Nuclear contribution   :     -0.97087       1.07474      -1.12384
                        -----------------------------------------
Total Dipole Moment    :     -0.49969      -0.57454       0.67288
                        -----------------------------------------
Magnitude (a.u.)       :      1.01615
Magnitude (Debye)      :      2.58285

                             ****ORCA TERMINATED NORMALLY****
TOTAL RUN TIME: 0 days 0 hours 0 minutes 8 seconds 163 msec
