                         Program Version 3.0.3 - RELEASE   -
|  1> ! RI PBE def2-SVP def2-SVP/J NBO PAL2
|  2> % maxcore 2000
|  3> % output
|  4>     # printlevel mini
|  5>     print[ P_Basis ] 0
|  6>     print[ P_SCFInfo ] 1
|  7>     print[ P_SCFIterInfo ] 1
|  8>     print[ P_OrbEn ] 0
|  9>     print[ P_Cartesian ] 0
| 10> end
| 11> *xyz 0 1
| 12>  C        1.0957470000    -0.5501630000     0.3625630000
| 13>  C        2.5320090000    -0.2252080000     0.0107210000
| 14>  N        2.9395440000     1.0133500000     0.6222990000
| 15>  C        4.2081970000     1.5173490000     0.5066250000
| 16>  N        5.1278880000     1.0719810000    -0.2564810000
| 17>  C        4.4598610000     2.7267280000     1.3731740000
| 18>  C        5.8363100000     3.3350090000     1.2040920000
| 19>  H        0.7877110000    -1.4831640000    -0.1115280000
| 20>  H        0.4216370000     0.2408320000     0.0256080000
| 21>  H        0.9720900000    -0.6705820000     1.4425520000
| 22>  H        2.6315790000    -0.1383020000    -1.0777630000
| 23>  H        3.1905020000    -1.0490240000     0.3226350000
| 24>  H        2.3893670000     1.3363010000     1.4001170000
| 25>  H        4.8251730000     0.2509650000    -0.7755660000
| 26>  H        4.3028580000     2.4323000000     2.4187060000
| 27>  H        3.6838690000     3.4690930000     1.1525170000
| 28>  H        6.6145670000     2.6089620000     1.4401340000
| 29>  H        5.9527430000     4.2008990000     1.8598360000
| 30>  H        5.9968470000     3.6522720000     0.1733680000
| 31> *
| 32>
| 33>                          ****END OF INPUT****
 Total Charge           Charge          ....    0
 Multiplicity           Mult            ....    1
 Number of Electrons    NEL             ....   56
 Basis Dimension        Dim             ....  158

MULLIKEN ATOMIC CHARGES
-----------------------
   0 C :   -0.063059
   1 C :    0.063472
   2 N :   -0.132769
   3 C :   -0.168669
   4 N :   -0.110467
   5 C :   -0.028576
   6 C :    0.022095
   7 H :    0.031844
   8 H :    0.037139
   9 H :    0.031338
  10 H :    0.031348
  11 H :    0.018521
  12 H :    0.099283
  13 H :    0.063405
  14 H :    0.022453
  15 H :    0.023780
  16 H :    0.027496
  17 H :    0.004987
  18 H :    0.026379
Sum of atomic charges:   -0.0000000

LOEWDIN ATOMIC CHARGES
----------------------
   0 C :   -0.070435
   1 C :    0.012815
   2 N :   -0.027626
   3 C :    0.002979
   4 N :   -0.175819
   5 C :   -0.060542
   6 C :   -0.058436
   7 H :    0.036513
   8 H :    0.030025
   9 H :    0.027075
  10 H :    0.022077
  11 H :    0.013877
  12 H :    0.065903
  13 H :    0.034065
  14 H :    0.030907
  15 H :    0.031948
  16 H :    0.031122
  17 H :    0.022360
  18 H :    0.031193

  Mayer bond orders larger than 0.1
B(  0-C ,  1-C ) :   1.1190 B(  0-C ,  7-H ) :   0.9573 B(  0-C ,  8-H ) :   0.9647
B(  0-C ,  9-H ) :   0.9647 B(  1-C ,  2-N ) :   1.0142 B(  1-C , 10-H ) :   0.9328
B(  1-C , 11-H ) :   0.9304 B(  2-N ,  3-C ) :   1.1969 B(  2-N , 12-H ) :   0.9227
B(  3-C ,  4-N ) :   2.0102 B(  3-C ,  5-C ) :   0.9773 B(  4-N , 13-H ) :   0.9344
B(  5-C ,  6-C ) :   1.1604 B(  5-C , 14-H ) :   0.9215 B(  5-C , 15-H ) :   0.9246
B(  6-C , 16-H ) :   0.9587 B(  6-C , 17-H ) :   0.9503 B(  6-C , 18-H ) :   0.9609

FINAL SINGLE POINT ENERGY      -306.626977737383

DIPOLE MOMENT
-------------
                                X             Y             Z
Electronic contribution:      1.49058      -0.12726      -1.12367
Nuclear contribution   :     -2.72101      -0.22032       1.57520
                        -----------------------------------------
Total Dipole Moment    :     -1.23043      -0.34758       0.45153
                        -----------------------------------------
Magnitude (a.u.)       :      1.35597
Magnitude (Debye)      :      3.44660

                             ****ORCA TERMINATED NORMALLY****
TOTAL RUN TIME: 0 days 0 hours 0 minutes 8 seconds 584 msec
