                         Program Version 3.0.3 - RELEASE   -
|  1> ! RI PBE def2-SVP def2-SVP/J NBO PAL2
|  2> % maxcore 2000
|  3> % output
|  4>     # printlevel mini
|  5>     print[ P_Basis ] 0
|  6>     print[ P_SCFInfo ] 1
|  7>     print[ P_SCFIterInfo ] 1
|  8>     print[ P_OrbEn ] 0
|  9>     print[ P_Cartesian ] 0
| 10> end
| 11> *xyz 0 1
| 12>  C        2.0721400000    -1.3868170000     0.9051760000
| 13>  C        3.0023510000    -0.7148970000    -0.0821700000
| 14>  N        3.9346680000     0.1431870000     0.5976840000
| 15>  C        4.8877530000     0.8718910000    -0.0453260000
| 16>  N        5.0921590000     0.9028600000    -1.3113560000
| 17>  C        5.7768300000     1.7102190000     0.7829700000
| 18>  C        5.7616630000     1.8462640000     2.1031760000
| 19>  H        1.3678710000    -2.0359290000     0.3831410000
| 20>  H        1.4939330000    -0.6481200000     1.4664200000
| 21>  H        2.6304360000    -2.0015570000     1.6160830000
| 22>  H        2.4163620000    -0.1325290000    -0.8059340000
| 23>  H        3.5453350000    -1.4770250000    -0.6572460000
| 24>  H        3.8741930000     0.2023520000     1.5973410000
| 25>  H        4.4425250000     0.3017650000    -1.8137970000
| 26>  H        6.5015510000     2.2503080000     0.1839920000
| 27>  H        5.0602590000     1.3318430000     2.7528260000
| 28>  H        6.4706600000     2.4965770000     2.6009190000
| 29> *
| 30>
| 31>                          ****END OF INPUT****
 Total Charge           Charge          ....    0
 Multiplicity           Mult            ....    1
 Number of Electrons    NEL             ....   54
 Basis Dimension        Dim             ....  148

MULLIKEN ATOMIC CHARGES
-----------------------
   0 C :   -0.075133
   1 C :    0.074595
   2 N :   -0.120527
   3 C :   -0.161631
   4 N :   -0.107226
   5 C :    0.067363
   6 C :   -0.047690
   7 H :    0.036781
   8 H :    0.037233
   9 H :    0.035833
  10 H :    0.025085
  11 H :    0.024072
  12 H :    0.099636
  13 H :    0.068012
  14 H :   -0.000667
  15 H :    0.010191
  16 H :    0.034074
Sum of atomic charges:   -0.0000000

LOEWDIN ATOMIC CHARGES
----------------------
   0 C :   -0.071060
   1 C :    0.016884
   2 N :   -0.016503
   3 C :   -0.004726
   4 N :   -0.163658
   5 C :   -0.023287
   6 C :   -0.057606
   7 H :    0.037913
   8 H :    0.029455
   9 H :    0.028981
  10 H :    0.018709
  11 H :    0.018539
  12 H :    0.064591
  13 H :    0.033769
  14 H :    0.040797
  15 H :    0.015550
  16 H :    0.031651

  Mayer bond orders larger than 0.1
B(  0-C ,  1-C ) :   1.1128 B(  0-C ,  7-H ) :   0.9604 B(  0-C ,  8-H ) :   0.9648
B(  0-C ,  9-H ) :   0.9655 B(  1-C ,  2-N ) :   1.0140 B(  1-C , 10-H ) :   0.9323
B(  1-C , 11-H ) :   0.9320 B(  2-N ,  3-C ) :   1.2235 B(  2-N ,  4-N ) :   0.1047
B(  2-N , 12-H ) :   0.9090 B(  3-C ,  4-N ) :   1.9412 B(  3-C ,  5-C ) :   1.0353
B(  4-N , 13-H ) :   0.9434 B(  5-C ,  6-C ) :   1.9206 B(  5-C , 14-H ) :   0.9421
B(  6-C , 15-H ) :   0.9400 B(  6-C , 16-H ) :   0.9352

FINAL SINGLE POINT ENERGY      -305.403350562376

DIPOLE MOMENT
-------------
                                X             Y             Z
Electronic contribution:      4.08143       3.20497      -2.01822
Nuclear contribution   :     -4.94491      -3.82864       2.90584
                        -----------------------------------------
Total Dipole Moment    :     -0.86348      -0.62366       0.88762
                        -----------------------------------------
Magnitude (a.u.)       :      1.38652
Magnitude (Debye)      :      3.52425

                             ****ORCA TERMINATED NORMALLY****
TOTAL RUN TIME: 0 days 0 hours 0 minutes 8 seconds 94 msec
