                         Program Version 3.0.3 - RELEASE   -
|  1> ! RI PBE def2-SVP def2-SVP/J NBO PAL2
|  2> % maxcore 2000
|  3> % output
|  4>     # printlevel mini
|  5>     print[ P_Basis ] 0
|  6>     print[ P_SCFInfo ] 1
|  7>     print[ P_SCFIterInfo ] 1
|  8>     print[ P_OrbEn ] 0
|  9>     print[ P_Cartesian ] 0
| 10> end
| 11> *xyz 0 1
| 12>  C        1.1888530000     0.1383000000     0.0672330000
| 13>  C        2.6725970000    -0.1329700000     0.1935170000
| 14>  N        3.3143250000    -0.0644890000    -1.0934470000
| 15>  C        4.6547090000    -0.2794010000    -1.2582000000
| 16>  N        5.5383000000    -0.4445600000    -0.3505530000
| 17>  C        5.0638650000    -0.2923330000    -2.6428590000
| 18>  C        5.3718810000    -0.3047010000    -3.8025300000
| 19>  H        0.7106100000     0.0943070000     1.0465660000
| 20>  H        0.7048800000    -0.6047160000    -0.5724420000
| 21>  H        1.0062630000     1.1288310000    -0.3555580000
| 22>  H        2.8375340000    -1.1173770000     0.6543070000
| 23>  H        3.1277960000     0.6086820000     0.8610260000
| 24>  H        2.7376120000    -0.1105600000    -1.9156520000
| 25>  H        5.1209640000    -0.4236740000     0.5775840000
| 26>  H        5.6703300000    -0.3180500000    -4.8243820000
| 27> *
| 28>
| 29>                          ****END OF INPUT****
 Total Charge           Charge          ....    0
 Multiplicity           Mult            ....    1
 Number of Electrons    NEL             ....   52
 Basis Dimension        Dim             ....  138

MULLIKEN ATOMIC CHARGES
-----------------------
   0 C :   -0.054667
   1 C :    0.059605
   2 N :   -0.126049
   3 C :   -0.136119
   4 N :   -0.097731
   5 C :    0.441161
   6 C :   -0.446751
   7 H :    0.035593
   8 H :    0.035407
   9 H :    0.037104
  10 H :    0.025008
  11 H :    0.032587
  12 H :    0.111267
  13 H :    0.074157
  14 H :    0.009428
Sum of atomic charges:    0.0000000

LOEWDIN ATOMIC CHARGES
----------------------
   0 C :   -0.067923
   1 C :    0.014282
   2 N :   -0.010360
   3 C :   -0.015478
   4 N :   -0.146831
   5 C :   -0.014136
   6 C :   -0.051020
   7 H :    0.038045
   8 H :    0.029201
   9 H :    0.031051
  10 H :    0.017789
  11 H :    0.023844
  12 H :    0.075571
  13 H :    0.037867
  14 H :    0.038099

  Mayer bond orders larger than 0.1
B(  0-C ,  1-C ) :   1.1174 B(  0-C ,  7-H ) :   0.9578 B(  0-C ,  8-H ) :   0.9648
B(  0-C ,  9-H ) :   0.9656 B(  1-C ,  2-N ) :   1.0036 B(  1-C , 10-H ) :   0.9334
B(  1-C , 11-H ) :   0.9317 B(  2-N ,  3-C ) :   1.2134 B(  2-N ,  4-N ) :   0.1227
B(  2-N , 12-H ) :   0.9185 B(  3-C ,  4-N ) :   1.9624 B(  3-C ,  5-C ) :   0.9016
B(  4-N , 13-H ) :   0.9337 B(  5-C ,  6-C ) :   2.3362 B(  5-C , 14-H ) :  -0.1009
B(  6-C , 14-H ) :   1.0905

FINAL SINGLE POINT ENERGY      -304.154320038969

DIPOLE MOMENT
-------------
                                X             Y             Z
Electronic contribution:      7.11150      -0.62557      -4.71444
Nuclear contribution   :     -8.61063       0.73464       4.67148
                        -----------------------------------------
Total Dipole Moment    :     -1.49912       0.10906      -0.04296
                        -----------------------------------------
Magnitude (a.u.)       :      1.50370
Magnitude (Debye)      :      3.82210

                             ****ORCA TERMINATED NORMALLY****
TOTAL RUN TIME: 0 days 0 hours 0 minutes 6 seconds 807 msec
