                         Program Version 3.0.3 - RELEASE   -
|  1> ! RI PBE def2-SVP def2-SVP/J NBO PAL2
|  2> % maxcore 2000
|  3> % output
|  4>     # printlevel mini
|  5>     print[ P_Basis ] 0
|  6>     print[ P_SCFInfo ] 1
|  7>     print[ P_SCFIterInfo ] 1
|  8>     print[ P_OrbEn ] 0
|  9>     print[ P_Cartesian ] 0
| 10> end
| 11> *xyz 0 1
| 12>  C        1.0221140000    -0.2027430000    -0.0013060000
| 13>  C        2.3322080000     0.0645090000    -0.0255940000
| 14>  N        3.1655970000     0.2703850000     1.0667600000
| 15>  C        2.7425360000     0.5675500000     2.3432730000
| 16>  N        3.4458730000     0.6572760000     3.3899760000
| 17>  C        3.0087550000     0.1686180000    -1.2862480000
| 18>  N        3.5825320000     0.2388890000    -2.2815410000
| 19>  H        0.4765420000    -0.3362450000     0.9221980000
| 20>  H        0.4801530000    -0.2854900000    -0.9315210000
| 21>  H        4.1579690000     0.2088950000     0.9033490000
| 22>  H        1.6732250000     0.7651090000     2.4071580000
| 23>  H        4.4287870000     0.4417570000     3.2204060000
| 24> *
| 25>
| 26>                          ****END OF INPUT****
 Total Charge           Charge          ....    0
 Multiplicity           Mult            ....    1
 Number of Electrons    NEL             ....   50
 Basis Dimension        Dim             ....  123

MULLIKEN ATOMIC CHARGES
-----------------------
   0 C :   -0.005093
   1 C :   -0.067977
   2 N :   -0.052901
   3 C :   -0.011665
   4 N :   -0.108057
   5 C :   -0.140956
   6 N :    0.068187
   7 H :    0.042094
   8 H :    0.040706
   9 H :    0.122371
  10 H :    0.031094
  11 H :    0.082196
Sum of atomic charges:   -0.0000000

LOEWDIN ATOMIC CHARGES
----------------------
   0 C :   -0.058855
   1 C :   -0.030303
   2 N :    0.029991
   3 C :    0.031089
   4 N :   -0.127816
   5 C :   -0.041468
   6 N :   -0.037195
   7 H :    0.034011
   8 H :    0.044775
   9 H :    0.086007
  10 H :    0.023216
  11 H :    0.046547

  Mayer bond orders larger than 0.1
B(  0-C ,  1-C ) :   1.8569 B(  0-C ,  7-H ) :   0.9294 B(  0-C ,  8-H ) :   0.9175
B(  1-C ,  2-N ) :   1.1331 B(  1-C ,  5-C ) :   1.0540 B(  2-N ,  3-C ) :   1.1043
B(  2-N ,  9-H ) :   0.9146 B(  3-C ,  4-N ) :   2.0239 B(  3-C , 10-H ) :   0.9359
B(  4-N , 11-H ) :   0.9406 B(  5-C ,  6-N ) :   3.0087

FINAL SINGLE POINT ENERGY      -319.013707979870

DIPOLE MOMENT
-------------
                                X             Y             Z
Electronic contribution:      2.25548       0.17808      -3.39553
Nuclear contribution   :     -2.46116      -0.45250       3.68451
                        -----------------------------------------
Total Dipole Moment    :     -0.20569      -0.27442       0.28899
                        -----------------------------------------
Magnitude (a.u.)       :      0.44847
Magnitude (Debye)      :      1.13992

                             ****ORCA TERMINATED NORMALLY****
TOTAL RUN TIME: 0 days 0 hours 0 minutes 5 seconds 847 msec
