                         Program Version 3.0.3 - RELEASE   -
|  1> ! RI PBE def2-SVP def2-SVP/J NBO PAL2
|  2> % maxcore 2000
|  3> % output
|  4>     # printlevel mini
|  5>     print[ P_Basis ] 0
|  6>     print[ P_SCFInfo ] 1
|  7>     print[ P_SCFIterInfo ] 1
|  8>     print[ P_OrbEn ] 0
|  9>     print[ P_Cartesian ] 0
| 10> end
| 11> *xyz 0 1
| 12>  C        1.0546930000    -0.0049330000     0.0708780000
| 13>  C        2.3696030000    -0.1975090000     0.0675350000
| 14>  N        3.2839600000     0.6431280000    -0.5378100000
| 15>  C        4.6468950000     0.4630980000    -0.5532810000
| 16>  N        5.3694660000    -0.4524650000    -0.0538980000
| 17>  C        5.3190480000     1.5296380000    -1.2759730000
| 18>  N        5.8134720000     2.3905180000    -1.8548220000
| 19>  H        0.4076010000    -0.7121050000     0.5687140000
| 20>  H        0.5927580000     0.8478070000    -0.4137130000
| 21>  H        2.8028650000    -1.0592580000     0.5603720000
| 22>  H        2.9288740000     1.4594740000    -1.0099470000
| 23>  H        4.8268670000    -1.1600030000     0.4345550000
| 24> *
| 25>
| 26>                          ****END OF INPUT****
 Total Charge           Charge          ....    0
 Multiplicity           Mult            ....    1
 Number of Electrons    NEL             ....   50
 Basis Dimension        Dim             ....  123

MULLIKEN ATOMIC CHARGES
-----------------------
   0 C :   -0.060517
   1 C :    0.038088
   2 N :   -0.022827
   3 C :   -0.181995
   4 N :   -0.039450
   5 C :   -0.103332
   6 N :    0.068344
   7 H :    0.041012
   8 H :    0.027479
   9 H :    0.010402
  10 H :    0.130170
  11 H :    0.092625
Sum of atomic charges:    0.0000000

LOEWDIN ATOMIC CHARGES
----------------------
   0 C :   -0.096583
   1 C :    0.009570
   2 N :    0.044988
   3 C :   -0.023147
   4 N :   -0.104410
   5 C :   -0.038779
   6 N :   -0.027647
   7 H :    0.037223
   8 H :    0.027258
   9 H :    0.027482
  10 H :    0.095394
  11 H :    0.048651

  Mayer bond orders larger than 0.1
B(  0-C ,  1-C ) :   1.9125 B(  0-C ,  7-H ) :   0.9374 B(  0-C ,  8-H ) :   0.9513
B(  1-C ,  2-N ) :   1.1152 B(  1-C ,  9-H ) :   0.9436 B(  2-N ,  3-C ) :   1.1831
B(  2-N ,  4-N ) :   0.1102 B(  2-N , 10-H ) :   0.9048 B(  3-C ,  4-N ) :   2.0389
B(  3-C ,  5-C ) :   0.9779 B(  4-N , 11-H ) :   0.9291 B(  5-C ,  6-N ) :   3.0499

FINAL SINGLE POINT ENERGY      -319.013591163071

DIPOLE MOMENT
-------------
                                X             Y             Z
Electronic contribution:      6.01599       2.84647      -2.32674
Nuclear contribution   :     -7.64323      -3.39403       2.81227
                        -----------------------------------------
Total Dipole Moment    :     -1.62725      -0.54756       0.48553
                        -----------------------------------------
Magnitude (a.u.)       :      1.78423
Magnitude (Debye)      :      4.53516

                             ****ORCA TERMINATED NORMALLY****
TOTAL RUN TIME: 0 days 0 hours 0 minutes 5 seconds 660 msec
