                         Program Version 3.0.3 - RELEASE   -
|  1> ! RI PBE def2-SVP def2-SVP/J NBO PAL2
|  2> % maxcore 2000
|  3> % output
|  4>     # printlevel mini
|  5>     print[ P_Basis ] 0
|  6>     print[ P_SCFInfo ] 1
|  7>     print[ P_SCFIterInfo ] 1
|  8>     print[ P_OrbEn ] 0
|  9>     print[ P_Cartesian ] 0
| 10> end
| 11> *xyz 0 1
| 12>  C        0.7883510000     0.1435500000    -0.4966850000
| 13>  C        2.2108700000     0.1207800000     0.0486100000
| 14>  N        2.2344480000    -0.1777320000     1.4594890000
| 15>  C        3.2079020000     0.3188690000     2.2937820000
| 16>  N        3.5072830000    -0.0440300000     3.4678880000
| 17>  C        3.0386460000    -0.8209920000    -0.7288220000
| 18>  N        3.6684440000    -1.5777940000    -1.3224250000
| 19>  H        0.2083860000     0.8926110000     0.0428010000
| 20>  H        0.3122110000    -0.8307370000    -0.3695250000
| 21>  H        0.7874900000     0.3829440000    -1.5606330000
| 22>  H        2.6568300000     1.1123770000    -0.0783630000
| 23>  H        1.8069830000    -1.0506210000     1.7324140000
| 24>  H        3.7433210000     1.1664280000     1.8580930000
| 25>  H        2.9574360000    -0.8456530000     3.7779760000
| 26> *
| 27>
| 28>                          ****END OF INPUT****
 Total Charge           Charge          ....    0
 Multiplicity           Mult            ....    1
 Number of Electrons    NEL             ....   52
 Basis Dimension        Dim             ....  133

MULLIKEN ATOMIC CHARGES
-----------------------
   0 C :    0.019209
   1 C :    0.008369
   2 N :   -0.127545
   3 C :   -0.011011
   4 N :   -0.126079
   5 C :   -0.214236
   6 N :    0.055498
   7 H :    0.046482
   8 H :    0.042481
   9 H :    0.049296
  10 H :    0.053621
  11 H :    0.110965
  12 H :    0.016479
  13 H :    0.076470
Sum of atomic charges:   -0.0000000

LOEWDIN ATOMIC CHARGES
----------------------
   0 C :   -0.046071
   1 C :   -0.004157
   2 N :   -0.009579
   3 C :    0.019428
   4 N :   -0.149975
   5 C :   -0.059130
   6 N :   -0.052897
   7 H :    0.038031
   8 H :    0.035412
   9 H :    0.042470
  10 H :    0.055592
  11 H :    0.070601
  12 H :    0.017052
  13 H :    0.043222

  Mayer bond orders larger than 0.1
B(  0-C ,  1-C ) :   1.1037 B(  0-C ,  7-H ) :   0.9584 B(  0-C ,  8-H ) :   0.9541
B(  0-C ,  9-H ) :   0.9543 B(  1-C ,  2-N ) :   1.0492 B(  1-C ,  5-C ) :   1.0109
B(  1-C , 10-H ) :   0.8757 B(  2-N ,  3-C ) :   1.1290 B(  2-N , 11-H ) :   0.9266
B(  3-C ,  4-N ) :   2.0181 B(  3-C , 12-H ) :   0.9318 B(  4-N , 13-H ) :   0.9402
B(  5-C ,  6-N ) :   3.0825

FINAL SINGLE POINT ENERGY      -320.226294991110

DIPOLE MOMENT
-------------
                                X             Y             Z
Electronic contribution:      4.06194      -2.19452      -0.58772
Nuclear contribution   :     -5.56214       2.61209       0.38705
                        -----------------------------------------
Total Dipole Moment    :     -1.50020       0.41758      -0.20067
                        -----------------------------------------
Magnitude (a.u.)       :      1.57011
Magnitude (Debye)      :      3.99090

                             ****ORCA TERMINATED NORMALLY****
TOTAL RUN TIME: 0 days 0 hours 0 minutes 6 seconds 992 msec
