                         Program Version 3.0.3 - RELEASE   -
|  1> ! RI PBE def2-SVP def2-SVP/J NBO PAL2
|  2> % maxcore 2000
|  3> % output
|  4>     # printlevel mini
|  5>     print[ P_Basis ] 0
|  6>     print[ P_SCFInfo ] 1
|  7>     print[ P_SCFIterInfo ] 1
|  8>     print[ P_OrbEn ] 0
|  9>     print[ P_Cartesian ] 0
| 10> end
| 11> *xyz 0 1
| 12>  C        0.8520160000     0.0391630000    -0.2448670000
| 13>  C        2.3624270000    -0.0464340000    -0.2215910000
| 14>  N        2.8044190000    -0.9728660000     0.7906970000
| 15>  C        4.1184550000    -1.2358120000     1.0175660000
| 16>  N        5.1505450000    -0.7714150000     0.4341830000
| 17>  C        4.3236400000    -2.1947940000     2.0918930000
| 18>  N        4.4428320000    -2.9541530000     2.9461370000
| 19>  H        0.5262800000     0.7409520000    -1.0133080000
| 20>  H        0.4623470000     0.3883610000     0.7144620000
| 21>  H        0.4059080000    -0.9330940000    -0.4675990000
| 22>  H        2.7921770000     0.9446820000    -0.0270780000
| 23>  H        2.7352410000    -0.3697320000    -1.2018260000
| 24>  H        2.1179380000    -1.4297670000     1.3656600000
| 25>  H        4.9004630000    -0.1107990000    -0.2984280000
| 26> *
| 27>
| 28>                          ****END OF INPUT****
 Total Charge           Charge          ....    0
 Multiplicity           Mult            ....    1
 Number of Electrons    NEL             ....   52
 Basis Dimension        Dim             ....  133

MULLIKEN ATOMIC CHARGES
-----------------------
   0 C :   -0.055869
   1 C :    0.063187
   2 N :   -0.111887
   3 C :   -0.193601
   4 N :   -0.067116
   5 C :   -0.096293
   6 N :    0.062543
   7 H :    0.042415
   8 H :    0.041224
   9 H :    0.040907
  10 H :    0.035067
  11 H :    0.032903
  12 H :    0.121224
  13 H :    0.085297
Sum of atomic charges:   -0.0000000

LOEWDIN ATOMIC CHARGES
----------------------
   0 C :   -0.066491
   1 C :    0.017746
   2 N :    0.001155
   3 C :   -0.031347
   4 N :   -0.127359
   5 C :   -0.036524
   6 N :   -0.037905
   7 H :    0.041425
   8 H :    0.032117
   9 H :    0.032164
  10 H :    0.024100
  11 H :    0.024132
  12 H :    0.081866
  13 H :    0.044921

  Mayer bond orders larger than 0.1
B(  0-C ,  1-C ) :   1.1179 B(  0-C ,  7-H ) :   0.9573 B(  0-C ,  8-H ) :   0.9652
B(  0-C ,  9-H ) :   0.9649 B(  1-C ,  2-N ) :   0.9884 B(  1-C , 10-H ) :   0.9352
B(  1-C , 11-H ) :   0.9345 B(  2-N ,  3-C ) :   1.2522 B(  2-N ,  4-N ) :   0.1406
B(  2-N , 12-H ) :   0.9159 B(  3-C ,  4-N ) :   2.0135 B(  3-C ,  5-C ) :   0.9868
B(  4-N , 13-H ) :   0.9298 B(  5-C ,  6-N ) :   3.0574

FINAL SINGLE POINT ENERGY      -320.230120544143

DIPOLE MOMENT
-------------
                                X             Y             Z
Electronic contribution:      7.32499      -5.50342       5.80413
Nuclear contribution   :     -9.06872       6.56532      -6.89680
                        -----------------------------------------
Total Dipole Moment    :     -1.74373       1.06190      -1.09267
                        -----------------------------------------
Magnitude (a.u.)       :      2.31563
Magnitude (Debye)      :      5.88586

                             ****ORCA TERMINATED NORMALLY****
TOTAL RUN TIME: 0 days 0 hours 0 minutes 6 seconds 490 msec
