                         Program Version 3.0.3 - RELEASE   -
|  1> ! RI PBE def2-SVP def2-SVP/J NBO PAL2
|  2> % maxcore 2000
|  3> % output
|  4>     # printlevel mini
|  5>     print[ P_Basis ] 0
|  6>     print[ P_SCFInfo ] 1
|  7>     print[ P_SCFIterInfo ] 1
|  8>     print[ P_OrbEn ] 0
|  9>     print[ P_Cartesian ] 0
| 10> end
| 11> *xyz 0 1
| 12>  C        1.5279020000     0.0990410000     1.3520070000
| 13>  C        2.7938600000     0.2525380000     0.5913400000
| 14>  N        3.9171920000     0.2067700000     1.1712690000
| 15>  N        4.9919480000     0.3668620000     0.2607370000
| 16>  C        6.1282990000    -0.4802860000     0.6477240000
| 17>  C        6.1814200000     0.9671560000     0.8967120000
| 18>  C        6.1431570000     1.5302420000     2.2853450000
| 19>  H        0.9593350000    -0.7576780000     0.9774080000
| 20>  H        0.8932520000     0.9805070000     1.2187430000
| 21>  H        1.7311100000    -0.0411110000     2.4131770000
| 22>  H        2.7456790000     0.4056070000    -0.4915700000
| 23>  H        6.6571030000    -0.9352640000    -0.1821480000
| 24>  H        5.9658390000    -1.1173700000     1.5111970000
| 25>  H        6.7256560000     1.5739210000     0.1777960000
| 26>  H        5.6112990000     0.8730960000     2.9709240000
| 27>  H        5.6476170000     2.5047670000     2.2974230000
| 28>  H        7.1640230000     1.6686130000     2.6507150000
| 29> *
| 30>
| 31>                          ****END OF INPUT****
 Total Charge           Charge          ....    0
 Multiplicity           Mult            ....    1
 Number of Electrons    NEL             ....   54
 Basis Dimension        Dim             ....  148

MULLIKEN ATOMIC CHARGES
-----------------------
   0 C :    0.034763
   1 C :   -0.066017
   2 N :   -0.085323
   3 N :   -0.226876
   4 C :    0.088034
   5 C :   -0.110008
   6 C :    0.082000
   7 H :    0.041454
   8 H :    0.044109
   9 H :    0.033700
  10 H :   -0.002330
  11 H :    0.036971
  12 H :    0.027517
  13 H :    0.030212
  14 H :    0.023247
  15 H :    0.022918
  16 H :    0.025629
Sum of atomic charges:    0.0000000

LOEWDIN ATOMIC CHARGES
----------------------
   0 C :   -0.077518
   1 C :    0.002489
   2 N :   -0.053917
   3 N :   -0.078293
   4 C :    0.001841
   5 C :   -0.008993
   6 C :   -0.067407
   7 H :    0.043189
   8 H :    0.043283
   9 H :    0.036504
  10 H :   -0.001374
  11 H :    0.022012
  12 H :    0.017629
  13 H :    0.024246
  14 H :    0.030633
  15 H :    0.032020
  16 H :    0.033657

  Mayer bond orders larger than 0.1
B(  0-C ,  1-C ) :   1.0653 B(  0-C ,  7-H ) :   0.9435 B(  0-C ,  8-H ) :   0.9447
B(  0-C ,  9-H ) :   0.9507 B(  1-C ,  2-N ) :   1.9406 B(  1-C , 10-H ) :   0.9325
B(  2-N ,  3-N ) :   0.9576 B(  3-N ,  4-C ) :   0.9361 B(  3-N ,  5-C ) :   0.9023
B(  4-C ,  5-C ) :   1.0596 B(  4-C , 11-H ) :   0.9434 B(  4-C , 12-H ) :   0.9287
B(  5-C ,  6-C ) :   1.1010 B(  5-C , 13-H ) :   0.9388 B(  6-C , 14-H ) :   0.9380
B(  6-C , 15-H ) :   0.9510 B(  6-C , 16-H ) :   0.9524

FINAL SINGLE POINT ENERGY      -305.352419640543

DIPOLE MOMENT
-------------
                                X             Y             Z
Electronic contribution:      0.80936      -0.84507      -2.77526
Nuclear contribution   :     -0.95116       0.85065       2.85232
                        -----------------------------------------
Total Dipole Moment    :     -0.14180       0.00558       0.07707
                        -----------------------------------------
Magnitude (a.u.)       :      0.16149
Magnitude (Debye)      :      0.41047

                             ****ORCA TERMINATED NORMALLY****
TOTAL RUN TIME: 0 days 0 hours 0 minutes 7 seconds 377 msec
