                         Program Version 3.0.3 - RELEASE   -
|  1> ! RI PBE def2-SVP def2-SVP/J NBO PAL2
|  2> % maxcore 2000
|  3> % output
|  4>     # printlevel mini
|  5>     print[ P_Basis ] 0
|  6>     print[ P_SCFInfo ] 1
|  7>     print[ P_SCFIterInfo ] 1
|  8>     print[ P_OrbEn ] 0
|  9>     print[ P_Cartesian ] 0
| 10> end
| 11> *xyz 0 1
| 12>  C        1.6666020000    -0.2778370000    -2.2544870000
| 13>  C        2.6359350000    -0.2300480000    -1.1306860000
| 14>  N        3.8143410000    -0.6710320000    -1.2617340000
| 15>  N        4.5675570000    -0.5365810000    -0.0682740000
| 16>  C        5.4623960000    -1.6880080000     0.1111820000
| 17>  C        6.0139840000    -0.3992340000    -0.3301120000
| 18>  C        6.5579970000    -0.2067060000    -1.7135240000
| 19>  H        1.3118590000     0.7289070000    -2.4956330000
| 20>  H        0.7856020000    -0.8630990000    -1.9736620000
| 21>  H        2.1242760000    -0.7197000000    -3.1389670000
| 22>  H        2.3163320000     0.1941890000    -0.1734360000
| 23>  H        5.3819010000    -2.4664030000    -0.6408010000
| 24>  H        5.5612890000    -2.0292200000     1.1354470000
| 25>  H        6.4750080000     0.2281630000     0.4281900000
| 26>  H        6.4007850000     0.8199960000    -2.0549440000
| 27>  H        7.6341170000    -0.3984680000    -1.7118720000
| 28>  H        6.0835200000    -0.8761380000    -2.4286870000
| 29> *
| 30>
| 31>                          ****END OF INPUT****
 Total Charge           Charge          ....    0
 Multiplicity           Mult            ....    1
 Number of Electrons    NEL             ....   54
 Basis Dimension        Dim             ....  148

MULLIKEN ATOMIC CHARGES
-----------------------
   0 C :    0.050405
   1 C :   -0.067924
   2 N :   -0.084228
   3 N :   -0.225381
   4 C :    0.086163
   5 C :   -0.110261
   6 C :    0.078748
   7 H :    0.037689
   8 H :    0.039851
   9 H :    0.030067
  10 H :   -0.004404
  11 H :    0.030965
  12 H :    0.034365
  13 H :    0.031044
  14 H :    0.023946
  15 H :    0.029902
  16 H :    0.019053
Sum of atomic charges:    0.0000000

LOEWDIN ATOMIC CHARGES
----------------------
   0 C :   -0.074248
   1 C :    0.002134
   2 N :   -0.053846
   3 N :   -0.078412
   4 C :    0.002274
   5 C :   -0.009255
   6 C :   -0.067949
   7 H :    0.042232
   8 H :    0.042662
   9 H :    0.035752
  10 H :   -0.001789
  11 H :    0.018027
  12 H :    0.021680
  13 H :    0.024288
  14 H :    0.031840
  15 H :    0.034495
  16 H :    0.030116

  Mayer bond orders larger than 0.1
B(  0-C ,  1-C ) :   1.0658 B(  0-C ,  7-H ) :   0.9434 B(  0-C ,  8-H ) :   0.9442
B(  0-C ,  9-H ) :   0.9510 B(  1-C ,  2-N ) :   1.9390 B(  1-C , 10-H ) :   0.9320
B(  2-N ,  3-N ) :   0.9550 B(  3-N ,  4-C ) :   0.9343 B(  3-N ,  5-C ) :   0.9068
B(  4-C ,  5-C ) :   1.0575 B(  4-C , 11-H ) :   0.9306 B(  4-C , 12-H ) :   0.9441
B(  5-C ,  6-C ) :   1.0990 B(  5-C , 13-H ) :   0.9397 B(  6-C , 14-H ) :   0.9528
B(  6-C , 15-H ) :   0.9532 B(  6-C , 16-H ) :   0.9361

FINAL SINGLE POINT ENERGY      -305.352416007265

DIPOLE MOMENT
-------------
                                X             Y             Z
Electronic contribution:     -0.33946      -0.28989       2.98072
Nuclear contribution   :      0.23375       0.30275      -3.10021
                        -----------------------------------------
Total Dipole Moment    :     -0.10571       0.01286      -0.11949
                        -----------------------------------------
Magnitude (a.u.)       :      0.16005
Magnitude (Debye)      :      0.40682

                             ****ORCA TERMINATED NORMALLY****
TOTAL RUN TIME: 0 days 0 hours 0 minutes 7 seconds 314 msec
