                         Program Version 3.0.3 - RELEASE   -
|  1> ! RI PBE def2-SVP def2-SVP/J NBO PAL2
|  2> % maxcore 2000
|  3> % output
|  4>     # printlevel mini
|  5>     print[ P_Basis ] 0
|  6>     print[ P_SCFInfo ] 1
|  7>     print[ P_SCFIterInfo ] 1
|  8>     print[ P_OrbEn ] 0
|  9>     print[ P_Cartesian ] 0
| 10> end
| 11> *xyz 0 1
| 12>  C        2.2737580000    -0.9539860000     1.0482170000
| 13>  C        2.7897710000    -0.1229300000    -0.0945060000
| 14>  N        2.8507950000     1.1553070000    -0.1438080000
| 15>  N        3.2228990000    -0.8383390000    -1.1568570000
| 16>  C        3.7759000000    -0.3806540000    -2.4129240000
| 17>  C        3.9105370000    -1.8620140000    -2.8349760000
| 18>  C        3.3108800000    -2.2515010000    -1.4645000000
| 19>  H        1.9443270000    -0.3118640000     1.8634940000
| 20>  H        3.0499800000    -1.6253910000     1.4253850000
| 21>  H        1.4311920000    -1.5746370000     0.7313010000
| 22>  H        2.4943940000     1.5572730000     0.7164860000
| 23>  H        4.7124710000     0.1746350000    -2.3055540000
| 24>  H        3.0832890000     0.2256800000    -3.0042600000
| 25>  H        4.9331530000    -2.2000820000    -2.9927470000
| 26>  H        3.3030890000    -2.1491040000    -3.6914290000
| 27>  H        3.9802800000    -2.8215100000    -0.8097710000
| 28>  H        2.3465560000    -2.7707920000    -1.5101330000
| 29> *
| 30>
| 31>                          ****END OF INPUT****
 Total Charge           Charge          ....    0
 Multiplicity           Mult            ....    1
 Number of Electrons    NEL             ....   54
 Basis Dimension        Dim             ....  148

MULLIKEN ATOMIC CHARGES
-----------------------
   0 C :    0.041651
   1 C :   -0.140407
   2 N :   -0.156083
   3 N :   -0.287654
   4 C :    0.183839
   5 C :   -0.090013
   6 C :    0.153147
   7 H :    0.017028
   8 H :    0.037201
   9 H :    0.036658
  10 H :    0.074064
  11 H :    0.021965
  12 H :    0.023797
  13 H :    0.024072
  14 H :    0.024857
  15 H :    0.018715
  16 H :    0.017163
Sum of atomic charges:   -0.0000000

LOEWDIN ATOMIC CHARGES
----------------------
   0 C :   -0.080444
   1 C :   -0.011660
   2 N :   -0.196834
   3 N :   -0.040332
   4 C :    0.053239
   5 C :   -0.034590
   6 C :    0.041582
   7 H :    0.034071
   8 H :    0.038665
   9 H :    0.038488
  10 H :    0.038937
  11 H :    0.019064
  12 H :    0.019253
  13 H :    0.026520
  14 H :    0.026640
  15 H :    0.013791
  16 H :    0.013611

  Mayer bond orders larger than 0.1
B(  0-C ,  1-C ) :   1.0572 B(  0-C ,  7-H ) :   0.9445 B(  0-C ,  8-H ) :   0.9417
B(  0-C ,  9-H ) :   0.9414 B(  1-C ,  2-N ) :   1.9064 B(  1-C ,  3-N ) :   1.1494
B(  2-N , 10-H ) :   0.9257 B(  3-N ,  4-C ) :   1.0134 B(  3-N ,  6-C ) :   1.0282
B(  4-C ,  5-C ) :   1.1038 B(  4-C , 11-H ) :   0.9375 B(  4-C , 12-H ) :   0.9381
B(  5-C ,  6-C ) :   1.1157 B(  5-C , 13-H ) :   0.9300 B(  5-C , 14-H ) :   0.9298
B(  6-C , 15-H ) :   0.9312 B(  6-C , 16-H ) :   0.9301

FINAL SINGLE POINT ENERGY      -305.399420342111

DIPOLE MOMENT
-------------
                                X             Y             Z
Electronic contribution:      0.17422       2.62275      -0.21569
Nuclear contribution   :     -0.24144      -3.69564       0.29434
                        -----------------------------------------
Total Dipole Moment    :     -0.06722      -1.07288       0.07865
                        -----------------------------------------
Magnitude (a.u.)       :      1.07786
Magnitude (Debye)      :      2.73970

                             ****ORCA TERMINATED NORMALLY****
TOTAL RUN TIME: 0 days 0 hours 0 minutes 7 seconds 874 msec
