                         Program Version 3.0.3 - RELEASE   -
|  1> ! RI PBE def2-SVP def2-SVP/J NBO PAL2
|  2> % maxcore 2000
|  3> % output
|  4>     # printlevel mini
|  5>     print[ P_Basis ] 0
|  6>     print[ P_SCFInfo ] 1
|  7>     print[ P_SCFIterInfo ] 1
|  8>     print[ P_OrbEn ] 0
|  9>     print[ P_Cartesian ] 0
| 10> end
| 11> *xyz 0 1
| 12>  C        0.8931560000    -0.5715460000    -0.6836900000
| 13>  C        2.3272230000    -0.6696230000    -0.3051530000
| 14>  N        3.0724770000    -1.5820450000    -0.7755930000
| 15>  N        4.3566520000    -1.6645360000    -0.3372900000
| 16>  C        5.2650870000    -2.2699560000    -1.2534870000
| 17>  C        6.4420510000    -2.9754270000    -0.6582320000
| 18>  C        5.3274190000    -3.7609170000    -1.2785230000
| 19>  H        0.6670250000     0.4051470000    -1.1233560000
| 20>  H        0.2462230000    -0.6819970000     0.1929280000
| 21>  H        0.6434190000    -1.3503240000    -1.4041420000
| 22>  H        2.7220350000     0.0668600000     0.4094540000
| 23>  H        4.7114620000    -0.8048940000     0.0757780000
| 24>  H        5.4205120000    -1.7569300000    -2.2019680000
| 25>  H        6.5114510000    -2.9801220000     0.4222870000
| 26>  H        7.3887920000    -2.9126490000    -1.1792520000
| 27>  H        4.6491360000    -4.2798330000    -0.6144260000
| 28>  H        5.5009010000    -4.2430080000    -2.2319350000
| 29> *
| 30>
| 31>                          ****END OF INPUT****
 Total Charge           Charge          ....    0
 Multiplicity           Mult            ....    1
 Number of Electrons    NEL             ....   54
 Basis Dimension        Dim             ....  148

MULLIKEN ATOMIC CHARGES
-----------------------
   0 C :    0.047392
   1 C :   -0.139385
   2 N :   -0.051633
   3 N :   -0.095894
   4 C :   -0.018028
   5 C :   -0.050752
   6 C :   -0.010771
   7 H :    0.027217
   8 H :    0.032654
   9 H :    0.030903
  10 H :   -0.023270
  11 H :    0.091070
  12 H :    0.014435
  13 H :    0.037169
  14 H :    0.034014
  15 H :    0.040042
  16 H :    0.034837
Sum of atomic charges:   -0.0000000

LOEWDIN ATOMIC CHARGES
----------------------
   0 C :   -0.074461
   1 C :   -0.057539
   2 N :   -0.037602
   3 N :    0.004577
   4 C :   -0.008256
   5 C :   -0.052120
   6 C :   -0.040074
   7 H :    0.034370
   8 H :    0.036313
   9 H :    0.036695
  10 H :   -0.011827
  11 H :    0.043003
  12 H :    0.009465
  13 H :    0.029010
  14 H :    0.027158
  15 H :    0.032922
  16 H :    0.028364

  Mayer bond orders larger than 0.1
B(  0-C ,  1-C ) :   1.0801 B(  0-C ,  7-H ) :   0.9472 B(  0-C ,  8-H ) :   0.9449
B(  0-C ,  9-H ) :   0.9564 B(  1-C ,  2-N ) :   1.8790 B(  1-C ,  3-N ) :   0.1274
B(  1-C , 10-H ) :   0.9286 B(  2-N ,  3-N ) :   1.0487 B(  3-N ,  4-C ) :   1.0595
B(  3-N , 11-H ) :   0.9142 B(  4-C ,  5-C ) :   0.9867 B(  4-C ,  6-C ) :   1.0011
B(  4-C , 12-H ) :   0.9362 B(  5-C ,  6-C ) :   1.0540 B(  5-C , 13-H ) :   0.9462
B(  5-C , 14-H ) :   0.9464 B(  6-C , 15-H ) :   0.9397 B(  6-C , 16-H ) :   0.9502

FINAL SINGLE POINT ENERGY      -305.363090912988

DIPOLE MOMENT
-------------
                                X             Y             Z
Electronic contribution:      1.10560      -0.01469       0.28847
Nuclear contribution   :     -0.82638       0.50947      -0.15373
                        -----------------------------------------
Total Dipole Moment    :      0.27922       0.49477       0.13475
                        -----------------------------------------
Magnitude (a.u.)       :      0.58388
Magnitude (Debye)      :      1.48411

                             ****ORCA TERMINATED NORMALLY****
TOTAL RUN TIME: 0 days 0 hours 0 minutes 7 seconds 470 msec
