                         Program Version 3.0.3 - RELEASE   -
|  1> ! RI PBE def2-SVP def2-SVP/J NBO PAL2
|  2> % maxcore 2000
|  3> % output
|  4>     # printlevel mini
|  5>     print[ P_Basis ] 0
|  6>     print[ P_SCFInfo ] 1
|  7>     print[ P_SCFIterInfo ] 1
|  8>     print[ P_OrbEn ] 0
|  9>     print[ P_Cartesian ] 0
| 10> end
| 11> *xyz 0 1
| 12>  C        3.8766420000    -1.0323040000    -1.4148370000
| 13>  C        3.0621870000    -0.5090800000    -0.2665690000
| 14>  N        1.9481170000    -0.9828270000     0.1354530000
| 15>  N        3.5679560000     0.5942840000     0.3786480000
| 16>  C        4.9347110000     0.9836750000     0.3535230000
| 17>  C        5.4342800000     1.8509300000    -0.7647970000
| 18>  C        5.2384830000     2.4259530000     0.6024480000
| 19>  H        3.3677680000    -1.8763430000    -1.8777500000
| 20>  H        4.8631190000    -1.3611900000    -1.0781540000
| 21>  H        4.0376240000    -0.2572050000    -2.1670200000
| 22>  H        1.6572620000    -1.7562760000    -0.4527030000
| 23>  H        3.0495020000     0.8171290000     1.2156690000
| 24>  H        5.6519780000     0.2724340000     0.7620600000
| 25>  H        4.7149440000     2.1290780000    -1.5241400000
| 26>  H        6.4437750000     1.6897180000    -1.1216790000
| 27>  H        4.3917160000     3.0854760000     0.7464550000
| 28>  H        6.1099260000     2.6647480000     1.1980930000
| 29> *
| 30>
| 31>                          ****END OF INPUT****
 Total Charge           Charge          ....    0
 Multiplicity           Mult            ....    1
 Number of Electrons    NEL             ....   54
 Basis Dimension        Dim             ....  148

MULLIKEN ATOMIC CHARGES
-----------------------
   0 C :    0.079755
   1 C :   -0.209557
   2 N :   -0.128589
   3 N :   -0.068035
   4 C :   -0.062890
   5 C :   -0.023156
   6 C :   -0.042781
   7 H :    0.011403
   8 H :    0.034423
   9 H :    0.036782
  10 H :    0.074517
  11 H :    0.111031
  12 H :    0.027686
  13 H :    0.041861
  14 H :    0.035199
  15 H :    0.042810
  16 H :    0.039542
Sum of atomic charges:    0.0000000

LOEWDIN ATOMIC CHARGES
----------------------
   0 C :   -0.078432
   1 C :    0.000032
   2 N :   -0.183400
   3 N :   -0.002761
   4 C :   -0.001340
   5 C :   -0.047827
   6 C :   -0.045053
   7 H :    0.032153
   8 H :    0.040039
   9 H :    0.041364
  10 H :    0.040119
  11 H :    0.072169
  12 H :    0.014260
  13 H :    0.029726
  14 H :    0.027540
  15 H :    0.031339
  16 H :    0.030071

  Mayer bond orders larger than 0.1
B(  0-C ,  1-C ) :   1.0544 B(  0-C ,  7-H ) :   0.9440 B(  0-C ,  8-H ) :   0.9296
B(  0-C ,  9-H ) :   0.9347 B(  1-C ,  2-N ) :   1.9436 B(  1-C ,  3-N ) :   1.1595
B(  2-N , 10-H ) :   0.9274 B(  3-N ,  4-C ) :   1.0689 B(  3-N , 11-H ) :   0.9157
B(  4-C ,  5-C ) :   0.9872 B(  4-C ,  6-C ) :   1.0004 B(  4-C , 12-H ) :   0.9312
B(  5-C ,  6-C ) :   1.0434 B(  5-C , 13-H ) :   0.9395 B(  5-C , 14-H ) :   0.9487
B(  6-C , 15-H ) :   0.9504 B(  6-C , 16-H ) :   0.9445

FINAL SINGLE POINT ENERGY      -305.400118864202

DIPOLE MOMENT
-------------
                                X             Y             Z
Electronic contribution:     -3.08242      -0.64695       2.26724
Nuclear contribution   :      3.99803       0.79532      -2.59202
                        -----------------------------------------
Total Dipole Moment    :      0.91560       0.14837      -0.32478
                        -----------------------------------------
Magnitude (a.u.)       :      0.98277
Magnitude (Debye)      :      2.49799

                             ****ORCA TERMINATED NORMALLY****
TOTAL RUN TIME: 0 days 0 hours 0 minutes 6 seconds 714 msec
