                         Program Version 3.0.3 - RELEASE   -
|  1> ! RI PBE def2-SVP def2-SVP/J NBO PAL2
|  2> % maxcore 2000
|  3> % output
|  4>     # printlevel mini
|  5>     print[ P_Basis ] 0
|  6>     print[ P_SCFInfo ] 1
|  7>     print[ P_SCFIterInfo ] 1
|  8>     print[ P_OrbEn ] 0
|  9>     print[ P_Cartesian ] 0
| 10> end
| 11> *xyz 0 1
| 12>  C        0.8803360000    -0.1801960000     0.0163090000
| 13>  C        2.3740660000    -0.0890630000    -0.0724400000
| 14>  N        3.0650690000     0.7148840000     0.6353420000
| 15>  N        2.4072870000     1.5092780000     1.5349110000
| 16>  C        3.0680660000    -0.9566160000    -1.0534760000
| 17>  C        3.6177320000    -0.3522060000    -2.3262790000
| 18>  C        4.5416450000    -0.8552020000    -1.2657520000
| 19>  H        0.4004090000     0.7464200000    -0.3237890000
| 20>  H        0.5650980000    -0.3442470000     1.0519490000
| 21>  H        0.4938700000    -0.9903590000    -0.6009150000
| 22>  H        2.9960460000     2.2878700000     1.7864890000
| 23>  H        1.4890860000     1.8283970000     1.2418280000
| 24>  H        2.6245690000    -1.9413900000    -1.1647430000
| 25>  H        3.5194580000     0.7210750000    -2.4348760000
| 26>  H        3.5184800000    -0.9177060000    -3.2449740000
| 27>  H        5.0609010000    -0.1234140000    -0.6614940000
| 28>  H        5.0845900000    -1.7730260000    -1.4533110000
| 29> *
| 30>
| 31>                          ****END OF INPUT****
 Total Charge           Charge          ....    0
 Multiplicity           Mult            ....    1
 Number of Electrons    NEL             ....   54
 Basis Dimension        Dim             ....  148

MULLIKEN ATOMIC CHARGES
-----------------------
   0 C :    0.040349
   1 C :   -0.171630
   2 N :   -0.122972
   3 N :   -0.055825
   4 C :   -0.078058
   5 C :   -0.036087
   6 C :    0.002371
   7 H :    0.030990
   8 H :    0.041744
   9 H :    0.016193
  10 H :    0.111004
  11 H :    0.081427
  12 H :    0.013840
  13 H :    0.031354
  14 H :    0.028340
  15 H :    0.040087
  16 H :    0.026875
Sum of atomic charges:   -0.0000000

LOEWDIN ATOMIC CHARGES
----------------------
   0 C :   -0.079493
   1 C :   -0.060577
   2 N :   -0.065032
   3 N :   -0.004835
   4 C :   -0.051363
   5 C :   -0.036053
   6 C :   -0.036552
   7 H :    0.033858
   8 H :    0.038079
   9 H :    0.035089
  10 H :    0.057831
  11 H :    0.038973
  12 H :    0.027063
  13 H :    0.024893
  14 H :    0.023028
  15 H :    0.028667
  16 H :    0.026425

  Mayer bond orders larger than 0.1
B(  0-C ,  1-C ) :   1.0750 B(  0-C ,  7-H ) :   0.9326 B(  0-C ,  8-H ) :   0.9370
B(  0-C ,  9-H ) :   0.9421 B(  1-C ,  2-N ) :   1.9219 B(  1-C ,  4-C ) :   1.0627
B(  2-N ,  3-N ) :   1.0944 B(  3-N , 10-H ) :   0.9660 B(  3-N , 11-H ) :   0.9374
B(  4-C ,  5-C ) :   0.9737 B(  4-C ,  6-C ) :   0.9984 B(  4-C , 12-H ) :   0.9239
B(  5-C ,  6-C ) :   1.0675 B(  5-C , 13-H ) :   0.9455 B(  5-C , 14-H ) :   0.9481
B(  6-C , 15-H ) :   0.9278 B(  6-C , 16-H ) :   0.9396

FINAL SINGLE POINT ENERGY      -305.371060356508

DIPOLE MOMENT
-------------
                                X             Y             Z
Electronic contribution:      1.63969       0.97327       2.20493
Nuclear contribution   :     -2.27520      -0.59846      -2.37808
                        -----------------------------------------
Total Dipole Moment    :     -0.63551       0.37482      -0.17315
                        -----------------------------------------
Magnitude (a.u.)       :      0.75785
Magnitude (Debye)      :      1.92630

                             ****ORCA TERMINATED NORMALLY****
TOTAL RUN TIME: 0 days 0 hours 0 minutes 7 seconds 992 msec
