                         Program Version 3.0.3 - RELEASE   -
|  1> ! RI PBE def2-SVP def2-SVP/J NBO PAL2
|  2> % maxcore 2000
|  3> % output
|  4>     # printlevel mini
|  5>     print[ P_Basis ] 0
|  6>     print[ P_SCFInfo ] 1
|  7>     print[ P_SCFIterInfo ] 1
|  8>     print[ P_OrbEn ] 0
|  9>     print[ P_Cartesian ] 0
| 10> end
| 11> *xyz 0 1
| 12>  C        0.8827000000     0.1138340000    -1.0216870000
| 13>  C        2.3582910000     0.0595350000    -0.8928220000
| 14>  N        3.0354830000    -0.8804790000    -1.4137810000
| 15>  N        4.3982520000    -0.7429490000    -1.1758850000
| 16>  C        5.1021500000    -1.6788740000    -1.6879330000
| 17>  C        4.5514890000    -2.8302340000    -2.4746270000
| 18>  C        6.5769170000    -1.6141680000    -1.4833770000
| 19>  H        0.4123280000     0.1092060000    -0.0331000000
| 20>  H        0.5144250000    -0.7330140000    -1.5997430000
| 21>  H        0.5756360000     1.0452210000    -1.5083060000
| 22>  H        2.8719060000     0.8495450000    -0.3349940000
| 23>  H        3.8381830000    -3.3978130000    -1.8740000000
| 24>  H        5.3504190000    -3.4942300000    -2.8060260000
| 25>  H        3.9991400000    -2.4698920000    -3.3445370000
| 26>  H        6.8457680000    -0.7353430000    -0.8996290000
| 27>  H        7.0932060000    -1.5831820000    -2.4486190000
| 28>  H        6.9291050000    -2.5150810000    -0.9700210000
| 29> *
| 30>
| 31>                          ****END OF INPUT****
 Total Charge           Charge          ....    0
 Multiplicity           Mult            ....    1
 Number of Electrons    NEL             ....   54
 Basis Dimension        Dim             ....  148

MULLIKEN ATOMIC CHARGES
-----------------------
   0 C :    0.050714
   1 C :   -0.072434
   2 N :   -0.092231
   3 N :   -0.080454
   4 C :   -0.260695
   5 C :    0.090235
   6 C :    0.069949
   7 H :    0.039362
   8 H :    0.031566
   9 H :    0.039540
  10 H :   -0.007621
  11 H :    0.045740
  12 H :    0.004387
  13 H :    0.043959
  14 H :    0.026598
  15 H :    0.035164
  16 H :    0.036223
Sum of atomic charges:   -0.0000000

LOEWDIN ATOMIC CHARGES
----------------------
   0 C :   -0.076033
   1 C :    0.012107
   2 N :   -0.062054
   3 N :   -0.077569
   4 C :   -0.009313
   5 C :   -0.077723
   6 C :   -0.065224
   7 H :    0.043651
   8 H :    0.035799
   9 H :    0.043562
  10 H :   -0.004089
  11 H :    0.047994
  12 H :    0.026189
  13 H :    0.047655
  14 H :    0.034056
  15 H :    0.040445
  16 H :    0.040547

  Mayer bond orders larger than 0.1
B(  0-C ,  1-C ) :   1.0657 B(  0-C ,  7-H ) :   0.9413 B(  0-C ,  8-H ) :   0.9511
B(  0-C ,  9-H ) :   0.9420 B(  1-C ,  2-N ) :   1.8847 B(  1-C , 10-H ) :   0.9325
B(  2-N ,  3-N ) :   0.9973 B(  3-N ,  4-C ) :   1.8962 B(  4-C ,  5-C ) :   1.0565
B(  4-C ,  6-C ) :   1.0924 B(  5-C , 11-H ) :   0.9329 B(  5-C , 12-H ) :   0.9452
B(  5-C , 13-H ) :   0.9325 B(  6-C , 14-H ) :   0.9459 B(  6-C , 15-H ) :   0.9385
B(  6-C , 16-H ) :   0.9395

FINAL SINGLE POINT ENERGY      -305.390543243648

DIPOLE MOMENT
-------------
                                X             Y             Z
Electronic contribution:     -0.12115       1.71450       1.06071
Nuclear contribution   :      0.04197      -1.87250      -1.16764
                        -----------------------------------------
Total Dipole Moment    :     -0.07917      -0.15800      -0.10693
                        -----------------------------------------
Magnitude (a.u.)       :      0.20656
Magnitude (Debye)      :      0.52502

                             ****ORCA TERMINATED NORMALLY****
TOTAL RUN TIME: 0 days 0 hours 0 minutes 6 seconds 905 msec
