                         Program Version 3.0.3 - RELEASE   -
|  1> ! RI PBE def2-SVP def2-SVP/J NBO PAL2
|  2> % maxcore 2000
|  3> % output
|  4>     # printlevel mini
|  5>     print[ P_Basis ] 0
|  6>     print[ P_SCFInfo ] 1
|  7>     print[ P_SCFIterInfo ] 1
|  8>     print[ P_OrbEn ] 0
|  9>     print[ P_Cartesian ] 0
| 10> end
| 11> *xyz 0 1
| 12>  C        1.2498350000     2.5076720000    -0.9939350000
| 13>  C        2.5870900000     2.0427350000    -0.5599640000
| 14>  N        3.5945750000     2.1135220000    -1.3338150000
| 15>  N        4.7495880000     1.6292110000    -0.7424770000
| 16>  C        5.7599080000     1.7007100000    -1.5209120000
| 17>  C        7.0596140000     1.2438410000    -1.0854600000
| 18>  C        8.1384540000     1.3007080000    -1.8653370000
| 19>  H        0.8837380000     3.2930180000    -0.3247590000
| 20>  H        0.5251900000     1.6888890000    -0.9384570000
| 21>  H        1.2862990000     2.8895460000    -2.0134440000
| 22>  H        2.7077450000     1.6308540000     0.4466590000
| 23>  H        5.6521210000     2.1103520000    -2.5294120000
| 24>  H        7.1146710000     0.8460890000    -0.0767720000
| 25>  H        8.0830410000     1.6984100000    -2.8736930000
| 26>  H        9.1062400000     0.9541440000    -1.5245330000
| 27> *
| 28>
| 29>                          ****END OF INPUT****
 Total Charge           Charge          ....    0
 Multiplicity           Mult            ....    1
 Number of Electrons    NEL             ....   52
 Basis Dimension        Dim             ....  138

MULLIKEN ATOMIC CHARGES
-----------------------
   0 C :    0.039420
   1 C :   -0.062664
   2 N :   -0.089317
   3 N :   -0.093544
   4 C :    0.020246
   5 C :    0.013180
   6 C :   -0.010049
   7 H :    0.046276
   8 H :    0.048707
   9 H :    0.033085
  10 H :   -0.001121
  11 H :   -0.016627
  12 H :    0.007146
  13 H :    0.029767
  14 H :    0.035494
Sum of atomic charges:   -0.0000000

LOEWDIN ATOMIC CHARGES
----------------------
   0 C :   -0.076264
   1 C :    0.019050
   2 N :   -0.060997
   3 N :   -0.051934
   4 C :    0.006395
   5 C :   -0.038200
   6 C :   -0.022717
   7 H :    0.046130
   8 H :    0.046727
   9 H :    0.037695
  10 H :   -0.000560
  11 H :    0.002805
  12 H :    0.034786
  13 H :    0.027254
  14 H :    0.029828

  Mayer bond orders larger than 0.1
B(  0-C ,  1-C ) :   1.0739 B(  0-C ,  7-H ) :   0.9403 B(  0-C ,  8-H ) :   0.9403
B(  0-C ,  9-H ) :   0.9477 B(  1-C ,  2-N ) :   1.8601 B(  1-C , 10-H ) :   0.9334
B(  2-N ,  3-N ) :   0.9945 B(  3-N ,  4-C ) :   1.7718 B(  3-N ,  6-C ) :   0.1108
B(  4-C ,  5-C ) :   1.1075 B(  4-C , 11-H ) :   0.9427 B(  5-C ,  6-C ) :   1.8720
B(  5-C , 12-H ) :   0.9552 B(  6-C , 13-H ) :   0.9463 B(  6-C , 14-H ) :   0.9444

FINAL SINGLE POINT ENERGY      -304.166862677256

DIPOLE MOMENT
-------------
                                X             Y             Z
Electronic contribution:      1.89581      -0.63322       0.54467
Nuclear contribution   :     -1.99134       0.64763      -0.53013
                        -----------------------------------------
Total Dipole Moment    :     -0.09553       0.01441       0.01454
                        -----------------------------------------
Magnitude (a.u.)       :      0.09770
Magnitude (Debye)      :      0.24834

                             ****ORCA TERMINATED NORMALLY****
TOTAL RUN TIME: 0 days 0 hours 0 minutes 6 seconds 524 msec
