                         Program Version 3.0.3 - RELEASE   -
|  1> ! RI PBE def2-SVP def2-SVP/J NBO PAL2
|  2> % maxcore 2000
|  3> % output
|  4>     # printlevel mini
|  5>     print[ P_Basis ] 0
|  6>     print[ P_SCFInfo ] 1
|  7>     print[ P_SCFIterInfo ] 1
|  8>     print[ P_OrbEn ] 0
|  9>     print[ P_Cartesian ] 0
| 10> end
| 11> *xyz 0 1
| 12>  C        0.9508760000    -0.0675810000     0.0226990000
| 13>  C        2.4284240000    -0.0127490000     0.0836380000
| 14>  N        3.1482150000    -0.6904650000    -0.7183640000
| 15>  N        4.5011480000    -0.4962580000    -0.4921690000
| 16>  C        5.2156000000    -1.1807300000    -1.3000570000
| 17>  C        6.6310470000    -1.1346980000    -1.2485250000
| 18>  C        7.8332810000    -1.1438470000    -1.2613670000
| 19>  H        0.5413110000     0.9327730000    -0.1499470000
| 20>  H        0.5446990000    -0.4088310000     0.9802540000
| 21>  H        0.6203070000    -0.7368440000    -0.7704420000
| 22>  H        2.9087980000     0.6229610000     0.8331430000
| 23>  H        4.7474510000    -1.8199770000    -2.0523780000
| 24>  H        8.8978330000    -1.1383520000    -1.2566850000
| 25> *
| 26>
| 27>                          ****END OF INPUT****
 Total Charge           Charge          ....    0
 Multiplicity           Mult            ....    1
 Number of Electrons    NEL             ....   50
 Basis Dimension        Dim             ....  128

MULLIKEN ATOMIC CHARGES
-----------------------
   0 C :    0.050377
   1 C :   -0.065208
   2 N :   -0.091743
   3 N :   -0.082791
   4 C :   -0.047216
   5 C :    0.427295
   6 C :   -0.373219
   7 H :    0.046174
   8 H :    0.046096
   9 H :    0.038864
  10 H :    0.007399
  11 H :    0.027607
  12 H :    0.016366
Sum of atomic charges:   -0.0000000

LOEWDIN ATOMIC CHARGES
----------------------
   0 C :   -0.072573
   1 C :    0.026030
   2 N :   -0.060894
   3 N :   -0.029874
   4 C :   -0.007565
   5 C :   -0.022709
   6 C :   -0.027328
   7 H :    0.047665
   8 H :    0.047755
   9 H :    0.039086
  10 H :    0.002904
  11 H :    0.017384
  12 H :    0.040117

  Mayer bond orders larger than 0.1
B(  0-C ,  1-C ) :   1.0699 B(  0-C ,  7-H ) :   0.9396 B(  0-C ,  8-H ) :   0.9392
B(  0-C ,  9-H ) :   0.9514 B(  1-C ,  2-N ) :   1.8486 B(  1-C , 10-H ) :   0.9357
B(  2-N ,  3-N ) :   1.0010 B(  3-N ,  4-C ) :   1.7930 B(  3-N ,  6-C ) :   0.1011
B(  4-C ,  5-C ) :   0.9731 B(  4-C , 11-H ) :   0.9426 B(  5-C ,  6-C ) :   2.2981
B(  6-C , 12-H ) :   1.0822

FINAL SINGLE POINT ENERGY      -302.915119039844

DIPOLE MOMENT
-------------
                                X             Y             Z
Electronic contribution:      6.66487      -1.21933      -1.45763
Nuclear contribution   :     -6.94762       1.30050       1.55446
                        -----------------------------------------
Total Dipole Moment    :     -0.28274       0.08117       0.09682
                        -----------------------------------------
Magnitude (a.u.)       :      0.30969
Magnitude (Debye)      :      0.78716

                             ****ORCA TERMINATED NORMALLY****
TOTAL RUN TIME: 0 days 0 hours 0 minutes 6 seconds 74 msec
