                         Program Version 3.0.3 - RELEASE   -
|  1> ! RI PBE def2-SVP def2-SVP/J NBO PAL2
|  2> % maxcore 2000
|  3> % output
|  4>     # printlevel mini
|  5>     print[ P_Basis ] 0
|  6>     print[ P_SCFInfo ] 1
|  7>     print[ P_SCFIterInfo ] 1
|  8>     print[ P_OrbEn ] 0
|  9>     print[ P_Cartesian ] 0
| 10> end
| 11> *xyz 0 1
| 12>  C        4.9315560000     1.8583470000    -1.0447120000
| 13>  C        4.7864450000     0.3883640000    -0.8778680000
| 14>  N        5.3684130000    -0.2303630000     0.0646410000
| 15>  N        5.2560190000    -1.5791920000     0.1347360000
| 16>  C        5.4285790000    -2.1382560000     1.4687040000
| 17>  C        5.0909070000    -3.6155210000     1.4036660000
| 18>  C        6.8467170000    -1.9044300000     1.9540000000
| 19>  H        5.3838660000     2.1025950000    -2.0117410000
| 20>  H        5.5597740000     2.2642440000    -0.2518290000
| 21>  H        3.9575410000     2.3573260000    -1.0157490000
| 22>  H        4.1682500000    -0.1534860000    -1.6077610000
| 23>  H        4.4343240000    -1.9476050000    -0.3397050000
| 24>  H        4.7356140000    -1.6507370000     2.1731340000
| 25>  H        5.7562140000    -4.1295540000     0.7048300000
| 26>  H        4.0588990000    -3.7791140000     1.0784540000
| 27>  H        5.2047850000    -4.0746100000     2.3870400000
| 28>  H        7.5582300000    -2.4260760000     1.3083580000
| 29>  H        6.9646990000    -2.2736420000     2.9755590000
| 30>  H        7.0850680000    -0.8407780000     1.9384430000
| 31> *
| 32>
| 33>                          ****END OF INPUT****
 Total Charge           Charge          ....    0
 Multiplicity           Mult            ....    1
 Number of Electrons    NEL             ....   56
 Basis Dimension        Dim             ....  158

MULLIKEN ATOMIC CHARGES
-----------------------
   0 C :    0.046174
   1 C :   -0.133211
   2 N :   -0.051882
   3 N :   -0.129804
   4 C :   -0.015511
   5 C :   -0.006136
   6 C :    0.029065
   7 H :    0.029483
   8 H :    0.030756
   9 H :    0.027394
  10 H :   -0.023522
  11 H :    0.082316
  12 H :   -0.001107
  13 H :    0.025697
  14 H :    0.014037
  15 H :    0.024502
  16 H :    0.010203
  17 H :    0.010060
  18 H :    0.031484
Sum of atomic charges:    0.0000000

LOEWDIN ATOMIC CHARGES
----------------------
   0 C :   -0.074308
   1 C :   -0.057056
   2 N :   -0.035864
   3 N :   -0.005355
   4 C :    0.000289
   5 C :   -0.065530
   6 C :   -0.063709
   7 H :    0.035218
   8 H :    0.036197
   9 H :    0.034288
  10 H :   -0.011643
  11 H :    0.038423
  12 H :    0.008905
  13 H :    0.027832
  14 H :    0.022191
  15 H :    0.032352
  16 H :    0.024872
  17 H :    0.024891
  18 H :    0.028007

  Mayer bond orders larger than 0.1
B(  0-C ,  1-C ) :   1.0806 B(  0-C ,  7-H ) :   0.9455 B(  0-C ,  8-H ) :   0.9575
B(  0-C ,  9-H ) :   0.9472 B(  1-C ,  2-N ) :   1.8733 B(  1-C ,  3-N ) :   0.1297
B(  1-C , 10-H ) :   0.9264 B(  2-N ,  3-N ) :   1.0815 B(  3-N ,  4-C ) :   0.9939
B(  3-N , 11-H ) :   0.9151 B(  4-C ,  5-C ) :   1.0827 B(  4-C ,  6-C ) :   1.0868
B(  4-C , 12-H ) :   0.9134 B(  5-C , 13-H ) :   0.9567 B(  5-C , 14-H ) :   0.9559
B(  5-C , 15-H ) :   0.9614 B(  6-C , 16-H ) :   0.9521 B(  6-C , 17-H ) :   0.9584
B(  6-C , 18-H ) :   0.9518

FINAL SINGLE POINT ENERGY      -306.592785584007

DIPOLE MOMENT
-------------
                                X             Y             Z
Electronic contribution:     -0.73654       1.58509      -1.93740
Nuclear contribution   :      0.21740      -1.84736       1.81602
                        -----------------------------------------
Total Dipole Moment    :     -0.51914      -0.26227      -0.12139
                        -----------------------------------------
Magnitude (a.u.)       :      0.59416
Magnitude (Debye)      :      1.51023

                             ****ORCA TERMINATED NORMALLY****
TOTAL RUN TIME: 0 days 0 hours 0 minutes 8 seconds 313 msec
