                         Program Version 3.0.3 - RELEASE   -
|  1> ! RI PBE def2-SVP def2-SVP/J NBO PAL2
|  2> % maxcore 2000
|  3> % output
|  4>     # printlevel mini
|  5>     print[ P_Basis ] 0
|  6>     print[ P_SCFInfo ] 1
|  7>     print[ P_SCFIterInfo ] 1
|  8>     print[ P_OrbEn ] 0
|  9>     print[ P_Cartesian ] 0
| 10> end
| 11> *xyz 0 1
| 12>  C        1.0676100000     0.1855470000    -0.2667500000
| 13>  C        2.4937550000    -0.2010840000    -0.1052840000
| 14>  N        3.0889080000    -0.9034570000    -0.9787530000
| 15>  N        4.3672260000    -1.2940110000    -0.7474800000
| 16>  C        5.1426850000    -1.5323450000    -1.9467900000
| 17>  C        6.4020560000    -2.2590930000    -1.6116600000
| 18>  C        7.6169900000    -1.8314930000    -1.9234050000
| 19>  H        0.9489920000     1.2736030000    -0.2462470000
| 20>  H        0.4562430000    -0.2153980000     0.5485450000
| 21>  H        0.6823720000    -0.1944480000    -1.2129020000
| 22>  H        3.0164360000     0.1272070000     0.8040660000
| 23>  H        4.8618720000    -0.7301880000    -0.0594270000
| 24>  H        5.3755410000    -0.6074720000    -2.4956380000
| 25>  H        4.5152220000    -2.1458670000    -2.6006990000
| 26>  H        6.2750430000    -3.1955760000    -1.0731290000
| 27>  H        7.7676970000    -0.8944770000    -2.4512690000
| 28>  H        8.5031620000    -2.4032590000    -1.6734880000
| 29> *
| 30>
| 31>                          ****END OF INPUT****
 Total Charge           Charge          ....    0
 Multiplicity           Mult            ....    1
 Number of Electrons    NEL             ....   54
 Basis Dimension        Dim             ....  148

MULLIKEN ATOMIC CHARGES
-----------------------
   0 C :    0.040806
   1 C :   -0.128494
   2 N :   -0.063202
   3 N :   -0.155730
   4 C :    0.206339
   5 C :   -0.114786
   6 C :   -0.027575
   7 H :    0.032638
   8 H :    0.032407
   9 H :    0.026643
  10 H :   -0.022539
  11 H :    0.087945
  12 H :   -0.004749
  13 H :    0.029085
  14 H :    0.012305
  15 H :    0.019970
  16 H :    0.028939
Sum of atomic charges:   -0.0000000

LOEWDIN ATOMIC CHARGES
----------------------
   0 C :   -0.074883
   1 C :   -0.056303
   2 N :   -0.041706
   3 N :   -0.005078
   4 C :    0.012000
   5 C :   -0.039801
   6 C :   -0.057710
   7 H :    0.035261
   8 H :    0.036103
   9 H :    0.035818
  10 H :   -0.010681
  11 H :    0.041813
  12 H :    0.010018
  13 H :    0.038096
  14 H :    0.028409
  15 H :    0.022301
  16 H :    0.026343

  Mayer bond orders larger than 0.1
B(  0-C ,  1-C ) :   1.0828 B(  0-C ,  7-H ) :   0.9481 B(  0-C ,  8-H ) :   0.9459
B(  0-C ,  9-H ) :   0.9560 B(  1-C ,  2-N ) :   1.8728 B(  1-C ,  3-N ) :   0.1314
B(  1-C , 10-H ) :   0.9268 B(  2-N ,  3-N ) :   1.0651 B(  3-N ,  4-C ) :   0.9790
B(  3-N , 11-H ) :   0.9197 B(  4-C ,  5-C ) :   1.0583 B(  4-C , 12-H ) :   0.9248
B(  4-C , 13-H ) :   0.9087 B(  5-C ,  6-C ) :   1.9923 B(  5-C , 14-H ) :   0.9555
B(  6-C , 15-H ) :   0.9472 B(  6-C , 16-H ) :   0.9465

FINAL SINGLE POINT ENERGY      -305.364573356976

DIPOLE MOMENT
-------------
                                X             Y             Z
Electronic contribution:      0.68287      -1.49383       0.06220
Nuclear contribution   :     -0.38173       1.85109       0.22869
                        -----------------------------------------
Total Dipole Moment    :      0.30114       0.35726       0.29089
                        -----------------------------------------
Magnitude (a.u.)       :      0.55039
Magnitude (Debye)      :      1.39899

                             ****ORCA TERMINATED NORMALLY****
TOTAL RUN TIME: 0 days 0 hours 0 minutes 7 seconds 65 msec
