                         Program Version 3.0.3 - RELEASE   -
|  1> ! RI PBE def2-SVP def2-SVP/J NBO PAL2
|  2> % maxcore 2000
|  3> % output
|  4>     # printlevel mini
|  5>     print[ P_Basis ] 0
|  6>     print[ P_SCFInfo ] 1
|  7>     print[ P_SCFIterInfo ] 1
|  8>     print[ P_OrbEn ] 0
|  9>     print[ P_Cartesian ] 0
| 10> end
| 11> *xyz 0 1
| 12>  C        1.6115760000    -1.1198190000     0.5975470000
| 13>  C        2.8995700000    -0.4481550000     0.2843890000
| 14>  N        3.4352330000     0.3615090000     1.1011730000
| 15>  N        4.5715450000     1.0070560000     0.7324770000
| 16>  C        5.3828730000     1.4026640000     1.8678960000
| 17>  C        6.5631550000     2.1317200000     1.4319050000
| 18>  C        7.5494630000     2.7127240000     1.0733340000
| 19>  H        1.7163860000    -2.2087400000     0.5609390000
| 20>  H        0.8413400000    -0.8506970000    -0.1327050000
| 21>  H        1.2700470000    -0.8296260000     1.5909790000
| 22>  H        3.3688710000    -0.6605200000    -0.6860340000
| 23>  H        5.1108970000     0.5408770000     0.0065700000
| 24>  H        5.6995800000     0.5433050000     2.4784590000
| 25>  H        4.7669520000     2.0373310000     2.5110190000
| 26>  H        8.4200100000     3.2375810000     0.7578520000
| 27> *
| 28>
| 29>                          ****END OF INPUT****
 Total Charge           Charge          ....    0
 Multiplicity           Mult            ....    1
 Number of Electrons    NEL             ....   52
 Basis Dimension        Dim             ....  138

MULLIKEN ATOMIC CHARGES
-----------------------
   0 C :    0.036148
   1 C :   -0.123017
   2 N :   -0.065147
   3 N :   -0.156331
   4 C :    0.238663
   5 C :    0.292890
   6 C :   -0.473867
   7 H :    0.036604
   8 H :    0.036849
   9 H :    0.026935
  10 H :   -0.018650
  11 H :    0.095153
  12 H :    0.028464
  13 H :    0.040756
  14 H :    0.004549
Sum of atomic charges:   -0.0000000

LOEWDIN ATOMIC CHARGES
----------------------
   0 C :   -0.075299
   1 C :   -0.050065
   2 N :   -0.043074
   3 N :   -0.002492
   4 C :    0.009301
   5 C :   -0.031192
   6 C :   -0.071930
   7 H :    0.036743
   8 H :    0.037669
   9 H :    0.036254
  10 H :   -0.008671
  11 H :    0.045170
  12 H :    0.030757
  13 H :    0.050194
  14 H :    0.036635

  Mayer bond orders larger than 0.1
B(  0-C ,  1-C ) :   1.0832 B(  0-C ,  7-H ) :   0.9480 B(  0-C ,  8-H ) :   0.9453
B(  0-C ,  9-H ) :   0.9548 B(  1-C ,  2-N ) :   1.8721 B(  1-C ,  3-N ) :   0.1289
B(  1-C , 10-H ) :   0.9293 B(  2-N ,  3-N ) :   1.0685 B(  3-N ,  4-C ) :   0.9874
B(  3-N , 11-H ) :   0.9171 B(  4-C ,  5-C ) :   1.0307 B(  4-C , 12-H ) :   0.9015
B(  4-C , 13-H ) :   0.8906 B(  5-C ,  6-C ) :   2.3729 B(  5-C , 14-H ) :  -0.1043
B(  6-C , 14-H ) :   1.0950

FINAL SINGLE POINT ENERGY      -304.117715443751

DIPOLE MOMENT
-------------
                                X             Y             Z
Electronic contribution:      4.70709       3.90538       0.55304
Nuclear contribution   :     -4.46265      -4.33049      -0.84280
                        -----------------------------------------
Total Dipole Moment    :      0.24444      -0.42512      -0.28976
                        -----------------------------------------
Magnitude (a.u.)       :      0.56959
Magnitude (Debye)      :      1.44779

                             ****ORCA TERMINATED NORMALLY****
TOTAL RUN TIME: 0 days 0 hours 0 minutes 6 seconds 641 msec
