                         Program Version 3.0.3 - RELEASE   -
|  1> ! RI PBE def2-SVP def2-SVP/J NBO PAL2
|  2> % maxcore 2000
|  3> % output
|  4>     # printlevel mini
|  5>     print[ P_Basis ] 0
|  6>     print[ P_SCFInfo ] 1
|  7>     print[ P_SCFIterInfo ] 1
|  8>     print[ P_OrbEn ] 0
|  9>     print[ P_Cartesian ] 0
| 10> end
| 11> *xyz 0 1
| 12>  C        1.0932800000    -0.1156430000    -0.2733680000
| 13>  C        2.5901100000    -0.2541560000    -0.1993620000
| 14>  N        3.2536790000    -1.3299790000    -0.3768700000
| 15>  N        3.2375750000     0.9181980000     0.0678000000
| 16>  C        4.6586740000     0.9701430000     0.3181010000
| 17>  C        5.2135260000     2.3063580000    -0.0452270000
| 18>  C        5.8651030000     3.0999920000     0.7930110000
| 19>  H        0.6350210000    -1.0573750000    -0.5713100000
| 20>  H        0.8096190000     0.6559260000    -0.9936270000
| 21>  H        0.6856290000     0.1719890000     0.7000920000
| 22>  H        2.6300840000    -2.0938940000    -0.6126440000
| 23>  H        2.6860790000     1.6873190000     0.4064240000
| 24>  H        5.1071130000     0.1830760000    -0.2943740000
| 25>  H        4.8976630000     0.7300050000     1.3626540000
| 26>  H        5.0550370000     2.6193510000    -1.0752980000
| 27>  H        6.0317820000     2.8128740000     1.8269750000
| 28>  H        6.2661160000     4.0559170000     0.4767930000
| 29> *
| 30>
| 31>                          ****END OF INPUT****
 Total Charge           Charge          ....    0
 Multiplicity           Mult            ....    1
 Number of Electrons    NEL             ....   54
 Basis Dimension        Dim             ....  148

MULLIKEN ATOMIC CHARGES
-----------------------
   0 C :    0.049510
   1 C :   -0.176517
   2 N :   -0.144718
   3 N :   -0.159631
   4 C :    0.234659
   5 C :   -0.140839
   6 C :   -0.027083
   7 H :    0.016910
   8 H :    0.040110
   9 H :    0.037423
  10 H :    0.076054
  11 H :    0.101706
  12 H :    0.038771
  13 H :   -0.000661
  14 H :    0.008476
  15 H :    0.020571
  16 H :    0.025260
Sum of atomic charges:   -0.0000000

LOEWDIN ATOMIC CHARGES
----------------------
   0 C :   -0.080645
   1 C :   -0.002653
   2 N :   -0.183843
   3 N :   -0.011243
   4 C :    0.028978
   5 C :   -0.043777
   6 C :   -0.061752
   7 H :    0.034316
   8 H :    0.038071
   9 H :    0.038377
  10 H :    0.041617
  11 H :    0.067537
  12 H :    0.042479
  13 H :    0.018505
  14 H :    0.026451
  15 H :    0.022369
  16 H :    0.025213

  Mayer bond orders larger than 0.1
B(  0-C ,  1-C ) :   1.0375 B(  0-C ,  7-H ) :   0.9468 B(  0-C ,  8-H ) :   0.9484
B(  0-C ,  9-H ) :   0.9464 B(  1-C ,  2-N ) :   1.8905 B(  1-C ,  3-N ) :   1.1982
B(  2-N , 10-H ) :   0.9236 B(  3-N ,  4-C ) :   0.9630 B(  3-N , 11-H ) :   0.9338
B(  4-C ,  5-C ) :   1.0582 B(  4-C , 12-H ) :   0.8980 B(  4-C , 13-H ) :   0.9287
B(  5-C ,  6-C ) :   1.9936 B(  5-C , 14-H ) :   0.9605 B(  6-C , 15-H ) :   0.9455
B(  6-C , 16-H ) :   0.9435

FINAL SINGLE POINT ENERGY      -305.404172016620

DIPOLE MOMENT
-------------
                                X             Y             Z
Electronic contribution:      0.89786      -1.27535      -0.58962
Nuclear contribution   :     -1.69343       1.86483       0.76247
                        -----------------------------------------
Total Dipole Moment    :     -0.79558       0.58948       0.17285
                        -----------------------------------------
Magnitude (a.u.)       :      1.00514
Magnitude (Debye)      :      2.55486

                             ****ORCA TERMINATED NORMALLY****
TOTAL RUN TIME: 0 days 0 hours 0 minutes 7 seconds 492 msec
