                         Program Version 3.0.3 - RELEASE   -
|  1> ! RI PBE def2-SVP def2-SVP/J NBO PAL2
|  2> % maxcore 2000
|  3> % output
|  4>     # printlevel mini
|  5>     print[ P_Basis ] 0
|  6>     print[ P_SCFInfo ] 1
|  7>     print[ P_SCFIterInfo ] 1
|  8>     print[ P_OrbEn ] 0
|  9>     print[ P_Cartesian ] 0
| 10> end
| 11> *xyz 0 1
| 12>  C        1.6134560000    -0.2036900000    -1.1782880000
| 13>  C        3.0166210000    -0.3625450000    -0.6610620000
| 14>  N        3.9148760000    -1.1422740000    -1.1246740000
| 15>  N        3.3006310000     0.4085630000     0.4272370000
| 16>  C        4.6498030000     0.4574010000     0.9428740000
| 17>  C        4.7404850000     1.3603650000     2.0776730000
| 18>  C        4.8133600000     2.1150880000     3.0075660000
| 19>  H        1.4395570000    -0.8700980000    -2.0216330000
| 20>  H        1.4370930000     0.8238410000    -1.5087300000
| 21>  H        0.8856610000    -0.4309980000    -0.3954670000
| 22>  H        3.5505510000    -1.6804230000    -1.9031010000
| 23>  H        2.6950640000     1.1783060000     0.6486940000
| 24>  H        5.3569660000     0.7651780000     0.1614410000
| 25>  H        4.9554130000    -0.5516950000     1.2366670000
| 26>  H        4.8858530000     2.7793800000     3.8360110000
| 27> *
| 28>
| 29>                          ****END OF INPUT****
 Total Charge           Charge          ....    0
 Multiplicity           Mult            ....    1
 Number of Electrons    NEL             ....   52
 Basis Dimension        Dim             ....  138

MULLIKEN ATOMIC CHARGES
-----------------------
   0 C :    0.052126
   1 C :   -0.165837
   2 N :   -0.152360
   3 N :   -0.160450
   4 C :    0.247558
   5 C :    0.272571
   6 C :   -0.468957
   7 H :    0.017961
   8 H :    0.036839
   9 H :    0.043866
  10 H :    0.077382
  11 H :    0.110832
  12 H :    0.040554
  13 H :    0.045106
  14 H :    0.002810
Sum of atomic charges:   -0.0000000

LOEWDIN ATOMIC CHARGES
----------------------
   0 C :   -0.080207
   1 C :   -0.001431
   2 N :   -0.186590
   3 N :   -0.008488
   4 C :    0.026225
   5 C :   -0.031527
   6 C :   -0.078597
   7 H :    0.035149
   8 H :    0.038337
   9 H :    0.040714
  10 H :    0.043112
  11 H :    0.072283
  12 H :    0.043384
  13 H :    0.051770
  14 H :    0.035867

  Mayer bond orders larger than 0.1
B(  0-C ,  1-C ) :   1.0461 B(  0-C ,  7-H ) :   0.9461 B(  0-C ,  8-H ) :   0.9449
B(  0-C ,  9-H ) :   0.9469 B(  1-C ,  2-N ) :   1.8835 B(  1-C ,  3-N ) :   1.1959
B(  2-N , 10-H ) :   0.9238 B(  3-N ,  4-C ) :   0.9876 B(  3-N , 11-H ) :   0.9334
B(  4-C ,  5-C ) :   1.0116 B(  4-C , 12-H ) :   0.9053 B(  4-C , 13-H ) :   0.8993
B(  5-C ,  6-C ) :   2.3686 B(  5-C , 14-H ) :  -0.1067 B(  6-C , 14-H ) :   1.0978

FINAL SINGLE POINT ENERGY      -304.158073517107

DIPOLE MOMENT
-------------
                                X             Y             Z
Electronic contribution:      3.04747       1.13042       3.06267
Nuclear contribution   :     -3.88828      -0.63181      -3.12744
                        -----------------------------------------
Total Dipole Moment    :     -0.84080       0.49860      -0.06477
                        -----------------------------------------
Magnitude (a.u.)       :      0.97967
Magnitude (Debye)      :      2.49012

                             ****ORCA TERMINATED NORMALLY****
TOTAL RUN TIME: 0 days 0 hours 0 minutes 6 seconds 814 msec
