                         Program Version 3.0.3 - RELEASE   -
|  1> ! RI PBE def2-SVP def2-SVP/J NBO PAL2
|  2> % maxcore 2000
|  3> % output
|  4>     # printlevel mini
|  5>     print[ P_Basis ] 0
|  6>     print[ P_SCFInfo ] 1
|  7>     print[ P_SCFIterInfo ] 1
|  8>     print[ P_OrbEn ] 0
|  9>     print[ P_Cartesian ] 0
| 10> end
| 11> *xyz 0 1
| 12>  C        1.0899560000    -0.0021710000    -0.2072760000
| 13>  C        2.5685810000    -0.1699360000    -0.0456860000
| 14>  N        3.1989440000    -0.0834100000     1.0674190000
| 15>  N        2.4404980000     0.0895740000     2.1760690000
| 16>  C        2.7400010000     1.0593720000     2.9329440000
| 17>  C        3.3439940000    -0.4248980000    -1.2162140000
| 18>  C        3.9332610000    -0.6307020000    -2.2435050000
| 19>  H        0.5845920000    -0.3431580000     0.6980520000
| 20>  H        0.7321680000    -0.5505140000    -1.0778250000
| 21>  H        0.8413570000     1.0538490000    -0.3484360000
| 22>  H        2.1797550000     1.1715830000     3.8553480000
| 23>  H        3.5296250000     1.7736800000     2.6931360000
| 24>  H        4.4761690000    -0.8166700000    -3.1401160000
| 25> *
| 26>
| 27>                          ****END OF INPUT****
 Total Charge           Charge          ....    0
 Multiplicity           Mult            ....    1
 Number of Electrons    NEL             ....   50
 Basis Dimension        Dim             ....  128

MULLIKEN ATOMIC CHARGES
-----------------------
   0 C :    0.081205
   1 C :   -0.204449
   2 N :   -0.057390
   3 N :   -0.082277
   4 C :    0.006617
   5 C :    0.454708
   6 C :   -0.429761
   7 H :    0.049877
   8 H :    0.035969
   9 H :    0.050070
  10 H :    0.049380
  11 H :    0.033577
  12 H :    0.012472
Sum of atomic charges:   -0.0000000

LOEWDIN ATOMIC CHARGES
----------------------
   0 C :   -0.063289
   1 C :   -0.036125
   2 N :   -0.022537
   3 N :   -0.013559
   4 C :   -0.004682
   5 C :   -0.015000
   6 C :   -0.043773
   7 H :    0.041911
   8 H :    0.041642
   9 H :    0.050048
  10 H :    0.021655
  11 H :    0.004456
  12 H :    0.039254

  Mayer bond orders larger than 0.1
B(  0-C ,  1-C ) :   1.0744 B(  0-C ,  7-H ) :   0.9245 B(  0-C ,  8-H ) :   0.9437
B(  0-C ,  9-H ) :   0.9390 B(  1-C ,  2-N ) :   1.8035 B(  1-C ,  5-C ) :   1.0005
B(  2-N ,  3-N ) :   1.0504 B(  3-N ,  4-C ) :   1.9114 B(  4-C , 10-H ) :   0.9535
B(  4-C , 11-H ) :   0.9370 B(  5-C ,  6-C ) :   2.2797 B(  6-C , 12-H ) :   1.0877

FINAL SINGLE POINT ENERGY      -302.912992359054

DIPOLE MOMENT
-------------
                                X             Y             Z
Electronic contribution:      3.32625      -1.64103      -0.43070
Nuclear contribution   :     -3.71117       2.12504       0.20912
                        -----------------------------------------
Total Dipole Moment    :     -0.38493       0.48401      -0.22158
                        -----------------------------------------
Magnitude (a.u.)       :      0.65692
Magnitude (Debye)      :      1.66975

                             ****ORCA TERMINATED NORMALLY****
TOTAL RUN TIME: 0 days 0 hours 0 minutes 6 seconds 156 msec
