                         Program Version 3.0.3 - RELEASE   -
|  1> ! RI PBE def2-SVP def2-SVP/J NBO PAL2
|  2> % maxcore 2000
|  3> % output
|  4>     # printlevel mini
|  5>     print[ P_Basis ] 0
|  6>     print[ P_SCFInfo ] 1
|  7>     print[ P_SCFIterInfo ] 1
|  8>     print[ P_OrbEn ] 0
|  9>     print[ P_Cartesian ] 0
| 10> end
| 11> *xyz 0 1
| 12>  C        1.7234930000    -1.5862720000    -2.4446840000
| 13>  C        2.3979050000    -1.1983710000    -1.1378650000
| 14>  N        1.4298100000    -0.5944370000    -0.2292740000
| 15>  N        0.8099690000     0.5083590000    -0.6838730000
| 16>  C        0.3249600000     1.3344320000     0.1488010000
| 17>  C        2.9764450000    -2.3957290000    -0.4507600000
| 18>  C        4.2619100000    -2.5526550000    -0.1714890000
| 19>  H        1.2568640000    -0.7136180000    -2.9013800000
| 20>  H        0.9488610000    -2.3357220000    -2.2648650000
| 21>  H        2.4601020000    -2.0001940000    -3.1354080000
| 22>  H        3.2141810000    -0.4927630000    -1.3560040000
| 23>  H        1.7650870000    -0.5346820000     0.7295560000
| 24>  H       -0.2112040000     2.1921160000    -0.2388780000
| 25>  H        0.4128830000     1.2125180000     1.2336260000
| 26>  H        2.2610180000    -3.1727690000    -0.1865020000
| 27>  H        4.9921350000    -1.7896970000    -0.4240100000
| 28>  H        4.6339720000    -3.4501190000     0.3091000000
| 29> *
| 30>
| 31>                          ****END OF INPUT****
 Total Charge           Charge          ....    0
 Multiplicity           Mult            ....    1
 Number of Electrons    NEL             ....   54
 Basis Dimension        Dim             ....  148

MULLIKEN ATOMIC CHARGES
-----------------------
   0 C :    0.031277
   1 C :    0.060306
   2 N :   -0.135458
   3 N :   -0.072482
   4 C :   -0.059996
   5 C :   -0.067716
   6 C :   -0.025829
   7 H :    0.038095
   8 H :    0.019125
   9 H :    0.022790
  10 H :   -0.004896
  11 H :    0.091188
  12 H :    0.039760
  13 H :    0.003102
  14 H :    0.007532
  15 H :    0.024925
  16 H :    0.028277
Sum of atomic charges:   -0.0000000

LOEWDIN ATOMIC CHARGES
----------------------
   0 C :   -0.058468
   1 C :    0.005571
   2 N :    0.005377
   3 N :   -0.022246
   4 C :   -0.078765
   5 C :   -0.030992
   6 C :   -0.054356
   7 H :    0.031023
   8 H :    0.027727
   9 H :    0.030001
  10 H :    0.013845
  11 H :    0.043770
  12 H :    0.018002
  13 H :   -0.009806
  14 H :    0.027783
  15 H :    0.024356
  16 H :    0.027177

  Mayer bond orders larger than 0.1
B(  0-C ,  1-C ) :   1.0733 B(  0-C ,  7-H ) :   0.9427 B(  0-C ,  8-H ) :   0.9529
B(  0-C ,  9-H ) :   0.9591 B(  1-C ,  2-N ) :   0.9534 B(  1-C ,  5-C ) :   1.0243
B(  1-C , 10-H ) :   0.9131 B(  2-N ,  3-N ) :   1.1110 B(  2-N ,  4-C ) :   0.1483
B(  2-N , 11-H ) :   0.9164 B(  3-N ,  4-C ) :   1.8868 B(  4-C , 12-H ) :   0.9570
B(  4-C , 13-H ) :   0.9279 B(  5-C ,  6-C ) :   1.9952 B(  5-C , 14-H ) :   0.9509
B(  6-C , 15-H ) :   0.9475 B(  6-C , 16-H ) :   0.9402

FINAL SINGLE POINT ENERGY      -305.359261950902

DIPOLE MOMENT
-------------
                                X             Y             Z
Electronic contribution:     -1.47550       1.71491       1.47396
Nuclear contribution   :      1.87277      -1.86059      -1.05015
                        -----------------------------------------
Total Dipole Moment    :      0.39727      -0.14568       0.42381
                        -----------------------------------------
Magnitude (a.u.)       :      0.59888
Magnitude (Debye)      :      1.52223

                             ****ORCA TERMINATED NORMALLY****
TOTAL RUN TIME: 0 days 0 hours 0 minutes 7 seconds 577 msec
