                         Program Version 3.0.3 - RELEASE   -
|  1> ! RI PBE def2-SVP def2-SVP/J NBO PAL2
|  2> % maxcore 2000
|  3> % output
|  4>     # printlevel mini
|  5>     print[ P_Basis ] 0
|  6>     print[ P_SCFInfo ] 1
|  7>     print[ P_SCFIterInfo ] 1
|  8>     print[ P_OrbEn ] 0
|  9>     print[ P_Cartesian ] 0
| 10> end
| 11> *xyz 0 1
| 12>  C        0.8550530000    -0.1206180000    -0.2538720000
| 13>  C        2.3384540000     0.0375670000     0.0550310000
| 14>  N        2.5544590000     1.1219180000     1.0091600000
| 15>  N        2.3133360000     2.3482240000     0.5115500000
| 16>  C        2.8419470000     3.3579090000     1.0694060000
| 17>  C        2.9116690000    -1.1837660000     0.6090370000
| 18>  C        3.3832710000    -2.1892550000     1.0633200000
| 19>  H        0.4659030000     0.8254970000    -0.6302620000
| 20>  H        0.3109680000    -0.3950530000     0.6506570000
| 21>  H        0.7064780000    -0.8941840000    -1.0085890000
| 22>  H        2.8688970000     0.2550680000    -0.8845790000
| 23>  H        3.4088940000     1.0248460000     1.5507280000
| 24>  H        2.5983280000     4.3383970000     0.6787940000
| 25>  H        3.5170240000     3.2832120000     1.9278380000
| 26>  H        3.7977180000    -3.0845620000     1.4630910000
| 27> *
| 28>
| 29>                          ****END OF INPUT****
 Total Charge           Charge          ....    0
 Multiplicity           Mult            ....    1
 Number of Electrons    NEL             ....   52
 Basis Dimension        Dim             ....  138

MULLIKEN ATOMIC CHARGES
-----------------------
   0 C :    0.030485
   1 C :    0.094309
   2 N :   -0.128658
   3 N :   -0.080970
   4 C :   -0.048411
   5 C :    0.362873
   6 C :   -0.502688
   7 H :    0.037199
   8 H :    0.028788
   9 H :    0.030021
  10 H :    0.026943
  11 H :    0.099046
  12 H :    0.041548
  13 H :    0.005593
  14 H :    0.003922
Sum of atomic charges:   -0.0000000

LOEWDIN ATOMIC CHARGES
----------------------
   0 C :   -0.050186
   1 C :    0.001381
   2 N :    0.010852
   3 N :   -0.025287
   4 C :   -0.070694
   5 C :   -0.023470
   6 C :   -0.071221
   7 H :    0.032423
   8 H :    0.032036
   9 H :    0.032488
  10 H :    0.034783
  11 H :    0.048144
  12 H :    0.019228
  13 H :   -0.007936
  14 H :    0.037458

  Mayer bond orders larger than 0.1
B(  0-C ,  1-C ) :   1.0741 B(  0-C ,  7-H ) :   0.9481 B(  0-C ,  8-H ) :   0.9525
B(  0-C ,  9-H ) :   0.9593 B(  1-C ,  2-N ) :   0.9826 B(  1-C ,  5-C ) :   0.9786
B(  1-C , 10-H ) :   0.8838 B(  2-N ,  3-N ) :   1.1093 B(  2-N ,  4-C ) :   0.1454
B(  2-N , 11-H ) :   0.9152 B(  3-N ,  4-C ) :   1.8817 B(  4-C , 12-H ) :   0.9576
B(  4-C , 13-H ) :   0.9305 B(  5-C ,  6-C ) :   2.3403 B(  5-C , 14-H ) :  -0.1117
B(  6-C , 14-H ) :   1.1018

FINAL SINGLE POINT ENERGY      -304.112808765911

DIPOLE MOMENT
-------------
                                X             Y             Z
Electronic contribution:      2.13480      -1.10049       0.97795
Nuclear contribution   :     -1.69536       0.91124      -0.82455
                        -----------------------------------------
Total Dipole Moment    :      0.43944      -0.18925       0.15340
                        -----------------------------------------
Magnitude (a.u.)       :      0.50245
Magnitude (Debye)      :      1.27712

                             ****ORCA TERMINATED NORMALLY****
TOTAL RUN TIME: 0 days 0 hours 0 minutes 7 seconds 16 msec
