                         Program Version 3.0.3 - RELEASE   -
|  1> ! RI PBE def2-SVP def2-SVP/J NBO PAL2
|  2> % maxcore 2000
|  3> % output
|  4>     # printlevel mini
|  5>     print[ P_Basis ] 0
|  6>     print[ P_SCFInfo ] 1
|  7>     print[ P_SCFIterInfo ] 1
|  8>     print[ P_OrbEn ] 0
|  9>     print[ P_Cartesian ] 0
| 10> end
| 11> *xyz 0 1
| 12>  C        2.3361330000     0.4226910000    -1.8979450000
| 13>  C        2.2280960000    -0.3895850000    -0.6243400000
| 14>  N        2.7947470000    -1.7165560000    -0.7782690000
| 15>  N        4.1405250000    -1.7335580000    -0.9386060000
| 16>  C        4.7873260000    -2.7783810000    -0.6219370000
| 17>  C        6.2559060000    -2.8868740000    -0.8495010000
| 18>  C        6.6170330000    -4.0012170000    -1.8265410000
| 19>  H        1.9025330000     1.4151570000    -1.7546630000
| 20>  H        1.8109450000    -0.0737860000    -2.7166130000
| 21>  H        3.3813900000     0.5417550000    -2.1855280000
| 22>  H        1.1767280000    -0.5342040000    -0.3600300000
| 23>  H        2.7006080000     0.1540500000     0.2071180000
| 24>  H        2.4544300000    -2.3817240000    -0.0891870000
| 25>  H        4.2723690000    -3.6518650000    -0.1942200000
| 26>  H        6.7555380000    -3.0758900000     0.1088440000
| 27>  H        6.6146550000    -1.9223560000    -1.2155400000
| 28>  H        6.2477800000    -4.9698470000    -1.4783510000
| 29>  H        7.6998830000    -4.0826850000    -1.9449620000
| 30>  H        6.1805050000    -3.8128450000    -2.8098990000
| 31> *
| 32>
| 33>                          ****END OF INPUT****
 Total Charge           Charge          ....    0
 Multiplicity           Mult            ....    1
 Number of Electrons    NEL             ....   56
 Basis Dimension        Dim             ....  158

MULLIKEN ATOMIC CHARGES
-----------------------
   0 C :   -0.021081
   1 C :    0.071054
   2 N :   -0.129423
   3 N :   -0.061578
   4 C :   -0.107777
   5 C :    0.052838
   6 C :   -0.047157
   7 H :    0.016472
   8 H :    0.020017
   9 H :    0.036823
  10 H :    0.007912
  11 H :    0.003053
  12 H :    0.085845
  13 H :   -0.030349
  14 H :    0.016907
  15 H :    0.013578
  16 H :    0.016675
  17 H :    0.026712
  18 H :    0.029479
Sum of atomic charges:   -0.0000000

LOEWDIN ATOMIC CHARGES
----------------------
   0 C :   -0.072311
   1 C :    0.004468
   2 N :   -0.005958
   3 N :   -0.036962
   4 C :   -0.050928
   5 C :   -0.054084
   6 C :   -0.064601
   7 H :    0.027341
   8 H :    0.026380
   9 H :    0.029001
  10 H :    0.021888
  11 H :    0.007682
  12 H :    0.040544
  13 H :   -0.012548
  14 H :    0.030718
  15 H :    0.031555
  16 H :    0.022862
  17 H :    0.027279
  18 H :    0.027675

  Mayer bond orders larger than 0.1
B(  0-C ,  1-C ) :   1.1268 B(  0-C ,  7-H ) :   0.9573 B(  0-C ,  8-H ) :   0.9595
B(  0-C ,  9-H ) :   0.9638 B(  1-C ,  2-N ) :   1.0339 B(  1-C , 10-H ) :   0.9390
B(  1-C , 11-H ) :   0.9326 B(  2-N ,  3-N ) :   1.0740 B(  2-N ,  4-C ) :   0.1293
B(  2-N , 12-H ) :   0.9198 B(  3-N ,  4-C ) :   1.8714 B(  4-C ,  5-C ) :   1.0554
B(  4-C , 13-H ) :   0.9238 B(  5-C ,  6-C ) :   1.0947 B(  5-C , 14-H ) :   0.9215
B(  5-C , 15-H ) :   0.9297 B(  6-C , 16-H ) :   0.9692 B(  6-C , 17-H ) :   0.9618
B(  6-C , 18-H ) :   0.9680

FINAL SINGLE POINT ENERGY      -306.588901940129

DIPOLE MOMENT
-------------
                                X             Y             Z
Electronic contribution:     -1.56249      -0.21360       1.80249
Nuclear contribution   :      1.30313      -0.03457      -1.34287
                        -----------------------------------------
Total Dipole Moment    :     -0.25937      -0.24817       0.45962
                        -----------------------------------------
Magnitude (a.u.)       :      0.58319
Magnitude (Debye)      :      1.48235

                             ****ORCA TERMINATED NORMALLY****
TOTAL RUN TIME: 0 days 0 hours 0 minutes 7 seconds 990 msec
