                         Program Version 3.0.3 - RELEASE   -
|  1> ! RI PBE def2-SVP def2-SVP/J NBO PAL2
|  2> % maxcore 2000
|  3> % output
|  4>     # printlevel mini
|  5>     print[ P_Basis ] 0
|  6>     print[ P_SCFInfo ] 1
|  7>     print[ P_SCFIterInfo ] 1
|  8>     print[ P_OrbEn ] 0
|  9>     print[ P_Cartesian ] 0
| 10> end
| 11> *xyz 0 1
| 12>  C        2.3263090000    -4.0230880000     4.2168200000
| 13>  C        2.4403210000    -2.5942270000     3.7311170000
| 14>  N        3.8276300000    -2.1775240000     3.7132760000
| 15>  N        3.9972740000    -0.8634060000     3.4050970000
| 16>  C        5.1446300000    -0.4688640000     3.0096330000
| 17>  C        6.3152000000    -1.3888510000     2.8337700000
| 18>  C        5.3284110000     0.9867900000     2.7346990000
| 19>  H        1.2802300000    -4.3332040000     4.2502750000
| 20>  H        2.7521160000    -4.1291910000     5.2167590000
| 21>  H        2.8512440000    -4.7150060000     3.5507770000
| 22>  H        1.9109590000    -1.9158290000     4.4035680000
| 23>  H        1.9709760000    -2.4910610000     2.7412140000
| 24>  H        4.4167710000    -2.8160180000     3.1860240000
| 25>  H        6.5076380000    -1.9496210000     3.7549960000
| 26>  H        7.2174410000    -0.8381690000     2.5687570000
| 27>  H        6.1358780000    -2.1260290000     2.0406110000
| 28>  H        6.1090900000     1.4111810000     3.3758130000
| 29>  H        4.3963230000     1.5220800000     2.9116460000
| 30>  H        5.6440390000     1.1555360000     1.6993770000
| 31> *
| 32>
| 33>                          ****END OF INPUT****
 Total Charge           Charge          ....    0
 Multiplicity           Mult            ....    1
 Number of Electrons    NEL             ....   56
 Basis Dimension        Dim             ....  158

MULLIKEN ATOMIC CHARGES
-----------------------
   0 C :   -0.050547
   1 C :    0.098999
   2 N :   -0.155196
   3 N :   -0.060321
   4 C :   -0.271801
   5 C :    0.017923
   6 C :    0.074501
   7 H :    0.028156
   8 H :    0.029466
   9 H :    0.018184
  10 H :    0.020914
  11 H :    0.001720
  12 H :    0.087752
  13 H :    0.041995
  14 H :    0.014745
  15 H :    0.036975
  16 H :    0.025093
  17 H :    0.022172
  18 H :    0.019269
Sum of atomic charges:    0.0000000

LOEWDIN ATOMIC CHARGES
----------------------
   0 C :   -0.075700
   1 C :    0.007554
   2 N :   -0.011771
   3 N :   -0.056394
   4 C :   -0.071509
   5 C :   -0.085121
   6 C :   -0.065287
   7 H :    0.032704
   8 H :    0.028657
   9 H :    0.023014
  10 H :    0.025999
  11 H :    0.005978
  12 H :    0.039378
  13 H :    0.037475
  14 H :    0.034305
  15 H :    0.034372
  16 H :    0.031877
  17 H :    0.033750
  18 H :    0.030720

  Mayer bond orders larger than 0.1
B(  0-C ,  1-C ) :   1.1149 B(  0-C ,  7-H ) :   0.9612 B(  0-C ,  8-H ) :   0.9633
B(  0-C ,  9-H ) :   0.9628 B(  1-C ,  2-N ) :   1.0065 B(  1-C , 10-H ) :   0.9358
B(  1-C , 11-H ) :   0.9348 B(  2-N ,  3-N ) :   1.0677 B(  2-N ,  4-C ) :   0.1039
B(  2-N , 12-H ) :   0.9091 B(  3-N ,  4-C ) :   1.8963 B(  4-C ,  5-C ) :   1.0585
B(  4-C ,  6-C ) :   1.0985 B(  5-C , 13-H ) :   0.9395 B(  5-C , 14-H ) :   0.9457
B(  5-C , 15-H ) :   0.9366 B(  6-C , 16-H ) :   0.9420 B(  6-C , 17-H ) :   0.9502
B(  6-C , 18-H ) :   0.9428

FINAL SINGLE POINT ENERGY      -306.595088771306

DIPOLE MOMENT
-------------
                                X             Y             Z
Electronic contribution:     -0.46562       2.10213       0.43933
Nuclear contribution   :      0.80711      -2.61178      -0.76689
                        -----------------------------------------
Total Dipole Moment    :      0.34148      -0.50964      -0.32757
                        -----------------------------------------
Magnitude (a.u.)       :      0.69545
Magnitude (Debye)      :      1.76769

                             ****ORCA TERMINATED NORMALLY****
TOTAL RUN TIME: 0 days 0 hours 0 minutes 8 seconds 488 msec
