                         Program Version 3.0.3 - RELEASE   -
|  1> ! RI PBE def2-SVP def2-SVP/J NBO PAL2
|  2> % maxcore 2000
|  3> % output
|  4>     # printlevel mini
|  5>     print[ P_Basis ] 0
|  6>     print[ P_SCFInfo ] 1
|  7>     print[ P_SCFIterInfo ] 1
|  8>     print[ P_OrbEn ] 0
|  9>     print[ P_Cartesian ] 0
| 10> end
| 11> *xyz 0 1
| 12>  C        1.0761780000     0.1764030000    -0.1443500000
| 13>  C        2.5853650000     0.2733590000    -0.0872850000
| 14>  N        3.1260520000    -0.8498650000     0.6300530000
| 15>  N        4.4288400000    -0.9587210000     0.7948490000
| 16>  C        4.9090940000    -1.9623820000     1.4348270000
| 17>  C        6.3296510000    -2.0956440000     1.6233060000
| 18>  C        6.9130270000    -3.1046770000     2.2743050000
| 19>  H        0.6634000000     1.0271120000    -0.6878440000
| 20>  H        0.6413690000     0.1771230000     0.8587840000
| 21>  H        0.7572820000    -0.7350590000    -0.6570710000
| 22>  H        2.8845670000     1.2064620000     0.4048060000
| 23>  H        2.9998150000     0.2996220000    -1.1021310000
| 24>  H        2.5025350000    -1.5535960000     1.0051660000
| 25>  H        4.2527730000    -2.7375500000     1.8506420000
| 26>  H        6.9304670000    -1.3001090000     1.1909890000
| 27>  H        6.3301980000    -3.9084630000     2.7129520000
| 28>  H        7.9881970000    -3.1575250000     2.3881130000
| 29> *
| 30>
| 31>                          ****END OF INPUT****
 Total Charge           Charge          ....    0
 Multiplicity           Mult            ....    1
 Number of Electrons    NEL             ....   54
 Basis Dimension        Dim             ....  148

MULLIKEN ATOMIC CHARGES
-----------------------
   0 C :   -0.081543
   1 C :    0.143025
   2 N :   -0.148288
   3 N :   -0.045377
   4 C :   -0.046341
   5 C :    0.016445
   6 C :   -0.054970
   7 H :    0.037969
   8 H :    0.031373
   9 H :    0.032978
  10 H :    0.016958
  11 H :    0.019240
  12 H :    0.092341
  13 H :   -0.042497
  14 H :   -0.003596
  15 H :    0.009664
  16 H :    0.022619
Sum of atomic charges:    0.0000000

LOEWDIN ATOMIC CHARGES
----------------------
   0 C :   -0.074101
   1 C :    0.019037
   2 N :    0.027721
   3 N :   -0.026909
   4 C :   -0.068543
   5 C :   -0.041931
   6 C :   -0.079781
   7 H :    0.038853
   8 H :    0.027588
   9 H :    0.027966
  10 H :    0.020764
  11 H :    0.021048
  12 H :    0.043099
  13 H :   -0.007894
  14 H :    0.031749
  15 H :    0.018122
  16 H :    0.023213

  Mayer bond orders larger than 0.1
B(  0-C ,  1-C ) :   1.1097 B(  0-C ,  7-H ) :   0.9615 B(  0-C ,  8-H ) :   0.9650
B(  0-C ,  9-H ) :   0.9655 B(  1-C ,  2-N ) :   0.9983 B(  1-C , 10-H ) :   0.9348
B(  1-C , 11-H ) :   0.9349 B(  2-N ,  3-N ) :   1.1317 B(  2-N ,  4-C ) :   0.1331
B(  2-N , 12-H ) :   0.9222 B(  3-N ,  4-C ) :   1.7033 B(  3-N ,  6-C ) :   0.1022
B(  4-C ,  5-C ) :   1.1614 B(  4-C , 13-H ) :   0.9323 B(  5-C ,  6-C ) :   1.8490
B(  5-C , 14-H ) :   0.9576 B(  6-C , 15-H ) :   0.9489 B(  6-C , 16-H ) :   0.9448

FINAL SINGLE POINT ENERGY      -305.374739827728

DIPOLE MOMENT
-------------
                                X             Y             Z
Electronic contribution:      3.82849      -1.06413       0.93280
Nuclear contribution   :     -4.89853       1.13937      -1.06152
                        -----------------------------------------
Total Dipole Moment    :     -1.07004       0.07523      -0.12873
                        -----------------------------------------
Magnitude (a.u.)       :      1.08038
Magnitude (Debye)      :      2.74610

                             ****ORCA TERMINATED NORMALLY****
TOTAL RUN TIME: 0 days 0 hours 0 minutes 7 seconds 717 msec
