                         Program Version 3.0.3 - RELEASE   -
|  1> ! RI PBE def2-SVP def2-SVP/J NBO PAL2
|  2> % maxcore 2000
|  3> % output
|  4>     # printlevel mini
|  5>     print[ P_Basis ] 0
|  6>     print[ P_SCFInfo ] 1
|  7>     print[ P_SCFIterInfo ] 1
|  8>     print[ P_OrbEn ] 0
|  9>     print[ P_Cartesian ] 0
| 10> end
| 11> *xyz 0 1
| 12>  C        1.3362130000     0.7740140000    -0.7573110000
| 13>  C        2.2971560000     0.4314360000     0.3606370000
| 14>  N        3.0304000000    -0.7748660000     0.0471590000
| 15>  N        4.0937560000    -1.0412600000     0.7966420000
| 16>  C        4.5366970000    -2.2441410000     0.8357090000
| 17>  C        5.7035820000    -2.5746020000     1.5628130000
| 18>  C        6.6862990000    -2.9264730000     2.1624780000
| 19>  H        0.7855510000     1.6849680000    -0.5168580000
| 20>  H        0.6008220000    -0.0216330000    -0.9092890000
| 21>  H        1.8692770000     0.9284250000    -1.6974650000
| 22>  H        1.7534320000     0.3318480000     1.3112170000
| 23>  H        3.0362190000     1.2230320000     0.4964660000
| 24>  H        2.4650380000    -1.5694910000    -0.2425350000
| 25>  H        4.0334760000    -3.0574660000     0.3005690000
| 26>  H        7.5577830000    -3.2177910000     2.6988860000
| 27> *
| 28>
| 29>                          ****END OF INPUT****
 Total Charge           Charge          ....    0
 Multiplicity           Mult            ....    1
 Number of Electrons    NEL             ....   52
 Basis Dimension        Dim             ....  138

MULLIKEN ATOMIC CHARGES
-----------------------
   0 C :   -0.050429
   1 C :    0.106436
   2 N :   -0.133907
   3 N :   -0.044874
   4 C :   -0.107929
   5 C :    0.407569
   6 C :   -0.411859
   7 H :    0.032602
   8 H :    0.024247
   9 H :    0.035337
  10 H :    0.016422
  11 H :    0.030149
  12 H :    0.091370
  13 H :    0.001038
  14 H :    0.003828
Sum of atomic charges:   -0.0000000

LOEWDIN ATOMIC CHARGES
----------------------
   0 C :   -0.073334
   1 C :    0.013555
   2 N :    0.026945
   3 N :   -0.009445
   4 C :   -0.081514
   5 C :   -0.028573
   6 C :   -0.071853
   7 H :    0.036215
   8 H :    0.025524
   9 H :    0.030951
  10 H :    0.013980
  11 H :    0.032372
  12 H :    0.044373
  13 H :    0.006474
  14 H :    0.034330

  Mayer bond orders larger than 0.1
B(  0-C ,  1-C ) :   1.1157 B(  0-C ,  7-H ) :   0.9591 B(  0-C ,  8-H ) :   0.9643
B(  0-C ,  9-H ) :   0.9655 B(  1-C ,  2-N ) :   0.9896 B(  1-C , 10-H ) :   0.9369
B(  1-C , 11-H ) :   0.9330 B(  2-N ,  3-N ) :   1.1396 B(  2-N ,  4-C ) :   0.1392
B(  2-N , 12-H ) :   0.9113 B(  3-N ,  4-C ) :   1.7359 B(  4-C ,  5-C ) :   1.0557
B(  4-C , 13-H ) :   0.9218 B(  5-C ,  6-C ) :   2.2800 B(  6-C , 14-H ) :   1.0830

FINAL SINGLE POINT ENERGY      -304.125838949021

DIPOLE MOMENT
-------------
                                X             Y             Z
Electronic contribution:      7.10950      -4.92160       3.20358
Nuclear contribution   :     -8.07780       4.94254      -3.59190
                        -----------------------------------------
Total Dipole Moment    :     -0.96830       0.02094      -0.38832
                        -----------------------------------------
Magnitude (a.u.)       :      1.04347
Magnitude (Debye)      :      2.65229

                             ****ORCA TERMINATED NORMALLY****
TOTAL RUN TIME: 0 days 0 hours 0 minutes 7 seconds 5 msec
