                         Program Version 3.0.3 - RELEASE   -
|  1> ! RI PBE def2-SVP def2-SVP/J NBO PAL2
|  2> % maxcore 2000
|  3> % output
|  4>     # printlevel mini
|  5>     print[ P_Basis ] 0
|  6>     print[ P_SCFInfo ] 1
|  7>     print[ P_SCFIterInfo ] 1
|  8>     print[ P_OrbEn ] 0
|  9>     print[ P_Cartesian ] 0
| 10> end
| 11> *xyz 0 1
| 12>  C        0.8956140000     0.0430870000     0.0350530000
| 13>  C        2.3700270000    -0.0238400000    -0.0305050000
| 14>  N        3.0944070000     0.9428860000     0.3768420000
| 15>  N        4.4418590000     0.6678480000     0.2224650000
| 16>  C        5.1700760000     1.6310360000     0.6265380000
| 17>  C        6.5906980000     1.5245600000     0.5442580000
| 18>  N        7.7407990000     1.4965690000     0.5030340000
| 19>  H        0.5088860000    -0.7856230000     0.6365750000
| 20>  H        0.4699700000    -0.0766280000    -0.9663060000
| 21>  H        0.5658260000     0.9891790000     0.4613470000
| 22>  H        2.8476710000    -0.9199280000    -0.4365030000
| 23>  H        4.7485670000     2.5485340000     1.0393810000
| 24> *
| 25>
| 26>                          ****END OF INPUT****
 Total Charge           Charge          ....    0
 Multiplicity           Mult            ....    1
 Number of Electrons    NEL             ....   50
 Basis Dimension        Dim             ....  123

MULLIKEN ATOMIC CHARGES
-----------------------
   0 C :    0.048542
   1 C :   -0.054713
   2 N :   -0.089603
   3 N :   -0.059363
   4 C :   -0.092503
   5 C :   -0.023237
   6 N :    0.052636
   7 H :    0.054889
   8 H :    0.053133
   9 H :    0.042953
  10 H :    0.019210
  11 H :    0.048056
Sum of atomic charges:   -0.0000000

LOEWDIN ATOMIC CHARGES
----------------------
   0 C :   -0.069982
   1 C :    0.043276
   2 N :   -0.060285
   3 N :   -0.006389
   4 C :   -0.021270
   5 C :   -0.042432
   6 N :   -0.025084
   7 H :    0.052712
   8 H :    0.052481
   9 H :    0.041529
  10 H :    0.008532
  11 H :    0.026912

  Mayer bond orders larger than 0.1
B(  0-C ,  1-C ) :   1.0767 B(  0-C ,  7-H ) :   0.9368 B(  0-C ,  8-H ) :   0.9365
B(  0-C ,  9-H ) :   0.9512 B(  1-C ,  2-N ) :   1.8330 B(  1-C ,  4-C ) :   0.1053
B(  1-C , 10-H ) :   0.9346 B(  2-N ,  3-N ) :   1.0076 B(  3-N ,  4-C ) :   1.8510
B(  4-C ,  5-C ) :   1.0390 B(  4-C , 11-H ) :   0.9536 B(  5-C ,  6-N ) :   2.9750

FINAL SINGLE POINT ENERGY      -318.987948620127

DIPOLE MOMENT
-------------
                                X             Y             Z
Electronic contribution:      9.47836       2.23471       0.74775
Nuclear contribution   :    -11.32109      -2.46525      -0.80450
                        -----------------------------------------
Total Dipole Moment    :     -1.84273      -0.23054      -0.05675
                        -----------------------------------------
Magnitude (a.u.)       :      1.85796
Magnitude (Debye)      :      4.72256

                             ****ORCA TERMINATED NORMALLY****
TOTAL RUN TIME: 0 days 0 hours 0 minutes 5 seconds 972 msec
