                         Program Version 3.0.3 - RELEASE   -
|  1> ! RI PBE def2-SVP def2-SVP/J NBO PAL2
|  2> % maxcore 2000
|  3> % output
|  4>     # printlevel mini
|  5>     print[ P_Basis ] 0
|  6>     print[ P_SCFInfo ] 1
|  7>     print[ P_SCFIterInfo ] 1
|  8>     print[ P_OrbEn ] 0
|  9>     print[ P_Cartesian ] 0
| 10> end
| 11> *xyz 0 1
| 12>  C        0.2757090000    -0.5119250000     0.9587670000
| 13>  C        1.2566850000     0.1533940000     0.0639590000
| 14>  N        2.4359940000    -0.2942470000    -0.0668330000
| 15>  N        3.2661800000     0.3126420000    -0.9601840000
| 16>  C        4.6572510000     0.1317990000    -0.6122600000
| 17>  C        5.5194460000     0.6460810000    -1.6698340000
| 18>  N        6.2043110000     1.0745460000    -2.4864800000
| 19>  H       -0.0984690000     0.1844320000     1.7154750000
| 20>  H        0.7378300000    -1.3641330000     1.4562900000
| 21>  H       -0.5930770000    -0.8613730000     0.3918310000
| 22>  H        0.9258130000     1.0384550000    -0.4959070000
| 23>  H        3.0295880000     1.2789230000    -1.1733210000
| 24>  H        4.8392760000    -0.9388030000    -0.4919920000
| 25>  H        4.9457730000     0.6188190000     0.3311800000
| 26> *
| 27>
| 28>                          ****END OF INPUT****
 Total Charge           Charge          ....    0
 Multiplicity           Mult            ....    1
 Number of Electrons    NEL             ....   52
 Basis Dimension        Dim             ....  133

MULLIKEN ATOMIC CHARGES
-----------------------
   0 C :    0.040673
   1 C :   -0.117322
   2 N :   -0.065239
   3 N :   -0.163655
   4 C :    0.248161
   5 C :   -0.294845
   6 N :    0.056388
   7 H :    0.037138
   8 H :    0.032018
   9 H :    0.038964
  10 H :   -0.009760
  11 H :    0.103090
  12 H :    0.052614
  13 H :    0.041773
Sum of atomic charges:   -0.0000000

LOEWDIN ATOMIC CHARGES
----------------------
   0 C :   -0.071878
   1 C :   -0.040259
   2 N :   -0.044508
   3 N :   -0.001530
   4 C :    0.000313
   5 C :   -0.050765
   6 N :   -0.050820
   7 H :    0.038741
   8 H :    0.037977
   9 H :    0.040297
  10 H :   -0.004851
  11 H :    0.049273
  12 H :    0.059956
  13 H :    0.038053

  Mayer bond orders larger than 0.1
B(  0-C ,  1-C ) :   1.0840 B(  0-C ,  7-H ) :   0.9469 B(  0-C ,  8-H ) :   0.9572
B(  0-C ,  9-H ) :   0.9446 B(  1-C ,  2-N ) :   1.8754 B(  1-C ,  3-N ) :   0.1211
B(  1-C , 10-H ) :   0.9302 B(  2-N ,  3-N ) :   1.0616 B(  3-N ,  4-C ) :   1.0136
B(  3-N , 11-H ) :   0.9157 B(  4-C ,  5-C ) :   1.0841 B(  4-C , 12-H ) :   0.8772
B(  4-C , 13-H ) :   0.8988 B(  5-C ,  6-N ) :   3.0614

FINAL SINGLE POINT ENERGY      -320.195124409270

DIPOLE MOMENT
-------------
                                X             Y             Z
Electronic contribution:      7.73285       1.53143      -4.86550
Nuclear contribution   :     -8.78133      -1.41119       5.85012
                        -----------------------------------------
Total Dipole Moment    :     -1.04848       0.12024       0.98462
                        -----------------------------------------
Magnitude (a.u.)       :      1.44335
Magnitude (Debye)      :      3.66870

                             ****ORCA TERMINATED NORMALLY****
TOTAL RUN TIME: 0 days 0 hours 0 minutes 5 seconds 895 msec
