                         Program Version 3.0.3 - RELEASE   -
|  1> ! RI PBE def2-SVP def2-SVP/J NBO PAL2
|  2> % maxcore 2000
|  3> % output
|  4>     # printlevel mini
|  5>     print[ P_Basis ] 0
|  6>     print[ P_SCFInfo ] 1
|  7>     print[ P_SCFIterInfo ] 1
|  8>     print[ P_OrbEn ] 0
|  9>     print[ P_Cartesian ] 0
| 10> end
| 11> *xyz 0 1
| 12>  C        0.7642610000     0.2551840000    -0.2609380000
| 13>  C        2.2090860000    -0.0093020000     0.0527800000
| 14>  N        3.0387120000    -0.6703790000    -0.6529510000
| 15>  N        2.6420260000     0.5654350000     1.2184430000
| 16>  C        3.9698620000     0.2656190000     1.6895360000
| 17>  C        4.3073730000     1.0974520000     2.8360710000
| 18>  N        4.5620990000     1.7420150000     3.7525250000
| 19>  H        0.4905690000    -0.2011560000    -1.2106630000
| 20>  H        0.5733620000     1.3294820000    -0.3179250000
| 21>  H        0.1170000000    -0.1571840000     0.5182320000
| 22>  H        2.6049770000    -0.9939170000    -1.5103910000
| 23>  H        1.9564020000     0.8354910000     1.9018980000
| 24>  H        4.6815630000     0.4489090000     0.8802030000
| 25>  H        4.0906180000    -0.7898490000     1.9671690000
| 26> *
| 27>
| 28>                          ****END OF INPUT****
 Total Charge           Charge          ....    0
 Multiplicity           Mult            ....    1
 Number of Electrons    NEL             ....   52
 Basis Dimension        Dim             ....  133

MULLIKEN ATOMIC CHARGES
-----------------------
   0 C :    0.056662
   1 C :   -0.157775
   2 N :   -0.148604
   3 N :   -0.175119
   4 C :    0.237394
   5 C :   -0.295414
   6 N :    0.049661
   7 H :    0.020752
   8 H :    0.049372
   9 H :    0.041752
  10 H :    0.083710
  11 H :    0.121132
  12 H :    0.063302
  13 H :    0.053174
Sum of atomic charges:   -0.0000000

LOEWDIN ATOMIC CHARGES
----------------------
   0 C :   -0.077612
   1 C :    0.002923
   2 N :   -0.177201
   3 N :   -0.011149
   4 C :    0.014801
   5 C :   -0.052199
   6 N :   -0.056961
   7 H :    0.037485
   8 H :    0.043678
   9 H :    0.040881
  10 H :    0.047493
  11 H :    0.076339
  12 H :    0.062496
  13 H :    0.049026

  Mayer bond orders larger than 0.1
B(  0-C ,  1-C ) :   1.0503 B(  0-C ,  7-H ) :   0.9444 B(  0-C ,  8-H ) :   0.9474
B(  0-C ,  9-H ) :   0.9433 B(  1-C ,  2-N ) :   1.8895 B(  1-C ,  3-N ) :   1.1752
B(  2-N , 10-H ) :   0.9217 B(  3-N ,  4-C ) :   0.9970 B(  3-N , 11-H ) :   0.9302
B(  4-C ,  5-C ) :   1.0648 B(  4-C , 12-H ) :   0.8880 B(  4-C , 13-H ) :   0.9067
B(  5-C ,  6-N ) :   3.0538

FINAL SINGLE POINT ENERGY      -320.236165930264

DIPOLE MOMENT
-------------
                                X             Y             Z
Electronic contribution:      4.91402       1.98093       4.88579
Nuclear contribution   :     -6.20446      -2.44509      -5.65315
                        -----------------------------------------
Total Dipole Moment    :     -1.29044      -0.46416      -0.76736
                        -----------------------------------------
Magnitude (a.u.)       :      1.57147
Magnitude (Debye)      :      3.99437

                             ****ORCA TERMINATED NORMALLY****
TOTAL RUN TIME: 0 days 0 hours 0 minutes 6 seconds 920 msec
