                         Program Version 3.0.3 - RELEASE   -
|  1> ! RI PBE def2-SVP def2-SVP/J NBO PAL2
|  2> % maxcore 2000
|  3> % output
|  4>     # printlevel mini
|  5>     print[ P_Basis ] 0
|  6>     print[ P_SCFInfo ] 1
|  7>     print[ P_SCFIterInfo ] 1
|  8>     print[ P_OrbEn ] 0
|  9>     print[ P_Cartesian ] 0
| 10> end
| 11> *xyz 0 1
| 12>  C        1.0919260000     0.2041780000     0.1770740000
| 13>  C        2.5514430000     0.2046820000    -0.1414100000
| 14>  N        3.1836830000    -0.7059050000    -0.7773390000
| 15>  N        2.4657220000    -1.7212100000    -1.2804800000
| 16>  C        2.6853470000    -2.8939650000    -0.8591800000
| 17>  C        3.3370150000     1.3200020000     0.3066480000
| 18>  N        3.9075580000     2.2374010000     0.7040280000
| 19>  H        0.5527510000    -0.3190550000    -0.6149720000
| 20>  H        0.7170880000     1.2214440000     0.2838010000
| 21>  H        0.9039080000    -0.3248310000     1.1158610000
| 22>  H        2.1426550000    -3.7065010000    -1.3297840000
| 23>  H        3.3896030000    -3.1126410000    -0.0552360000
| 24> *
| 25>
| 26>                          ****END OF INPUT****
 Total Charge           Charge          ....    0
 Multiplicity           Mult            ....    1
 Number of Electrons    NEL             ....   50
 Basis Dimension        Dim             ....  123

MULLIKEN ATOMIC CHARGES
-----------------------
   0 C :    0.088435
   1 C :   -0.274880
   2 N :   -0.021615
   3 N :   -0.072253
   4 C :    0.010730
   5 C :   -0.063516
   6 N :    0.065427
   7 H :    0.055707
   8 H :    0.049820
   9 H :    0.059440
  10 H :    0.059346
  11 H :    0.043359
Sum of atomic charges:    0.0000000

LOEWDIN ATOMIC CHARGES
----------------------
   0 C :   -0.059461
   1 C :   -0.057682
   2 N :    0.004416
   3 N :   -0.001708
   4 C :    0.005521
   5 C :   -0.038644
   6 N :   -0.038804
   7 H :    0.046752
   8 H :    0.048394
   9 H :    0.054605
  10 H :    0.026749
  11 H :    0.009862

  Mayer bond orders larger than 0.1
B(  0-C ,  1-C ) :   1.0812 B(  0-C ,  7-H ) :   0.9243 B(  0-C ,  8-H ) :   0.9424
B(  0-C ,  9-H ) :   0.9372 B(  1-C ,  2-N ) :   1.8544 B(  1-C ,  5-C ) :   1.0956
B(  2-N ,  3-N ) :   1.0794 B(  2-N ,  4-C ) :   0.1043 B(  3-N ,  4-C ) :   1.9048
B(  4-C , 10-H ) :   0.9538 B(  4-C , 11-H ) :   0.9408 B(  5-C ,  6-N ) :   3.0026

FINAL SINGLE POINT ENERGY      -318.988225343172

DIPOLE MOMENT
-------------
                                X             Y             Z
Electronic contribution:      4.37892       3.38463      -0.59826
Nuclear contribution   :     -5.47447      -4.72115       0.70515
                        -----------------------------------------
Total Dipole Moment    :     -1.09555      -1.33652       0.10689
                        -----------------------------------------
Magnitude (a.u.)       :      1.73146
Magnitude (Debye)      :      4.40101

                             ****ORCA TERMINATED NORMALLY****
TOTAL RUN TIME: 0 days 0 hours 0 minutes 5 seconds 450 msec
