                         Program Version 3.0.3 - RELEASE   -
|  1> ! RI PBE def2-SVP def2-SVP/J NBO PAL2
|  2> % maxcore 2000
|  3> % output
|  4>     # printlevel mini
|  5>     print[ P_Basis ] 0
|  6>     print[ P_SCFInfo ] 1
|  7>     print[ P_SCFIterInfo ] 1
|  8>     print[ P_OrbEn ] 0
|  9>     print[ P_Cartesian ] 0
| 10> end
| 11> *xyz 0 1
| 12>  C        0.9471450000    -0.4253840000     0.1937380000
| 13>  C        2.4046660000    -0.0180490000     0.0231500000
| 14>  N        2.5307080000     1.1607850000    -0.8232200000
| 15>  N        2.2095960000     0.9261380000    -2.1129670000
| 16>  C        2.6527190000     1.7079830000    -3.0071010000
| 17>  C        3.0222980000     0.2866160000     1.3136980000
| 18>  N        3.5136150000     0.5192170000     2.3260650000
| 19>  H        0.5218540000    -0.6151310000    -0.7911240000
| 20>  H        0.3857740000     0.3750580000     0.6762620000
| 21>  H        0.8734930000    -1.3310740000     0.7969610000
| 22>  H        2.9654720000    -0.8648830000    -0.4002320000
| 23>  H        3.3871670000     1.6877820000    -0.6739020000
| 24>  H        2.3487160000     1.5288140000    -4.0311300000
| 25>  H        3.3120780000     2.5542280000    -2.7912970000
| 26> *
| 27>
| 28>                          ****END OF INPUT****
 Total Charge           Charge          ....    0
 Multiplicity           Mult            ....    1
 Number of Electrons    NEL             ....   52
 Basis Dimension        Dim             ....  133

MULLIKEN ATOMIC CHARGES
-----------------------
   0 C :    0.028882
   1 C :    0.064144
   2 N :   -0.135262
   3 N :   -0.078742
   4 C :   -0.044617
   5 C :   -0.247723
   6 N :    0.066480
   7 H :    0.049063
   8 H :    0.040969
   9 H :    0.038747
  10 H :    0.043820
  11 H :    0.109869
  12 H :    0.049820
  13 H :    0.014550
Sum of atomic charges:   -0.0000000

LOEWDIN ATOMIC CHARGES
----------------------
   0 C :   -0.045574
   1 C :   -0.010764
   2 N :    0.009404
   3 N :   -0.025049
   4 C :   -0.058405
   5 C :   -0.044664
   6 N :   -0.050070
   7 H :    0.037491
   8 H :    0.036925
   9 H :    0.036988
  10 H :    0.041698
  11 H :    0.052781
  12 H :    0.022842
  13 H :   -0.003600

  Mayer bond orders larger than 0.1
B(  0-C ,  1-C ) :   1.0897 B(  0-C ,  7-H ) :   0.9491 B(  0-C ,  8-H ) :   0.9499
B(  0-C ,  9-H ) :   0.9554 B(  1-C ,  2-N ) :   1.0073 B(  1-C ,  5-C ) :   1.0337
B(  1-C , 10-H ) :   0.8846 B(  2-N ,  3-N ) :   1.1019 B(  2-N ,  4-C ) :   0.1376
B(  2-N , 11-H ) :   0.9122 B(  3-N ,  4-C ) :   1.8923 B(  4-C , 12-H ) :   0.9566
B(  4-C , 13-H ) :   0.9307 B(  5-C ,  6-N ) :   3.0779

FINAL SINGLE POINT ENERGY      -320.189719202104

DIPOLE MOMENT
-------------
                                X             Y             Z
Electronic contribution:      3.06206       0.76467       3.50882
Nuclear contribution   :     -3.14250      -0.82247      -4.49730
                        -----------------------------------------
Total Dipole Moment    :     -0.08045      -0.05780      -0.98848
                        -----------------------------------------
Magnitude (a.u.)       :      0.99343
Magnitude (Debye)      :      2.52510

                             ****ORCA TERMINATED NORMALLY****
TOTAL RUN TIME: 0 days 0 hours 0 minutes 6 seconds 276 msec
