                         Program Version 3.0.3 - RELEASE   -
|  1> ! RI PBE def2-SVP def2-SVP/J NBO PAL2
|  2> % maxcore 2000
|  3> % output
|  4>     # printlevel mini
|  5>     print[ P_Basis ] 0
|  6>     print[ P_SCFInfo ] 1
|  7>     print[ P_SCFIterInfo ] 1
|  8>     print[ P_OrbEn ] 0
|  9>     print[ P_Cartesian ] 0
| 10> end
| 11> *xyz 0 1
| 12>  C        0.5174100000    -0.5790080000    -0.2613360000
| 13>  C        1.9447450000    -0.1568200000    -0.5350540000
| 14>  N        2.4649170000     0.6343790000     0.5577740000
| 15>  N        3.7623890000     0.7131900000     0.7146060000
| 16>  C        4.2571800000     1.6123070000     1.4872690000
| 17>  C        5.6582500000     1.6608880000     1.6994080000
| 18>  N        6.7886990000     1.7527270000     1.9080080000
| 19>  H        0.1330860000    -1.1659200000    -1.0969970000
| 20>  H       -0.1400520000     0.2870800000    -0.1420370000
| 21>  H        0.4537950000    -1.1838720000     0.6451080000
| 22>  H        2.0023360000     0.4000940000    -1.4800950000
| 23>  H        2.6007920000    -1.0232040000    -0.6306050000
| 24>  H        1.8865320000     1.3962050000     0.9010470000
| 25>  H        3.6474100000     2.3536430000     2.0091160000
| 26> *
| 27>
| 28>                          ****END OF INPUT****
 Total Charge           Charge          ....    0
 Multiplicity           Mult            ....    1
 Number of Electrons    NEL             ....   52
 Basis Dimension        Dim             ....  133

MULLIKEN ATOMIC CHARGES
-----------------------
   0 C :   -0.072777
   1 C :    0.114425
   2 N :   -0.119151
   3 N :   -0.025804
   4 C :   -0.163934
   5 C :   -0.061889
   6 N :    0.025236
   7 H :    0.042305
   8 H :    0.029912
   9 H :    0.043104
  10 H :    0.027876
  11 H :    0.037989
  12 H :    0.100155
  13 H :    0.022553
Sum of atomic charges:   -0.0000000

LOEWDIN ATOMIC CHARGES
----------------------
   0 C :   -0.075077
   1 C :    0.017843
   2 N :    0.050881
   3 N :    0.010388
   4 C :   -0.107609
   5 C :   -0.055858
   6 N :   -0.064284
   7 H :    0.039616
   8 H :    0.028031
   9 H :    0.033348
  10 H :    0.020367
  11 H :    0.036509
  12 H :    0.050583
  13 H :    0.015261

  Mayer bond orders larger than 0.1
B(  0-C ,  1-C ) :   1.1159 B(  0-C ,  7-H ) :   0.9593 B(  0-C ,  8-H ) :   0.9634
B(  0-C ,  9-H ) :   0.9674 B(  1-C ,  2-N ) :   0.9797 B(  1-C , 10-H ) :   0.9387
B(  1-C , 11-H ) :   0.9321 B(  2-N ,  3-N ) :   1.1948 B(  2-N ,  4-C ) :   0.1584
B(  2-N , 12-H ) :   0.9117 B(  3-N ,  4-C ) :   1.7519 B(  4-C ,  5-C ) :   1.1454
B(  4-C , 13-H ) :   0.9287 B(  5-C ,  6-N ) :   2.9555

FINAL SINGLE POINT ENERGY      -320.203652364171

DIPOLE MOMENT
-------------
                                X             Y             Z
Electronic contribution:     10.68337       3.99069       4.22373
Nuclear contribution   :    -13.15900      -4.06716      -4.76976
                        -----------------------------------------
Total Dipole Moment    :     -2.47563      -0.07647      -0.54604
                        -----------------------------------------
Magnitude (a.u.)       :      2.53629
Magnitude (Debye)      :      6.44673

                             ****ORCA TERMINATED NORMALLY****
TOTAL RUN TIME: 0 days 0 hours 0 minutes 5 seconds 938 msec
