                         Program Version 3.0.3 - RELEASE   -
|  1> ! RI PBE def2-SVP def2-SVP/J NBO PAL2
|  2> % maxcore 2000
|  3> % output
|  4>     # printlevel mini
|  5>     print[ P_Basis ] 0
|  6>     print[ P_SCFInfo ] 1
|  7>     print[ P_SCFIterInfo ] 1
|  8>     print[ P_OrbEn ] 0
|  9>     print[ P_Cartesian ] 0
| 10> end
| 11> *xyz 0 1
| 12>  C        1.0494730000     0.0113420000    -0.2907140000
| 13>  N        2.4017630000     0.4493970000    -0.0529220000
| 14>  C        3.5429100000    -0.3535280000    -0.5763960000
| 15>  C        4.3635920000     0.9553360000    -0.4186930000
| 16>  C        2.9998040000     1.5077560000    -0.9150580000
| 17>  C        2.9659310000     0.9034380000    -2.3282470000
| 18>  C        3.3329290000    -0.3545730000    -2.0993550000
| 19>  H        0.8475600000    -0.8680340000     0.3258250000
| 20>  H        0.8383160000    -0.2408720000    -1.3402290000
| 21>  H        0.3605240000     0.7993510000     0.0232220000
| 22>  H        3.7942980000    -1.2838560000    -0.0677480000
| 23>  H        5.2241020000     1.0875520000    -1.0721390000
| 24>  H        4.5738600000     1.2059440000     0.6214360000
| 25>  H        2.6791100000     2.5380440000    -0.7631220000
| 26>  H        2.7206170000     1.4010660000    -3.2555370000
| 27>  H        3.4726120000    -1.1767550000    -2.7865140000
| 28> *
| 29>
| 30>                          ****END OF INPUT****
 Total Charge           Charge          ....    0
 Multiplicity           Mult            ....    1
 Number of Electrons    NEL             ....   52
 Basis Dimension        Dim             ....  143

MULLIKEN ATOMIC CHARGES
-----------------------
   0 C :    0.099759
   1 N :   -0.301231
   2 C :    0.018895
   3 C :    0.123216
   4 C :    0.015357
   5 C :    0.020432
   6 C :    0.011433
   7 H :    0.018006
   8 H :    0.000057
   9 H :    0.019392
  10 H :   -0.015967
  11 H :    0.016865
  12 H :    0.017784
  13 H :   -0.013808
  14 H :   -0.016061
  15 H :   -0.014129
Sum of atomic charges:   -0.0000000

LOEWDIN ATOMIC CHARGES
----------------------
   0 C :   -0.015223
   1 N :   -0.108116
   2 C :    0.031563
   3 C :   -0.005061
   4 C :    0.031428
   5 C :   -0.033630
   6 C :   -0.035431
   7 H :    0.023732
   8 H :   -0.002542
   9 H :    0.023844
  10 H :    0.007018
  11 H :    0.014235
  12 H :    0.021641
  13 H :    0.007504
  14 H :    0.019335
  15 H :    0.019702

  Mayer bond orders larger than 0.1
B(  0-C ,  1-N ) :   1.0358 B(  0-C ,  7-H ) :   0.9682 B(  0-C ,  8-H ) :   0.9285
B(  0-C ,  9-H ) :   0.9681 B(  1-N ,  2-C ) :   0.9385 B(  1-N ,  4-C ) :   0.9354
B(  2-C ,  3-C ) :   0.9922 B(  2-C ,  6-C ) :   0.8958 B(  2-C , 10-H ) :   0.9747
B(  3-C ,  4-C ) :   0.9916 B(  3-C , 11-H ) :   0.9441 B(  3-C , 12-H ) :   0.9242
B(  4-C ,  5-C ) :   0.8952 B(  4-C , 13-H ) :   0.9758 B(  5-C ,  6-C ) :   1.7578
B(  5-C , 14-H ) :   1.0227 B(  6-C , 15-H ) :   1.0225

FINAL SINGLE POINT ENERGY      -288.115501401311

DIPOLE MOMENT
-------------
                                X             Y             Z
Electronic contribution:      1.67239       0.42625      -0.36322
Nuclear contribution   :     -1.64310      -0.46565       0.07901
                        -----------------------------------------
Total Dipole Moment    :      0.02929      -0.03940      -0.28421
                        -----------------------------------------
Magnitude (a.u.)       :      0.28842
Magnitude (Debye)      :      0.73310

                             ****ORCA TERMINATED NORMALLY****
TOTAL RUN TIME: 0 days 0 hours 0 minutes 6 seconds 949 msec
