                         Program Version 3.0.3 - RELEASE   -
|  1> ! RI PBE def2-SVP def2-SVP/J NBO PAL2
|  2> % maxcore 2000
|  3> % output
|  4>     # printlevel mini
|  5>     print[ P_Basis ] 0
|  6>     print[ P_SCFInfo ] 1
|  7>     print[ P_SCFIterInfo ] 1
|  8>     print[ P_OrbEn ] 0
|  9>     print[ P_Cartesian ] 0
| 10> end
| 11> *xyz 0 1
| 12>  C        1.2477250000    -0.0471190000     0.0921780000
| 13>  N        2.6836250000    -0.0497560000    -0.0678040000
| 14>  C        3.2297140000     0.9688130000    -1.0249970000
| 15>  C        2.9034170000     0.0252850000    -2.1977690000
| 16>  C        3.2179560000    -1.0035740000    -1.0957040000
| 17>  C        4.7183270000    -0.8104480000    -0.8758150000
| 18>  C        4.7275790000     0.7425430000    -0.8201510000
| 19>  H        0.9613170000     0.8132950000     0.7024110000
| 20>  H        0.9509170000    -0.9468380000     0.6372750000
| 21>  H        0.6582850000    -0.0091910000    -0.8376710000
| 22>  H        2.8452220000     1.9869630000    -0.9557760000
| 23>  H        3.5347350000     0.0535100000    -3.0898000000
| 24>  H        1.8538510000     0.0418120000    -2.4848040000
| 25>  H        2.8212000000    -2.0193670000    -1.0993660000
| 26>  H        5.3166270000    -1.2170250000    -1.6935880000
| 27>  H        5.0450810000    -1.2629950000     0.0605360000
| 28>  H        5.3309960000     1.1994950000    -1.6069870000
| 29>  H        5.0593250000     1.1229860000     0.1460430000
| 30> *
| 31>
| 32>                          ****END OF INPUT****
 Total Charge           Charge          ....    0
 Multiplicity           Mult            ....    1
 Number of Electrons    NEL             ....   54
 Basis Dimension        Dim             ....  153

MULLIKEN ATOMIC CHARGES
-----------------------
   0 C :    0.098606
   1 N :   -0.322364
   2 C :   -0.089997
   3 C :    0.044670
   4 C :   -0.092869
   5 C :    0.146213
   6 C :    0.146582
   7 H :    0.022136
   8 H :    0.021643
   9 H :   -0.014331
  10 H :   -0.009649
  11 H :    0.012781
  12 H :    0.023199
  13 H :   -0.009150
  14 H :    0.003520
  15 H :    0.008387
  16 H :    0.003962
  17 H :    0.006661
Sum of atomic charges:   -0.0000000

LOEWDIN ATOMIC CHARGES
----------------------
   0 C :   -0.007702
   1 N :   -0.128467
   2 C :    0.034810
   3 C :   -0.041794
   4 C :    0.034393
   5 C :   -0.033687
   6 C :   -0.033548
   7 H :    0.023262
   8 H :    0.023260
   9 H :   -0.004953
  10 H :    0.007069
  11 H :    0.013507
  12 H :    0.019501
  13 H :    0.007128
  14 H :    0.019657
  15 H :    0.024079
  16 H :    0.019775
  17 H :    0.023710

  Mayer bond orders larger than 0.1
B(  0-C ,  1-N ) :   1.0403 B(  0-C ,  7-H ) :   0.9696 B(  0-C ,  8-H ) :   0.9697
B(  0-C ,  9-H ) :   0.9285 B(  1-N ,  2-C ) :   0.9206 B(  1-N ,  4-C ) :   0.9221
B(  2-C ,  3-C ) :   0.9981 B(  2-C ,  6-C ) :   1.0608 B(  2-C , 10-H ) :   0.9675
B(  3-C ,  4-C ) :   0.9994 B(  3-C , 11-H ) :   0.9323 B(  3-C , 12-H ) :   0.9368
B(  4-C ,  5-C ) :   1.0601 B(  4-C , 13-H ) :   0.9670 B(  5-C ,  6-C ) :   1.0933
B(  5-C , 14-H ) :   0.9158 B(  5-C , 15-H ) :   0.9064 B(  6-C , 16-H ) :   0.9156
B(  6-C , 17-H ) :   0.9066

FINAL SINGLE POINT ENERGY      -289.349776414154

DIPOLE MOMENT
-------------
                                X             Y             Z
Electronic contribution:      0.84717      -0.02208       0.48494
Nuclear contribution   :     -0.99591       0.03545      -0.83493
                        -----------------------------------------
Total Dipole Moment    :     -0.14874       0.01337      -0.34999
                        -----------------------------------------
Magnitude (a.u.)       :      0.38052
Magnitude (Debye)      :      0.96720

                             ****ORCA TERMINATED NORMALLY****
TOTAL RUN TIME: 0 days 0 hours 0 minutes 8 seconds 11 msec
