                         Program Version 3.0.3 - RELEASE   -
|  1> ! RI PBE def2-SVP def2-SVP/J NBO PAL2
|  2> % maxcore 2000
|  3> % output
|  4>     # printlevel mini
|  5>     print[ P_Basis ] 0
|  6>     print[ P_SCFInfo ] 1
|  7>     print[ P_SCFIterInfo ] 1
|  8>     print[ P_OrbEn ] 0
|  9>     print[ P_Cartesian ] 0
| 10> end
| 11> *xyz 0 1
| 12>  C        0.6110580000    -0.0945890000    -0.2724610000
| 13>  N        2.0030900000     0.0032520000     0.0883780000
| 14>  C        3.0158430000    -0.9009060000    -0.4062350000
| 15>  C        2.7506340000    -1.7441440000    -1.6325320000
| 16>  C        2.3983780000    -0.7700700000    -2.7741470000
| 17>  C        2.7499150000     0.6465950000    -2.2785120000
| 18>  C        3.0153480000     0.5358530000    -0.7944540000
| 19>  H        0.1328520000    -0.8304350000     0.3786050000
| 20>  H        0.4001630000    -0.3764800000    -1.3114430000
| 21>  H        0.1328240000     0.8694040000    -0.0825570000
| 22>  H        3.6843570000    -1.3002940000     0.3519160000
| 23>  H        1.9604120000    -2.4828700000    -1.4653990000
| 24>  H        3.6585140000    -2.3089600000    -1.8626580000
| 25>  H        1.3393280000    -0.8394680000    -3.0298160000
| 26>  H        2.9465210000    -1.0162820000    -3.6859960000
| 27>  H        1.9592930000     1.3685430000    -2.5060930000
| 28>  H        3.6575650000     1.0191300000    -2.7618530000
| 29>  H        3.6833230000     1.2632220000    -0.3406300000
| 30> *
| 31>
| 32>                          ****END OF INPUT****
 Total Charge           Charge          ....    0
 Multiplicity           Mult            ....    1
 Number of Electrons    NEL             ....   54
 Basis Dimension        Dim             ....  153

MULLIKEN ATOMIC CHARGES
-----------------------
   0 C :    0.111697
   1 N :   -0.258269
   2 C :   -0.072609
   3 C :    0.100878
   4 C :   -0.066874
   5 C :    0.096345
   6 C :   -0.069112
   7 H :    0.023896
   8 H :   -0.014166
   9 H :    0.022885
  10 H :    0.015906
  11 H :    0.018061
  12 H :    0.013788
  13 H :    0.019624
  14 H :    0.010614
  15 H :    0.019587
  16 H :    0.013188
  17 H :    0.014563
Sum of atomic charges:   -0.0000000

LOEWDIN ATOMIC CHARGES
----------------------
   0 C :   -0.004082
   1 N :   -0.102319
   2 C :   -0.002433
   3 C :   -0.047301
   4 C :   -0.043831
   5 C :   -0.047102
   6 C :   -0.002080
   7 H :    0.026721
   8 H :    0.003004
   9 H :    0.026357
  10 H :    0.015255
  11 H :    0.027103
  12 H :    0.031019
  13 H :    0.019035
  14 H :    0.027597
  15 H :    0.026958
  16 H :    0.031010
  17 H :    0.015086

  Mayer bond orders larger than 0.1
B(  0-C ,  1-N ) :   1.0343 B(  0-C ,  7-H ) :   0.9674 B(  0-C ,  8-H ) :   0.9317
B(  0-C ,  9-H ) :   0.9681 B(  1-N ,  2-C ) :   0.9781 B(  1-N ,  6-C ) :   0.9737
B(  2-C ,  3-C ) :   1.0448 B(  2-C ,  6-C ) :   0.9846 B(  2-C , 10-H ) :   0.9468
B(  3-C ,  4-C ) :   1.0936 B(  3-C , 11-H ) :   0.9236 B(  3-C , 12-H ) :   0.9235
B(  4-C ,  5-C ) :   1.0916 B(  4-C , 13-H ) :   0.9237 B(  4-C , 14-H ) :   0.9286
B(  5-C ,  6-C ) :   1.0458 B(  5-C , 15-H ) :   0.9259 B(  5-C , 16-H ) :   0.9233
B(  6-C , 17-H ) :   0.9457

FINAL SINGLE POINT ENERGY      -289.364753078888

DIPOLE MOMENT
-------------
                                X             Y             Z
Electronic contribution:      1.94202       0.75035       2.78250
Nuclear contribution   :     -1.95579      -0.88576      -3.27697
                        -----------------------------------------
Total Dipole Moment    :     -0.01377      -0.13541      -0.49447
                        -----------------------------------------
Magnitude (a.u.)       :      0.51286
Magnitude (Debye)      :      1.30358

                             ****ORCA TERMINATED NORMALLY****
TOTAL RUN TIME: 0 days 0 hours 0 minutes 8 seconds 55 msec
