                         Program Version 3.0.3 - RELEASE   -
|  1> ! RI PBE def2-SVP def2-SVP/J NBO PAL2
|  2> % maxcore 2000
|  3> % output
|  4>     # printlevel mini
|  5>     print[ P_Basis ] 0
|  6>     print[ P_SCFInfo ] 1
|  7>     print[ P_SCFIterInfo ] 1
|  8>     print[ P_OrbEn ] 0
|  9>     print[ P_Cartesian ] 0
| 10> end
| 11> *xyz 0 1
| 12>  C        1.0421200000     0.0201190000    -0.6134870000
| 13>  N        2.2283160000     0.0014730000     0.2055470000
| 14>  C        3.4016890000     0.7546000000    -0.1658670000
| 15>  C        3.5796650000     1.2158960000    -1.6024810000
| 16>  C        3.6366970000    -0.0625630000    -2.3895220000
| 17>  C        3.5923270000    -1.1316370000    -1.5963730000
| 18>  C        3.4266450000    -0.7433980000    -0.1735660000
| 19>  H        0.4860590000     0.9340920000    -0.3910540000
| 20>  H        0.4132820000    -0.8299700000    -0.3391750000
| 21>  H        1.2216470000    -0.0230230000    -1.6956470000
| 22>  H        3.8492270000     1.3396040000     0.6312590000
| 23>  H        4.5031850000     1.7947480000    -1.7091150000
| 24>  H        2.7661680000     1.8709440000    -1.9380980000
| 25>  H        3.6740520000    -0.0874080000    -3.4729520000
| 26>  H        3.6233350000    -2.1610820000    -1.9325900000
| 27>  H        3.8636970000    -1.3437050000     0.6177330000
| 28> *
| 29>
| 30>                          ****END OF INPUT****
 Total Charge           Charge          ....    0
 Multiplicity           Mult            ....    1
 Number of Electrons    NEL             ....   52
 Basis Dimension        Dim             ....  143

MULLIKEN ATOMIC CHARGES
-----------------------
   0 C :    0.098415
   1 N :   -0.260542
   2 C :   -0.056214
   3 C :    0.143349
   4 C :   -0.118060
   5 C :    0.040611
   6 C :    0.013508
   7 H :    0.024292
   8 H :    0.025811
   9 H :    0.005779
  10 H :    0.015660
  11 H :    0.034044
  12 H :    0.031271
  13 H :   -0.002073
  14 H :   -0.011260
  15 H :    0.015409
Sum of atomic charges:   -0.0000000

LOEWDIN ATOMIC CHARGES
----------------------
   0 C :   -0.007972
   1 N :   -0.093659
   2 C :    0.008733
   3 C :   -0.047458
   4 C :   -0.032674
   5 C :   -0.045857
   6 C :    0.003618
   7 H :    0.025892
   8 H :    0.026700
   9 H :    0.004297
  10 H :    0.017390
  11 H :    0.040319
  12 H :    0.037567
  13 H :    0.021826
  14 H :    0.023911
  15 H :    0.017367

  Mayer bond orders larger than 0.1
B(  0-C ,  1-N ) :   1.0337 B(  0-C ,  7-H ) :   0.9675 B(  0-C ,  8-H ) :   0.9682
B(  0-C ,  9-H ) :   0.9263 B(  1-N ,  2-C ) :   0.9760 B(  1-N ,  6-C ) :   0.9469
B(  2-C ,  3-C ) :   1.0322 B(  2-C ,  6-C ) :   0.9649 B(  2-C , 10-H ) :   0.9420
B(  3-C ,  4-C ) :   1.0305 B(  3-C , 11-H ) :   0.9127 B(  3-C , 12-H ) :   0.8984
B(  4-C ,  5-C ) :   1.7820 B(  4-C , 13-H ) :   0.9775 B(  5-C ,  6-C ) :   0.9934
B(  5-C , 14-H ) :   1.0030 B(  6-C , 15-H ) :   0.9538

FINAL SINGLE POINT ENERGY      -288.147523366041

DIPOLE MOMENT
-------------
                                X             Y             Z
Electronic contribution:      2.07818      -1.08777       1.52572
Nuclear contribution   :     -1.97474       1.20970      -1.95909
                        -----------------------------------------
Total Dipole Moment    :      0.10345       0.12194      -0.43336
                        -----------------------------------------
Magnitude (a.u.)       :      0.46192
Magnitude (Debye)      :      1.17412

                             ****ORCA TERMINATED NORMALLY****
TOTAL RUN TIME: 0 days 0 hours 0 minutes 7 seconds 432 msec
