                         Program Version 3.0.3 - RELEASE   -
|  1> ! RI PBE def2-SVP def2-SVP/J NBO PAL2
|  2> % maxcore 2000
|  3> % output
|  4>     # printlevel mini
|  5>     print[ P_Basis ] 0
|  6>     print[ P_SCFInfo ] 1
|  7>     print[ P_SCFIterInfo ] 1
|  8>     print[ P_OrbEn ] 0
|  9>     print[ P_Cartesian ] 0
| 10> end
| 11> *xyz 0 1
| 12>  C        0.6873010000     0.0396050000    -0.1921040000
| 13>  N        2.1116760000     0.0998980000     0.0214510000
| 14>  C        3.0399200000    -0.8289280000    -0.5784270000
| 15>  C        2.6241680000    -1.6236900000    -1.7945930000
| 16>  N        2.2207770000    -0.6617030000    -2.8157870000
| 17>  C        2.6192640000     0.6840220000    -2.4142100000
| 18>  C        3.0368850000     0.6070160000    -0.9639650000
| 19>  H        0.2601600000    -0.6861050000     0.5037800000
| 20>  H        0.3646290000    -0.2335640000    -1.2053670000
| 21>  H        0.2567980000     1.0149000000     0.0462850000
| 22>  H        3.7813200000    -1.2577430000     0.0900330000
| 23>  H        1.8104550000    -2.3274440000    -1.5852110000
| 24>  H        3.4816130000    -2.2229260000    -2.1272700000
| 25>  H        1.2322000000    -0.7135880000    -3.0011850000
| 26>  H        1.8024810000     1.3947210000    -2.5845480000
| 27>  H        3.4745790000     1.0394630000    -3.0033300000
| 28>  H        3.7759660000     1.3158650000    -0.6010520000
| 29> *
| 30>
| 31>                          ****END OF INPUT****
 Total Charge           Charge          ....    0
 Multiplicity           Mult            ....    1
 Number of Electrons    NEL             ....   54
 Basis Dimension        Dim             ....  148

MULLIKEN ATOMIC CHARGES
-----------------------
   0 C :    0.113900
   1 N :   -0.253325
   2 C :   -0.089708
   3 C :    0.193411
   4 N :   -0.268886
   5 C :    0.188910
   6 C :   -0.089281
   7 H :    0.027251
   8 H :   -0.028649
   9 H :    0.025719
  10 H :    0.019729
  11 H :    0.010234
  12 H :    0.010322
  13 H :    0.096621
  14 H :    0.012309
  15 H :    0.011690
  16 H :    0.019754
Sum of atomic charges:   -0.0000000

LOEWDIN ATOMIC CHARGES
----------------------
   0 C :   -0.003372
   1 N :   -0.097968
   2 C :   -0.009778
   3 C :    0.009329
   4 N :   -0.097093
   5 C :    0.009016
   6 C :   -0.010399
   7 H :    0.027790
   8 H :   -0.006784
   9 H :    0.027386
  10 H :    0.017472
  11 H :    0.018818
  12 H :    0.018373
  13 H :    0.041867
  14 H :    0.018931
  15 H :    0.018926
  16 H :    0.017487

  Mayer bond orders larger than 0.1
B(  0-C ,  1-N ) :   1.0324 B(  0-C ,  7-H ) :   0.9689 B(  0-C ,  8-H ) :   0.9220
B(  0-C ,  9-H ) :   0.9691 B(  1-N ,  2-C ) :   0.9706 B(  1-N ,  6-C ) :   0.9674
B(  2-C ,  3-C ) :   1.0175 B(  2-C ,  6-C ) :   0.9957 B(  2-C , 10-H ) :   0.9422
B(  3-C ,  4-N ) :   1.0663 B(  3-C , 11-H ) :   0.9247 B(  3-C , 12-H ) :   0.9208
B(  4-N ,  5-C ) :   1.0642 B(  4-N , 13-H ) :   0.9529 B(  5-C ,  6-C ) :   1.0177
B(  5-C , 14-H ) :   0.9265 B(  5-C , 15-H ) :   0.9196 B(  6-C , 16-H ) :   0.9409

FINAL SINGLE POINT ENERGY      -305.375053617433

DIPOLE MOMENT
-------------
                                X             Y             Z
Electronic contribution:      2.18893       0.18421       0.67915
Nuclear contribution   :     -2.54918      -0.21315      -0.77427
                        -----------------------------------------
Total Dipole Moment    :     -0.36025      -0.02893      -0.09513
                        -----------------------------------------
Magnitude (a.u.)       :      0.37372
Magnitude (Debye)      :      0.94991

                             ****ORCA TERMINATED NORMALLY****
TOTAL RUN TIME: 0 days 0 hours 0 minutes 7 seconds 598 msec
