                         Program Version 3.0.3 - RELEASE   -
|  1> ! RI PBE def2-SVP def2-SVP/J NBO PAL2
|  2> % maxcore 2000
|  3> % output
|  4>     # printlevel mini
|  5>     print[ P_Basis ] 0
|  6>     print[ P_SCFInfo ] 1
|  7>     print[ P_SCFIterInfo ] 1
|  8>     print[ P_OrbEn ] 0
|  9>     print[ P_Cartesian ] 0
| 10> end
| 11> *xyz 0 1
| 12>  C        0.9675760000     0.3103120000    -0.3908680000
| 13>  N        2.3945700000     0.3356240000    -0.1664750000
| 14>  C        3.1463480000    -0.7741950000    -0.7165190000
| 15>  C        3.2247060000     0.5754170000    -1.3256810000
| 16>  C        4.4089880000     1.4670560000    -1.1708910000
| 17>  C        4.2445670000     2.8300910000    -0.5686460000
| 18>  C        4.9669650000     1.7557360000     0.1856970000
| 19>  H        0.4861470000    -0.2769180000     0.3948100000
| 20>  H        0.6919460000    -0.1245970000    -1.3648390000
| 21>  H        0.5726230000     1.3279520000    -0.3456760000
| 22>  H        2.5934350000    -1.5403110000    -1.2555340000
| 23>  H        3.9677410000    -1.1358970000    -0.1063870000
| 24>  H        2.6923480000     0.6884300000    -2.2710520000
| 25>  H        5.1272320000     1.3838400000    -1.9809040000
| 26>  H        3.2553690000     3.0948180000    -0.2147350000
| 27>  H        4.8168160000     3.6508780000    -0.9828970000
| 28>  H        4.4453660000     1.3189360000     1.0283980000
| 29>  H        6.0420670000     1.8324290000     0.2895100000
| 30> *
| 31>
| 32>                          ****END OF INPUT****
 Total Charge           Charge          ....    0
 Multiplicity           Mult            ....    1
 Number of Electrons    NEL             ....   54
 Basis Dimension        Dim             ....  153

MULLIKEN ATOMIC CHARGES
-----------------------
   0 C :    0.099722
   1 N :   -0.300241
   2 C :    0.081731
   3 C :    0.006692
   4 C :   -0.061491
   5 C :   -0.038084
   6 C :   -0.035126
   7 H :    0.027518
   8 H :   -0.008800
   9 H :    0.023902
  10 H :    0.018619
  11 H :    0.026204
  12 H :    0.007628
  13 H :    0.019183
  14 H :    0.032255
  15 H :    0.028855
  16 H :    0.042461
  17 H :    0.028973
Sum of atomic charges:    0.0000000

LOEWDIN ATOMIC CHARGES
----------------------
   0 C :    0.002337
   1 N :   -0.107427
   2 C :    0.008161
   3 C :    0.005863
   4 C :   -0.050560
   5 C :   -0.041226
   6 C :   -0.044635
   7 H :    0.024592
   8 H :    0.001389
   9 H :    0.023659
  10 H :    0.011997
  11 H :    0.019737
  12 H :    0.013382
  13 H :    0.029062
  14 H :    0.026571
  15 H :    0.024269
  16 H :    0.027741
  17 H :    0.025088

  Mayer bond orders larger than 0.1
B(  0-C ,  1-N ) :   1.0257 B(  0-C ,  7-H ) :   0.9702 B(  0-C ,  8-H ) :   0.9360
B(  0-C ,  9-H ) :   0.9707 B(  1-N ,  2-C ) :   0.9693 B(  1-N ,  3-C ) :   0.9272
B(  2-C ,  3-C ) :   1.0440 B(  2-C , 10-H ) :   0.9356 B(  2-C , 11-H ) :   0.9355
B(  3-C ,  4-C ) :   1.0569 B(  3-C , 12-H ) :   0.9307 B(  4-C ,  5-C ) :   0.9894
B(  4-C ,  6-C ) :   1.0052 B(  4-C , 13-H ) :   0.9425 B(  5-C ,  6-C ) :   1.0457
B(  5-C , 14-H ) :   0.9492 B(  5-C , 15-H ) :   0.9475 B(  6-C , 16-H ) :   0.9331
B(  6-C , 17-H ) :   0.9403

FINAL SINGLE POINT ENERGY      -289.336238923471

DIPOLE MOMENT
-------------
                                X             Y             Z
Electronic contribution:      1.31020      -0.29326      -0.04582
Nuclear contribution   :     -1.47388       0.12684      -0.32302
                        -----------------------------------------
Total Dipole Moment    :     -0.16367      -0.16642      -0.36883
                        -----------------------------------------
Magnitude (a.u.)       :      0.43649
Magnitude (Debye)      :      1.10947

                             ****ORCA TERMINATED NORMALLY****
TOTAL RUN TIME: 0 days 0 hours 0 minutes 7 seconds 729 msec
