                         Program Version 3.0.3 - RELEASE   -
|  1> ! RI PBE def2-SVP def2-SVP/J NBO PAL2
|  2> % maxcore 2000
|  3> % output
|  4>     # printlevel mini
|  5>     print[ P_Basis ] 0
|  6>     print[ P_SCFInfo ] 1
|  7>     print[ P_SCFIterInfo ] 1
|  8>     print[ P_OrbEn ] 0
|  9>     print[ P_Cartesian ] 0
| 10> end
| 11> *xyz 0 1
| 12>  C        1.0659720000     0.3807130000    -0.1308800000
| 13>  N        2.5051800000     0.3501970000     0.0012950000
| 14>  C        3.1875570000    -0.7622520000    -0.6313510000
| 15>  C        3.2771420000     0.6071330000    -1.1922790000
| 16>  C        4.5010870000     1.4468890000    -1.0365440000
| 17>  C        4.4100550000     2.7472990000    -0.3475380000
| 18>  N        5.0801000000     1.6142870000     0.2860010000
| 19>  H        0.6157220000    -0.2152350000     0.6661470000
| 20>  H        0.7167610000    -0.0135700000    -1.0975200000
| 21>  H        0.7117510000     1.4089770000    -0.0298250000
| 22>  H        2.5782950000    -1.4861180000    -1.1673690000
| 23>  H        4.0261740000    -1.1777380000    -0.0820000000
| 24>  H        2.7132280000     0.7786500000    -2.1091810000
| 25>  H        5.2310030000     1.3305830000    -1.8339680000
| 26>  H        3.4348870000     3.0359790000     0.0334700000
| 27>  H        5.0565700000     3.5679710000    -0.6389630000
| 28>  H        4.4317260000     1.2027440000     0.9556950000
| 29> *
| 30>
| 31>                          ****END OF INPUT****
 Total Charge           Charge          ....    0
 Multiplicity           Mult            ....    1
 Number of Electrons    NEL             ....   54
 Basis Dimension        Dim             ....  148

MULLIKEN ATOMIC CHARGES
-----------------------
   0 C :    0.098731
   1 N :   -0.315314
   2 C :    0.081015
   3 C :   -0.003043
   4 C :   -0.023649
   5 C :    0.039898
   6 N :   -0.196249
   7 H :    0.031621
   8 H :   -0.003544
   9 H :    0.026732
  10 H :    0.024777
  11 H :    0.035718
  12 H :    0.016328
  13 H :    0.023544
  14 H :    0.023460
  15 H :    0.031991
  16 H :    0.107984
Sum of atomic charges:   -0.0000000

LOEWDIN ATOMIC CHARGES
----------------------
   0 C :    0.004243
   1 N :   -0.107960
   2 C :    0.010742
   3 C :   -0.006162
   4 C :   -0.015672
   5 C :    0.004065
   6 N :   -0.100573
   7 H :    0.026441
   8 H :    0.004357
   9 H :    0.024971
  10 H :    0.015030
  11 H :    0.022773
  12 H :    0.017105
  13 H :    0.023421
  14 H :    0.013869
  15 H :    0.018803
  16 H :    0.044547

  Mayer bond orders larger than 0.1
B(  0-C ,  1-N ) :   1.0237 B(  0-C ,  7-H ) :   0.9706 B(  0-C ,  8-H ) :   0.9395
B(  0-C ,  9-H ) :   0.9709 B(  1-N ,  2-C ) :   0.9591 B(  1-N ,  3-C ) :   0.9178
B(  2-C ,  3-C ) :   1.0405 B(  2-C , 10-H ) :   0.9377 B(  2-C , 11-H ) :   0.9378
B(  3-C ,  4-C ) :   1.0172 B(  3-C , 12-H ) :   0.9304 B(  4-C ,  5-C ) :   1.0520
B(  4-C ,  6-N ) :   1.0247 B(  4-C , 13-H ) :   0.9369 B(  5-C ,  6-N ) :   1.0021
B(  5-C , 14-H ) :   0.9388 B(  5-C , 15-H ) :   0.9437 B(  6-N , 16-H ) :   0.9337

FINAL SINGLE POINT ENERGY      -305.348798145785

DIPOLE MOMENT
-------------
                                X             Y             Z
Electronic contribution:      3.28115       0.37232       0.54219
Nuclear contribution   :     -4.18084      -0.60526      -1.01004
                        -----------------------------------------
Total Dipole Moment    :     -0.89970      -0.23294      -0.46784
                        -----------------------------------------
Magnitude (a.u.)       :      1.04048
Magnitude (Debye)      :      2.64468

                             ****ORCA TERMINATED NORMALLY****
TOTAL RUN TIME: 0 days 0 hours 0 minutes 7 seconds 640 msec
