                         Program Version 3.0.3 - RELEASE   -
|  1> ! RI PBE def2-SVP def2-SVP/J NBO PAL2
|  2> % maxcore 2000
|  3> % output
|  4>     # printlevel mini
|  5>     print[ P_Basis ] 0
|  6>     print[ P_SCFInfo ] 1
|  7>     print[ P_SCFIterInfo ] 1
|  8>     print[ P_OrbEn ] 0
|  9>     print[ P_Cartesian ] 0
| 10> end
| 11> *xyz 0 1
| 12>  C        1.1623730000     0.1664490000    -0.1442460000
| 13>  N        2.5875670000    -0.0329940000    -0.0182410000
| 14>  C        3.2060040000    -0.8742240000    -1.0169200000
| 15>  C        3.4098580000     0.6028870000    -1.0171420000
| 16>  C        4.6961960000     1.2302660000    -0.6201410000
| 17>  C        5.5292400000     1.7283610000    -1.7585150000
| 18>  C        5.0690900000     1.3206940000     0.6517410000
| 19>  H        0.6361210000    -0.6491700000     0.3570350000
| 20>  H        0.8231810000     0.2040970000    -1.1921460000
| 21>  H        0.8827700000     1.1036510000     0.3418700000
| 22>  H        2.5705610000    -1.2949080000    -1.7939430000
| 23>  H        4.0050340000    -1.5173320000    -0.6629630000
| 24>  H        2.8782830000     1.1273770000    -1.8139160000
| 25>  H        5.7641450000     0.9174480000    -2.4560990000
| 26>  H        6.4656840000     2.1627330000    -1.4073510000
| 27>  H        4.9919620000     2.4900340000    -2.3337780000
| 28>  H        4.4289760000     0.9437910000     1.4403460000
| 29>  H        6.0185420000     1.7659310000     0.9272290000
| 30> *
| 31>
| 32>                          ****END OF INPUT****
 Total Charge           Charge          ....    0
 Multiplicity           Mult            ....    1
 Number of Electrons    NEL             ....   54
 Basis Dimension        Dim             ....  153

MULLIKEN ATOMIC CHARGES
-----------------------
   0 C :    0.094557
   1 N :   -0.280850
   2 C :    0.086735
   3 C :   -0.024051
   4 C :   -0.109419
   5 C :    0.060843
   6 C :   -0.026966
   7 H :    0.028803
   8 H :   -0.006099
   9 H :    0.029080
  10 H :    0.019721
  11 H :    0.030842
  12 H :    0.005977
  13 H :    0.029605
  14 H :    0.011404
  15 H :    0.028927
  16 H :    0.018420
  17 H :    0.002472
Sum of atomic charges:    0.0000000

LOEWDIN ATOMIC CHARGES
----------------------
   0 C :    0.003022
   1 N :   -0.095693
   2 C :    0.016584
   3 C :    0.000993
   4 C :   -0.042521
   5 C :   -0.055463
   6 C :   -0.069571
   7 H :    0.025307
   8 H :    0.001471
   9 H :    0.026645
  10 H :    0.011531
  11 H :    0.022131
  12 H :    0.013759
  13 H :    0.035604
  14 H :    0.031323
  15 H :    0.034327
  16 H :    0.022305
  17 H :    0.018246

  Mayer bond orders larger than 0.1
B(  0-C ,  1-N ) :   1.0217 B(  0-C ,  7-H ) :   0.9702 B(  0-C ,  8-H ) :   0.9353
B(  0-C ,  9-H ) :   0.9713 B(  1-N ,  2-C ) :   0.9888 B(  1-N ,  3-C ) :   0.9201
B(  2-C ,  3-C ) :   1.0307 B(  2-C , 10-H ) :   0.9347 B(  2-C , 11-H ) :   0.9357
B(  3-C ,  4-C ) :   1.0165 B(  3-C , 12-H ) :   0.9195 B(  4-C ,  5-C ) :   1.0786
B(  4-C ,  6-C ) :   2.0004 B(  5-C , 13-H ) :   0.9444 B(  5-C , 14-H ) :   0.9452
B(  5-C , 15-H ) :   0.9477 B(  6-C , 16-H ) :   0.9159 B(  6-C , 17-H ) :   0.9267

FINAL SINGLE POINT ENERGY      -289.343817742910

DIPOLE MOMENT
-------------
                                X             Y             Z
Electronic contribution:      0.23870      -0.77952       1.59870
Nuclear contribution   :     -0.49037       0.74875      -2.13006
                        -----------------------------------------
Total Dipole Moment    :     -0.25168      -0.03077      -0.53136
                        -----------------------------------------
Magnitude (a.u.)       :      0.58876
Magnitude (Debye)      :      1.49650

                             ****ORCA TERMINATED NORMALLY****
TOTAL RUN TIME: 0 days 0 hours 0 minutes 8 seconds 144 msec
