                         Program Version 3.0.3 - RELEASE   -
|  1> ! RI PBE def2-SVP def2-SVP/J NBO PAL2
|  2> % maxcore 2000
|  3> % output
|  4>     # printlevel mini
|  5>     print[ P_Basis ] 0
|  6>     print[ P_SCFInfo ] 1
|  7>     print[ P_SCFIterInfo ] 1
|  8>     print[ P_OrbEn ] 0
|  9>     print[ P_Cartesian ] 0
| 10> end
| 11> *xyz 0 1
| 12>  C        0.9224990000     0.3151190000    -0.6286910000
| 13>  N        2.2488950000     0.1002990000    -0.0975630000
| 14>  C        2.9749990000    -1.0303420000    -0.6399060000
| 15>  C        3.3520190000     0.3577220000    -0.9966100000
| 16>  C        4.5758450000     1.0310160000    -0.4315570000
| 17>  C        5.8037660000     0.7394060000    -1.2303690000
| 18>  C        6.5639420000     1.6516610000    -1.8195710000
| 19>  H        0.2049370000    -0.2911670000    -0.0706970000
| 20>  H        0.8366640000     0.0560520000    -1.6962300000
| 21>  H        0.6476750000     1.3654920000    -0.5068700000
| 22>  H        2.4831930000    -1.6298110000    -1.4029110000
| 23>  H        3.5744240000    -1.5925670000     0.0699900000
| 24>  H        3.0851950000     0.6655600000    -2.0081180000
| 25>  H        4.7029550000     0.6769490000     0.5978430000
| 26>  H        4.4124820000     2.1124240000    -0.3794670000
| 27>  H        6.0682220000    -0.3122740000    -1.3292640000
| 28>  H        6.3340380000     2.7106760000    -1.7489080000
| 29>  H        7.4449390000     1.3768960000    -2.3881020000
| 30> *
| 31>
| 32>                          ****END OF INPUT****
 Total Charge           Charge          ....    0
 Multiplicity           Mult            ....    1
 Number of Electrons    NEL             ....   54
 Basis Dimension        Dim             ....  153

MULLIKEN ATOMIC CHARGES
-----------------------
   0 C :    0.100863
   1 N :   -0.284075
   2 C :    0.079054
   3 C :   -0.111638
   4 C :    0.188554
   5 C :   -0.089503
   6 C :   -0.035662
   7 H :    0.024552
   8 H :   -0.005486
   9 H :    0.024056
  10 H :    0.018917
  11 H :    0.025760
  12 H :    0.007381
  13 H :    0.005506
  14 H :    0.009969
  15 H :    0.000904
  16 H :    0.018283
  17 H :    0.022565
Sum of atomic charges:   -0.0000000

LOEWDIN ATOMIC CHARGES
----------------------
   0 C :    0.002269
   1 N :   -0.109658
   2 C :    0.003192
   3 C :    0.001572
   4 C :   -0.039857
   5 C :   -0.026960
   6 C :   -0.067292
   7 H :    0.024416
   8 H :    0.001440
   9 H :    0.024270
  10 H :    0.012809
  11 H :    0.018719
  12 H :    0.011858
  13 H :    0.040240
  14 H :    0.033067
  15 H :    0.024486
  16 H :    0.021306
  17 H :    0.024122

  Mayer bond orders larger than 0.1
B(  0-C ,  1-N ) :   1.0226 B(  0-C ,  7-H ) :   0.9693 B(  0-C ,  8-H ) :   0.9369
B(  0-C ,  9-H ) :   0.9714 B(  1-N ,  2-C ) :   0.9826 B(  1-N ,  3-C ) :   0.9224
B(  2-C ,  3-C ) :   1.0464 B(  2-C , 10-H ) :   0.9313 B(  2-C , 11-H ) :   0.9368
B(  3-C ,  4-C ) :   1.0352 B(  3-C , 12-H ) :   0.9306 B(  4-C ,  5-C ) :   1.0547
B(  4-C , 13-H ) :   0.8840 B(  4-C , 14-H ) :   0.9189 B(  5-C ,  6-C ) :   2.0079
B(  5-C , 15-H ) :   0.9568 B(  6-C , 16-H ) :   0.9488 B(  6-C , 17-H ) :   0.9425

FINAL SINGLE POINT ENERGY      -289.337266666898

DIPOLE MOMENT
-------------
                                X             Y             Z
Electronic contribution:      0.98173      -0.32888       1.22280
Nuclear contribution   :     -1.14430       0.20969      -1.54759
                        -----------------------------------------
Total Dipole Moment    :     -0.16257      -0.11919      -0.32479
                        -----------------------------------------
Magnitude (a.u.)       :      0.38226
Magnitude (Debye)      :      0.97163

                             ****ORCA TERMINATED NORMALLY****
TOTAL RUN TIME: 0 days 0 hours 0 minutes 7 seconds 798 msec
