                         Program Version 3.0.3 - RELEASE   -
|  1> ! RI PBE def2-SVP def2-SVP/J NBO PAL2
|  2> % maxcore 2000
|  3> % output
|  4>     # printlevel mini
|  5>     print[ P_Basis ] 0
|  6>     print[ P_SCFInfo ] 1
|  7>     print[ P_SCFIterInfo ] 1
|  8>     print[ P_OrbEn ] 0
|  9>     print[ P_Cartesian ] 0
| 10> end
| 11> *xyz 0 1
| 12>  C        1.0684360000     0.3456450000    -0.2128680000
| 13>  N        2.4953970000     0.3088320000     0.0116300000
| 14>  C        3.2339240000    -0.7172390000    -0.6959120000
| 15>  C        3.3342140000     0.7051720000    -1.0921850000
| 16>  C        4.5548420000     1.5351520000    -0.7754150000
| 17>  C        4.2680580000     2.9604510000    -0.7297680000
| 18>  C        4.0133030000     4.1333360000    -0.7064430000
| 19>  H        0.5751850000    -0.3446240000     0.4752140000
| 20>  H        0.7863370000     0.0693400000    -1.2415010000
| 21>  H        0.6981490000     1.3530710000    -0.0123430000
| 22>  H        2.6796500000    -1.3795940000    -1.3573960000
| 23>  H        4.0394640000    -1.1897610000    -0.1420720000
| 24>  H        2.8245310000     0.9803660000    -2.0147660000
| 25>  H        5.3297720000     1.3475210000    -1.5272600000
| 26>  H        4.9568460000     1.2109810000     0.1891960000
| 27>  H        3.7917940000     5.1737520000    -0.6785030000
| 28> *
| 29>
| 30>                          ****END OF INPUT****
 Total Charge           Charge          ....    0
 Multiplicity           Mult            ....    1
 Number of Electrons    NEL             ....   52
 Basis Dimension        Dim             ....  143

MULLIKEN ATOMIC CHARGES
-----------------------
   0 C :    0.098387
   1 N :   -0.283022
   2 C :    0.087637
   3 C :   -0.106400
   4 C :    0.201599
   5 C :    0.315908
   6 C :   -0.488956
   7 H :    0.027550
   8 H :   -0.008157
   9 H :    0.031437
  10 H :    0.021101
  11 H :    0.025481
  12 H :    0.018914
  13 H :    0.039660
  14 H :    0.022690
  15 H :   -0.003829
Sum of atomic charges:   -0.0000000

LOEWDIN ATOMIC CHARGES
----------------------
   0 C :    0.003768
   1 N :   -0.105602
   2 C :    0.005725
   3 C :    0.007437
   4 C :   -0.043768
   5 C :   -0.018643
   6 C :   -0.090951
   7 H :    0.025143
   8 H :    0.001258
   9 H :    0.027634
  10 H :    0.013857
  11 H :    0.019926
  12 H :    0.015310
  13 H :    0.052113
  14 H :    0.053615
  15 H :    0.033179

  Mayer bond orders larger than 0.1
B(  0-C ,  1-N ) :   1.0227 B(  0-C ,  7-H ) :   0.9703 B(  0-C ,  8-H ) :   0.9375
B(  0-C ,  9-H ) :   0.9716 B(  1-N ,  2-C ) :   0.9741 B(  1-N ,  3-C ) :   0.9501
B(  2-C ,  3-C ) :   1.0440 B(  2-C , 10-H ) :   0.9285 B(  2-C , 11-H ) :   0.9357
B(  3-C ,  4-C ) :   1.0245 B(  3-C , 12-H ) :   0.9286 B(  4-C ,  5-C ) :   1.0703
B(  4-C , 13-H ) :   0.8922 B(  4-C , 14-H ) :   0.8754 B(  5-C ,  6-C ) :   2.3534
B(  5-C , 15-H ) :  -0.1105 B(  6-C , 15-H ) :   1.1019

FINAL SINGLE POINT ENERGY      -288.093660882590

DIPOLE MOMENT
-------------
                                X             Y             Z
Electronic contribution:      2.98709       3.43912       0.50264
Nuclear contribution   :     -3.13137      -3.81366      -0.87582
                        -----------------------------------------
Total Dipole Moment    :     -0.14428      -0.37454      -0.37318
                        -----------------------------------------
Magnitude (a.u.)       :      0.54805
Magnitude (Debye)      :      1.39304

                             ****ORCA TERMINATED NORMALLY****
TOTAL RUN TIME: 0 days 0 hours 0 minutes 7 seconds 170 msec
