                         Program Version 3.0.3 - RELEASE   -
|  1> ! RI PBE def2-SVP def2-SVP/J NBO PAL2
|  2> % maxcore 2000
|  3> % output
|  4>     # printlevel mini
|  5>     print[ P_Basis ] 0
|  6>     print[ P_SCFInfo ] 1
|  7>     print[ P_SCFIterInfo ] 1
|  8>     print[ P_OrbEn ] 0
|  9>     print[ P_Cartesian ] 0
| 10> end
| 11> *xyz 0 1
| 12>  C        0.8578380000     0.2999090000    -0.4616080000
| 13>  N        2.2172090000     0.0544520000    -0.0392060000
| 14>  C        2.8471870000    -1.1284040000    -0.5904210000
| 15>  C        3.2481700000     0.2224670000    -1.0445340000
| 16>  C        4.5342470000     0.8703860000    -0.6243460000
| 17>  C        4.4360450000     2.3848680000    -0.5819890000
| 18>  N        5.7115030000     2.9685350000    -0.1931090000
| 19>  H        0.1703270000    -0.2560450000     0.1805670000
| 20>  H        0.6691890000     0.0032600000    -1.5061660000
| 21>  H        0.6315530000     1.3642680000    -0.3613880000
| 22>  H        2.2647640000    -1.7380990000    -1.2778870000
| 23>  H        3.4871720000    -1.6853150000     0.0870470000
| 24>  H        2.8940160000     0.4979990000    -2.0396640000
| 25>  H        5.3403610000     0.5831290000    -1.3075690000
| 26>  H        4.8042700000     0.4941900000     0.3687240000
| 27>  H        3.5988370000     2.6621500000     0.0769910000
| 28>  H        4.1885740000     2.7565780000    -1.5825970000
| 29>  H        5.9494830000     2.6860250000     0.7506080000
| 30>  H        5.6553670000     3.9792580000    -0.1883530000
| 31> *
| 32>
| 33>                          ****END OF INPUT****
 Total Charge           Charge          ....    0
 Multiplicity           Mult            ....    1
 Number of Electrons    NEL             ....   56
 Basis Dimension        Dim             ....  158

MULLIKEN ATOMIC CHARGES
-----------------------
   0 C :    0.102369
   1 N :   -0.293961
   2 C :    0.091428
   3 C :   -0.102827
   4 C :    0.119755
   5 C :    0.052574
   6 N :   -0.212281
   7 H :    0.023082
   8 H :   -0.008705
   9 H :    0.021449
  10 H :    0.014485
  11 H :    0.022257
  12 H :    0.003946
  13 H :    0.012780
  14 H :   -0.015250
  15 H :   -0.000437
  16 H :   -0.005487
  17 H :    0.086683
  18 H :    0.088140
Sum of atomic charges:   -0.0000000

LOEWDIN ATOMIC CHARGES
----------------------
   0 C :    0.001257
   1 N :   -0.113703
   2 C :    0.005244
   3 C :    0.000284
   4 C :   -0.044351
   5 C :    0.006630
   6 N :   -0.115620
   7 H :    0.023615
   8 H :    0.000304
   9 H :    0.022371
  10 H :    0.011675
  11 H :    0.018891
  12 H :    0.009595
  13 H :    0.029456
  14 H :    0.025044
  15 H :    0.001085
  16 H :    0.016452
  17 H :    0.049463
  18 H :    0.052309

  Mayer bond orders larger than 0.1
B(  0-C ,  1-N ) :   1.0277 B(  0-C ,  7-H ) :   0.9687 B(  0-C ,  8-H ) :   0.9356
B(  0-C ,  9-H ) :   0.9707 B(  1-N ,  2-C ) :   0.9785 B(  1-N ,  3-C ) :   0.9113
B(  2-C ,  3-C ) :   1.0514 B(  2-C , 10-H ) :   0.9277 B(  2-C , 11-H ) :   0.9347
B(  3-C ,  4-C ) :   1.0514 B(  3-C , 12-H ) :   0.9229 B(  4-C ,  5-C ) :   1.0971
B(  4-C , 13-H ) :   0.9188 B(  4-C , 14-H ) :   0.9071 B(  5-C ,  6-N ) :   1.0878
B(  5-C , 15-H ) :   0.9338 B(  5-C , 16-H ) :   0.9291 B(  6-N , 17-H ) :   0.9685
B(  6-N , 18-H ) :   0.9656

FINAL SINGLE POINT ENERGY      -306.574693859589

DIPOLE MOMENT
-------------
                                X             Y             Z
Electronic contribution:      0.93815      -0.88692       0.74494
Nuclear contribution   :     -1.26305       1.03191      -0.78014
                        -----------------------------------------
Total Dipole Moment    :     -0.32490       0.14499      -0.03520
                        -----------------------------------------
Magnitude (a.u.)       :      0.35752
Magnitude (Debye)      :      0.90873

                             ****ORCA TERMINATED NORMALLY****
TOTAL RUN TIME: 0 days 0 hours 0 minutes 8 seconds 184 msec
