                         Program Version 3.0.3 - RELEASE   -
|  1> ! RI PBE def2-SVP def2-SVP/J NBO PAL2
|  2> % maxcore 2000
|  3> % output
|  4>     # printlevel mini
|  5>     print[ P_Basis ] 0
|  6>     print[ P_SCFInfo ] 1
|  7>     print[ P_SCFIterInfo ] 1
|  8>     print[ P_OrbEn ] 0
|  9>     print[ P_Cartesian ] 0
| 10> end
| 11> *xyz 0 1
| 12>  C        1.7221360000     0.6444560000     0.3650310000
| 13>  N        2.7465960000     0.3113850000    -0.5956760000
| 14>  C        2.3252480000    -0.2970410000    -1.8396120000
| 15>  C        2.9004720000     1.0708910000    -1.8348310000
| 16>  C        4.3304900000     1.2759940000    -2.2567290000
| 17>  C        1.9724350000     2.2211520000    -2.1532700000
| 18>  N        2.3979080000     3.4442870000    -1.4900070000
| 19>  H        1.5021270000    -0.2446840000     0.9611220000
| 20>  H        0.7753090000     0.9941800000    -0.0708010000
| 21>  H        2.0963500000     1.4119030000     1.0484240000
| 22>  H        1.2542890000    -0.3850140000    -2.0193230000
| 23>  H        2.9161440000    -1.1396040000    -2.1873520000
| 24>  H        4.9381030000     0.4258860000    -1.9449970000
| 25>  H        4.7344570000     2.1833970000    -1.8045560000
| 26>  H        4.4019040000     1.3805500000    -3.3435850000
| 27>  H        0.9343750000     1.9325510000    -1.9354660000
| 28>  H        2.0198210000     2.3926390000    -3.2338050000
| 29>  H        2.2622580000     3.3734980000    -0.4892440000
| 30>  H        1.8541960000     4.2346760000    -1.8106010000
| 31> *
| 32>
| 33>                          ****END OF INPUT****
 Total Charge           Charge          ....    0
 Multiplicity           Mult            ....    1
 Number of Electrons    NEL             ....   56
 Basis Dimension        Dim             ....  158

MULLIKEN ATOMIC CHARGES
-----------------------
   0 C :    0.095277
   1 N :   -0.286710
   2 C :    0.123003
   3 C :   -0.290607
   4 C :    0.134146
   5 C :    0.171315
   6 N :   -0.200405
   7 H :    0.025126
   8 H :   -0.008947
   9 H :    0.023818
  10 H :    0.007095
  11 H :    0.017632
  12 H :    0.006588
  13 H :    0.018942
  14 H :    0.006752
  15 H :   -0.027240
  16 H :    0.010711
  17 H :    0.083824
  18 H :    0.089681
Sum of atomic charges:    0.0000000

LOEWDIN ATOMIC CHARGES
----------------------
   0 C :   -0.005782
   1 N :   -0.109679
   2 C :    0.010566
   3 C :   -0.030763
   4 C :   -0.053288
   5 C :    0.008070
   6 N :   -0.103658
   7 H :    0.026778
   8 H :   -0.001194
   9 H :    0.020920
  10 H :    0.008413
  11 H :    0.016581
  12 H :    0.028047
  13 H :    0.029026
  14 H :    0.026270
  15 H :   -0.002618
  16 H :    0.028161
  17 H :    0.050006
  18 H :    0.054143

  Mayer bond orders larger than 0.1
B(  0-C ,  1-N ) :   1.0484 B(  0-C ,  7-H ) :   0.9641 B(  0-C ,  8-H ) :   0.9329
B(  0-C ,  9-H ) :   0.9651 B(  1-N ,  2-C ) :   0.9669 B(  1-N ,  3-C ) :   0.9225
B(  2-C ,  3-C ) :   1.0229 B(  2-C , 10-H ) :   0.9228 B(  2-C , 11-H ) :   0.9298
B(  3-C ,  4-C ) :   1.0669 B(  3-C ,  5-C ) :   1.0480 B(  4-C , 12-H ) :   0.9380
B(  4-C , 13-H ) :   0.9447 B(  4-C , 14-H ) :   0.9515 B(  5-C ,  6-N ) :   1.1132
B(  5-C , 15-H ) :   0.8978 B(  5-C , 16-H ) :   0.9178 B(  6-N , 17-H ) :   0.9680
B(  6-N , 18-H ) :   0.9627

FINAL SINGLE POINT ENERGY      -306.575659586672

DIPOLE MOMENT
-------------
                                X             Y             Z
Electronic contribution:      0.69848      -0.82926       0.12194
Nuclear contribution   :     -1.49769       1.11815      -0.17449
                        -----------------------------------------
Total Dipole Moment    :     -0.79921       0.28888      -0.05254
                        -----------------------------------------
Magnitude (a.u.)       :      0.85144
Magnitude (Debye)      :      2.16418

                             ****ORCA TERMINATED NORMALLY****
TOTAL RUN TIME: 0 days 0 hours 0 minutes 8 seconds 497 msec
