                         Program Version 3.0.3 - RELEASE   -
|  1> ! RI PBE def2-SVP def2-SVP/J NBO PAL2
|  2> % maxcore 2000
|  3> % output
|  4>     # printlevel mini
|  5>     print[ P_Basis ] 0
|  6>     print[ P_SCFInfo ] 1
|  7>     print[ P_SCFIterInfo ] 1
|  8>     print[ P_OrbEn ] 0
|  9>     print[ P_Cartesian ] 0
| 10> end
| 11> *xyz 0 1
| 12>  C        1.0662700000     0.3148760000    -0.1515800000
| 13>  N        2.4986230000     0.2637200000     0.0416680000
| 14>  C        3.2211840000    -0.7440500000    -0.7050290000
| 15>  C        3.3175760000     0.6880630000    -1.0642900000
| 16>  C        4.5466530000     1.5002510000    -0.7337560000
| 17>  C        4.2458040000     2.9193330000    -0.6066320000
| 18>  N        3.9903880000     4.0369990000    -0.5231790000
| 19>  H        0.5859790000    -0.3892910000     0.5307440000
| 20>  H        0.7619570000     0.0646010000    -1.1798770000
| 21>  H        0.7072140000     1.3188900000     0.0819460000
| 22>  H        2.6557440000    -1.3838850000    -1.3788090000
| 23>  H        4.0351560000    -1.2341670000    -0.1797570000
| 24>  H        2.8001390000     0.9920710000    -1.9728460000
| 25>  H        5.3077090000     1.3773820000    -1.5106480000
| 26>  H        4.9722040000     1.1466070000     0.2086540000
| 27> *
| 28>
| 29>                          ****END OF INPUT****
 Total Charge           Charge          ....    0
 Multiplicity           Mult            ....    1
 Number of Electrons    NEL             ....   52
 Basis Dimension        Dim             ....  138

MULLIKEN ATOMIC CHARGES
-----------------------
   0 C :    0.093570
   1 N :   -0.281133
   2 C :    0.093301
   3 C :   -0.114037
   4 C :    0.190041
   5 C :   -0.284558
   6 N :    0.049006
   7 H :    0.032798
   8 H :   -0.003105
   9 H :    0.039052
  10 H :    0.027483
  11 H :    0.030017
  12 H :    0.029486
  13 H :    0.058207
  14 H :    0.039872
Sum of atomic charges:   -0.0000000

LOEWDIN ATOMIC CHARGES
----------------------
   0 C :    0.005383
   1 N :   -0.102939
   2 C :    0.010414
   3 C :    0.006116
   4 C :   -0.054089
   5 C :   -0.041861
   6 N :   -0.067335
   7 H :    0.027749
   8 H :    0.003636
   9 H :    0.030789
  10 H :    0.017114
  11 H :    0.022032
  12 H :    0.019015
  13 H :    0.061212
  14 H :    0.062763

  Mayer bond orders larger than 0.1
B(  0-C ,  1-N ) :   1.0176 B(  0-C ,  7-H ) :   0.9704 B(  0-C ,  8-H ) :   0.9398
B(  0-C ,  9-H ) :   0.9717 B(  1-N ,  2-C ) :   0.9752 B(  1-N ,  3-C ) :   0.9543
B(  2-C ,  3-C ) :   1.0505 B(  2-C , 10-H ) :   0.9287 B(  2-C , 11-H ) :   0.9354
B(  3-C ,  4-C ) :   1.0293 B(  3-C , 12-H ) :   0.9277 B(  4-C ,  5-C ) :   1.1172
B(  4-C , 13-H ) :   0.8905 B(  4-C , 14-H ) :   0.8720 B(  5-C ,  6-N ) :   3.0555

FINAL SINGLE POINT ENERGY      -304.173316570512

DIPOLE MOMENT
-------------
                                X             Y             Z
Electronic contribution:      3.70717       5.89893       0.58317
Nuclear contribution   :     -3.71343      -7.45388      -1.05366
                        -----------------------------------------
Total Dipole Moment    :     -0.00626      -1.55496      -0.47050
                        -----------------------------------------
Magnitude (a.u.)       :      1.62459
Magnitude (Debye)      :      4.12939

                             ****ORCA TERMINATED NORMALLY****
TOTAL RUN TIME: 0 days 0 hours 0 minutes 6 seconds 727 msec
