                         Program Version 3.0.3 - RELEASE   -
|  1> ! RI PBE def2-SVP def2-SVP/J NBO PAL2
|  2> % maxcore 2000
|  3> % output
|  4>     # printlevel mini
|  5>     print[ P_Basis ] 0
|  6>     print[ P_SCFInfo ] 1
|  7>     print[ P_SCFIterInfo ] 1
|  8>     print[ P_OrbEn ] 0
|  9>     print[ P_Cartesian ] 0
| 10> end
| 11> *xyz 0 1
| 12>  C        1.1076920000    -0.0489690000    -0.0976860000
| 13>  N        2.5414680000    -0.0405710000     0.0464730000
| 14>  C        3.0826970000    -1.1371970000     0.8825170000
| 15>  C        3.9264570000    -0.3263750000     1.8633120000
| 16>  C        4.5560140000     0.7177720000     0.9105190000
| 17>  C        3.0837070000     1.1262980000     0.7527700000
| 18>  C        2.9287360000     0.7891980000     2.2560280000
| 19>  H        0.7996220000    -0.9549600000    -0.6253730000
| 20>  H        0.7938010000     0.8064170000    -0.7016590000
| 21>  H        0.5549290000    -0.0139440000     0.8578100000
| 22>  H        3.6704250000    -1.8428530000     0.2873970000
| 23>  H        2.2861150000    -1.6922550000     1.3925440000
| 24>  H        4.5107040000    -0.8787930000     2.5985260000
| 25>  H        5.0676810000     0.3613730000     0.0146390000
| 26>  H        5.1504190000     1.4622000000     1.4404760000
| 27>  H        2.7736730000     2.0747680000     0.3147330000
| 28>  H        1.9439010000     0.4975430000     2.6281050000
| 29>  H        3.3757690000     1.5401570000     2.9081690000
| 30> *
| 31>
| 32>                          ****END OF INPUT****
 Total Charge           Charge          ....    0
 Multiplicity           Mult            ....    1
 Number of Electrons    NEL             ....   54
 Basis Dimension        Dim             ....  153

MULLIKEN ATOMIC CHARGES
-----------------------
   0 C :    0.103160
   1 N :   -0.315864
   2 C :    0.220315
   3 C :   -0.213887
   4 C :    0.104635
   5 C :   -0.047016
   6 C :    0.068686
   7 H :    0.024700
   8 H :    0.018616
   9 H :   -0.015297
  10 H :    0.011765
  11 H :   -0.002980
  12 H :   -0.008214
  13 H :    0.014095
  14 H :    0.019182
  15 H :   -0.011357
  16 H :    0.008642
  17 H :    0.020819
Sum of atomic charges:    0.0000000

LOEWDIN ATOMIC CHARGES
----------------------
   0 C :   -0.004571
   1 N :   -0.121173
   2 C :    0.034492
   3 C :   -0.028392
   4 C :   -0.026260
   5 C :    0.029434
   6 C :   -0.038732
   7 H :    0.023330
   8 H :    0.022057
   9 H :   -0.006161
  10 H :    0.015170
  11 H :    0.010312
  12 H :    0.010889
  13 H :    0.016289
  14 H :    0.023135
  15 H :    0.006836
  16 H :    0.010347
  17 H :    0.022998

  Mayer bond orders larger than 0.1
B(  0-C ,  1-N ) :   1.0388 B(  0-C ,  7-H ) :   0.9694 B(  0-C ,  8-H ) :   0.9671
B(  0-C ,  9-H ) :   0.9306 B(  1-N ,  2-C ) :   0.9817 B(  1-N ,  5-C ) :   1.0217
B(  2-C ,  3-C ) :   1.0388 B(  2-C , 10-H ) :   0.9326 B(  2-C , 11-H ) :   0.9220
B(  3-C ,  4-C ) :   0.9829 B(  3-C ,  6-C ) :   0.9654 B(  3-C , 12-H ) :   0.9522
B(  4-C ,  5-C ) :   0.9833 B(  4-C , 13-H ) :   0.9253 B(  4-C , 14-H ) :   0.9454
B(  5-C ,  6-C ) :   0.9805 B(  5-C , 15-H ) :   0.9569 B(  6-C , 16-H ) :   0.9254
B(  6-C , 17-H ) :   0.9418

FINAL SINGLE POINT ENERGY      -289.353355722312

DIPOLE MOMENT
-------------
                                X             Y             Z
Electronic contribution:      1.85165       0.27069      -0.49219
Nuclear contribution   :     -1.91746      -0.24041       0.78567
                        -----------------------------------------
Total Dipole Moment    :     -0.06581       0.03028       0.29348
                        -----------------------------------------
Magnitude (a.u.)       :      0.30229
Magnitude (Debye)      :      0.76835

                             ****ORCA TERMINATED NORMALLY****
TOTAL RUN TIME: 0 days 0 hours 0 minutes 8 seconds 38 msec
