                         Program Version 3.0.3 - RELEASE   -
|  1> ! RI PBE def2-SVP def2-SVP/J NBO PAL2
|  2> % maxcore 2000
|  3> % output
|  4>     # printlevel mini
|  5>     print[ P_Basis ] 0
|  6>     print[ P_SCFInfo ] 1
|  7>     print[ P_SCFIterInfo ] 1
|  8>     print[ P_OrbEn ] 0
|  9>     print[ P_Cartesian ] 0
| 10> end
| 11> *xyz 0 1
| 12>  C        0.8093370000     0.0440290000    -0.0338950000
| 13>  N        1.5108990000    -0.6554500000    -1.0803830000
| 14>  C        2.6301340000    -1.5045110000    -0.6103560000
| 15>  C        3.7497610000    -0.9814200000    -1.5071060000
| 16>  C        2.9984820000    -0.8304520000    -2.8514110000
| 17>  C        2.2142060000     0.2085740000    -2.0360330000
| 18>  C        3.5610360000     0.5463700000    -1.3509360000
| 19>  H        0.3275100000    -0.6792880000     0.6285500000
| 20>  H        0.0229140000     0.6655280000    -0.4700960000
| 21>  H        1.4512920000     0.6921070000     0.5887080000
| 22>  H        2.4175610000    -2.5675260000    -0.7598570000
| 23>  H        2.8485110000    -1.3400480000     0.4517260000
| 24>  H        4.7228470000    -1.4651610000    -1.4286790000
| 25>  H        2.4365730000    -1.6857070000    -3.2311800000
| 26>  H        3.6182550000    -0.3828540000    -3.6285090000
| 27>  H        1.5679540000     0.9578470000    -2.4926920000
| 28>  H        3.5443540000     0.9670880000    -0.3429060000
| 29>  H        4.2320650000     1.1188540000    -1.9920650000
| 30> *
| 31>
| 32>                          ****END OF INPUT****
 Total Charge           Charge          ....    0
 Multiplicity           Mult            ....    1
 Number of Electrons    NEL             ....   54
 Basis Dimension        Dim             ....  153

MULLIKEN ATOMIC CHARGES
-----------------------
   0 C :    0.106006
   1 N :   -0.311582
   2 C :    0.205827
   3 C :   -0.208675
   4 C :    0.109097
   5 C :   -0.045476
   6 C :    0.061042
   7 H :    0.023007
   8 H :    0.018126
   9 H :   -0.014911
  10 H :    0.016965
  11 H :    0.000990
  12 H :   -0.010075
  13 H :    0.012317
  14 H :    0.017580
  15 H :   -0.009722
  16 H :    0.010520
  17 H :    0.018963
Sum of atomic charges:   -0.0000000

LOEWDIN ATOMIC CHARGES
----------------------
   0 C :   -0.004466
   1 N :   -0.120694
   2 C :    0.032593
   3 C :   -0.028069
   4 C :   -0.025070
   5 C :    0.028923
   6 C :   -0.039391
   7 H :    0.023293
   8 H :    0.021919
   9 H :   -0.006211
  10 H :    0.016016
  11 H :    0.010966
  12 H :    0.010556
  13 H :    0.016100
  14 H :    0.022880
  15 H :    0.007191
  16 H :    0.010460
  17 H :    0.023002

  Mayer bond orders larger than 0.1
B(  0-C ,  1-N ) :   1.0371 B(  0-C ,  7-H ) :   0.9684 B(  0-C ,  8-H ) :   0.9671
B(  0-C ,  9-H ) :   0.9310 B(  1-N ,  2-C ) :   0.9806 B(  1-N ,  5-C ) :   1.0244
B(  2-C ,  3-C ) :   1.0385 B(  2-C , 10-H ) :   0.9341 B(  2-C , 11-H ) :   0.9235
B(  3-C ,  4-C ) :   0.9863 B(  3-C ,  6-C ) :   0.9646 B(  3-C , 12-H ) :   0.9521
B(  4-C ,  5-C ) :   0.9815 B(  4-C , 13-H ) :   0.9248 B(  4-C , 14-H ) :   0.9454
B(  5-C ,  6-C ) :   0.9825 B(  5-C , 15-H ) :   0.9567 B(  6-C , 16-H ) :   0.9280
B(  6-C , 17-H ) :   0.9397

FINAL SINGLE POINT ENERGY      -289.353381792824

DIPOLE MOMENT
-------------
                                X             Y             Z
Electronic contribution:      0.25731      -0.94265      -1.68246
Nuclear contribution   :     -0.02003       1.09452       1.77586
                        -----------------------------------------
Total Dipole Moment    :      0.23728       0.15187       0.09340
                        -----------------------------------------
Magnitude (a.u.)       :      0.29680
Magnitude (Debye)      :      0.75440

                             ****ORCA TERMINATED NORMALLY****
TOTAL RUN TIME: 0 days 0 hours 0 minutes 8 seconds 60 msec
