                         Program Version 3.0.3 - RELEASE   -
|  1> ! RI PBE def2-SVP def2-SVP/J NBO PAL2
|  2> % maxcore 2000
|  3> % output
|  4>     # printlevel mini
|  5>     print[ P_Basis ] 0
|  6>     print[ P_SCFInfo ] 1
|  7>     print[ P_SCFIterInfo ] 1
|  8>     print[ P_OrbEn ] 0
|  9>     print[ P_Cartesian ] 0
| 10> end
| 11> *xyz 0 1
| 12>  C        1.0563820000     0.1713140000     0.4757470000
| 13>  N        2.4487640000     0.0703960000     0.0813400000
| 14>  C        2.7570120000    -1.2710240000    -0.4324670000
| 15>  C        2.5271010000    -1.2264160000    -1.9353290000
| 16>  N        3.6652540000    -0.6521410000    -2.6596860000
| 17>  C        2.5233190000     0.1995880000    -2.3128880000
| 18>  C        2.7512990000     0.9832010000    -1.0293440000
| 19>  H        0.8566560000    -0.5249140000     1.2933220000
| 20>  H        0.3430190000    -0.0463180000    -0.3392670000
| 21>  H        0.8523310000     1.1799680000     0.8418570000
| 22>  H        2.1361750000    -2.0169000000     0.0666870000
| 23>  H        3.8068010000    -1.5090760000    -0.2366990000
| 24>  H        1.9009130000    -1.9584680000    -2.4322280000
| 25>  H        3.6162480000    -0.9117720000    -3.6402200000
| 26>  H        1.8941110000     0.5868520000    -3.1060070000
| 27>  H        2.1263020000     1.8754000000    -0.9639250000
| 28>  H        3.7997120000     1.2919020000    -0.9784040000
| 29> *
| 30>
| 31>                          ****END OF INPUT****
 Total Charge           Charge          ....    0
 Multiplicity           Mult            ....    1
 Number of Electrons    NEL             ....   54
 Basis Dimension        Dim             ....  148

MULLIKEN ATOMIC CHARGES
-----------------------
   0 C :    0.095772
   1 N :   -0.361681
   2 C :    0.251587
   3 C :   -0.127378
   4 N :   -0.162806
   5 C :   -0.129946
   6 C :    0.244612
   7 H :    0.019499
   8 H :   -0.013156
   9 H :    0.018646
  10 H :   -0.001171
  11 H :    0.009334
  12 H :    0.018791
  13 H :    0.104628
  14 H :    0.020031
  15 H :    0.001516
  16 H :    0.011722
Sum of atomic charges:   -0.0000000

LOEWDIN ATOMIC CHARGES
----------------------
   0 C :   -0.002703
   1 N :   -0.122378
   2 C :    0.021963
   3 C :   -0.014953
   4 N :   -0.099347
   5 C :   -0.015855
   6 C :    0.021283
   7 H :    0.020698
   8 H :   -0.005605
   9 H :    0.020535
  10 H :    0.021129
  11 H :    0.024624
  12 H :    0.013669
  13 H :    0.056586
  14 H :    0.013816
  15 H :    0.021615
  16 H :    0.024923

  Mayer bond orders larger than 0.1
B(  0-C ,  1-N ) :   1.0235 B(  0-C ,  7-H ) :   0.9671 B(  0-C ,  8-H ) :   0.9382
B(  0-C ,  9-H ) :   0.9672 B(  1-N ,  2-C ) :   1.0345 B(  1-N ,  6-C ) :   1.0376
B(  2-C ,  3-C ) :   1.0269 B(  2-C , 10-H ) :   0.9371 B(  2-C , 11-H ) :   0.8974
B(  3-C ,  4-N ) :   0.9726 B(  3-C ,  5-C ) :   1.0324 B(  3-C , 12-H ) :   0.9504
B(  4-N ,  5-C ) :   0.9745 B(  4-N , 13-H ) :   0.9379 B(  5-C ,  6-C ) :   1.0256
B(  5-C , 14-H ) :   0.9493 B(  6-C , 15-H ) :   0.9370 B(  6-C , 16-H ) :   0.8988

FINAL SINGLE POINT ENERGY      -305.369600160472

DIPOLE MOMENT
-------------
                                X             Y             Z
Electronic contribution:      2.85295      -0.53430      -2.04479
Nuclear contribution   :     -3.55721       0.37933       1.46652
                        -----------------------------------------
Total Dipole Moment    :     -0.70426      -0.15497      -0.57827
                        -----------------------------------------
Magnitude (a.u.)       :      0.92433
Magnitude (Debye)      :      2.34946

                             ****ORCA TERMINATED NORMALLY****
TOTAL RUN TIME: 0 days 0 hours 0 minutes 7 seconds 545 msec
