                         Program Version 3.0.3 - RELEASE   -
|  1> ! RI PBE def2-SVP def2-SVP/J NBO PAL2
|  2> % maxcore 2000
|  3> % output
|  4>     # printlevel mini
|  5>     print[ P_Basis ] 0
|  6>     print[ P_SCFInfo ] 1
|  7>     print[ P_SCFIterInfo ] 1
|  8>     print[ P_OrbEn ] 0
|  9>     print[ P_Cartesian ] 0
| 10> end
| 11> *xyz 0 1
| 12>  C        0.9008220000    -0.2225660000     0.0684340000
| 13>  N        2.3289100000    -0.0939440000     0.0546280000
| 14>  C        2.9379440000     1.0750710000     0.6860750000
| 15>  C        4.1087700000     0.1815460000     1.1586680000
| 16>  C        3.1253980000    -0.9835140000     0.8975530000
| 17>  C        5.2900540000     0.1967090000     0.2592600000
| 18>  C        6.5450120000     0.3521230000     0.6592910000
| 19>  H        0.4492210000     0.5647550000    -0.5405830000
| 20>  H        0.4752050000    -0.1567060000     1.0868410000
| 21>  H        0.6084880000    -1.1842950000    -0.3609110000
| 22>  H        2.3556050000     1.4541860000     1.5416730000
| 23>  H        3.1684940000     1.9060870000     0.0130000000
| 24>  H        4.4123430000     0.3158780000     2.1971730000
| 25>  H        2.6045960000    -1.2801630000     1.8225680000
| 26>  H        3.5131060000    -1.8783010000     0.4017620000
| 27>  H        5.0741750000     0.0681980000    -0.8002720000
| 28>  H        6.7927320000     0.4825130000     1.7085700000
| 29>  H        7.3692140000     0.3549150000    -0.0444280000
| 30> *
| 31>
| 32>                          ****END OF INPUT****
 Total Charge           Charge          ....    0
 Multiplicity           Mult            ....    1
 Number of Electrons    NEL             ....   54
 Basis Dimension        Dim             ....  153

MULLIKEN ATOMIC CHARGES
-----------------------
   0 C :    0.087643
   1 N :   -0.362343
   2 C :    0.201849
   3 C :   -0.186963
   4 C :    0.204408
   5 C :    0.011638
   6 C :   -0.032504
   7 H :    0.026395
   8 H :   -0.010626
   9 H :    0.022741
  10 H :   -0.013219
  11 H :    0.013577
  12 H :   -0.003212
  13 H :   -0.012838
  14 H :    0.011046
  15 H :    0.004103
  16 H :    0.014774
  17 H :    0.023531
Sum of atomic charges:    0.0000000

LOEWDIN ATOMIC CHARGES
----------------------
   0 C :   -0.007203
   1 N :   -0.120523
   2 C :    0.043650
   3 C :   -0.039261
   4 C :    0.044031
   5 C :   -0.022388
   6 C :   -0.067729
   7 H :    0.024959
   8 H :   -0.004438
   9 H :    0.024518
  10 H :    0.002413
  11 H :    0.011325
  12 H :    0.022432
  13 H :    0.002476
  14 H :    0.010976
  15 H :    0.029568
  16 H :    0.020480
  17 H :    0.024716

  Mayer bond orders larger than 0.1
B(  0-C ,  1-N ) :   1.0458 B(  0-C ,  7-H ) :   0.9690 B(  0-C ,  8-H ) :   0.9382
B(  0-C ,  9-H ) :   0.9686 B(  1-N ,  2-C ) :   1.0101 B(  1-N ,  4-C ) :   1.0088
B(  2-C ,  3-C ) :   1.0268 B(  2-C , 10-H ) :   0.9074 B(  2-C , 11-H ) :   0.9380
B(  3-C ,  4-C ) :   1.0257 B(  3-C ,  5-C ) :   1.0333 B(  3-C , 12-H ) :   0.9291
B(  4-C , 13-H ) :   0.9093 B(  4-C , 14-H ) :   0.9377 B(  5-C ,  6-C ) :   1.9843
B(  5-C , 15-H ) :   0.9531 B(  6-C , 16-H ) :   0.9510 B(  6-C , 17-H ) :   0.9402

FINAL SINGLE POINT ENERGY      -289.341813044218

DIPOLE MOMENT
-------------
                                X             Y             Z
Electronic contribution:      1.87701       0.09226      -0.77015
Nuclear contribution   :     -2.09218      -0.08798       0.99731
                        -----------------------------------------
Total Dipole Moment    :     -0.21517       0.00428       0.22716
                        -----------------------------------------
Magnitude (a.u.)       :      0.31292
Magnitude (Debye)      :      0.79539

                             ****ORCA TERMINATED NORMALLY****
TOTAL RUN TIME: 0 days 0 hours 0 minutes 7 seconds 921 msec
