                         Program Version 3.0.3 - RELEASE   -
|  1> ! RI PBE def2-SVP def2-SVP/J NBO PAL2
|  2> % maxcore 2000
|  3> % output
|  4>     # printlevel mini
|  5>     print[ P_Basis ] 0
|  6>     print[ P_SCFInfo ] 1
|  7>     print[ P_SCFIterInfo ] 1
|  8>     print[ P_OrbEn ] 0
|  9>     print[ P_Cartesian ] 0
| 10> end
| 11> *xyz 0 1
| 12>  C        1.0392750000     0.0553780000     0.1366220000
| 13>  N        2.4728310000     0.0561680000     0.1235010000
| 14>  C        3.1802740000     1.1161980000     0.8368890000
| 15>  C        4.2502450000     0.0821990000     1.2669050000
| 16>  C        3.1818590000    -0.9710080000     0.8819580000
| 17>  C        5.4533430000     0.0657960000     0.4657800000
| 18>  C        6.4572190000     0.0524470000    -0.1935000000
| 19>  H        0.6614750000     0.9260360000    -0.4051920000
| 20>  H        0.6189880000     0.0770920000     1.1593390000
| 21>  H        0.6627810000    -0.8383570000    -0.3671950000
| 22>  H        2.6267220000     1.4935420000     1.7116270000
| 23>  H        3.5112090000     1.9562570000     0.2225820000
| 24>  H        4.5097630000     0.1052680000     2.3259850000
| 25>  H        2.6288630000    -1.3110920000     1.7721910000
| 26>  H        3.5140940000    -1.8362940000     0.3044700000
| 27>  H        7.3432500000     0.0404700000    -0.7825910000
| 28> *
| 29>
| 30>                          ****END OF INPUT****
 Total Charge           Charge          ....    0
 Multiplicity           Mult            ....    1
 Number of Electrons    NEL             ....   52
 Basis Dimension        Dim             ....  143

MULLIKEN ATOMIC CHARGES
-----------------------
   0 C :    0.083179
   1 N :   -0.353409
   2 C :    0.225603
   3 C :   -0.270256
   4 C :    0.225467
   5 C :    0.492644
   6 C :   -0.511710
   7 H :    0.028642
   8 H :   -0.009423
   9 H :    0.028196
  10 H :   -0.012986
  11 H :    0.022343
  12 H :    0.046171
  13 H :   -0.012479
  14 H :    0.022027
  15 H :   -0.004008
Sum of atomic charges:   -0.0000000

LOEWDIN ATOMIC CHARGES
----------------------
   0 C :   -0.007041
   1 N :   -0.115131
   2 C :    0.054383
   3 C :   -0.050393
   4 C :    0.054376
   5 C :   -0.014607
   6 C :   -0.087766
   7 H :    0.026263
   8 H :   -0.004205
   9 H :    0.026215
  10 H :    0.002776
  11 H :    0.017861
  12 H :    0.042892
  13 H :    0.002840
  14 H :    0.017850
  15 H :    0.033689

  Mayer bond orders larger than 0.1
B(  0-C ,  1-N ) :   1.0454 B(  0-C ,  7-H ) :   0.9690 B(  0-C ,  8-H ) :   0.9373
B(  0-C ,  9-H ) :   0.9690 B(  1-N ,  2-C ) :   1.0208 B(  1-N ,  4-C ) :   1.0201
B(  2-C ,  3-C ) :   1.0457 B(  2-C , 10-H ) :   0.9061 B(  2-C , 11-H ) :   0.9349
B(  3-C ,  4-C ) :   1.0458 B(  3-C ,  5-C ) :   0.9526 B(  3-C , 12-H ) :   0.9005
B(  4-C , 13-H ) :   0.9066 B(  4-C , 14-H ) :   0.9349 B(  5-C ,  6-C ) :   2.2617
B(  5-C , 15-H ) :  -0.1149 B(  6-C , 15-H ) :   1.1047

FINAL SINGLE POINT ENERGY      -288.096920059388

DIPOLE MOMENT
-------------
                                X             Y             Z
Electronic contribution:      5.71547      -0.01674      -0.94385
Nuclear contribution   :     -6.06306       0.02289       1.26840
                        -----------------------------------------
Total Dipole Moment    :     -0.34759       0.00615       0.32456
                        -----------------------------------------
Magnitude (a.u.)       :      0.47560
Magnitude (Debye)      :      1.20887

                             ****ORCA TERMINATED NORMALLY****
TOTAL RUN TIME: 0 days 0 hours 0 minutes 7 seconds 629 msec
