                         Program Version 3.0.3 - RELEASE   -
|  1> ! RI PBE def2-SVP def2-SVP/J NBO PAL2
|  2> % maxcore 2000
|  3> % output
|  4>     # printlevel mini
|  5>     print[ P_Basis ] 0
|  6>     print[ P_SCFInfo ] 1
|  7>     print[ P_SCFIterInfo ] 1
|  8>     print[ P_OrbEn ] 0
|  9>     print[ P_Cartesian ] 0
| 10> end
| 11> *xyz 0 1
| 12>  C        1.1122590000    -0.1066610000    -0.0069140000
| 13>  N        2.5374930000    -0.1204540000     0.1536280000
| 14>  C        3.1784550000     0.9255590000     0.9415610000
| 15>  C        4.2241810000    -0.0999500000     1.3961980000
| 16>  C        3.2229980000    -1.1838040000     0.9319540000
| 17>  C        2.4122580000    -1.7394490000     2.0951820000
| 18>  C        3.7659000000    -2.2992920000     0.0647820000
| 19>  H        0.8264560000     0.7508280000    -0.6227840000
| 20>  H        0.5535130000    -0.0376860000     0.9424370000
| 21>  H        0.7836470000    -1.0075060000    -0.5319990000
| 22>  H        2.5574640000     1.2880530000     1.7771650000
| 23>  H        3.5222590000     1.7912670000     0.3674180000
| 24>  H        4.4946600000    -0.1044360000     2.4519980000
| 25>  H        5.1270600000    -0.0806110000     0.7849390000
| 26>  H        2.0183790000    -0.9433740000     2.7322250000
| 27>  H        3.0417960000    -2.3824720000     2.7154820000
| 28>  H        1.5693430000    -2.3401850000     1.7424270000
| 29>  H        4.3469790000    -1.8875370000    -0.7620720000
| 30>  H        2.9510710000    -2.8965340000    -0.3561020000
| 31>  H        4.4043290000    -2.9713550000     0.6457660000
| 32> *
| 33>
| 34>                          ****END OF INPUT****
 Total Charge           Charge          ....    0
 Multiplicity           Mult            ....    1
 Number of Electrons    NEL             ....   56
 Basis Dimension        Dim             ....  163

MULLIKEN ATOMIC CHARGES
-----------------------
   0 C :    0.092614
   1 N :   -0.319999
   2 C :    0.144719
   3 C :    0.051448
   4 C :   -0.275043
   5 C :    0.084021
   6 C :    0.113273
   7 H :    0.023279
   8 H :   -0.010725
   9 H :    0.020443
  10 H :   -0.010776
  11 H :    0.004831
  12 H :    0.009062
  13 H :    0.002010
  14 H :    0.007328
  15 H :    0.018378
  16 H :    0.017397
  17 H :    0.007780
  18 H :    0.007002
  19 H :    0.012957
Sum of atomic charges:   -0.0000000

LOEWDIN ATOMIC CHARGES
----------------------
   0 C :   -0.009606
   1 N :   -0.114790
   2 C :    0.032456
   3 C :   -0.027712
   4 C :   -0.005781
   5 C :   -0.062484
   6 C :   -0.061561
   7 H :    0.024761
   8 H :   -0.004091
   9 H :    0.022832
  10 H :   -0.002438
  11 H :    0.009954
  12 H :    0.018218
  13 H :    0.024942
  14 H :    0.024098
  15 H :    0.029683
  16 H :    0.025521
  17 H :    0.023979
  18 H :    0.025316
  19 H :    0.026703

  Mayer bond orders larger than 0.1
B(  0-C ,  1-N ) :   1.0522 B(  0-C ,  7-H ) :   0.9661 B(  0-C ,  8-H ) :   0.9338
B(  0-C ,  9-H ) :   0.9683 B(  1-N ,  2-C ) :   1.0270 B(  1-N ,  4-C ) :   0.9936
B(  2-C ,  3-C ) :   1.1102 B(  2-C , 10-H ) :   0.9148 B(  2-C , 11-H ) :   0.9337
B(  3-C ,  4-C ) :   1.0556 B(  3-C , 12-H ) :   0.9403 B(  3-C , 13-H ) :   0.9032
B(  4-C ,  5-C ) :   1.0509 B(  4-C ,  6-C ) :   1.0724 B(  5-C , 14-H ) :   0.9427
B(  5-C , 15-H ) :   0.9490 B(  5-C , 16-H ) :   0.9461 B(  6-C , 17-H ) :   0.9397
B(  6-C , 18-H ) :   0.9494 B(  6-C , 19-H ) :   0.9536

FINAL SINGLE POINT ENERGY      -290.570171079003

DIPOLE MOMENT
-------------
                                X             Y             Z
Electronic contribution:      1.29583       1.87876      -1.14892
Nuclear contribution   :     -1.36359      -1.94852       1.40063
                        -----------------------------------------
Total Dipole Moment    :     -0.06777      -0.06976       0.25171
                        -----------------------------------------
Magnitude (a.u.)       :      0.26985
Magnitude (Debye)      :      0.68590

                             ****ORCA TERMINATED NORMALLY****
TOTAL RUN TIME: 0 days 0 hours 0 minutes 9 seconds 107 msec
