                         Program Version 3.0.3 - RELEASE   -
|  1> ! RI PBE def2-SVP def2-SVP/J NBO PAL2
|  2> % maxcore 2000
|  3> % output
|  4>     # printlevel mini
|  5>     print[ P_Basis ] 0
|  6>     print[ P_SCFInfo ] 1
|  7>     print[ P_SCFIterInfo ] 1
|  8>     print[ P_OrbEn ] 0
|  9>     print[ P_Cartesian ] 0
| 10> end
| 11> *xyz 0 1
| 12>  C        1.0832010000    -0.2607320000     0.1691370000
| 13>  N        2.5048320000    -0.0731560000     0.2243610000
| 14>  C        3.0460720000     1.0460150000     0.9958390000
| 15>  C        4.2267610000     0.1503970000     1.3910460000
| 16>  C        3.3076860000    -1.0274680000     1.0035510000
| 17>  C        3.8653380000    -2.1798820000     0.2502510000
| 18>  C        3.7730040000    -3.4452780000     0.6359200000
| 19>  H        0.6214190000     0.5502650000    -0.4000230000
| 20>  H        0.6162130000    -0.2877950000     1.1705220000
| 21>  H        0.8537720000    -1.1998670000    -0.3403010000
| 22>  H        2.4205030000     1.3038770000     1.8662390000
| 23>  H        3.2463770000     1.9550440000     0.4224000000
| 24>  H        4.5781950000     0.1875530000     2.4204560000
| 25>  H        5.0702640000     0.2478820000     0.7067750000
| 26>  H        2.7615620000    -1.3908540000     1.8919350000
| 27>  H        4.3782930000    -1.9252830000    -0.6752600000
| 28>  H        3.2556070000    -3.7189710000     1.5508080000
| 29>  H        4.2107100000    -4.2519470000     0.0592240000
| 30> *
| 31>
| 32>                          ****END OF INPUT****
 Total Charge           Charge          ....    0
 Multiplicity           Mult            ....    1
 Number of Electrons    NEL             ....   54
 Basis Dimension        Dim             ....  153

MULLIKEN ATOMIC CHARGES
-----------------------
   0 C :    0.091389
   1 N :   -0.340003
   2 C :    0.147477
   3 C :    0.019192
   4 C :    0.009003
   5 C :    0.030229
   6 C :   -0.021726
   7 H :    0.026243
   8 H :   -0.010826
   9 H :    0.023820
  10 H :   -0.013294
  11 H :    0.010295
  12 H :    0.022116
  13 H :    0.009565
  14 H :   -0.031089
  15 H :   -0.012216
  16 H :    0.017543
  17 H :    0.022281
Sum of atomic charges:   -0.0000000

LOEWDIN ATOMIC CHARGES
----------------------
   0 C :   -0.006944
   1 N :   -0.113980
   2 C :    0.033160
   3 C :   -0.026101
   4 C :    0.020784
   5 C :   -0.033260
   6 C :   -0.055321
   7 H :    0.024392
   8 H :   -0.003784
   9 H :    0.025772
  10 H :    0.000417
  11 H :    0.010444
  12 H :    0.020885
  13 H :    0.026901
  14 H :    0.004278
  15 H :    0.025414
  16 H :    0.021675
  17 H :    0.025267

  Mayer bond orders larger than 0.1
B(  0-C ,  1-N ) :   1.0388 B(  0-C ,  7-H ) :   0.9698 B(  0-C ,  8-H ) :   0.9390
B(  0-C ,  9-H ) :   0.9679 B(  1-N ,  2-C ) :   1.0083 B(  1-N ,  4-C ) :   0.9651
B(  2-C ,  3-C ) :   1.1041 B(  2-C , 10-H ) :   0.9118 B(  2-C , 11-H ) :   0.9409
B(  3-C ,  4-C ) :   1.0488 B(  3-C , 12-H ) :   0.9443 B(  3-C , 13-H ) :   0.9069
B(  4-C ,  5-C ) :   1.0701 B(  4-C , 14-H ) :   0.8925 B(  5-C ,  6-C ) :   1.9738
B(  5-C , 15-H ) :   0.9411 B(  6-C , 16-H ) :   0.9483 B(  6-C , 17-H ) :   0.9332

FINAL SINGLE POINT ENERGY      -289.344922224169

DIPOLE MOMENT
-------------
                                X             Y             Z
Electronic contribution:      1.70068      -0.26119      -0.98836
Nuclear contribution   :     -1.74796       0.31678       1.20015
                        -----------------------------------------
Total Dipole Moment    :     -0.04728       0.05560       0.21178
                        -----------------------------------------
Magnitude (a.u.)       :      0.22401
Magnitude (Debye)      :      0.56938

                             ****ORCA TERMINATED NORMALLY****
TOTAL RUN TIME: 0 days 0 hours 0 minutes 7 seconds 982 msec
