                         Program Version 3.0.3 - RELEASE   -
|  1> ! RI PBE def2-SVP def2-SVP/J NBO PAL2
|  2> % maxcore 2000
|  3> % output
|  4>     # printlevel mini
|  5>     print[ P_Basis ] 0
|  6>     print[ P_SCFInfo ] 1
|  7>     print[ P_SCFIterInfo ] 1
|  8>     print[ P_OrbEn ] 0
|  9>     print[ P_Cartesian ] 0
| 10> end
| 11> *xyz 0 1
| 12>  C        1.1259550000     0.0154130000    -0.0387050000
| 13>  N        2.5560850000     0.0680310000     0.0700460000
| 14>  C        3.1734200000     1.1139010000     0.8884450000
| 15>  C        4.2494900000     0.1043910000     1.3076500000
| 16>  C        3.2314070000    -0.9678190000     0.8642510000
| 17>  C        3.6832480000    -2.1498280000     0.1557870000
| 18>  C        4.0641460000    -3.1323880000    -0.4200870000
| 19>  H        0.7660440000     0.8842920000    -0.5950630000
| 20>  H        0.6212360000     0.0011750000     0.9442440000
| 21>  H        0.8316230000    -0.8805750000    -0.5902150000
| 22>  H        2.5428620000     1.4140120000     1.7413620000
| 23>  H        3.4819330000     2.0079820000     0.3416140000
| 24>  H        4.5597430000     0.0867090000     2.3501850000
| 25>  H        5.1192720000     0.1228780000     0.6531700000
| 26>  H        2.6179520000    -1.2810670000     1.7275850000
| 27>  H        4.4026840000    -3.9987080000    -0.9373600000
| 28> *
| 29>
| 30>                          ****END OF INPUT****
 Total Charge           Charge          ....    0
 Multiplicity           Mult            ....    1
 Number of Electrons    NEL             ....   52
 Basis Dimension        Dim             ....  143

MULLIKEN ATOMIC CHARGES
-----------------------
   0 C :    0.090727
   1 N :   -0.333281
   2 C :    0.152926
   3 C :    0.007108
   4 C :    0.015456
   5 C :    0.489884
   6 C :   -0.537499
   7 H :    0.029289
   8 H :   -0.010868
   9 H :    0.031483
  10 H :   -0.011508
  11 H :    0.016213
  12 H :    0.028350
  13 H :    0.024922
  14 H :    0.005917
  15 H :    0.000881
Sum of atomic charges:   -0.0000000

LOEWDIN ATOMIC CHARGES
----------------------
   0 C :   -0.006098
   1 N :   -0.105482
   2 C :    0.034147
   3 C :   -0.017372
   4 C :    0.012168
   5 C :   -0.022815
   6 C :   -0.075841
   7 H :    0.026442
   8 H :   -0.003109
   9 H :    0.028835
  10 H :    0.001990
  11 H :    0.013640
  12 H :    0.023385
  13 H :    0.033497
  14 H :    0.021828
  15 H :    0.034786

  Mayer bond orders larger than 0.1
B(  0-C ,  1-N ) :   1.0322 B(  0-C ,  7-H ) :   0.9695 B(  0-C ,  8-H ) :   0.9378
B(  0-C ,  9-H ) :   0.9681 B(  1-N ,  2-C ) :   1.0071 B(  1-N ,  4-C ) :   1.0111
B(  2-C ,  3-C ) :   1.1082 B(  2-C , 10-H ) :   0.9104 B(  2-C , 11-H ) :   0.9426
B(  3-C ,  4-C ) :   1.0610 B(  3-C , 12-H ) :   0.9411 B(  3-C , 13-H ) :   0.9098
B(  4-C ,  5-C ) :   0.9836 B(  4-C , 14-H ) :   0.8527 B(  5-C ,  6-C ) :   2.2586
B(  5-C , 15-H ) :  -0.1111 B(  6-C , 15-H ) :   1.1003

FINAL SINGLE POINT ENERGY      -288.098557107985

DIPOLE MOMENT
-------------
                                X             Y             Z
Electronic contribution:      2.71251      -3.68079      -1.45368
Nuclear contribution   :     -2.82510       3.87158       1.75493
                        -----------------------------------------
Total Dipole Moment    :     -0.11259       0.19079       0.30125
                        -----------------------------------------
Magnitude (a.u.)       :      0.37394
Magnitude (Debye)      :      0.95048

                             ****ORCA TERMINATED NORMALLY****
TOTAL RUN TIME: 0 days 0 hours 0 minutes 7 seconds 637 msec
