                         Program Version 3.0.3 - RELEASE   -
|  1> ! RI PBE def2-SVP def2-SVP/J NBO PAL2
|  2> % maxcore 2000
|  3> % output
|  4>     # printlevel mini
|  5>     print[ P_Basis ] 0
|  6>     print[ P_SCFInfo ] 1
|  7>     print[ P_SCFIterInfo ] 1
|  8>     print[ P_OrbEn ] 0
|  9>     print[ P_Cartesian ] 0
| 10> end
| 11> *xyz 0 1
| 12>  C        0.9795340000    -0.1168270000    -0.0197110000
| 13>  N        2.4124180000    -0.0873530000     0.0699800000
| 14>  C        3.0481370000     0.9843290000     0.8354890000
| 15>  C        4.1180110000    -0.0189890000     1.2878260000
| 16>  C        3.1020220000    -1.0970640000     0.8795490000
| 17>  C        3.5895330000    -2.3318520000     0.1626920000
| 18>  N        2.4782950000    -3.2039060000    -0.1910170000
| 19>  H        0.6270400000     0.7389320000    -0.6020940000
| 20>  H        0.4912960000    -0.0789350000     0.9721840000
| 21>  H        0.6658790000    -1.0313110000    -0.5248820000
| 22>  H        2.4303820000     1.3269430000     1.6822500000
| 23>  H        3.3595240000     1.8549330000     0.2514220000
| 24>  H        4.4339150000     0.0108230000     2.3291680000
| 25>  H        4.9927940000    -0.0166310000     0.6355300000
| 26>  H        2.4916330000    -1.3958840000     1.7537410000
| 27>  H        4.3554820000    -2.8158020000     0.7925230000
| 28>  H        4.0815650000    -2.0114950000    -0.7600430000
| 29>  H        2.0838410000    -3.6281290000     0.6402800000
| 30>  H        2.7896980000    -3.9595720000    -0.7874780000
| 31> *
| 32>
| 33>                          ****END OF INPUT****
 Total Charge           Charge          ....    0
 Multiplicity           Mult            ....    1
 Number of Electrons    NEL             ....   56
 Basis Dimension        Dim             ....  158

MULLIKEN ATOMIC CHARGES
-----------------------
   0 C :    0.096456
   1 N :   -0.333383
   2 C :    0.149347
   3 C :    0.001240
   4 C :   -0.034023
   5 C :    0.167776
   6 N :   -0.208877
   7 H :    0.017148
   8 H :   -0.021345
   9 H :    0.027344
  10 H :   -0.017163
  11 H :    0.007395
  12 H :    0.017401
  13 H :    0.008355
  14 H :   -0.033427
  15 H :   -0.009238
  16 H :   -0.012489
  17 H :    0.086304
  18 H :    0.091177
Sum of atomic charges:   -0.0000000

LOEWDIN ATOMIC CHARGES
----------------------
   0 C :   -0.008434
   1 N :   -0.110001
   2 C :    0.033484
   3 C :   -0.034604
   4 C :    0.017193
   5 C :   -0.002206
   6 N :   -0.106316
   7 H :    0.020747
   8 H :   -0.007666
   9 H :    0.023306
  10 H :   -0.001305
  11 H :    0.009228
  12 H :    0.019051
  13 H :    0.025791
  14 H :   -0.003056
  15 H :    0.000919
  16 H :    0.020417
  17 H :    0.049721
  18 H :    0.053731

  Mayer bond orders larger than 0.1
B(  0-C ,  1-N ) :   1.0348 B(  0-C ,  7-H ) :   0.9676 B(  0-C ,  8-H ) :   0.9359
B(  0-C ,  9-H ) :   0.9622 B(  1-N ,  2-C ) :   1.0190 B(  1-N ,  4-C ) :   1.0182
B(  2-C ,  3-C ) :   1.1124 B(  2-C , 10-H ) :   0.9107 B(  2-C , 11-H ) :   0.9398
B(  3-C ,  4-C ) :   1.0672 B(  3-C , 12-H ) :   0.9410 B(  3-C , 13-H ) :   0.9062
B(  4-C ,  5-C ) :   1.0607 B(  4-C , 14-H ) :   0.8811 B(  5-C ,  6-N ) :   1.1099
B(  5-C , 15-H ) :   0.9219 B(  5-C , 16-H ) :   0.8959 B(  6-N , 17-H ) :   0.9665
B(  6-N , 18-H ) :   0.9640

FINAL SINGLE POINT ENERGY      -306.582535848344

DIPOLE MOMENT
-------------
                                X             Y             Z
Electronic contribution:      0.89771      -0.02546      -0.84143
Nuclear contribution   :     -0.67483      -0.42216       1.20326
                        -----------------------------------------
Total Dipole Moment    :      0.22288      -0.44762       0.36182
                        -----------------------------------------
Magnitude (a.u.)       :      0.61721
Magnitude (Debye)      :      1.56883

                             ****ORCA TERMINATED NORMALLY****
TOTAL RUN TIME: 0 days 0 hours 0 minutes 7 seconds 872 msec
