                         Program Version 3.0.3 - RELEASE   -
|  1> ! RI PBE def2-SVP def2-SVP/J NBO PAL2
|  2> % maxcore 2000
|  3> % output
|  4>     # printlevel mini
|  5>     print[ P_Basis ] 0
|  6>     print[ P_SCFInfo ] 1
|  7>     print[ P_SCFIterInfo ] 1
|  8>     print[ P_OrbEn ] 0
|  9>     print[ P_Cartesian ] 0
| 10> end
| 11> *xyz 0 1
| 12>  C        1.0062840000    -0.0174040000    -0.0162230000
| 13>  N        2.4406780000    -0.0192990000     0.0076360000
| 14>  C        3.1340200000     1.0411250000     0.7331770000
| 15>  C        4.1950720000     0.0053660000     1.1742440000
| 16>  C        3.1303050000    -1.0464650000     0.7828780000
| 17>  C        5.3917400000    -0.0162040000     0.3598110000
| 18>  N        6.3501940000    -0.0329720000    -0.2759160000
| 19>  H        0.6460780000     0.8522280000    -0.5706660000
| 20>  H        0.5611160000     0.0077270000     0.9949630000
| 21>  H        0.6431400000    -0.9115540000    -0.5281140000
| 22>  H        2.5744770000     1.4102000000     1.6070010000
| 23>  H        3.4697800000     1.8859370000     0.1288900000
| 24>  H        4.4784920000     0.0299050000     2.2258990000
| 25>  H        2.5695280000    -1.3715350000     1.6732290000
| 26>  H        3.4630260000    -1.9202540000     0.2195000000
| 27> *
| 28>
| 29>                          ****END OF INPUT****
 Total Charge           Charge          ....    0
 Multiplicity           Mult            ....    1
 Number of Electrons    NEL             ....   52
 Basis Dimension        Dim             ....  138

MULLIKEN ATOMIC CHARGES
-----------------------
   0 C :    0.079287
   1 N :   -0.349723
   2 C :    0.220655
   3 C :   -0.335235
   4 C :    0.220689
   5 C :   -0.109366
   6 N :    0.078055
   7 H :    0.034512
   8 H :   -0.003909
   9 H :    0.034052
  10 H :   -0.001851
  11 H :    0.034850
  12 H :    0.064871
  13 H :   -0.001370
  14 H :    0.034483
Sum of atomic charges:    0.0000000

LOEWDIN ATOMIC CHARGES
----------------------
   0 C :   -0.005944
   1 N :   -0.111612
   2 C :    0.058959
   3 C :   -0.064182
   4 C :    0.058988
   5 C :   -0.038725
   6 N :   -0.065829
   7 H :    0.029135
   8 H :   -0.001253
   9 H :    0.029100
  10 H :    0.007279
  11 H :    0.022741
  12 H :    0.051299
  13 H :    0.007325
  14 H :    0.022720

  Mayer bond orders larger than 0.1
B(  0-C ,  1-N ) :   1.0415 B(  0-C ,  7-H ) :   0.9690 B(  0-C ,  8-H ) :   0.9395
B(  0-C ,  9-H ) :   0.9690 B(  1-N ,  2-C ) :   1.0154 B(  1-N ,  4-C ) :   1.0146
B(  2-C ,  3-C ) :   1.0593 B(  2-C , 10-H ) :   0.9084 B(  2-C , 11-H ) :   0.9352
B(  3-C ,  4-C ) :   1.0595 B(  3-C ,  5-C ) :   1.0749 B(  3-C , 12-H ) :   0.9004
B(  4-C , 13-H ) :   0.9090 B(  4-C , 14-H ) :   0.9353 B(  5-C ,  6-N ) :   3.0681

FINAL SINGLE POINT ENERGY      -304.175897021885

DIPOLE MOMENT
-------------
                                X             Y             Z
Electronic contribution:      8.14579      -0.04956      -1.45822
Nuclear contribution   :     -9.59305       0.07359       2.38511
                        -----------------------------------------
Total Dipole Moment    :     -1.44725       0.02402       0.92689
                        -----------------------------------------
Magnitude (a.u.)       :      1.71879
Magnitude (Debye)      :      4.36882

                             ****ORCA TERMINATED NORMALLY****
TOTAL RUN TIME: 0 days 0 hours 0 minutes 6 seconds 354 msec
