                         Program Version 3.0.3 - RELEASE   -
|  1> ! RI PBE def2-SVP def2-SVP/J NBO PAL2
|  2> % maxcore 2000
|  3> % output
|  4>     # printlevel mini
|  5>     print[ P_Basis ] 0
|  6>     print[ P_SCFInfo ] 1
|  7>     print[ P_SCFIterInfo ] 1
|  8>     print[ P_OrbEn ] 0
|  9>     print[ P_Cartesian ] 0
| 10> end
| 11> *xyz 0 1
| 12>  C        1.4950590000     0.6298200000    -0.3537810000
| 13>  N        2.7744470000     0.3535240000     0.2384340000
| 14>  C        3.0215740000     0.7277550000     1.6343490000
| 15>  C        3.8692930000    -0.5425850000     1.7910210000
| 16>  C        3.1196750000    -1.0356270000     0.5365520000
| 17>  C        3.8602570000    -1.7479490000    -0.4966600000
| 18>  N        4.4498180000    -2.3185220000    -1.3022560000
| 19>  H        1.3613600000     1.7098930000    -0.4448110000
| 20>  H        0.6537760000     0.2243280000     0.2350530000
| 21>  H        1.4531240000     0.2027940000    -1.3582780000
| 22>  H        2.1107040000     0.6904720000     2.2520950000
| 23>  H        3.5089540000     1.6950480000     1.7724320000
| 24>  H        3.7459430000    -1.1342200000     2.6948770000
| 25>  H        4.9250500000    -0.3719740000     1.5898240000
| 26>  H        2.2443680000    -1.6464370000     0.8139600000
| 27> *
| 28>
| 29>                          ****END OF INPUT****
 Total Charge           Charge          ....    0
 Multiplicity           Mult            ....    1
 Number of Electrons    NEL             ....   52
 Basis Dimension        Dim             ....  138

MULLIKEN ATOMIC CHARGES
-----------------------
   0 C :    0.092169
   1 N :   -0.335970
   2 C :    0.168127
   3 C :   -0.006571
   4 C :   -0.046240
   5 C :   -0.150027
   6 N :    0.086858
   7 H :    0.036456
   8 H :   -0.003398
   9 H :    0.035756
  10 H :   -0.004417
  11 H :    0.021956
  12 H :    0.042890
  13 H :    0.040052
  14 H :    0.022360
Sum of atomic charges:   -0.0000000

LOEWDIN ATOMIC CHARGES
----------------------
   0 C :   -0.003357
   1 N :   -0.101002
   2 C :    0.039674
   3 C :   -0.013349
   4 C :   -0.001821
   5 C :   -0.047017
   6 N :   -0.056071
   7 H :    0.030152
   8 H :    0.000710
   9 H :    0.031359
  10 H :    0.006116
  11 H :    0.017219
  12 H :    0.028759
  13 H :    0.039050
  14 H :    0.029578

  Mayer bond orders larger than 0.1
B(  0-C ,  1-N ) :   1.0236 B(  0-C ,  7-H ) :   0.9689 B(  0-C ,  8-H ) :   0.9411
B(  0-C ,  9-H ) :   0.9669 B(  1-N ,  2-C ) :   1.0109 B(  1-N ,  4-C ) :   1.0865
B(  2-C ,  3-C ) :   1.1160 B(  2-C , 10-H ) :   0.9117 B(  2-C , 11-H ) :   0.9437
B(  3-C ,  4-C ) :   1.0874 B(  3-C , 12-H ) :   0.9424 B(  3-C , 13-H ) :   0.9057
B(  4-C ,  5-C ) :   1.1157 B(  4-C , 14-H ) :   0.8415 B(  5-C ,  6-N ) :   3.0779

FINAL SINGLE POINT ENERGY      -304.176737385995

DIPOLE MOMENT
-------------
                                X             Y             Z
Electronic contribution:      4.24877      -4.44676      -3.55425
Nuclear contribution   :     -5.11226       5.16717       4.72980
                        -----------------------------------------
Total Dipole Moment    :     -0.86349       0.72041       1.17555
                        -----------------------------------------
Magnitude (a.u.)       :      1.62682
Magnitude (Debye)      :      4.13504

                             ****ORCA TERMINATED NORMALLY****
TOTAL RUN TIME: 0 days 0 hours 0 minutes 7 seconds 104 msec
