                         Program Version 3.0.3 - RELEASE   -
|  1> ! RI PBE def2-SVP def2-SVP/J NBO PAL2
|  2> % maxcore 2000
|  3> % output
|  4>     # printlevel mini
|  5>     print[ P_Basis ] 0
|  6>     print[ P_SCFInfo ] 1
|  7>     print[ P_SCFIterInfo ] 1
|  8>     print[ P_OrbEn ] 0
|  9>     print[ P_Cartesian ] 0
| 10> end
| 11> *xyz 0 1
| 12>  C        1.4736860000     0.3158510000     0.4851450000
| 13>  N        2.5326080000    -0.2246580000    -0.3281680000
| 14>  C        2.3193510000    -1.6090550000    -0.7260300000
| 15>  C        3.2231170000    -1.8107530000    -1.9410480000
| 16>  C        3.2737560000    -0.4376520000    -2.5737480000
| 17>  C        1.9729380000     0.2991350000    -2.7505300000
| 18>  C        2.8242160000     0.5171430000    -1.5236640000
| 19>  H        1.3770700000    -0.2707800000     1.4022390000
| 20>  H        0.4941240000     0.3164210000    -0.0252490000
| 21>  H        1.7089960000     1.3439160000     0.7698480000
| 22>  H        1.2669420000    -1.7888600000    -1.0037450000
| 23>  H        2.5507100000    -2.2876490000     0.0997750000
| 24>  H        2.8477850000    -2.5921810000    -2.6064000000
| 25>  H        4.2306480000    -2.0945330000    -1.6249640000
| 26>  H        4.0985750000    -0.1958670000    -3.2325480000
| 27>  H        1.0419760000    -0.2485720000    -2.6583930000
| 28>  H        1.9516170000     1.0898070000    -3.4906970000
| 29>  H        3.3010830000     1.4790760000    -1.3714230000
| 30> *
| 31>
| 32>                          ****END OF INPUT****
 Total Charge           Charge          ....    0
 Multiplicity           Mult            ....    1
 Number of Electrons    NEL             ....   54
 Basis Dimension        Dim             ....  153

MULLIKEN ATOMIC CHARGES
-----------------------
   0 C :    0.119608
   1 N :   -0.295995
   2 C :    0.054840
   3 C :    0.146139
   4 C :   -0.204942
   5 C :    0.016882
   6 C :    0.037075
   7 H :    0.017939
   8 H :   -0.013597
   9 H :    0.014613
  10 H :   -0.007275
  11 H :    0.012000
  12 H :    0.015647
  13 H :    0.014029
  14 H :    0.017074
  15 H :    0.021865
  16 H :    0.025042
  17 H :    0.009056
Sum of atomic charges:   -0.0000000

LOEWDIN ATOMIC CHARGES
----------------------
   0 C :    0.004421
   1 N :   -0.101380
   2 C :    0.021384
   3 C :   -0.030026
   4 C :   -0.047552
   5 C :   -0.065559
   6 C :    0.009545
   7 H :    0.021405
   8 H :   -0.003168
   9 H :    0.022117
  10 H :   -0.000963
  11 H :    0.020508
  12 H :    0.027197
  13 H :    0.030247
  14 H :    0.023603
  15 H :    0.022533
  16 H :    0.028598
  17 H :    0.017090

  Mayer bond orders larger than 0.1
B(  0-C ,  1-N ) :   1.0411 B(  0-C ,  7-H ) :   0.9673 B(  0-C ,  8-H ) :   0.9393
B(  0-C ,  9-H ) :   0.9661 B(  1-N ,  2-C ) :   1.0161 B(  1-N ,  6-C ) :   1.0667
B(  2-C ,  3-C ) :   1.0895 B(  2-C , 10-H ) :   0.9126 B(  2-C , 11-H ) :   0.9347
B(  3-C ,  4-C ) :   1.0768 B(  3-C , 12-H ) :   0.9322 B(  3-C , 13-H ) :   0.9170
B(  4-C ,  5-C ) :   0.9729 B(  4-C ,  6-C ) :   0.9476 B(  4-C , 14-H ) :   0.9441
B(  5-C ,  6-C ) :   0.9714 B(  5-C , 15-H ) :   0.9261 B(  5-C , 16-H ) :   0.9357
B(  6-C , 17-H ) :   0.9450

FINAL SINGLE POINT ENERGY      -289.367740102638

DIPOLE MOMENT
-------------
                                X             Y             Z
Electronic contribution:      2.25010       0.51437      -0.68076
Nuclear contribution   :     -2.34556      -0.55053       0.59268
                        -----------------------------------------
Total Dipole Moment    :     -0.09546      -0.03616      -0.08808
                        -----------------------------------------
Magnitude (a.u.)       :      0.13483
Magnitude (Debye)      :      0.34271

                             ****ORCA TERMINATED NORMALLY****
TOTAL RUN TIME: 0 days 0 hours 0 minutes 7 seconds 976 msec
