                         Program Version 3.0.3 - RELEASE   -
|  1> ! RI PBE def2-SVP def2-SVP/J NBO PAL2
|  2> % maxcore 2000
|  3> % output
|  4>     # printlevel mini
|  5>     print[ P_Basis ] 0
|  6>     print[ P_SCFInfo ] 1
|  7>     print[ P_SCFIterInfo ] 1
|  8>     print[ P_OrbEn ] 0
|  9>     print[ P_Cartesian ] 0
| 10> end
| 11> *xyz 0 1
| 12>  C        1.0524240000     0.0324750000     0.0708470000
| 13>  N        2.4860280000     0.0404460000     0.0761400000
| 14>  C        3.2886400000     1.1665620000     0.0820630000
| 15>  C        4.5881170000     0.7535970000     0.0858470000
| 16>  C        4.5950590000    -0.6672940000     0.0821820000
| 17>  C        3.2781620000    -1.0697790000     0.0762230000
| 18>  N        2.7256320000    -2.3270300000     0.0710200000
| 19>  H        0.6946570000     1.0607840000     0.0720980000
| 20>  H        0.6491740000    -0.4661220000     0.9588220000
| 21>  H        0.6557250000    -0.4616490000    -0.8225640000
| 22>  H        2.8486160000     2.1502170000     0.0829730000
| 23>  H        5.4528920000     1.3986130000     0.0907490000
| 24>  H        5.4550430000    -1.3184490000     0.0837090000
| 25>  H        3.3222020000    -3.1284300000     0.0705120000
| 26>  H        1.7370100000    -2.4713610000     0.0658910000
| 27> *
| 28>
| 29>                          ****END OF INPUT****
 Total Charge           Charge          ....    0
 Multiplicity           Mult            ....    1
 Number of Electrons    NEL             ....   52
 Basis Dimension        Dim             ....  138

MULLIKEN ATOMIC CHARGES
-----------------------
   0 C :    0.080803
   1 N :   -0.207328
   2 C :    0.041620
   3 C :   -0.013342
   4 C :   -0.102896
   5 C :    0.066671
   6 N :   -0.061954
   7 H :    0.035538
   8 H :    0.037876
   9 H :    0.037708
  10 H :   -0.025504
  11 H :   -0.032446
  12 H :   -0.062923
  13 H :    0.112310
  14 H :    0.093868
Sum of atomic charges:   -0.0000000

LOEWDIN ATOMIC CHARGES
----------------------
   0 C :    0.015632
   1 N :    0.035928
   2 C :   -0.068012
   3 C :   -0.083433
   4 C :   -0.150606
   5 C :    0.008006
   6 N :   -0.024504
   7 H :    0.038341
   8 H :    0.024078
   9 H :    0.024033
  10 H :    0.010018
  11 H :    0.019922
  12 H :    0.013324
  13 H :    0.075089
  14 H :    0.062185

  Mayer bond orders larger than 0.1
B(  0-C ,  1-N ) :   1.0100 B(  0-C ,  7-H ) :   0.9642 B(  0-C ,  8-H ) :   0.9613
B(  0-C ,  9-H ) :   0.9613 B(  1-N ,  2-C ) :   1.1084 B(  1-N ,  5-C ) :   1.2085
B(  2-C ,  3-C ) :   1.5106 B(  2-C , 10-H ) :   0.9858 B(  3-C ,  4-C ) :   1.2504
B(  3-C , 11-H ) :   0.9981 B(  4-C ,  5-C ) :   1.4278 B(  4-C , 12-H ) :   1.0189
B(  5-C ,  6-N ) :   1.1998 B(  6-N , 13-H ) :   0.9502 B(  6-N , 14-H ) :   0.9458

FINAL SINGLE POINT ENERGY      -304.225132555601

DIPOLE MOMENT
-------------
                                X             Y             Z
Electronic contribution:      2.44956      -0.20822       0.00901
Nuclear contribution   :     -3.57043      -0.49206      -0.01584
                        -----------------------------------------
Total Dipole Moment    :     -1.12087      -0.70027      -0.00683
                        -----------------------------------------
Magnitude (a.u.)       :      1.32166
Magnitude (Debye)      :      3.35939

                             ****ORCA TERMINATED NORMALLY****
TOTAL RUN TIME: 0 days 0 hours 0 minutes 6 seconds 892 msec
