                         Program Version 3.0.3 - RELEASE   -
|  1> ! RI PBE def2-SVP def2-SVP/J NBO PAL2
|  2> % maxcore 2000
|  3> % output
|  4>     # printlevel mini
|  5>     print[ P_Basis ] 0
|  6>     print[ P_SCFInfo ] 1
|  7>     print[ P_SCFIterInfo ] 1
|  8>     print[ P_OrbEn ] 0
|  9>     print[ P_Cartesian ] 0
| 10> end
| 11> *xyz 0 1
| 12>  C        1.1405510000     0.1228920000    -0.2432540000
| 13>  N        2.5542110000     0.0672890000    -0.0066770000
| 14>  C        3.3217150000    -1.0728030000     0.1914430000
| 15>  C        4.6089830000    -0.7822380000     0.3855560000
| 16>  C        4.7597620000     0.7084060000     0.3169720000
| 17>  C        3.3425630000     1.1943280000     0.0527330000
| 18>  N        2.8565020000     2.3606480000    -0.1005240000
| 19>  H        0.7381250000    -0.8898040000    -0.2462430000
| 20>  H        0.9275410000     0.5996290000    -1.2036920000
| 21>  H        0.6411240000     0.7083200000     0.5332400000
| 22>  H        2.8401810000    -2.0407360000     0.1727000000
| 23>  H        5.4028420000    -1.4902070000     0.5608800000
| 24>  H        5.4266140000     1.0375730000    -0.4867230000
| 25>  H        5.1408830000     1.1461770000     1.2454520000
| 26>  H        3.5843210000     3.0643370000    -0.0245620000
| 27> *
| 28>
| 29>                          ****END OF INPUT****
 Total Charge           Charge          ....    0
 Multiplicity           Mult            ....    1
 Number of Electrons    NEL             ....   52
 Basis Dimension        Dim             ....  138

MULLIKEN ATOMIC CHARGES
-----------------------
   0 C :    0.124574
   1 N :   -0.227269
   2 C :    0.134961
   3 C :   -0.160605
   4 C :    0.151640
   5 C :   -0.168696
   6 N :   -0.112266
   7 H :    0.019265
   8 H :    0.035815
   9 H :    0.039681
  10 H :   -0.004188
  11 H :   -0.007261
  12 H :    0.048358
  13 H :    0.044719
  14 H :    0.081272
Sum of atomic charges:    0.0000000

LOEWDIN ATOMIC CHARGES
----------------------
   0 C :    0.024390
   1 N :    0.003131
   2 C :    0.015706
   3 C :   -0.105228
   4 C :   -0.051951
   5 C :    0.011256
   6 N :   -0.176621
   7 H :    0.026815
   8 H :    0.030283
   9 H :    0.030856
  10 H :    0.022899
  11 H :    0.023339
  12 H :    0.049025
  13 H :    0.048275
  14 H :    0.047823

  Mayer bond orders larger than 0.1
B(  0-C ,  1-N ) :   0.9977 B(  0-C ,  7-H ) :   0.9646 B(  0-C ,  8-H ) :   0.9616
B(  0-C ,  9-H ) :   0.9622 B(  1-N ,  2-C ) :   1.0729 B(  1-N ,  5-C ) :   1.1468
B(  2-C ,  3-C ) :   1.7291 B(  2-C , 10-H ) :   0.9833 B(  3-C ,  4-C ) :   1.0451
B(  3-C , 11-H ) :   0.9871 B(  4-C ,  5-C ) :   0.9822 B(  4-C , 12-H ) :   0.8973
B(  4-C , 13-H ) :   0.8966 B(  5-C ,  6-N ) :   1.9443 B(  6-N , 14-H ) :   0.9282

FINAL SINGLE POINT ENERGY      -304.218893110897

DIPOLE MOMENT
-------------
                                X             Y             Z
Electronic contribution:      1.06273       0.39288       0.15419
Nuclear contribution   :     -0.79615      -0.97086      -0.07025
                        -----------------------------------------
Total Dipole Moment    :      0.26658      -0.57798       0.08393
                        -----------------------------------------
Magnitude (a.u.)       :      0.64200
Magnitude (Debye)      :      1.63183

                             ****ORCA TERMINATED NORMALLY****
TOTAL RUN TIME: 0 days 0 hours 0 minutes 7 seconds 133 msec
