                         Program Version 3.0.3 - RELEASE   -
|  1> ! RI PBE def2-SVP def2-SVP/J NBO PAL2
|  2> % maxcore 2000
|  3> % output
|  4>     # printlevel mini
|  5>     print[ P_Basis ] 0
|  6>     print[ P_SCFInfo ] 1
|  7>     print[ P_SCFIterInfo ] 1
|  8>     print[ P_OrbEn ] 0
|  9>     print[ P_Cartesian ] 0
| 10> end
| 11> *xyz 0 1
| 12>  C        1.2208930000    -0.0213180000     0.2387610000
| 13>  N        2.6307230000    -0.0712060000    -0.0132960000
| 14>  C        3.3900790000    -1.2744510000    -0.1941820000
| 15>  C        4.7727180000    -0.7581210000    -0.4200420000
| 16>  C        4.7728380000     0.5712830000    -0.3693190000
| 17>  C        3.4022580000     1.0537160000    -0.1075000000
| 18>  N        2.9260980000     2.2338250000     0.0219880000
| 19>  H        0.8249070000    -1.0368690000     0.2708010000
| 20>  H        0.7005650000     0.5390330000    -0.5438650000
| 21>  H        1.0085280000     0.4736870000     1.1911740000
| 22>  H        3.0363730000    -1.8665100000    -1.0518190000
| 23>  H        3.3451370000    -1.9329610000     0.6864570000
| 24>  H        5.6206000000    -1.4063840000    -0.5953700000
| 25>  H        5.6194490000     1.2321080000    -0.4944630000
| 26>  H        3.6640160000     2.9223460000    -0.0828360000
| 27> *
| 28>
| 29>                          ****END OF INPUT****
 Total Charge           Charge          ....    0
 Multiplicity           Mult            ....    1
 Number of Electrons    NEL             ....   52
 Basis Dimension        Dim             ....  138

MULLIKEN ATOMIC CHARGES
-----------------------
   0 C :    0.125057
   1 N :   -0.312567
   2 C :    0.224528
   3 C :   -0.108853
   4 C :    0.028253
   5 C :   -0.040202
   6 N :   -0.126272
   7 H :    0.014277
   8 H :    0.034416
   9 H :    0.030553
  10 H :    0.036055
  11 H :    0.036585
  12 H :    0.005392
  13 H :   -0.025339
  14 H :    0.078116
Sum of atomic charges:   -0.0000000

LOEWDIN ATOMIC CHARGES
----------------------
   0 C :    0.020041
   1 N :   -0.035530
   2 C :    0.036516
   3 C :   -0.021820
   4 C :   -0.044921
   5 C :   -0.007607
   6 N :   -0.191729
   7 H :    0.024628
   8 H :    0.028258
   9 H :    0.027711
  10 H :    0.031989
  11 H :    0.032203
  12 H :    0.027684
  13 H :    0.028484
  14 H :    0.044093

  Mayer bond orders larger than 0.1
B(  0-C ,  1-N ) :   1.0085 B(  0-C ,  7-H ) :   0.9649 B(  0-C ,  8-H ) :   0.9620
B(  0-C ,  9-H ) :   0.9615 B(  1-N ,  2-C ) :   1.0156 B(  1-N ,  5-C ) :   1.1538
B(  2-C ,  3-C ) :   1.0240 B(  2-C , 10-H ) :   0.9073 B(  2-C , 11-H ) :   0.9073
B(  3-C ,  4-C ) :   1.7727 B(  3-C , 12-H ) :   0.9815 B(  4-C ,  5-C ) :   1.0002
B(  4-C , 13-H ) :   1.0103 B(  5-C ,  6-N ) :   1.8520 B(  6-N , 14-H ) :   0.9248

FINAL SINGLE POINT ENERGY      -304.215975274938

DIPOLE MOMENT
-------------
                                X             Y             Z
Electronic contribution:      2.54475       1.84828      -0.38454
Nuclear contribution   :     -2.07512      -2.87805       0.25818
                        -----------------------------------------
Total Dipole Moment    :      0.46963      -1.02977      -0.12636
                        -----------------------------------------
Magnitude (a.u.)       :      1.13883
Magnitude (Debye)      :      2.89467

                             ****ORCA TERMINATED NORMALLY****
TOTAL RUN TIME: 0 days 0 hours 0 minutes 7 seconds 629 msec
