                         Program Version 3.0.3 - RELEASE   -
|  1> ! RI PBE def2-SVP def2-SVP/J NBO PAL2
|  2> % maxcore 2000
|  3> % output
|  4>     # printlevel mini
|  5>     print[ P_Basis ] 0
|  6>     print[ P_SCFInfo ] 1
|  7>     print[ P_SCFIterInfo ] 1
|  8>     print[ P_OrbEn ] 0
|  9>     print[ P_Cartesian ] 0
| 10> end
| 11> *xyz 0 1
| 12>  C        1.1792400000    -0.1181900000     0.1582480000
| 13>  N        2.5479450000    -0.0705660000    -0.2618050000
| 14>  C        3.3433570000     1.1222170000    -0.1149360000
| 15>  C        4.6488390000     0.7515430000    -0.8139870000
| 16>  C        4.7372920000    -0.7579050000    -0.6058700000
| 17>  C        3.2979450000    -1.1988630000    -0.4383230000
| 18>  N        2.8029300000    -2.3733850000    -0.4211190000
| 19>  H        0.5917490000     0.6419910000    -0.3643850000
| 20>  H        1.0785650000     0.0496880000     1.2389900000
| 21>  H        0.7866380000    -1.1070060000    -0.0752820000
| 22>  H        3.5078370000     1.3674890000     0.9467910000
| 23>  H        2.8453560000     1.9814850000    -0.5742900000
| 24>  H        5.5052910000     1.2972720000    -0.4173260000
| 25>  H        4.5684120000     0.9787520000    -1.8793910000
| 26>  H        5.2766570000    -1.0044150000     0.3146720000
| 27>  H        5.2254260000    -1.2888880000    -1.4239470000
| 28>  H        3.5239110000    -3.0624300000    -0.6066490000
| 29> *
| 30>
| 31>                          ****END OF INPUT****
 Total Charge           Charge          ....    0
 Multiplicity           Mult            ....    1
 Number of Electrons    NEL             ....   54
 Basis Dimension        Dim             ....  148

MULLIKEN ATOMIC CHARGES
-----------------------
   0 C :    0.108965
   1 N :   -0.289609
   2 C :    0.144599
   3 C :   -0.024751
   4 C :    0.038807
   5 C :   -0.128227
   6 N :   -0.124974
   7 H :    0.017570
   8 H :    0.014117
   9 H :    0.047470
  10 H :    0.008363
  11 H :    0.010665
  12 H :    0.012099
  13 H :    0.029604
  14 H :    0.034951
  15 H :    0.024843
  16 H :    0.075506
Sum of atomic charges:    0.0000000

LOEWDIN ATOMIC CHARGES
----------------------
   0 C :    0.014474
   1 N :   -0.034687
   2 C :    0.033894
   3 C :   -0.039699
   4 C :   -0.057706
   5 C :   -0.000247
   6 N :   -0.192917
   7 H :    0.020602
   8 H :    0.016948
   9 H :    0.035472
  10 H :    0.009328
  11 H :    0.018678
  12 H :    0.027052
  13 H :    0.031089
  14 H :    0.039711
  15 H :    0.033978
  16 H :    0.044030

  Mayer bond orders larger than 0.1
B(  0-C ,  1-N ) :   1.0118 B(  0-C ,  7-H ) :   0.9663 B(  0-C ,  8-H ) :   0.9593
B(  0-C ,  9-H ) :   0.9486 B(  1-N ,  2-C ) :   0.9929 B(  1-N ,  5-C ) :   1.1768
B(  2-C ,  3-C ) :   1.0897 B(  2-C , 10-H ) :   0.9259 B(  2-C , 11-H ) :   0.9394
B(  3-C ,  4-C ) :   1.1075 B(  3-C , 12-H ) :   0.9310 B(  3-C , 13-H ) :   0.9364
B(  4-C ,  5-C ) :   0.9823 B(  4-C , 14-H ) :   0.9119 B(  4-C , 15-H ) :   0.9235
B(  5-C ,  6-N ) :   1.9322 B(  6-N , 16-H ) :   0.9260

FINAL SINGLE POINT ENERGY      -305.433994899204

DIPOLE MOMENT
-------------
                                X             Y             Z
Electronic contribution:     -0.17244      -2.54206      -0.58797
Nuclear contribution   :      0.77935       3.37088       0.60661
                        -----------------------------------------
Total Dipole Moment    :      0.60692       0.82882       0.01863
                        -----------------------------------------
Magnitude (a.u.)       :      1.02744
Magnitude (Debye)      :      2.61155

                             ****ORCA TERMINATED NORMALLY****
TOTAL RUN TIME: 0 days 0 hours 0 minutes 8 seconds 238 msec
