                         Program Version 3.0.3 - RELEASE   -
|  1> ! RI PBE def2-SVP def2-SVP/J NBO PAL2
|  2> % maxcore 2000
|  3> % output
|  4>     # printlevel mini
|  5>     print[ P_Basis ] 0
|  6>     print[ P_SCFInfo ] 1
|  7>     print[ P_SCFIterInfo ] 1
|  8>     print[ P_OrbEn ] 0
|  9>     print[ P_Cartesian ] 0
| 10> end
| 11> *xyz 0 1
| 12>  C        0.9161390000     0.1095780000     0.1819040000
| 13>  N        2.3404860000     0.0485610000    -0.0478120000
| 14>  C        2.8246370000    -1.2796370000    -0.3828450000
| 15>  C        2.5087270000    -1.7189140000    -1.8110730000
| 16>  C        3.0271930000    -0.6882450000    -2.8071800000
| 17>  C        2.5081560000     0.7015980000    -2.4575400000
| 18>  C        2.8240860000     1.0330640000    -1.0005170000
| 19>  H        0.6476150000    -0.5919080000     0.9762510000
| 20>  H        0.2874330000    -0.1242680000    -0.6933630000
| 21>  H        0.6472310000     1.1135520000     0.5208770000
| 22>  H        2.4167310000    -1.9906180000     0.3418040000
| 23>  H        3.9144480000    -1.2785570000    -0.2481510000
| 24>  H        1.4261750000    -1.8388990000    -1.9334650000
| 25>  H        2.9542000000    -2.7006070000    -2.0011590000
| 26>  H        2.7506230000    -0.9613950000    -3.8296730000
| 27>  H        4.1247140000    -0.6786630000    -2.7722670000
| 28>  H        1.4255660000     0.7441040000    -2.6233360000
| 29>  H        2.9532190000     1.4579870000    -3.1118310000
| 30>  H        2.4157710000     2.0104890000    -0.7268080000
| 31>  H        3.9138800000     1.0997770000    -0.8833460000
| 32> *
| 33>
| 34>                          ****END OF INPUT****
 Total Charge           Charge          ....    0
 Multiplicity           Mult            ....    1
 Number of Electrons    NEL             ....   56
 Basis Dimension        Dim             ....  163

MULLIKEN ATOMIC CHARGES
-----------------------
   0 C :    0.098013
   1 N :   -0.323457
   2 C :    0.089280
   3 C :   -0.011405
   4 C :   -0.003896
   5 C :   -0.025240
   6 C :    0.103176
   7 H :    0.015245
   8 H :   -0.000906
   9 H :    0.013229
  10 H :    0.005853
  11 H :    0.000076
  12 H :    0.007831
  13 H :    0.003084
  14 H :    0.006874
  15 H :    0.004712
  16 H :    0.008661
  17 H :    0.007731
  18 H :    0.000780
  19 H :    0.000360
Sum of atomic charges:   -0.0000000

LOEWDIN ATOMIC CHARGES
----------------------
   0 C :    0.000089
   1 N :   -0.113326
   2 C :    0.012663
   3 C :   -0.058859
   4 C :   -0.043338
   5 C :   -0.060259
   6 C :    0.014194
   7 H :    0.021672
   8 H :   -0.005984
   9 H :    0.021525
  10 H :    0.020469
  11 H :    0.017800
  12 H :    0.021458
  13 H :    0.024216
  14 H :    0.022306
  15 H :    0.021102
  16 H :    0.021328
  17 H :    0.025420
  18 H :    0.019369
  19 H :    0.018156

  Mayer bond orders larger than 0.1
B(  0-C ,  1-N ) :   1.0363 B(  0-C ,  7-H ) :   0.9652 B(  0-C ,  8-H ) :   0.9385
B(  0-C ,  9-H ) :   0.9645 B(  1-N ,  2-C ) :   1.0630 B(  1-N ,  6-C ) :   1.0579
B(  2-C ,  3-C ) :   1.0798 B(  2-C , 10-H ) :   0.9346 B(  2-C , 11-H ) :   0.9284
B(  3-C ,  4-C ) :   1.0904 B(  3-C , 12-H ) :   0.9242 B(  3-C , 13-H ) :   0.9228
B(  4-C ,  5-C ) :   1.0923 B(  4-C , 14-H ) :   0.9355 B(  4-C , 15-H ) :   0.9328
B(  5-C ,  6-C ) :   1.0842 B(  5-C , 16-H ) :   0.9253 B(  5-C , 17-H ) :   0.9220
B(  6-C , 18-H ) :   0.9349 B(  6-C , 19-H ) :   0.9278

FINAL SINGLE POINT ENERGY      -290.594838815615

DIPOLE MOMENT
-------------
                                X             Y             Z
Electronic contribution:      1.16109       0.34597       1.28272
Nuclear contribution   :     -1.28316      -0.40479      -1.51451
                        -----------------------------------------
Total Dipole Moment    :     -0.12207      -0.05882      -0.23179
                        -----------------------------------------
Magnitude (a.u.)       :      0.26849
Magnitude (Debye)      :      0.68245

                             ****ORCA TERMINATED NORMALLY****
TOTAL RUN TIME: 0 days 0 hours 0 minutes 9 seconds 180 msec
