                         Program Version 3.0.3 - RELEASE   -
|  1> ! RI PBE def2-SVP def2-SVP/J NBO PAL2
|  2> % maxcore 2000
|  3> % output
|  4>     # printlevel mini
|  5>     print[ P_Basis ] 0
|  6>     print[ P_SCFInfo ] 1
|  7>     print[ P_SCFIterInfo ] 1
|  8>     print[ P_OrbEn ] 0
|  9>     print[ P_Cartesian ] 0
| 10> end
| 11> *xyz 0 1
| 12>  C        1.3662470000    -0.0829900000     0.5713200000
| 13>  N        2.5154620000    -0.0473760000    -0.2866610000
| 14>  C        2.7553530000    -1.2519520000    -1.0660070000
| 15>  C        3.4949530000    -0.7382420000    -2.2578250000
| 16>  C        3.4150540000     0.5861350000    -2.3304730000
| 17>  C        3.9710390000     1.4929680000    -3.3664380000
| 18>  C        2.5990260000     1.0945500000    -1.1780670000
| 19>  H        1.4363440000    -0.9318430000     1.2562050000
| 20>  H        0.4118420000    -0.1703790000     0.0186800000
| 21>  H        1.3215910000     0.8259190000     1.1767310000
| 22>  H        1.8147230000    -1.7481640000    -1.3791630000
| 23>  H        3.3205720000    -1.9912940000    -0.4844110000
| 24>  H        3.9965110000    -1.3811240000    -2.9710840000
| 25>  H        4.5016620000     0.9375470000    -4.1410060000
| 26>  H        4.6656620000     2.2152680000    -2.9251210000
| 27>  H        3.1771700000     2.0751180000    -3.8466760000
| 28>  H        1.6060070000     1.4294420000    -1.5428000000
| 29>  H        3.0550940000     1.9590080000    -0.6771960000
| 30> *
| 31>
| 32>                          ****END OF INPUT****
 Total Charge           Charge          ....    0
 Multiplicity           Mult            ....    1
 Number of Electrons    NEL             ....   54
 Basis Dimension        Dim             ....  153

MULLIKEN ATOMIC CHARGES
-----------------------
   0 C :    0.093532
   1 N :   -0.386810
   2 C :    0.225637
   3 C :   -0.134943
   4 C :   -0.200088
   5 C :    0.076078
   6 C :    0.249401
   7 H :    0.022406
   8 H :   -0.011275
   9 H :    0.020347
  10 H :   -0.008874
  11 H :    0.014048
  12 H :   -0.024049
  13 H :    0.018011
  14 H :    0.031989
  15 H :    0.026533
  16 H :   -0.015414
  17 H :    0.003473
Sum of atomic charges:   -0.0000000

LOEWDIN ATOMIC CHARGES
----------------------
   0 C :   -0.000657
   1 N :   -0.117366
   2 C :    0.027362
   3 C :   -0.055021
   4 C :   -0.043594
   5 C :   -0.058337
   6 C :    0.032551
   7 H :    0.023012
   8 H :   -0.005577
   9 H :    0.022481
  10 H :    0.005548
  11 H :    0.018750
  12 H :    0.020758
  13 H :    0.034117
  14 H :    0.037776
  15 H :    0.036957
  16 H :    0.004617
  17 H :    0.016622

  Mayer bond orders larger than 0.1
B(  0-C ,  1-N ) :   1.0430 B(  0-C ,  7-H ) :   0.9686 B(  0-C ,  8-H ) :   0.9379
B(  0-C ,  9-H ) :   0.9682 B(  1-N ,  2-C ) :   1.0161 B(  1-N ,  6-C ) :   1.0125
B(  2-C ,  3-C ) :   1.0117 B(  2-C , 10-H ) :   0.8881 B(  2-C , 11-H ) :   0.9262
B(  3-C ,  4-C ) :   1.8750 B(  3-C , 12-H ) :   0.9842 B(  4-C ,  5-C ) :   1.1123
B(  4-C ,  6-C ) :   1.0271 B(  5-C , 13-H ) :   0.9508 B(  5-C , 14-H ) :   0.9413
B(  5-C , 15-H ) :   0.9403 B(  6-C , 16-H ) :   0.8830 B(  6-C , 17-H ) :   0.9225

FINAL SINGLE POINT ENERGY      -289.377291133103

DIPOLE MOMENT
-------------
                                X             Y             Z
Electronic contribution:      1.74494      -1.23940      -0.03683
Nuclear contribution   :     -1.84191       1.34117      -0.18059
                        -----------------------------------------
Total Dipole Moment    :     -0.09697       0.10177      -0.21743
                        -----------------------------------------
Magnitude (a.u.)       :      0.25891
Magnitude (Debye)      :      0.65810

                             ****ORCA TERMINATED NORMALLY****
TOTAL RUN TIME: 0 days 0 hours 0 minutes 7 seconds 725 msec
