                         Program Version 3.0.3 - RELEASE   -
|  1> ! RI PBE def2-SVP def2-SVP/J NBO PAL2
|  2> % maxcore 2000
|  3> % output
|  4>     # printlevel mini
|  5>     print[ P_Basis ] 0
|  6>     print[ P_SCFInfo ] 1
|  7>     print[ P_SCFIterInfo ] 1
|  8>     print[ P_OrbEn ] 0
|  9>     print[ P_Cartesian ] 0
| 10> end
| 11> *xyz 0 1
| 12>  C        1.0268860000     0.0130710000     0.2273240000
| 13>  N        2.4602920000     0.0007000000     0.2218180000
| 14>  C        3.1767630000     1.0393730000     0.9612000000
| 15>  C        4.2473670000    -0.0065220000     1.3477830000
| 16>  C        4.7250170000    -0.0002350000     2.7825140000
| 17>  C        5.4082790000    -0.0236190000     0.3702830000
| 18>  C        3.1588590000    -1.0393170000     0.9762880000
| 19>  H        0.6590730000     0.8951500000    -0.3035630000
| 20>  H        0.5999240000     0.0242440000     1.2475480000
| 21>  H        0.6439100000    -0.8702800000    -0.2905680000
| 22>  H        2.6219160000     1.3958380000     1.8450670000
| 23>  H        3.4927410000     1.9028100000     0.3660170000
| 24>  H        5.3463600000     0.8780010000     2.9831860000
| 25>  H        5.3311320000    -0.8860650000     2.9959780000
| 26>  H        3.8881030000     0.0120810000     3.4848260000
| 27>  H        6.0450460000     0.8557940000     0.5060080000
| 28>  H        5.0459510000    -0.0280220000    -0.6600350000
| 29>  H        6.0298700000    -0.9117650000     0.5188940000
| 30>  H        2.5980760000    -1.3733030000     1.8651760000
| 31>  H        3.4598350000    -1.9166240000     0.3937450000
| 32> *
| 33>
| 34>                          ****END OF INPUT****
 Total Charge           Charge          ....    0
 Multiplicity           Mult            ....    1
 Number of Electrons    NEL             ....   56
 Basis Dimension        Dim             ....  163

MULLIKEN ATOMIC CHARGES
-----------------------
   0 C :    0.089728
   1 N :   -0.362057
   2 C :    0.258480
   3 C :   -0.489949
   4 C :    0.083804
   5 C :    0.084929
   6 C :    0.258472
   7 H :    0.022691
   8 H :   -0.013866
   9 H :    0.022746
  10 H :   -0.028047
  11 H :    0.000653
  12 H :    0.017612
  13 H :    0.017619
  14 H :    0.011069
  15 H :    0.015594
  16 H :    0.022520
  17 H :    0.015281
  18 H :   -0.027704
  19 H :    0.000426
Sum of atomic charges:   -0.0000000

LOEWDIN ATOMIC CHARGES
----------------------
   0 C :   -0.007774
   1 N :   -0.117574
   2 C :    0.043216
   3 C :   -0.065593
   4 C :   -0.057293
   5 C :   -0.049150
   6 C :    0.043262
   7 H :    0.023752
   8 H :   -0.006102
   9 H :    0.023760
  10 H :   -0.000770
  11 H :    0.008013
  12 H :    0.027438
  13 H :    0.027431
  14 H :    0.021737
  15 H :    0.024620
  16 H :    0.029201
  17 H :    0.024585
  18 H :   -0.000743
  19 H :    0.007983

  Mayer bond orders larger than 0.1
B(  0-C ,  1-N ) :   1.0441 B(  0-C ,  7-H ) :   0.9691 B(  0-C ,  8-H ) :   0.9361
B(  0-C ,  9-H ) :   0.9691 B(  1-N ,  2-C ) :   1.0115 B(  1-N ,  6-C ) :   1.0109
B(  2-C ,  3-C ) :   1.0194 B(  2-C , 10-H ) :   0.9026 B(  2-C , 11-H ) :   0.9311
B(  3-C ,  4-C ) :   1.0714 B(  3-C ,  5-C ) :   1.0405 B(  3-C ,  6-C ) :   1.0193
B(  4-C , 12-H ) :   0.9559 B(  4-C , 13-H ) :   0.9560 B(  4-C , 14-H ) :   0.9450
B(  5-C , 15-H ) :   0.9578 B(  5-C , 16-H ) :   0.9486 B(  5-C , 17-H ) :   0.9575
B(  6-C , 18-H ) :   0.9029 B(  6-C , 19-H ) :   0.9312

FINAL SINGLE POINT ENERGY      -290.568511053121

DIPOLE MOMENT
-------------
                                X             Y             Z
Electronic contribution:     -0.90707      -0.00467      -1.70674
Nuclear contribution   :      0.90105       0.00626       1.94295
                        -----------------------------------------
Total Dipole Moment    :     -0.00602       0.00159       0.23621
                        -----------------------------------------
Magnitude (a.u.)       :      0.23629
Magnitude (Debye)      :      0.60061

                             ****ORCA TERMINATED NORMALLY****
TOTAL RUN TIME: 0 days 0 hours 0 minutes 9 seconds 25 msec
