                         Program Version 3.0.3 - RELEASE   -
|  1> ! RI PBE def2-SVP def2-SVP/J NBO PAL2
|  2> % maxcore 2000
|  3> % output
|  4>     # printlevel mini
|  5>     print[ P_Basis ] 0
|  6>     print[ P_SCFInfo ] 1
|  7>     print[ P_SCFIterInfo ] 1
|  8>     print[ P_OrbEn ] 0
|  9>     print[ P_Cartesian ] 0
| 10> end
| 11> *xyz 0 1
| 12>  C        0.9629000000    -0.0217290000    -0.3831900000
| 13>  N        2.2977380000    -0.0881700000     0.1697370000
| 14>  C        3.1033970000     1.0756680000    -0.1531380000
| 15>  C        3.4262830000     1.2028340000    -1.6419150000
| 16>  C        3.8427190000    -0.1202920000    -2.2031360000
| 17>  C        3.6573310000    -1.2582870000    -1.5426260000
| 18>  C        2.9968850000    -1.3072720000    -0.1944300000
| 19>  H        0.4874670000     0.9102160000    -0.0664010000
| 20>  H        0.3649980000    -0.8485410000     0.0083740000
| 21>  H        0.9212860000    -0.0690910000    -1.4838130000
| 22>  H        4.0406070000     0.9928490000     0.4081860000
| 23>  H        2.5904250000     1.9709500000     0.2099590000
| 24>  H        4.2218390000     1.9417590000    -1.7887660000
| 25>  H        2.5618520000     1.5892610000    -2.1979710000
| 26>  H        4.3133700000    -0.1337940000    -3.1823450000
| 27>  H        4.0012400000    -2.1979970000    -1.9668400000
| 28>  H        3.7550850000    -1.5284160000     0.5710550000
| 29>  H        2.2860690000    -2.1390480000    -0.1552490000
| 30> *
| 31>
| 32>                          ****END OF INPUT****
 Total Charge           Charge          ....    0
 Multiplicity           Mult            ....    1
 Number of Electrons    NEL             ....   54
 Basis Dimension        Dim             ....  153

MULLIKEN ATOMIC CHARGES
-----------------------
   0 C :    0.091389
   1 N :   -0.332334
   2 C :    0.103711
   3 C :    0.018847
   4 C :   -0.057824
   5 C :   -0.113207
   6 C :    0.181530
   7 H :    0.016234
   8 H :    0.017673
   9 H :    0.006952
  10 H :    0.008077
  11 H :    0.003895
  12 H :    0.018241
  13 H :    0.025373
  14 H :   -0.007710
  15 H :   -0.010905
  16 H :    0.021751
  17 H :    0.008307
Sum of atomic charges:   -0.0000000

LOEWDIN ATOMIC CHARGES
----------------------
   0 C :    0.000582
   1 N :   -0.114131
   2 C :    0.018469
   3 C :   -0.064198
   4 C :   -0.046729
   5 C :   -0.062035
   6 C :    0.013002
   7 H :    0.021954
   8 H :    0.021776
   9 H :    0.000586
  10 H :    0.022219
  11 H :    0.020054
  12 H :    0.033731
  13 H :    0.031096
  14 H :    0.023313
  15 H :    0.022763
  16 H :    0.029219
  17 H :    0.028328

  Mayer bond orders larger than 0.1
B(  0-C ,  1-N ) :   1.0283 B(  0-C ,  7-H ) :   0.9656 B(  0-C ,  8-H ) :   0.9641
B(  0-C ,  9-H ) :   0.9435 B(  1-N ,  2-C ) :   1.0578 B(  1-N ,  6-C ) :   1.0551
B(  2-C ,  3-C ) :   1.0773 B(  2-C , 10-H ) :   0.9358 B(  2-C , 11-H ) :   0.9367
B(  3-C ,  4-C ) :   1.0466 B(  3-C , 12-H ) :   0.9137 B(  3-C , 13-H ) :   0.9001
B(  4-C ,  5-C ) :   1.9250 B(  4-C , 14-H ) :   0.9619 B(  5-C ,  6-C ) :   1.0129
B(  5-C , 15-H ) :   0.9544 B(  6-C , 16-H ) :   0.9151 B(  6-C , 17-H ) :   0.9221

FINAL SINGLE POINT ENERGY      -289.374618602373

DIPOLE MOMENT
-------------
                                X             Y             Z
Electronic contribution:      1.80967      -1.03671       0.24924
Nuclear contribution   :     -1.81706       1.08412      -0.45652
                        -----------------------------------------
Total Dipole Moment    :     -0.00739       0.04741      -0.20729
                        -----------------------------------------
Magnitude (a.u.)       :      0.21277
Magnitude (Debye)      :      0.54082

                             ****ORCA TERMINATED NORMALLY****
TOTAL RUN TIME: 0 days 0 hours 0 minutes 8 seconds 527 msec
