                         Program Version 3.0.3 - RELEASE   -
|  1> ! RI PBE def2-SVP def2-SVP/J NBO PAL2
|  2> % maxcore 2000
|  3> % output
|  4>     # printlevel mini
|  5>     print[ P_Basis ] 0
|  6>     print[ P_SCFInfo ] 1
|  7>     print[ P_SCFIterInfo ] 1
|  8>     print[ P_OrbEn ] 0
|  9>     print[ P_Cartesian ] 0
| 10> end
| 11> *xyz 0 1
| 12>  C        1.1523540000    -0.0686190000    -0.0846920000
| 13>  N        2.5581890000    -0.0914650000     0.2092270000
| 14>  C        3.0285070000     1.0268060000     1.0035630000
| 15>  C        4.4456300000     0.6103920000     1.3732000000
| 16>  C        4.3375220000    -0.8906580000     1.4888790000
| 17>  C        5.2326150000    -1.7143960000     2.0130050000
| 18>  C        3.0021770000    -1.2814690000     0.9112920000
| 19>  H        0.8987950000     0.8439710000    -0.6293050000
| 20>  H        0.5256750000    -0.1105550000     0.8259430000
| 21>  H        0.8870460000    -0.9203920000    -0.7156760000
| 22>  H        2.4195960000     1.1618200000     1.9186350000
| 23>  H        2.9785630000     1.9561490000     0.4307840000
| 24>  H        4.8109910000     1.0802530000     2.2877910000
| 25>  H        5.1342340000     0.8684990000     0.5629290000
| 26>  H        6.1612930000    -1.3468100000     2.4353560000
| 27>  H        5.0711060000    -2.7866610000     2.0387570000
| 28>  H        2.3095700000    -1.5476580000     1.7351160000
| 29>  H        3.0569450000    -2.1425970000     0.2392070000
| 30> *
| 31>
| 32>                          ****END OF INPUT****
 Total Charge           Charge          ....    0
 Multiplicity           Mult            ....    1
 Number of Electrons    NEL             ....   54
 Basis Dimension        Dim             ....  153

MULLIKEN ATOMIC CHARGES
-----------------------
   0 C :    0.106428
   1 N :   -0.381077
   2 C :    0.108226
   3 C :    0.112959
   4 C :   -0.247441
   5 C :   -0.044621
   6 C :    0.246177
   7 H :    0.020021
   8 H :   -0.012626
   9 H :    0.022574
  10 H :   -0.017047
  11 H :    0.008003
  12 H :    0.016754
  13 H :    0.035533
  14 H :    0.006272
  15 H :    0.009780
  16 H :   -0.008080
  17 H :    0.018165
Sum of atomic charges:   -0.0000000

LOEWDIN ATOMIC CHARGES
----------------------
   0 C :    0.000383
   1 N :   -0.116119
   2 C :    0.023001
   3 C :   -0.035997
   4 C :   -0.029055
   5 C :   -0.082414
   6 C :    0.026452
   7 H :    0.023251
   8 H :   -0.002819
   9 H :    0.023474
  10 H :   -0.004107
  11 H :    0.018453
  12 H :    0.033260
  13 H :    0.042000
  14 H :    0.022606
  15 H :    0.022824
  16 H :    0.008345
  17 H :    0.026460

  Mayer bond orders larger than 0.1
B(  0-C ,  1-N ) :   1.0399 B(  0-C ,  7-H ) :   0.9673 B(  0-C ,  8-H ) :   0.9356
B(  0-C ,  9-H ) :   0.9676 B(  1-N ,  2-C ) :   1.0012 B(  1-N ,  6-C ) :   1.0027
B(  2-C ,  3-C ) :   1.1018 B(  2-C , 10-H ) :   0.9044 B(  2-C , 11-H ) :   0.9351
B(  3-C ,  4-C ) :   1.0564 B(  3-C , 12-H ) :   0.9218 B(  3-C , 13-H ) :   0.8977
B(  4-C ,  5-C ) :   2.0362 B(  4-C ,  6-C ) :   1.0256 B(  5-C , 14-H ) :   0.9315
B(  5-C , 15-H ) :   0.9331 B(  6-C , 16-H ) :   0.8853 B(  6-C , 17-H ) :   0.9232

FINAL SINGLE POINT ENERGY      -289.372467490726

DIPOLE MOMENT
-------------
                                X             Y             Z
Electronic contribution:      2.21627      -0.51150      -0.31910
Nuclear contribution   :     -2.38583       0.64772       0.38020
                        -----------------------------------------
Total Dipole Moment    :     -0.16956       0.13622       0.06110
                        -----------------------------------------
Magnitude (a.u.)       :      0.22592
Magnitude (Debye)      :      0.57424

                             ****ORCA TERMINATED NORMALLY****
TOTAL RUN TIME: 0 days 0 hours 0 minutes 7 seconds 807 msec
