                         Program Version 3.0.3 - RELEASE   -
|  1> ! RI PBE def2-SVP def2-SVP/J NBO PAL2
|  2> % maxcore 2000
|  3> % output
|  4>     # printlevel mini
|  5>     print[ P_Basis ] 0
|  6>     print[ P_SCFInfo ] 1
|  7>     print[ P_SCFIterInfo ] 1
|  8>     print[ P_OrbEn ] 0
|  9>     print[ P_Cartesian ] 0
| 10> end
| 11> *xyz 0 1
| 12>  C        0.9904300000     0.0046440000     0.0173720000
| 13>  N        2.4253570000     0.0837330000     0.0179220000
| 14>  C        3.0475480000     1.4033460000     0.0070620000
| 15>  C        4.5384330000     1.2853800000     0.0094740000
| 16>  C        5.1413390000     0.0980090000     0.0199480000
| 17>  C        4.3449260000    -1.1088640000     0.0293280000
| 18>  N        3.0578530000    -1.0777350000     0.0280780000
| 19>  H        0.5792710000     1.0147160000     0.0087970000
| 20>  H        0.6197730000    -0.5112200000     0.9087000000
| 21>  H        0.6212180000    -0.5256890000    -0.8660360000
| 22>  H        2.7064360000     1.9876090000     0.8797510000
| 23>  H        2.7080680000     1.9724590000    -0.8762260000
| 24>  H        5.1052950000     2.2098160000     0.0022630000
| 25>  H        6.2226020000     0.0217960000     0.0215780000
| 26>  H        4.7983520000    -2.0919010000     0.0379000000
| 27> *
| 28>
| 29>                          ****END OF INPUT****
 Total Charge           Charge          ....    0
 Multiplicity           Mult            ....    1
 Number of Electrons    NEL             ....   52
 Basis Dimension        Dim             ....  138

MULLIKEN ATOMIC CHARGES
-----------------------
   0 C :    0.123046
   1 N :   -0.260099
   2 C :    0.223566
   3 C :   -0.128768
   4 C :    0.021316
   5 C :   -0.065287
   6 N :   -0.025628
   7 H :    0.019539
   8 H :    0.034590
   9 H :    0.034742
  10 H :    0.017085
  11 H :    0.016755
  12 H :    0.003035
  13 H :   -0.005423
  14 H :   -0.008471
Sum of atomic charges:   -0.0000000

LOEWDIN ATOMIC CHARGES
----------------------
   0 C :    0.011204
   1 N :   -0.000923
   2 C :    0.017942
   3 C :   -0.040983
   4 C :   -0.058072
   5 C :   -0.092735
   6 N :   -0.019751
   7 H :    0.026247
   8 H :    0.026636
   9 H :    0.026653
  10 H :    0.013859
  11 H :    0.013751
  12 H :    0.027732
  13 H :    0.031655
  14 H :    0.016788

  Mayer bond orders larger than 0.1
B(  0-C ,  1-N ) :   0.9984 B(  0-C ,  7-H ) :   0.9619 B(  0-C ,  8-H ) :   0.9647
B(  0-C ,  9-H ) :   0.9647 B(  1-N ,  2-C ) :   0.9432 B(  1-N ,  5-C ) :   0.1367
B(  1-N ,  6-N ) :   1.1626 B(  2-C ,  3-C ) :   1.0403 B(  2-C , 10-H ) :   0.9185
B(  2-C , 11-H ) :   0.9184 B(  3-C ,  4-C ) :   1.8123 B(  3-C , 12-H ) :   0.9600
B(  4-C ,  5-C ) :   1.0574 B(  4-C , 13-H ) :   0.9721 B(  5-C ,  6-N ) :   1.7572
B(  5-C , 14-H ) :   0.9718

FINAL SINGLE POINT ENERGY      -304.177772461312

DIPOLE MOMENT
-------------
                                X             Y             Z
Electronic contribution:      2.67905      -2.29425       0.02198
Nuclear contribution   :     -2.86219       3.00719      -0.02793
                        -----------------------------------------
Total Dipole Moment    :     -0.18314       0.71294      -0.00595
                        -----------------------------------------
Magnitude (a.u.)       :      0.73611
Magnitude (Debye)      :      1.87105

                             ****ORCA TERMINATED NORMALLY****
TOTAL RUN TIME: 0 days 0 hours 0 minutes 7 seconds 579 msec
