                         Program Version 3.0.3 - RELEASE   -
|  1> ! RI PBE def2-SVP def2-SVP/J NBO PAL2
|  2> % maxcore 2000
|  3> % output
|  4>     # printlevel mini
|  5>     print[ P_Basis ] 0
|  6>     print[ P_SCFInfo ] 1
|  7>     print[ P_SCFIterInfo ] 1
|  8>     print[ P_OrbEn ] 0
|  9>     print[ P_Cartesian ] 0
| 10> end
| 11> *xyz 0 1
| 12>  C        1.1166250000     0.1317940000    -0.2594020000
| 13>  N        2.5042490000     0.0590440000     0.0713950000
| 14>  C        3.3008740000    -1.1471730000     0.1839600000
| 15>  C        4.6561470000    -0.5882370000     0.5515880000
| 16>  C        5.7863980000    -1.2606920000     0.7806820000
| 17>  C        4.4297570000     0.8444960000     0.5940900000
| 18>  N        3.2062880000     1.1604350000     0.3177000000
| 19>  H        0.7454360000    -0.8810660000    -0.4191080000
| 20>  H        0.9470460000     0.7058730000    -1.1767360000
| 21>  H        0.5299670000     0.5871370000     0.5458190000
| 22>  H        3.3239790000    -1.7021160000    -0.7620050000
| 23>  H        2.9056700000    -1.8180130000     0.9567380000
| 24>  H        5.8362180000    -2.3411130000     0.7192750000
| 25>  H        6.6988140000    -0.7366620000     1.0382140000
| 26>  H        5.1569310000     1.6094840000     0.8232010000
| 27> *
| 28>
| 29>                          ****END OF INPUT****
 Total Charge           Charge          ....    0
 Multiplicity           Mult            ....    1
 Number of Electrons    NEL             ....   52
 Basis Dimension        Dim             ....  138

MULLIKEN ATOMIC CHARGES
-----------------------
   0 C :    0.122431
   1 N :   -0.284157
   2 C :    0.264579
   3 C :   -0.198285
   4 C :   -0.055171
   5 C :    0.010475
   6 N :   -0.039719
   7 H :    0.022861
   8 H :    0.033107
   9 H :    0.036620
  10 H :    0.038173
  11 H :    0.041931
  12 H :    0.005452
  13 H :    0.011069
  14 H :   -0.009365
Sum of atomic charges:   -0.0000000

LOEWDIN ATOMIC CHARGES
----------------------
   0 C :    0.010205
   1 N :   -0.010599
   2 C :    0.032380
   3 C :   -0.060968
   4 C :   -0.090016
   5 C :   -0.077635
   6 N :   -0.022777
   7 H :    0.030487
   8 H :    0.025562
   9 H :    0.026103
  10 H :    0.035700
  11 H :    0.036296
  12 H :    0.020530
  13 H :    0.024897
  14 H :    0.019837

  Mayer bond orders larger than 0.1
B(  0-C ,  1-N ) :   1.0108 B(  0-C ,  7-H ) :   0.9646 B(  0-C ,  8-H ) :   0.9612
B(  0-C ,  9-H ) :   0.9619 B(  1-N ,  2-C ) :   0.9304 B(  1-N ,  5-C ) :   0.1215
B(  1-N ,  6-N ) :   1.1568 B(  2-C ,  3-C ) :   1.0080 B(  2-C , 10-H ) :   0.9146
B(  2-C , 11-H ) :   0.9157 B(  3-C ,  4-C ) :   1.8806 B(  3-C ,  5-C ) :   1.0946
B(  4-C , 12-H ) :   0.9370 B(  4-C , 13-H ) :   0.9334 B(  5-C ,  6-N ) :   1.7003
B(  5-C , 14-H ) :   0.9862

FINAL SINGLE POINT ENERGY      -304.179382504357

DIPOLE MOMENT
-------------
                                X             Y             Z
Electronic contribution:      1.39046       2.66363       0.51882
Nuclear contribution   :     -1.87066      -3.36485      -0.67946
                        -----------------------------------------
Total Dipole Moment    :     -0.48021      -0.70122      -0.16065
                        -----------------------------------------
Magnitude (a.u.)       :      0.86494
Magnitude (Debye)      :      2.19850

                             ****ORCA TERMINATED NORMALLY****
TOTAL RUN TIME: 0 days 0 hours 0 minutes 7 seconds 724 msec
