                         Program Version 3.0.3 - RELEASE   -
|  1> ! RI PBE def2-SVP def2-SVP/J NBO PAL2
|  2> % maxcore 2000
|  3> % output
|  4>     # printlevel mini
|  5>     print[ P_Basis ] 0
|  6>     print[ P_SCFInfo ] 1
|  7>     print[ P_SCFIterInfo ] 1
|  8>     print[ P_OrbEn ] 0
|  9>     print[ P_Cartesian ] 0
| 10> end
| 11> *xyz 0 1
| 12>  C        1.2039400000     0.1111360000    -0.2427560000
| 13>  N        2.4494670000     0.0275660000     0.4719210000
| 14>  C        3.2941140000    -1.1227290000     0.1619640000
| 15>  C        4.6695920000    -0.6242890000     0.5757230000
| 16>  C        4.4590610000     0.8598640000     0.4157130000
| 17>  C        5.5394150000     1.8747710000     0.4344490000
| 18>  N        3.2222790000     1.1687300000     0.3545860000
| 19>  H        0.5771180000    -0.7411960000     0.0275320000
| 20>  H        1.3430750000     0.1105660000    -1.3364340000
| 21>  H        0.6898720000     1.0281920000     0.0431430000
| 22>  H        3.2707070000    -1.3301710000    -0.9219890000
| 23>  H        2.9574590000    -2.0142480000     0.6928760000
| 24>  H        5.4859030000    -1.0210110000    -0.0298720000
| 25>  H        4.8912080000    -0.8552610000     1.6258880000
| 26>  H        6.2623450000     1.6957780000    -0.3674290000
| 27>  H        6.0961460000     1.8354480000     1.3773450000
| 28>  H        5.1206000000     2.8738760000     0.3178510000
| 29> *
| 30>
| 31>                          ****END OF INPUT****
 Total Charge           Charge          ....    0
 Multiplicity           Mult            ....    1
 Number of Electrons    NEL             ....   54
 Basis Dimension        Dim             ....  148

MULLIKEN ATOMIC CHARGES
-----------------------
   0 C :    0.105661
   1 N :   -0.276946
   2 C :    0.151725
   3 C :    0.035109
   4 C :   -0.262044
   5 C :    0.093865
   6 N :   -0.045288
   7 H :    0.021966
   8 H :    0.003983
   9 H :    0.037024
  10 H :   -0.003458
  11 H :    0.013403
  12 H :    0.022547
  13 H :    0.022879
  14 H :    0.026496
  15 H :    0.025614
  16 H :    0.027464
Sum of atomic charges:    0.0000000

LOEWDIN ATOMIC CHARGES
----------------------
   0 C :   -0.004544
   1 N :   -0.048795
   2 C :    0.019465
   3 C :   -0.054596
   4 C :   -0.064222
   5 C :   -0.065193
   6 N :   -0.049556
   7 H :    0.023217
   8 H :    0.003902
   9 H :    0.030719
  10 H :    0.007695
  11 H :    0.023028
  12 H :    0.032042
  13 H :    0.035488
  14 H :    0.035733
  15 H :    0.036364
  16 H :    0.039254

  Mayer bond orders larger than 0.1
B(  0-C ,  1-N ) :   1.0163 B(  0-C ,  7-H ) :   0.9668 B(  0-C ,  8-H ) :   0.9462
B(  0-C ,  9-H ) :   0.9665 B(  1-N ,  2-C ) :   0.9631 B(  1-N ,  4-C ) :   0.1059
B(  1-N ,  6-N ) :   1.0220 B(  2-C ,  3-C ) :   1.1080 B(  2-C , 10-H ) :   0.9171
B(  2-C , 11-H ) :   0.9343 B(  3-C ,  4-C ) :   1.0139 B(  3-C , 12-H ) :   0.9356
B(  3-C , 13-H ) :   0.8878 B(  4-C ,  5-C ) :   1.1135 B(  4-C ,  6-N ) :   1.8725
B(  5-C , 14-H ) :   0.9422 B(  5-C , 15-H ) :   0.9372 B(  5-C , 16-H ) :   0.9440

FINAL SINGLE POINT ENERGY      -305.401459180019

DIPOLE MOMENT
-------------
                                X             Y             Z
Electronic contribution:     -0.93126       0.92386       1.29977
Nuclear contribution   :      1.28427      -1.52839      -1.44672
                        -----------------------------------------
Total Dipole Moment    :      0.35301      -0.60452      -0.14696
                        -----------------------------------------
Magnitude (a.u.)       :      0.71530
Magnitude (Debye)      :      1.81816

                             ****ORCA TERMINATED NORMALLY****
TOTAL RUN TIME: 0 days 0 hours 0 minutes 8 seconds 91 msec
