                         Program Version 3.0.3 - RELEASE   -
|  1> ! RI PBE def2-SVP def2-SVP/J NBO PAL2
|  2> % maxcore 2000
|  3> % output
|  4>     # printlevel mini
|  5>     print[ P_Basis ] 0
|  6>     print[ P_SCFInfo ] 1
|  7>     print[ P_SCFIterInfo ] 1
|  8>     print[ P_OrbEn ] 0
|  9>     print[ P_Cartesian ] 0
| 10> end
| 11> *xyz 0 1
| 12>  C        1.0756610000     0.0375140000     0.1714470000
| 13>  N        2.4931110000     0.1732790000     0.3926760000
| 14>  C        3.1128230000     1.3058530000    -0.2575400000
| 15>  C        4.5586440000     1.4210050000     0.1859300000
| 16>  C        5.2857590000     0.1265040000    -0.1461980000
| 17>  C        4.3878360000    -1.0542030000     0.0650080000
| 18>  N        3.1365330000    -1.0207930000     0.3090600000
| 19>  H        0.5654480000     0.9367590000     0.5234930000
| 20>  H        0.7153940000    -0.8210860000     0.7360720000
| 21>  H        0.8251900000    -0.1134250000    -0.8904050000
| 22>  H        2.5458580000     2.2020060000     0.0055950000
| 23>  H        3.0645480000     1.1932700000    -1.3557450000
| 24>  H        4.5783660000     1.5948080000     1.2650790000
| 25>  H        5.0364620000     2.2788550000    -0.2921990000
| 26>  H        6.1823710000     0.0110810000     0.4717530000
| 27>  H        5.6404740000     0.1287610000    -1.1841720000
| 28>  H        4.8248310000    -2.0495600000     0.0469560000
| 29> *
| 30>
| 31>                          ****END OF INPUT****
 Total Charge           Charge          ....    0
 Multiplicity           Mult            ....    1
 Number of Electrons    NEL             ....   54
 Basis Dimension        Dim             ....  148

MULLIKEN ATOMIC CHARGES
-----------------------
   0 C :    0.131912
   1 N :   -0.255654
   2 C :    0.094614
   3 C :    0.004965
   4 C :    0.030824
   5 C :   -0.116338
   6 N :   -0.048911
   7 H :    0.014140
   8 H :    0.033310
   9 H :    0.000838
  10 H :    0.010041
  11 H :    0.006041
  12 H :    0.026258
  13 H :    0.009521
  14 H :    0.025558
  15 H :    0.026995
  16 H :    0.005886
Sum of atomic charges:    0.0000000

LOEWDIN ATOMIC CHARGES
----------------------
   0 C :    0.003967
   1 N :   -0.034684
   2 C :    0.011369
   3 C :   -0.045186
   4 C :   -0.063581
   5 C :   -0.069401
   6 N :   -0.041661
   7 H :    0.020141
   8 H :    0.029219
   9 H :    0.006099
  10 H :    0.024781
  11 H :    0.009835
  12 H :    0.030882
  13 H :    0.029014
  14 H :    0.037607
  15 H :    0.035316
  16 H :    0.016283

  Mayer bond orders larger than 0.1
B(  0-C ,  1-N ) :   1.0155 B(  0-C ,  7-H ) :   0.9646 B(  0-C ,  8-H ) :   0.9645
B(  0-C ,  9-H ) :   0.9507 B(  1-N ,  2-C ) :   0.9902 B(  1-N ,  5-C ) :   0.1215
B(  1-N ,  6-N ) :   1.0603 B(  2-C ,  3-C ) :   1.0834 B(  2-C , 10-H ) :   0.9312
B(  2-C , 11-H ) :   0.9221 B(  3-C ,  4-C ) :   1.0968 B(  3-C , 12-H ) :   0.9345
B(  3-C , 13-H ) :   0.9255 B(  4-C ,  5-C ) :   1.0120 B(  4-C , 14-H ) :   0.9194
B(  4-C , 15-H ) :   0.9190 B(  5-C ,  6-N ) :   1.8959 B(  5-C , 16-H ) :   0.9637

FINAL SINGLE POINT ENERGY      -305.396448050635

DIPOLE MOMENT
-------------
                                X             Y             Z
Electronic contribution:      0.28942      -2.83550       1.25725
Nuclear contribution   :     -0.08840       3.53305      -1.52517
                        -----------------------------------------
Total Dipole Moment    :      0.20102       0.69755      -0.26793
                        -----------------------------------------
Magnitude (a.u.)       :      0.77380
Magnitude (Debye)      :      1.96684

                             ****ORCA TERMINATED NORMALLY****
TOTAL RUN TIME: 0 days 0 hours 0 minutes 7 seconds 656 msec
