                         Program Version 3.0.3 - RELEASE   -
|  1> ! RI PBE def2-SVP def2-SVP/J NBO PAL2
|  2> % maxcore 2000
|  3> % output
|  4>     # printlevel mini
|  5>     print[ P_Basis ] 0
|  6>     print[ P_SCFInfo ] 1
|  7>     print[ P_SCFIterInfo ] 1
|  8>     print[ P_OrbEn ] 0
|  9>     print[ P_Cartesian ] 0
| 10> end
| 11> *xyz 0 1
| 12>  C        0.9169330000     0.0399150000    -0.0771310000
| 13>  N        2.3512840000     0.0189610000    -0.0708070000
| 14>  C        3.1634230000     1.1015220000    -0.0679890000
| 15>  C        4.4707380000     0.6743090000    -0.0619530000
| 16>  C        4.4470110000    -0.7443280000    -0.0610850000
| 17>  N        5.5498100000    -1.5672270000    -0.0557520000
| 18>  C        3.1210050000    -1.1227150000    -0.0666350000
| 19>  H        0.5757440000     1.0746380000    -0.0793020000
| 20>  H        0.5108460000    -0.4558750000     0.8094360000
| 21>  H        0.5186550000    -0.4570270000    -0.9665920000
| 22>  H        2.7560070000     2.1004350000    -0.0704700000
| 23>  H        5.3460110000     1.3058580000    -0.0585570000
| 24>  H        6.4706090000    -1.1802670000    -0.0513110000
| 25>  H        5.4543750000    -2.5617730000    -0.0548900000
| 26>  H        2.6674590000    -2.1010150000    -0.0679610000
| 27> *
| 28>
| 29>                          ****END OF INPUT****
 Total Charge           Charge          ....    0
 Multiplicity           Mult            ....    1
 Number of Electrons    NEL             ....   52
 Basis Dimension        Dim             ....  138

MULLIKEN ATOMIC CHARGES
-----------------------
   0 C :    0.106797
   1 N :   -0.180430
   2 C :    0.054421
   3 C :   -0.081619
   4 C :    0.046681
   5 N :   -0.075204
   6 C :   -0.040325
   7 H :    0.027871
   8 H :    0.032958
   9 H :    0.032886
  10 H :   -0.018718
  11 H :   -0.052837
  12 H :    0.096667
  13 H :    0.095992
  14 H :   -0.045141
Sum of atomic charges:   -0.0000000

LOEWDIN ATOMIC CHARGES
----------------------
   0 C :    0.023968
   1 N :    0.061698
   2 C :   -0.038924
   3 C :   -0.128185
   4 C :   -0.028914
   5 N :   -0.028374
   6 C :   -0.109237
   7 H :    0.031912
   8 H :    0.026028
   9 H :    0.026020
  10 H :    0.013214
  11 H :    0.016172
  12 H :    0.064029
  13 H :    0.063556
  14 H :    0.007038

  Mayer bond orders larger than 0.1
B(  0-C ,  1-N ) :   1.0071 B(  0-C ,  7-H ) :   0.9688 B(  0-C ,  8-H ) :   0.9631
B(  0-C ,  9-H ) :   0.9631 B(  1-N ,  2-C ) :   1.2471 B(  1-N ,  6-C ) :   1.1337
B(  2-C ,  3-C ) :   1.4116 B(  2-C , 10-H ) :   0.9769 B(  3-C ,  4-C ) :   1.3031
B(  3-C , 11-H ) :   1.0115 B(  4-C ,  5-N ) :   1.2109 B(  4-C ,  6-C ) :   1.3960
B(  5-N , 12-H ) :   0.9573 B(  5-N , 13-H ) :   0.9566 B(  6-C , 14-H ) :   0.9978

FINAL SINGLE POINT ENERGY      -304.224707462486

DIPOLE MOMENT
-------------
                                X             Y             Z
Electronic contribution:      2.63428      -0.08659       0.01150
Nuclear contribution   :     -2.86498      -0.21980      -0.01144
                        -----------------------------------------
Total Dipole Moment    :     -0.23070      -0.30639       0.00006
                        -----------------------------------------
Magnitude (a.u.)       :      0.38354
Magnitude (Debye)      :      0.97487

                             ****ORCA TERMINATED NORMALLY****
TOTAL RUN TIME: 0 days 0 hours 0 minutes 6 seconds 813 msec
