                         Program Version 3.0.3 - RELEASE   -
|  1> ! RI PBE def2-SVP def2-SVP/J NBO PAL2
|  2> % maxcore 2000
|  3> % output
|  4>     # printlevel mini
|  5>     print[ P_Basis ] 0
|  6>     print[ P_SCFInfo ] 1
|  7>     print[ P_SCFIterInfo ] 1
|  8>     print[ P_OrbEn ] 0
|  9>     print[ P_Cartesian ] 0
| 10> end
| 11> *xyz 0 1
| 12>  C        1.0262200000    -0.0796900000    -0.2565110000
| 13>  N        2.4401330000    -0.0197800000     0.0073410000
| 14>  C        3.1288610000     1.1817160000     0.1035790000
| 15>  C        4.4348720000     1.2141720000     0.3481180000
| 16>  C        5.2143740000    -0.0566490000     0.5297840000
| 17>  N        4.4122510000    -1.2664880000     0.4122150000
| 18>  C        3.1727690000    -1.1719620000     0.1766990000
| 19>  H        0.6414960000     0.9347540000    -0.3567710000
| 20>  H        0.4814480000    -0.5661650000     0.5588760000
| 21>  H        0.8092490000    -0.6143760000    -1.1867380000
| 22>  H        2.5318950000     2.0755180000    -0.0333570000
| 23>  H        4.9399680000     2.1699970000     0.4165640000
| 24>  H        5.7128710000    -0.0713330000     1.5093480000
| 25>  H        6.0343730000    -0.1184140000    -0.1996260000
| 26>  H        2.5825220000    -2.0858110000     0.0908670000
| 27> *
| 28>
| 29>                          ****END OF INPUT****
 Total Charge           Charge          ....    0
 Multiplicity           Mult            ....    1
 Number of Electrons    NEL             ....   52
 Basis Dimension        Dim             ....  138

MULLIKEN ATOMIC CHARGES
-----------------------
   0 C :    0.101050
   1 N :   -0.238439
   2 C :    0.101020
   3 C :   -0.166367
   4 C :    0.184155
   5 N :   -0.194431
   6 C :    0.070546
   7 H :    0.031230
   8 H :    0.039628
   9 H :    0.037172
  10 H :   -0.004631
  11 H :   -0.005295
  12 H :    0.017393
  13 H :    0.023269
  14 H :    0.003700
Sum of atomic charges:   -0.0000000

LOEWDIN ATOMIC CHARGES
----------------------
   0 C :    0.022393
   1 N :   -0.025708
   2 C :   -0.000791
   3 C :   -0.097354
   4 C :    0.006650
   5 N :   -0.125262
   6 C :    0.024842
   7 H :    0.032251
   8 H :    0.026246
   9 H :    0.025888
  10 H :    0.023775
  11 H :    0.026697
  12 H :    0.022528
  13 H :    0.023527
  14 H :    0.014318

  Mayer bond orders larger than 0.1
B(  0-C ,  1-N ) :   0.9937 B(  0-C ,  7-H ) :   0.9648 B(  0-C ,  8-H ) :   0.9654
B(  0-C ,  9-H ) :   0.9648 B(  1-N ,  2-C ) :   1.0669 B(  1-N ,  6-C ) :   1.0926
B(  2-C ,  3-C ) :   1.8486 B(  2-C , 10-H ) :   0.9547 B(  3-C ,  4-C ) :   1.0219
B(  3-C , 11-H ) :   0.9510 B(  4-C ,  5-N ) :   1.0636 B(  4-C , 12-H ) :   0.9250
B(  4-C , 13-H ) :   0.9265 B(  5-N ,  6-C ) :   1.9455 B(  6-C , 14-H ) :   0.9490

FINAL SINGLE POINT ENERGY      -304.204526841268

DIPOLE MOMENT
-------------
                                X             Y             Z
Electronic contribution:      2.02056      -1.24312       0.41176
Nuclear contribution   :     -3.01428       1.86193      -0.61718
                        -----------------------------------------
Total Dipole Moment    :     -0.99372       0.61881      -0.20541
                        -----------------------------------------
Magnitude (a.u.)       :      1.18853
Magnitude (Debye)      :      3.02100

                             ****ORCA TERMINATED NORMALLY****
TOTAL RUN TIME: 0 days 0 hours 0 minutes 7 seconds 138 msec
