                         Program Version 3.0.3 - RELEASE   -
|  1> ! RI PBE def2-SVP def2-SVP/J NBO PAL2
|  2> % maxcore 2000
|  3> % output
|  4>     # printlevel mini
|  5>     print[ P_Basis ] 0
|  6>     print[ P_SCFInfo ] 1
|  7>     print[ P_SCFIterInfo ] 1
|  8>     print[ P_OrbEn ] 0
|  9>     print[ P_Cartesian ] 0
| 10> end
| 11> *xyz 0 1
| 12>  C        1.1210250000     0.0020210000     0.1560170000
| 13>  N        2.5548530000     0.0126590000     0.1789290000
| 14>  C        3.2394510000     1.0551350000     0.9442480000
| 15>  C        4.3337290000     0.0140680000     1.3093350000
| 16>  C        4.8544490000     0.0208190000     2.7250950000
| 17>  N        5.4455530000    -0.0674490000     0.3817010000
| 18>  C        3.2557500000    -1.0244230000     0.9392420000
| 19>  H        0.7491410000     0.8837620000    -0.3722720000
| 20>  H        0.6767540000    -0.0042870000     1.1685780000
| 21>  H        0.7621260000    -0.8820230000    -0.3774730000
| 22>  H        2.6681830000     1.3797110000     1.8299190000
| 23>  H        3.5468630000     1.9354930000     0.3698740000
| 24>  H        5.4894500000     0.8955640000     2.9000410000
| 25>  H        5.4575530000    -0.8710250000     2.9094240000
| 26>  H        4.0381080000     0.0505050000     3.4488910000
| 27>  H        6.0551270000     0.7354230000     0.4925110000
| 28>  H        5.0958660000    -0.0491250000    -0.5701020000
| 29>  H        2.6941800000    -1.3601380000     1.8260440000
| 30>  H        3.5819400000    -1.8951690000     0.3629980000
| 31> *
| 32>
| 33>                          ****END OF INPUT****
 Total Charge           Charge          ....    0
 Multiplicity           Mult            ....    1
 Number of Electrons    NEL             ....   56
 Basis Dimension        Dim             ....  158

MULLIKEN ATOMIC CHARGES
-----------------------
   0 C :    0.091173
   1 N :   -0.367274
   2 C :    0.269272
   3 C :   -0.415827
   4 C :    0.085996
   5 N :   -0.111197
   6 C :    0.260858
   7 H :    0.022598
   8 H :   -0.012425
   9 H :    0.023346
  10 H :   -0.030641
  11 H :   -0.012532
  12 H :    0.013126
  13 H :    0.028422
  14 H :    0.008641
  15 H :    0.083097
  16 H :    0.084630
  17 H :   -0.024128
  18 H :    0.002866
Sum of atomic charges:   -0.0000000

LOEWDIN ATOMIC CHARGES
----------------------
   0 C :   -0.007864
   1 N :   -0.120935
   2 C :    0.021878
   3 C :   -0.025713
   4 C :   -0.061766
   5 N :   -0.083221
   6 C :    0.038743
   7 H :    0.023742
   8 H :   -0.004712
   9 H :    0.023868
  10 H :   -0.001602
  11 H :    0.003016
  12 H :    0.025903
  13 H :    0.031548
  14 H :    0.023931
  15 H :    0.048948
  16 H :    0.052573
  17 H :    0.001608
  18 H :    0.010055

  Mayer bond orders larger than 0.1
B(  0-C ,  1-N ) :   1.0451 B(  0-C ,  7-H ) :   0.9689 B(  0-C ,  8-H ) :   0.9369
B(  0-C ,  9-H ) :   0.9685 B(  1-N ,  2-C ) :   1.0054 B(  1-N ,  6-C ) :   1.0046
B(  2-C ,  3-C ) :   0.9965 B(  2-C , 10-H ) :   0.8983 B(  2-C , 11-H ) :   0.9214
B(  3-C ,  4-C ) :   1.0709 B(  3-C ,  5-N ) :   1.0803 B(  3-C ,  6-C ) :   1.0126
B(  4-C , 12-H ) :   0.9529 B(  4-C , 13-H ) :   0.9538 B(  4-C , 14-H ) :   0.9416
B(  5-N , 15-H ) :   0.9629 B(  5-N , 16-H ) :   0.9496 B(  6-C , 17-H ) :   0.9073
B(  6-C , 18-H ) :   0.9207

FINAL SINGLE POINT ENERGY      -306.586153308784

DIPOLE MOMENT
-------------
                                X             Y             Z
Electronic contribution:      1.43324      -0.29200      -2.34767
Nuclear contribution   :     -1.60815       0.66990       2.44911
                        -----------------------------------------
Total Dipole Moment    :     -0.17491       0.37790       0.10145
                        -----------------------------------------
Magnitude (a.u.)       :      0.42859
Magnitude (Debye)      :      1.08940

                             ****ORCA TERMINATED NORMALLY****
TOTAL RUN TIME: 0 days 0 hours 0 minutes 7 seconds 948 msec
