                         Program Version 3.0.3 - RELEASE   -
|  1> ! RI PBE def2-SVP def2-SVP/J NBO PAL2
|  2> % maxcore 2000
|  3> % output
|  4>     # printlevel mini
|  5>     print[ P_Basis ] 0
|  6>     print[ P_SCFInfo ] 1
|  7>     print[ P_SCFIterInfo ] 1
|  8>     print[ P_OrbEn ] 0
|  9>     print[ P_Cartesian ] 0
| 10> end
| 11> *xyz 0 1
| 12>  C        1.1595820000    -0.0859080000    -0.1275400000
| 13>  N        2.5855290000     0.0127100000    -0.0163120000
| 14>  C        3.1577610000     1.1069920000     0.7700230000
| 15>  C        4.2580140000     0.1451010000     1.2544080000
| 16>  C        5.5529830000     0.2258310000     0.4626640000
| 17>  N        6.5272420000    -0.8163340000     0.7317970000
| 18>  C        3.2972920000    -0.9698910000     0.8011780000
| 19>  H        0.7697660000     0.7628980000    -0.6953580000
| 20>  H        0.6529100000    -0.1036580000     0.8551930000
| 21>  H        0.8893710000    -0.9982630000    -0.6656890000
| 22>  H        2.5004940000     1.4333120000     1.5919130000
| 23>  H        3.4649410000     1.9848010000     0.1911950000
| 24>  H        4.4694620000     0.1727670000     2.3258560000
| 25>  H        5.3158620000     0.2069300000    -0.6060160000
| 26>  H        6.0285700000     1.1939550000     0.6557440000
| 27>  H        6.7743460000    -0.8294600000     1.7143010000
| 28>  H        6.1441940000    -1.7279080000     0.5121860000
| 29>  H        2.6885250000    -1.3560710000     1.6345440000
| 30>  H        3.7132580000    -1.8201180000     0.2480230000
| 31> *
| 32>
| 33>                          ****END OF INPUT****
 Total Charge           Charge          ....    0
 Multiplicity           Mult            ....    1
 Number of Electrons    NEL             ....   56
 Basis Dimension        Dim             ....  158

MULLIKEN ATOMIC CHARGES
-----------------------
   0 C :    0.087950
   1 N :   -0.362732
   2 C :    0.208910
   3 C :   -0.268822
   4 C :    0.137496
   5 N :   -0.197813
   6 C :    0.199454
   7 H :    0.025577
   8 H :   -0.011913
   9 H :    0.023030
  10 H :   -0.017510
  11 H :    0.005292
  12 H :    0.001087
  13 H :    0.011154
  14 H :    0.009470
  15 H :    0.086046
  16 H :    0.082198
  17 H :   -0.015910
  18 H :   -0.002964
Sum of atomic charges:    0.0000000

LOEWDIN ATOMIC CHARGES
----------------------
   0 C :   -0.007781
   1 N :   -0.119393
   2 C :    0.038822
   3 C :   -0.064443
   4 C :    0.005085
   5 N :   -0.098969
   6 C :    0.032947
   7 H :    0.024506
   8 H :   -0.005130
   9 H :    0.024061
  10 H :    0.001023
  11 H :    0.009131
  12 H :    0.013441
  13 H :    0.025518
  14 H :    0.021161
  15 H :    0.049060
  16 H :    0.047145
  17 H :    0.001269
  18 H :    0.002548

  Mayer bond orders larger than 0.1
B(  0-C ,  1-N ) :   1.0448 B(  0-C ,  7-H ) :   0.9695 B(  0-C ,  8-H ) :   0.9364
B(  0-C ,  9-H ) :   0.9688 B(  1-N ,  2-C ) :   1.0050 B(  1-N ,  6-C ) :   1.0102
B(  2-C ,  3-C ) :   1.0271 B(  2-C , 10-H ) :   0.9052 B(  2-C , 11-H ) :   0.9358
B(  3-C ,  4-C ) :   1.0106 B(  3-C ,  6-C ) :   1.0435 B(  3-C , 12-H ) :   0.9256
B(  4-C ,  5-N ) :   1.1371 B(  4-C , 13-H ) :   0.9282 B(  4-C , 14-H ) :   0.9354
B(  5-N , 15-H ) :   0.9730 B(  5-N , 16-H ) :   0.9761 B(  6-C , 17-H ) :   0.9071
B(  6-C , 18-H ) :   0.9299

FINAL SINGLE POINT ENERGY      -306.579465260051

DIPOLE MOMENT
-------------
                                X             Y             Z
Electronic contribution:      1.66208       0.06612      -0.48747
Nuclear contribution   :     -2.05299      -0.19987       1.00710
                        -----------------------------------------
Total Dipole Moment    :     -0.39091      -0.13375       0.51963
                        -----------------------------------------
Magnitude (a.u.)       :      0.66386
Magnitude (Debye)      :      1.68740

                             ****ORCA TERMINATED NORMALLY****
TOTAL RUN TIME: 0 days 0 hours 0 minutes 7 seconds 811 msec
