                         Program Version 3.0.3 - RELEASE   -
|  1> ! RI PBE def2-SVP def2-SVP/J NBO PAL2
|  2> % maxcore 2000
|  3> % output
|  4>     # printlevel mini
|  5>     print[ P_Basis ] 0
|  6>     print[ P_SCFInfo ] 1
|  7>     print[ P_SCFIterInfo ] 1
|  8>     print[ P_OrbEn ] 0
|  9>     print[ P_Cartesian ] 0
| 10> end
| 11> *xyz 0 1
| 12>  C        1.1053100000    -0.0429670000    -0.1683280000
| 13>  N        2.4845490000    -0.1018880000     0.2321690000
| 14>  C        2.9330560000     1.0477480000     0.9956600000
| 15>  C        4.2821430000     0.6077960000     1.5665170000
| 16>  C        4.2737600000    -0.9345100000     1.4730710000
| 17>  N        5.2813030000    -1.3796390000     0.5215480000
| 18>  C        2.8272490000    -1.2326200000     1.0678220000
| 19>  H        0.9366780000     0.8286880000    -0.8055500000
| 20>  H        0.4165600000     0.0267470000     0.6941480000
| 21>  H        0.8417790000    -0.9349860000    -0.7414310000
| 22>  H        2.2229690000     1.2754930000     1.8138510000
| 23>  H        2.9956110000     1.9353530000     0.3606490000
| 24>  H        4.4179820000     0.9561640000     2.5910780000
| 25>  H        5.1185330000     0.9900220000     0.9796530000
| 26>  H        4.5085940000    -1.3932630000     2.4364540000
| 27>  H        5.0376300000    -1.0347290000    -0.4015310000
| 28>  H        5.2878540000    -2.3915270000     0.4632940000
| 29>  H        2.1763000000    -1.2841780000     1.9645490000
| 30>  H        2.7261310000    -2.1762240000     0.5240860000
| 31> *
| 32>
| 33>                          ****END OF INPUT****
 Total Charge           Charge          ....    0
 Multiplicity           Mult            ....    1
 Number of Electrons    NEL             ....   56
 Basis Dimension        Dim             ....  158

MULLIKEN ATOMIC CHARGES
-----------------------
   0 C :    0.108180
   1 N :   -0.377787
   2 C :    0.126507
   3 C :    0.075723
   4 C :   -0.100656
   5 N :   -0.158491
   6 C :    0.196076
   7 H :    0.021129
   8 H :   -0.012040
   9 H :    0.019097
  10 H :   -0.027700
  11 H :    0.009152
  12 H :    0.004570
  13 H :    0.004156
  14 H :   -0.005332
  15 H :    0.082286
  16 H :    0.083109
  17 H :   -0.034639
  18 H :   -0.013340
Sum of atomic charges:    0.0000000

LOEWDIN ATOMIC CHARGES
----------------------
   0 C :   -0.000581
   1 N :   -0.116051
   2 C :    0.018886
   3 C :   -0.040818
   4 C :   -0.000449
   5 N :   -0.094080
   6 C :    0.004763
   7 H :    0.022823
   8 H :   -0.001907
   9 H :    0.022520
  10 H :   -0.005192
  11 H :    0.018215
  12 H :    0.027331
  13 H :    0.028925
  14 H :    0.018455
  15 H :    0.046187
  16 H :    0.048253
  17 H :   -0.007284
  18 H :    0.010003

  Mayer bond orders larger than 0.1
B(  0-C ,  1-N ) :   1.0400 B(  0-C ,  7-H ) :   0.9673 B(  0-C ,  8-H ) :   0.9351
B(  0-C ,  9-H ) :   0.9681 B(  1-N ,  2-C ) :   1.0301 B(  1-N ,  6-C ) :   0.9777
B(  2-C ,  3-C ) :   1.1362 B(  2-C , 10-H ) :   0.8939 B(  2-C , 11-H ) :   0.9349
B(  3-C ,  4-C ) :   1.0827 B(  3-C , 12-H ) :   0.9206 B(  3-C , 13-H ) :   0.9035
B(  4-C ,  5-N ) :   1.1194 B(  4-C ,  6-C ) :   1.0650 B(  4-C , 14-H ) :   0.9073
B(  5-N , 15-H ) :   0.9618 B(  5-N , 16-H ) :   0.9704 B(  6-C , 17-H ) :   0.8795
B(  6-C , 18-H ) :   0.9291

FINAL SINGLE POINT ENERGY      -306.609210238910

DIPOLE MOMENT
-------------
                                X             Y             Z
Electronic contribution:      2.33894      -0.60429      -0.35203
Nuclear contribution   :     -2.77632       0.43462       0.29616
                        -----------------------------------------
Total Dipole Moment    :     -0.43738      -0.16967      -0.05586
                        -----------------------------------------
Magnitude (a.u.)       :      0.47245
Magnitude (Debye)      :      1.20087

                             ****ORCA TERMINATED NORMALLY****
TOTAL RUN TIME: 0 days 0 hours 0 minutes 8 seconds 614 msec
