                         Program Version 3.0.3 - RELEASE   -
|  1> ! RI PBE def2-SVP def2-SVP/J NBO PAL2
|  2> % maxcore 2000
|  3> % output
|  4>     # printlevel mini
|  5>     print[ P_Basis ] 0
|  6>     print[ P_SCFInfo ] 1
|  7>     print[ P_SCFIterInfo ] 1
|  8>     print[ P_OrbEn ] 0
|  9>     print[ P_Cartesian ] 0
| 10> end
| 11> *xyz 0 1
| 12>  C        0.9004030000    -0.0236960000     0.0573700000
| 13>  N        2.3287680000     0.0690160000     0.1438420000
| 14>  C        2.9537090000     1.2981910000    -0.2821950000
| 15>  C        4.3901220000     1.3321180000     0.2063580000
| 16>  C        5.0955020000     0.0375090000    -0.1687170000
| 17>  N        4.3637180000    -1.1524740000     0.2194340000
| 18>  C        3.1010020000    -1.0429560000     0.3249670000
| 19>  H        0.4235660000     0.7667300000     0.6466090000
| 20>  H        0.5699500000    -0.9860810000     0.4508530000
| 21>  H        0.5403440000     0.0629450000    -0.9772680000
| 22>  H        2.3830390000     2.1391930000     0.1268650000
| 23>  H        2.9171740000     1.3907330000    -1.3784830000
| 24>  H        4.3936800000     1.4424680000     1.2952400000
| 25>  H        4.9066180000     2.1995180000    -0.2122150000
| 26>  H        6.0840260000    -0.0010980000     0.2980740000
| 27>  H        5.2727470000     0.0064870000    -1.2523840000
| 28>  H        2.5264620000    -1.9251010000     0.6133510000
| 29> *
| 30>
| 31>                          ****END OF INPUT****
 Total Charge           Charge          ....    0
 Multiplicity           Mult            ....    1
 Number of Electrons    NEL             ....   54
 Basis Dimension        Dim             ....  148

MULLIKEN ATOMIC CHARGES
-----------------------
   0 C :    0.108296
   1 N :   -0.293227
   2 C :    0.138247
   3 C :   -0.068926
   4 C :    0.110380
   5 N :   -0.216008
   6 C :    0.058837
   7 H :    0.025021
   8 H :    0.031681
   9 H :    0.019712
  10 H :    0.006145
  11 H :    0.014661
  12 H :    0.031460
  13 H :    0.011556
  14 H :    0.009208
  15 H :    0.013737
  16 H :   -0.000780
Sum of atomic charges:    0.0000000

LOEWDIN ATOMIC CHARGES
----------------------
   0 C :    0.018537
   1 N :   -0.050104
   2 C :    0.029963
   3 C :   -0.060493
   4 C :   -0.000040
   5 N :   -0.167064
   6 C :    0.006680
   7 H :    0.021154
   8 H :    0.030442
   9 H :    0.016100
  10 H :    0.022267
  11 H :    0.015435
  12 H :    0.030486
  13 H :    0.029721
  14 H :    0.023208
  15 H :    0.022015
  16 H :    0.011693

  Mayer bond orders larger than 0.1
B(  0-C ,  1-N ) :   1.0178 B(  0-C ,  7-H ) :   0.9622 B(  0-C ,  8-H ) :   0.9607
B(  0-C ,  9-H ) :   0.9572 B(  1-N ,  2-C ) :   0.9922 B(  1-N ,  5-N ) :   0.1237
B(  1-N ,  6-C ) :   1.1514 B(  2-C ,  3-C ) :   1.0830 B(  2-C , 10-H ) :   0.9289
B(  2-C , 11-H ) :   0.9374 B(  3-C ,  4-C ) :   1.0757 B(  3-C , 12-H ) :   0.9319
B(  3-C , 13-H ) :   0.9228 B(  4-C ,  5-N ) :   1.0681 B(  4-C , 14-H ) :   0.9326
B(  4-C , 15-H ) :   0.9345 B(  5-N ,  6-C ) :   1.8961 B(  6-C , 16-H ) :   0.9454

FINAL SINGLE POINT ENERGY      -305.421100836145

DIPOLE MOMENT
-------------
                                X             Y             Z
Electronic contribution:      1.71571      -3.03512       0.77726
Nuclear contribution   :     -2.56566       3.89510      -0.97106
                        -----------------------------------------
Total Dipole Moment    :     -0.84995       0.85998      -0.19380
                        -----------------------------------------
Magnitude (a.u.)       :      1.22456
Magnitude (Debye)      :      3.11258

                             ****ORCA TERMINATED NORMALLY****
TOTAL RUN TIME: 0 days 0 hours 0 minutes 7 seconds 637 msec
