                         Program Version 3.0.3 - RELEASE   -
|  1> ! RI PBE def2-SVP def2-SVP/J NBO PAL2
|  2> % maxcore 2000
|  3> % output
|  4>     # printlevel mini
|  5>     print[ P_Basis ] 0
|  6>     print[ P_SCFInfo ] 1
|  7>     print[ P_SCFIterInfo ] 1
|  8>     print[ P_OrbEn ] 0
|  9>     print[ P_Cartesian ] 0
| 10> end
| 11> *xyz 0 1
| 12>  C        1.1280920000     0.0791660000    -0.1531400000
| 13>  N        2.5365840000     0.0396230000     0.1047870000
| 14>  C        3.2950500000    -1.1795450000     0.3027540000
| 15>  C        4.7167490000    -0.6154670000     0.5331730000
| 16>  N        4.6144890000     0.8396520000     0.4411720000
| 17>  C        3.3867140000     1.1085260000     0.2050790000
| 18>  C        2.8674700000     2.4928400000     0.0413300000
| 19>  H        0.7451310000    -0.9414450000    -0.1714430000
| 20>  H        0.8900810000     0.5339330000    -1.1220970000
| 21>  H        0.5732850000     0.6215330000     0.6216790000
| 22>  H        3.2350640000    -1.8326820000    -0.5763280000
| 23>  H        2.9190980000    -1.7469060000     1.1627950000
| 24>  H        5.4269240000    -0.9849670000    -0.2124190000
| 25>  H        5.1126180000    -0.8978240000     1.5131680000
| 26>  H        3.6911070000     3.1936060000     0.1554010000
| 27>  H        2.1002380000     2.7165590000     0.7876830000
| 28>  H        2.4142170000     2.6294660000    -0.9443840000
| 29> *
| 30>
| 31>                          ****END OF INPUT****
 Total Charge           Charge          ....    0
 Multiplicity           Mult            ....    1
 Number of Electrons    NEL             ....   54
 Basis Dimension        Dim             ....  148

MULLIKEN ATOMIC CHARGES
-----------------------
   0 C :    0.107608
   1 N :   -0.326518
   2 C :    0.116147
   3 C :    0.085631
   4 N :   -0.224893
   5 C :   -0.074805
   6 C :    0.084297
   7 H :    0.030203
   8 H :    0.022498
   9 H :    0.027436
  10 H :    0.013498
  11 H :    0.013346
  12 H :    0.018670
  13 H :    0.013454
  14 H :    0.036298
  15 H :    0.030221
  16 H :    0.026908
Sum of atomic charges:   -0.0000000

LOEWDIN ATOMIC CHARGES
----------------------
   0 C :    0.012528
   1 N :   -0.060738
   2 C :    0.020585
   3 C :    0.006374
   4 N :   -0.179041
   5 C :   -0.000036
   6 C :   -0.066473
   7 H :    0.033437
   8 H :    0.020726
   9 H :    0.021500
  10 H :    0.013254
  11 H :    0.013357
  12 H :    0.021991
  13 H :    0.020871
  14 H :    0.045636
  15 H :    0.038226
  16 H :    0.037803

  Mayer bond orders larger than 0.1
B(  0-C ,  1-N ) :   1.0191 B(  0-C ,  7-H ) :   0.9659 B(  0-C ,  8-H ) :   0.9600
B(  0-C ,  9-H ) :   0.9609 B(  1-N ,  2-C ) :   1.0006 B(  1-N ,  4-N ) :   0.1252
B(  1-N ,  5-C ) :   1.1391 B(  2-C ,  3-C ) :   1.0733 B(  2-C , 10-H ) :   0.9373
B(  2-C , 11-H ) :   0.9377 B(  3-C ,  4-N ) :   1.0765 B(  3-C , 12-H ) :   0.9369
B(  3-C , 13-H ) :   0.9370 B(  4-N ,  5-C ) :   1.8538 B(  5-C ,  6-C ) :   1.1024
B(  6-C , 14-H ) :   0.9364 B(  6-C , 15-H ) :   0.9389 B(  6-C , 16-H ) :   0.9369

FINAL SINGLE POINT ENERGY      -305.420940840745

DIPOLE MOMENT
-------------
                                X             Y             Z
Electronic contribution:      3.30678       0.12142       0.59463
Nuclear contribution   :     -4.42402      -0.57078      -0.77500
                        -----------------------------------------
Total Dipole Moment    :     -1.11724      -0.44937      -0.18038
                        -----------------------------------------
Magnitude (a.u.)       :      1.21766
Magnitude (Debye)      :      3.09504

                             ****ORCA TERMINATED NORMALLY****
TOTAL RUN TIME: 0 days 0 hours 0 minutes 8 seconds 139 msec
