                         Program Version 3.0.3 - RELEASE   -
|  1> ! RI PBE def2-SVP def2-SVP/J NBO PAL2
|  2> % maxcore 2000
|  3> % output
|  4>     # printlevel mini
|  5>     print[ P_Basis ] 0
|  6>     print[ P_SCFInfo ] 1
|  7>     print[ P_SCFIterInfo ] 1
|  8>     print[ P_OrbEn ] 0
|  9>     print[ P_Cartesian ] 0
| 10> end
| 11> *xyz 0 1
| 12>  C        1.0715690000     0.1093530000     0.1319630000
| 13>  N        2.4898570000     0.0400170000    -0.1332830000
| 14>  C        2.9615810000    -1.2876270000    -0.4904780000
| 15>  C        2.6485930000    -1.6779080000    -1.9286610000
| 16>  N        3.2061060000    -0.6712710000    -2.8159920000
| 17>  C        2.6468880000     0.6420980000    -2.5442370000
| 18>  C        2.9598980000     1.0165660000    -1.1018510000
| 19>  H        0.8202240000    -0.5917790000     0.9323570000
| 20>  H        0.4174390000    -0.1186100000    -0.7255150000
| 21>  H        0.8189760000     1.1147010000     0.4796250000
| 22>  H        2.5318290000    -2.0147410000     0.2043400000
| 23>  H        4.0500490000    -1.3045390000    -0.3625110000
| 24>  H        1.5570260000    -1.7937860000    -2.0538810000
| 25>  H        3.1065060000    -2.6456080000    -2.1528210000
| 26>  H        3.0568710000    -0.9278080000    -3.7824160000
| 27>  H        1.5552130000     0.6791520000    -2.7100400000
| 28>  H        3.1035730000     1.3719940000    -3.2188170000
| 29>  H        2.5289070000     1.9919170000    -0.8587580000
| 30>  H        4.0482960000     1.0961790000    -0.9995140000
| 31> *
| 32>
| 33>                          ****END OF INPUT****
 Total Charge           Charge          ....    0
 Multiplicity           Mult            ....    1
 Number of Electrons    NEL             ....   56
 Basis Dimension        Dim             ....  158

MULLIKEN ATOMIC CHARGES
-----------------------
   0 C :    0.097874
   1 N :   -0.334261
   2 C :    0.095464
   3 C :    0.092079
   4 N :   -0.252108
   5 C :    0.082871
   6 C :    0.105576
   7 H :    0.014924
   8 H :   -0.001081
   9 H :    0.012935
  10 H :    0.004693
  11 H :    0.005670
  12 H :   -0.017803
  13 H :    0.001965
  14 H :    0.096795
  15 H :   -0.017724
  16 H :    0.005366
  17 H :    0.001533
  18 H :    0.005233
Sum of atomic charges:   -0.0000000

LOEWDIN ATOMIC CHARGES
----------------------
   0 C :   -0.001019
   1 N :   -0.115314
   2 C :    0.009763
   3 C :   -0.005010
   4 N :   -0.103286
   5 C :   -0.005737
   6 C :    0.010644
   7 H :    0.021507
   8 H :   -0.007017
   9 H :    0.021333
  10 H :    0.020886
  11 H :    0.020877
  12 H :   -0.002451
  13 H :    0.021065
  14 H :    0.053513
  15 H :   -0.002915
  16 H :    0.022141
  17 H :    0.020059
  18 H :    0.020960

  Mayer bond orders larger than 0.1
B(  0-C ,  1-N ) :   1.0345 B(  0-C ,  7-H ) :   0.9645 B(  0-C ,  8-H ) :   0.9402
B(  0-C ,  9-H ) :   0.9639 B(  1-N ,  2-C ) :   1.0596 B(  1-N ,  6-C ) :   1.0557
B(  2-C ,  3-C ) :   1.0951 B(  2-C , 10-H ) :   0.9344 B(  2-C , 11-H ) :   0.9178
B(  3-C ,  4-N ) :   1.0506 B(  3-C , 12-H ) :   0.9015 B(  3-C , 13-H ) :   0.9282
B(  4-N ,  5-C ) :   1.0529 B(  4-N , 14-H ) :   0.9426 B(  5-C ,  6-C ) :   1.0970
B(  5-C , 15-H ) :   0.9024 B(  5-C , 16-H ) :   0.9272 B(  6-C , 17-H ) :   0.9349
B(  6-C , 18-H ) :   0.9168

FINAL SINGLE POINT ENERGY      -306.602445434642

DIPOLE MOMENT
-------------
                                X             Y             Z
Electronic contribution:      2.40074      -0.12248      -0.47370
Nuclear contribution   :     -2.79080       0.01731       0.07301
                        -----------------------------------------
Total Dipole Moment    :     -0.39006      -0.10517      -0.40069
                        -----------------------------------------
Magnitude (a.u.)       :      0.56900
Magnitude (Debye)      :      1.44628

                             ****ORCA TERMINATED NORMALLY****
TOTAL RUN TIME: 0 days 0 hours 0 minutes 8 seconds 553 msec
