                         Program Version 3.0.3 - RELEASE   -
|  1> ! RI PBE def2-SVP def2-SVP/J NBO PAL2
|  2> % maxcore 2000
|  3> % output
|  4>     # printlevel mini
|  5>     print[ P_Basis ] 0
|  6>     print[ P_SCFInfo ] 1
|  7>     print[ P_SCFIterInfo ] 1
|  8>     print[ P_OrbEn ] 0
|  9>     print[ P_Cartesian ] 0
| 10> end
| 11> *xyz 0 1
| 12>  C        1.1463560000     0.0531030000    -0.0396840000
| 13>  N        2.5262290000     0.3056270000     0.2497560000
| 14>  C        3.2561120000     1.3735390000    -0.1869620000
| 15>  N        4.5276930000     1.2985520000    -0.0574750000
| 16>  C        4.7930500000    -0.0253590000     0.4268600000
| 17>  C        4.3951040000    -1.1771970000    -0.4550300000
| 18>  C        3.4520800000    -0.7170860000     0.6173300000
| 19>  H        0.6406840000     0.9985620000    -0.2429900000
| 20>  H        0.6551620000    -0.4128750000     0.8190760000
| 21>  H        1.0137360000    -0.6058550000    -0.9079190000
| 22>  H        2.7415670000     2.2400690000    -0.5912960000
| 23>  H        5.6319390000    -0.1444360000     1.1006210000
| 24>  H        4.9038320000    -2.1162780000    -0.2784880000
| 25>  H        4.1521390000    -0.9621700000    -1.4896590000
| 26>  H        3.1754170000    -1.3566960000     1.4478710000
| 27> *
| 28>
| 29>                          ****END OF INPUT****
 Total Charge           Charge          ....    0
 Multiplicity           Mult            ....    1
 Number of Electrons    NEL             ....   52
 Basis Dimension        Dim             ....  138

MULLIKEN ATOMIC CHARGES
-----------------------
   0 C :    0.104097
   1 N :   -0.224710
   2 C :    0.084139
   3 N :   -0.159444
   4 C :   -0.027578
   5 C :    0.027832
   6 C :   -0.010067
   7 H :    0.033503
   8 H :    0.032463
   9 H :    0.027682
  10 H :    0.006578
  11 H :    0.023392
  12 H :    0.035249
  13 H :    0.029814
  14 H :    0.017050
Sum of atomic charges:    0.0000000

LOEWDIN ATOMIC CHARGES
----------------------
   0 C :    0.017972
   1 N :   -0.024169
   2 C :    0.019948
   3 N :   -0.145731
   4 C :    0.001324
   5 C :   -0.060415
   6 C :   -0.000230
   7 H :    0.031913
   8 H :    0.026899
   9 H :    0.018693
  10 H :    0.015101
  11 H :    0.020337
  12 H :    0.032943
  13 H :    0.028055
  14 H :    0.017359

  Mayer bond orders larger than 0.1
B(  0-C ,  1-N ) :   1.0116 B(  0-C ,  7-H ) :   0.9642 B(  0-C ,  8-H ) :   0.9645
B(  0-C ,  9-H ) :   0.9566 B(  1-N ,  2-C ) :   1.1496 B(  1-N ,  3-N ) :   0.1149
B(  1-N ,  6-C ) :   1.0252 B(  2-C ,  3-N ) :   1.7843 B(  2-C , 10-H ) :   0.9582
B(  3-N ,  4-C ) :   1.1238 B(  4-C ,  5-C ) :   0.9599 B(  4-C ,  6-C ) :   0.8905
B(  4-C , 11-H ) :   0.9541 B(  5-C ,  6-C ) :   0.9894 B(  5-C , 12-H ) :   0.9422
B(  5-C , 13-H ) :   0.9148 B(  6-C , 14-H ) :   0.9480

FINAL SINGLE POINT ENERGY      -304.191970275204

DIPOLE MOMENT
-------------
                                X             Y             Z
Electronic contribution:      2.96671       2.64436       0.76002
Nuclear contribution   :     -3.99961      -3.31286      -0.67267
                        -----------------------------------------
Total Dipole Moment    :     -1.03290      -0.66850       0.08736
                        -----------------------------------------
Magnitude (a.u.)       :      1.23345
Magnitude (Debye)      :      3.13519

                             ****ORCA TERMINATED NORMALLY****
TOTAL RUN TIME: 0 days 0 hours 0 minutes 7 seconds 250 msec
