                         Program Version 3.0.3 - RELEASE   -
|  1> ! RI PBE def2-SVP def2-SVP/J NBO PAL2
|  2> % maxcore 2000
|  3> % output
|  4>     # printlevel mini
|  5>     print[ P_Basis ] 0
|  6>     print[ P_SCFInfo ] 1
|  7>     print[ P_SCFIterInfo ] 1
|  8>     print[ P_OrbEn ] 0
|  9>     print[ P_Cartesian ] 0
| 10> end
| 11> *xyz 0 1
| 12>  C        1.1229010000     0.1077380000    -0.3058420000
| 13>  N        2.5243120000     0.0939270000    -0.0222850000
| 14>  C        3.2980760000    -1.0007800000     0.2916980000
| 15>  N        4.5308610000    -0.7831540000     0.5079760000
| 16>  C        4.7074380000     0.6577290000     0.3349420000
| 17>  C        3.3431770000     1.2134860000    -0.0196840000
| 18>  C        2.9663010000     2.4671460000    -0.2768230000
| 19>  H        0.7303790000    -0.9069480000    -0.2379220000
| 20>  H        0.9299320000     0.4903270000    -1.3138150000
| 21>  H        0.5839300000     0.7394610000     0.4083420000
| 22>  H        2.8316900000    -1.9803520000     0.3397180000
| 23>  H        5.4434880000     0.8523400000    -0.4509790000
| 24>  H        5.1004600000     1.0993310000     1.2557230000
| 25>  H        3.6904670000     3.2694800000    -0.2473560000
| 26>  H        1.9430580000     2.7229810000    -0.5195050000
| 27> *
| 28>
| 29>                          ****END OF INPUT****
 Total Charge           Charge          ....    0
 Multiplicity           Mult            ....    1
 Number of Electrons    NEL             ....   52
 Basis Dimension        Dim             ....  138

MULLIKEN ATOMIC CHARGES
-----------------------
   0 C :    0.096405
   1 N :   -0.232665
   2 C :    0.118066
   3 N :   -0.217062
   4 C :    0.162182
   5 C :   -0.048540
   6 C :   -0.102694
   7 H :    0.032616
   8 H :    0.039281
   9 H :    0.043751
  10 H :    0.010726
  11 H :    0.048318
  12 H :    0.044298
  13 H :    0.004971
  14 H :    0.000347
Sum of atomic charges:   -0.0000000

LOEWDIN ATOMIC CHARGES
----------------------
   0 C :    0.021320
   1 N :   -0.002363
   2 C :    0.027546
   3 N :   -0.141891
   4 C :    0.013107
   5 C :   -0.002478
   6 C :   -0.154072
   7 H :    0.033964
   8 H :    0.028266
   9 H :    0.029015
  10 H :    0.016828
  11 H :    0.042925
  12 H :    0.042232
  13 H :    0.026754
  14 H :    0.018848

  Mayer bond orders larger than 0.1
B(  0-C ,  1-N ) :   1.0079 B(  0-C ,  7-H ) :   0.9629 B(  0-C ,  8-H ) :   0.9574
B(  0-C ,  9-H ) :   0.9584 B(  1-N ,  2-C ) :   1.0931 B(  1-N ,  5-C ) :   1.1094
B(  2-C ,  3-N ) :   1.8628 B(  2-C , 10-H ) :   0.9590 B(  3-N ,  4-C ) :   1.0920
B(  4-C ,  5-C ) :   0.9997 B(  4-C , 11-H ) :   0.9130 B(  4-C , 12-H ) :   0.9132
B(  5-C ,  6-C ) :   1.8756 B(  6-C , 13-H ) :   0.9287 B(  6-C , 14-H ) :   0.9235

FINAL SINGLE POINT ENERGY      -304.211269568491

DIPOLE MOMENT
-------------
                                X             Y             Z
Electronic contribution:      2.98368      -2.82091       1.00871
Nuclear contribution   :     -3.92134       2.91797      -1.21015
                        -----------------------------------------
Total Dipole Moment    :     -0.93766       0.09707      -0.20144
                        -----------------------------------------
Magnitude (a.u.)       :      0.96396
Magnitude (Debye)      :      2.45019

                             ****ORCA TERMINATED NORMALLY****
TOTAL RUN TIME: 0 days 0 hours 0 minutes 7 seconds 154 msec
