                         Program Version 3.0.3 - RELEASE   -
|  1> ! RI PBE def2-SVP def2-SVP/J NBO PAL2
|  2> % maxcore 2000
|  3> % output
|  4>     # printlevel mini
|  5>     print[ P_Basis ] 0
|  6>     print[ P_SCFInfo ] 1
|  7>     print[ P_SCFIterInfo ] 1
|  8>     print[ P_OrbEn ] 0
|  9>     print[ P_Cartesian ] 0
| 10> end
| 11> *xyz 0 1
| 12>  C        1.1240250000     0.0170040000    -0.1883490000
| 13>  N        2.4187490000     0.3591990000     0.3297330000
| 14>  N        3.0520350000     1.4131080000    -0.2644800000
| 15>  C        4.3199060000     1.2577770000    -0.1565880000
| 16>  C        4.7089820000    -0.0543470000     0.3989850000
| 17>  C        4.2232710000    -1.2251030000    -0.4270790000
| 18>  C        3.3560540000    -0.6718570000     0.6611600000
| 19>  H        0.5532660000     0.9338830000    -0.3319690000
| 20>  H        0.6023990000    -0.6143900000     0.5340180000
| 21>  H        1.1754420000    -0.5208800000    -1.1469690000
| 22>  H        4.9939730000     2.0484180000    -0.4584110000
| 23>  H        5.5667220000    -0.1697250000     1.0487480000
| 24>  H        4.6883540000    -2.1812120000    -0.2256870000
| 25>  H        3.9621730000    -1.0399060000    -1.4621000000
| 26>  H        3.1195590000    -1.2744790000     1.5300980000
| 27> *
| 28>
| 29>                          ****END OF INPUT****
 Total Charge           Charge          ....    0
 Multiplicity           Mult            ....    1
 Number of Electrons    NEL             ....   52
 Basis Dimension        Dim             ....  138

MULLIKEN ATOMIC CHARGES
-----------------------
   0 C :    0.119586
   1 N :   -0.207425
   2 N :   -0.070572
   3 C :    0.019673
   4 C :   -0.127220
   5 C :    0.027733
   6 C :    0.031064
   7 H :    0.041374
   8 H :    0.023271
   9 H :    0.010894
  10 H :    0.008130
  11 H :    0.028797
  12 H :    0.035299
  13 H :    0.036873
  14 H :    0.022524
Sum of atomic charges:   -0.0000000

LOEWDIN ATOMIC CHARGES
----------------------
   0 C :    0.006716
   1 N :   -0.013731
   2 N :   -0.041649
   3 C :   -0.053533
   4 C :   -0.054376
   5 C :   -0.049420
   6 C :    0.007607
   7 H :    0.032878
   8 H :    0.025478
   9 H :    0.009137
  10 H :    0.019964
  11 H :    0.028812
  12 H :    0.032328
  13 H :    0.027910
  14 H :    0.021879

  Mayer bond orders larger than 0.1
B(  0-C ,  1-N ) :   1.0134 B(  0-C ,  7-H ) :   0.9646 B(  0-C ,  8-H ) :   0.9647
B(  0-C ,  9-H ) :   0.9513 B(  1-N ,  2-N ) :   1.0757 B(  1-N ,  3-C ) :   0.1115
B(  1-N ,  6-C ) :   1.0092 B(  2-N ,  3-C ) :   1.7992 B(  3-C ,  4-C ) :   1.0149
B(  3-C , 10-H ) :   0.9847 B(  4-C ,  5-C ) :   0.9595 B(  4-C ,  6-C ) :   0.9121
B(  4-C , 11-H ) :   0.9479 B(  5-C ,  6-C ) :   0.9916 B(  5-C , 12-H ) :   0.9429
B(  5-C , 13-H ) :   0.9267 B(  6-C , 14-H ) :   0.9481

FINAL SINGLE POINT ENERGY      -304.168353294085

DIPOLE MOMENT
-------------
                                X             Y             Z
Electronic contribution:      1.58169       2.98058       0.96396
Nuclear contribution   :     -1.42041      -3.71783      -0.78192
                        -----------------------------------------
Total Dipole Moment    :      0.16128      -0.73725       0.18204
                        -----------------------------------------
Magnitude (a.u.)       :      0.77633
Magnitude (Debye)      :      1.97328

                             ****ORCA TERMINATED NORMALLY****
TOTAL RUN TIME: 0 days 0 hours 0 minutes 7 seconds 26 msec
