                         Program Version 3.0.3 - RELEASE   -
|  1> ! RI PBE def2-SVP def2-SVP/J NBO PAL2
|  2> % maxcore 2000
|  3> % output
|  4>     # printlevel mini
|  5>     print[ P_Basis ] 0
|  6>     print[ P_SCFInfo ] 1
|  7>     print[ P_SCFIterInfo ] 1
|  8>     print[ P_OrbEn ] 0
|  9>     print[ P_Cartesian ] 0
| 10> end
| 11> *xyz 0 1
| 12>  C        2.9760460000     0.8084770000     0.7576600000
| 13>  N        2.2624640000     0.0550830000    -0.2515800000
| 14>  C        2.7734130000     0.2194670000    -1.5725300000
| 15>  C        1.8671260000     0.0883120000    -2.7503900000
| 16>  C        2.5198280000     1.4188060000    -2.4669090000
| 17>  C        1.6406850000     2.5409200000    -1.9843680000
| 18>  C        3.6361870000     1.8494490000    -3.3804350000
| 19>  H        2.5279130000     0.6265000000     1.7366900000
| 20>  H        2.9988970000     1.8944030000     0.5805890000
| 21>  H        4.0118300000     0.4600060000     0.8021500000
| 22>  H        1.2705200000     0.2420370000    -0.2162710000
| 23>  H        3.7623550000    -0.2215930000    -1.6819560000
| 24>  H        0.8046790000     0.0038040000    -2.5434870000
| 25>  H        2.1969220000    -0.4899840000    -3.6057160000
| 26>  H        0.9087320000     2.2013150000    -1.2478900000
| 27>  H        1.0847940000     2.9851690000    -2.8160060000
| 28>  H        2.2336500000     3.3357190000    -1.5218210000
| 29>  H        4.2574720000     0.9998680000    -3.6755310000
| 30>  H        4.2839290000     2.5836060000    -2.8910540000
| 31>  H        3.2461470000     2.3072160000    -4.2957250000
| 32> *
| 33>
| 34>                          ****END OF INPUT****
 Total Charge           Charge          ....    0
 Multiplicity           Mult            ....    1
 Number of Electrons    NEL             ....   56
 Basis Dimension        Dim             ....  163

MULLIKEN ATOMIC CHARGES
-----------------------
   0 C :    0.071409
   1 N :   -0.165104
   2 C :   -0.036675
   3 C :    0.028006
   4 C :   -0.310923
   5 C :    0.097929
   6 C :    0.098486
   7 H :    0.018546
   8 H :    0.003882
   9 H :    0.013672
  10 H :    0.089324
  11 H :    0.005905
  12 H :    0.015663
  13 H :    0.022257
  14 H :   -0.018927
  15 H :    0.014933
  16 H :    0.022772
  17 H :    0.001386
  18 H :    0.015146
  19 H :    0.012313
Sum of atomic charges:    0.0000000

LOEWDIN ATOMIC CHARGES
----------------------
   0 C :   -0.003765
   1 N :   -0.078172
   2 C :    0.000891
   3 C :   -0.046590
   4 C :   -0.082612
   5 C :   -0.048965
   6 C :   -0.046336
   7 H :    0.021683
   8 H :    0.000243
   9 H :    0.021924
  10 H :    0.050306
  11 H :    0.018187
  12 H :    0.023323
  13 H :    0.025181
  14 H :    0.015829
  15 H :    0.027889
  16 H :    0.026018
  17 H :    0.024407
  18 H :    0.025636
  19 H :    0.024923

  Mayer bond orders larger than 0.1
B(  0-C ,  1-N ) :   1.0581 B(  0-C ,  7-H ) :   0.9721 B(  0-C ,  8-H ) :   0.9488
B(  0-C ,  9-H ) :   0.9637 B(  1-N ,  2-C ) :   1.1597 B(  1-N , 10-H ) :   0.9388
B(  2-C ,  3-C ) :   0.9933 B(  2-C ,  4-C ) :   0.8792 B(  2-C , 11-H ) :   0.9306
B(  3-C ,  4-C ) :   0.9527 B(  3-C , 12-H ) :   0.9388 B(  3-C , 13-H ) :   0.9331
B(  4-C ,  5-C ) :   1.0975 B(  4-C ,  6-C ) :   1.0855 B(  5-C , 14-H ) :   0.9339
B(  5-C , 15-H ) :   0.9520 B(  5-C , 16-H ) :   0.9552 B(  6-C , 17-H ) :   0.9416
B(  6-C , 18-H ) :   0.9588 B(  6-C , 19-H ) :   0.9527

FINAL SINGLE POINT ENERGY      -290.566235235402

DIPOLE MOMENT
-------------
                                X             Y             Z
Electronic contribution:     -0.80035      -3.13381       0.13849
Nuclear contribution   :      0.68299       3.45371      -0.12985
                        -----------------------------------------
Total Dipole Moment    :     -0.11736       0.31990       0.00863
                        -----------------------------------------
Magnitude (a.u.)       :      0.34086
Magnitude (Debye)      :      0.86639

                             ****ORCA TERMINATED NORMALLY****
TOTAL RUN TIME: 0 days 0 hours 0 minutes 8 seconds 976 msec
