                         Program Version 3.0.3 - RELEASE   -
|  1> ! RI PBE def2-SVP def2-SVP/J NBO PAL2
|  2> % maxcore 2000
|  3> % output
|  4>     # printlevel mini
|  5>     print[ P_Basis ] 0
|  6>     print[ P_SCFInfo ] 1
|  7>     print[ P_SCFIterInfo ] 1
|  8>     print[ P_OrbEn ] 0
|  9>     print[ P_Cartesian ] 0
| 10> end
| 11> *xyz 0 1
| 12>  C        1.8423110000     1.0143650000    -0.0346230000
| 13>  N        2.2259670000    -0.3719530000     0.1247290000
| 14>  C        2.9556630000    -0.6408110000     1.3125620000
| 15>  C        3.9984830000    -1.6930430000     1.3360150000
| 16>  C        4.4293900000    -0.2593770000     1.4916300000
| 17>  C        4.9049090000     0.2903600000     2.7695960000
| 18>  C        4.9956560000    -0.3522520000     3.9296330000
| 19>  H        1.2972570000     1.1393900000    -0.9720660000
| 20>  H        2.6915830000     1.7154620000    -0.0255280000
| 21>  H        1.1700200000     1.3001410000     0.7786570000
| 22>  H        2.7242100000    -0.7089550000    -0.6878770000
| 23>  H        2.3643430000    -0.5301190000     2.2181740000
| 24>  H        4.2434310000    -2.1781030000     0.3973520000
| 25>  H        4.0536880000    -2.3486470000     2.1957600000
| 26>  H        4.8719620000     0.1888410000     0.6068100000
| 27>  H        5.1680910000     1.3462340000     2.7439770000
| 28>  H        4.7637260000    -1.4073790000     4.0274960000
| 29>  H        5.3121200000     0.1613570000     4.8292920000
| 30> *
| 31>
| 32>                          ****END OF INPUT****
 Total Charge           Charge          ....    0
 Multiplicity           Mult            ....    1
 Number of Electrons    NEL             ....   54
 Basis Dimension        Dim             ....  153

MULLIKEN ATOMIC CHARGES
-----------------------
   0 C :    0.069501
   1 N :   -0.162136
   2 C :   -0.051057
   3 C :    0.029758
   4 C :   -0.082833
   5 C :    0.009366
   6 C :   -0.063010
   7 H :    0.022270
   8 H :    0.003333
   9 H :    0.021926
  10 H :    0.089474
  11 H :    0.023143
  12 H :    0.022755
  13 H :    0.036138
  14 H :    0.006457
  15 H :   -0.003380
  16 H :    0.009938
  17 H :    0.018357
Sum of atomic charges:   -0.0000000

LOEWDIN ATOMIC CHARGES
----------------------
   0 C :   -0.003411
   1 N :   -0.072424
   2 C :    0.013874
   3 C :   -0.037416
   4 C :   -0.066200
   5 C :   -0.027797
   6 C :   -0.085944
   7 H :    0.022911
   8 H :    0.001037
   9 H :    0.024533
  10 H :    0.055316
  11 H :    0.023131
  12 H :    0.027853
  13 H :    0.029848
  14 H :    0.026123
  15 H :    0.028287
  16 H :    0.016972
  17 H :    0.023306

  Mayer bond orders larger than 0.1
B(  0-C ,  1-N ) :   1.0551 B(  0-C ,  7-H ) :   0.9727 B(  0-C ,  8-H ) :   0.9488
B(  0-C ,  9-H ) :   0.9661 B(  1-N ,  2-C ) :   1.1478 B(  1-N , 10-H ) :   0.9357
B(  2-C ,  3-C ) :   1.0167 B(  2-C ,  4-C ) :   0.8626 B(  2-C , 11-H ) :   0.9330
B(  3-C ,  4-C ) :   0.9762 B(  3-C , 12-H ) :   0.9320 B(  3-C , 13-H ) :   0.9269
B(  4-C ,  5-C ) :   1.0879 B(  4-C , 14-H ) :   0.9250 B(  5-C ,  6-C ) :   1.9639
B(  5-C , 15-H ) :   0.9574 B(  6-C , 16-H ) :   0.9395 B(  6-C , 17-H ) :   0.9424

FINAL SINGLE POINT ENERGY      -289.342392995355

DIPOLE MOMENT
-------------
                                X             Y             Z
Electronic contribution:      0.74308      -1.39649       0.14185
Nuclear contribution   :     -0.69144       1.54746      -0.58654
                        -----------------------------------------
Total Dipole Moment    :      0.05163       0.15097      -0.44469
                        -----------------------------------------
Magnitude (a.u.)       :      0.47245
Magnitude (Debye)      :      1.20086

                             ****ORCA TERMINATED NORMALLY****
TOTAL RUN TIME: 0 days 0 hours 0 minutes 7 seconds 927 msec
