                         Program Version 3.0.3 - RELEASE   -
|  1> ! RI PBE def2-SVP def2-SVP/J NBO PAL2
|  2> % maxcore 2000
|  3> % output
|  4>     # printlevel mini
|  5>     print[ P_Basis ] 0
|  6>     print[ P_SCFInfo ] 1
|  7>     print[ P_SCFIterInfo ] 1
|  8>     print[ P_OrbEn ] 0
|  9>     print[ P_Cartesian ] 0
| 10> end
| 11> *xyz 0 1
| 12>  C        3.3679230000    -0.6951300000     0.5039630000
| 13>  N        2.4353330000     0.0412410000    -0.3237490000
| 14>  C        2.9917850000     1.1827040000    -0.9566520000
| 15>  C        2.1640060000     2.3828760000    -1.2055980000
| 16>  C        3.2863010000     2.4739600000    -0.1892790000
| 17>  C        4.4562090000     3.2384920000    -0.4787420000
| 18>  C        5.4475050000     3.8682080000    -0.7388820000
| 19>  H        2.8608240000    -1.5509550000     0.9528870000
| 20>  H        3.8229190000    -0.0946080000     1.3062050000
| 21>  H        4.1785030000    -1.0812550000    -0.1194250000
| 22>  H        1.5997970000     0.2836700000     0.1912980000
| 23>  H        3.7320920000     0.9397930000    -1.7132880000
| 24>  H        1.1533170000     2.3928580000    -0.8129400000
| 25>  H        2.2929020000     2.9174620000    -2.1373380000
| 26>  H        2.9767450000     2.4710170000     0.8513510000
| 27>  H        6.3240380000     4.4272660000    -0.9646190000
| 28> *
| 29>
| 30>                          ****END OF INPUT****
 Total Charge           Charge          ....    0
 Multiplicity           Mult            ....    1
 Number of Electrons    NEL             ....   52
 Basis Dimension        Dim             ....  143

MULLIKEN ATOMIC CHARGES
-----------------------
   0 C :    0.077378
   1 N :   -0.165929
   2 C :   -0.046194
   3 C :    0.043946
   4 C :   -0.156850
   5 C :    0.455398
   6 C :   -0.484938
   7 H :    0.022346
   8 H :    0.005081
   9 H :    0.021405
  10 H :    0.092198
  11 H :    0.030798
  12 H :    0.027570
  13 H :    0.044260
  14 H :    0.038328
  15 H :   -0.004798
Sum of atomic charges:    0.0000000

LOEWDIN ATOMIC CHARGES
----------------------
   0 C :   -0.000370
   1 N :   -0.073331
   2 C :    0.017934
   3 C :   -0.023504
   4 C :   -0.073853
   5 C :   -0.020414
   6 C :   -0.100580
   7 H :    0.023448
   8 H :    0.002457
   9 H :    0.025334
  10 H :    0.056138
  11 H :    0.028559
  12 H :    0.029233
  13 H :    0.036826
  14 H :    0.040079
  15 H :    0.032044

  Mayer bond orders larger than 0.1
B(  0-C ,  1-N ) :   1.0543 B(  0-C ,  7-H ) :   0.9725 B(  0-C ,  8-H ) :   0.9501
B(  0-C ,  9-H ) :   0.9660 B(  1-N ,  2-C ) :   1.1530 B(  1-N , 10-H ) :   0.9346
B(  2-C ,  3-C ) :   1.0060 B(  2-C ,  4-C ) :   0.8624 B(  2-C , 11-H ) :   0.9367
B(  3-C ,  4-C ) :   0.9527 B(  3-C , 12-H ) :   0.9349 B(  3-C , 13-H ) :   0.9372
B(  4-C ,  5-C ) :   1.0410 B(  4-C , 14-H ) :   0.9111 B(  5-C ,  6-C ) :   2.2578
B(  5-C , 15-H ) :  -0.1065 B(  6-C , 15-H ) :   1.0971

FINAL SINGLE POINT ENERGY      -288.100020206584

DIPOLE MOMENT
-------------
                                X             Y             Z
Electronic contribution:      1.25249       4.02483      -1.31140
Nuclear contribution   :     -1.61445      -4.24632       1.59454
                        -----------------------------------------
Total Dipole Moment    :     -0.36196      -0.22150       0.28314
                        -----------------------------------------
Magnitude (a.u.)       :      0.51014
Magnitude (Debye)      :      1.29668

                             ****ORCA TERMINATED NORMALLY****
TOTAL RUN TIME: 0 days 0 hours 0 minutes 7 seconds 294 msec
