                         Program Version 3.0.3 - RELEASE   -
|  1> ! RI PBE def2-SVP def2-SVP/J NBO PAL2
|  2> % maxcore 2000
|  3> % output
|  4>     # printlevel mini
|  5>     print[ P_Basis ] 0
|  6>     print[ P_SCFInfo ] 1
|  7>     print[ P_SCFIterInfo ] 1
|  8>     print[ P_OrbEn ] 0
|  9>     print[ P_Cartesian ] 0
| 10> end
| 11> *xyz 0 1
| 12>  C        2.1172920000     0.5191290000    -0.9787500000
| 13>  N        3.4684810000     0.3367110000    -0.4918960000
| 14>  C        3.5741750000     0.3663820000     0.9323730000
| 15>  C        4.7811060000     0.9530200000     1.5779750000
| 16>  C        3.4433720000     1.6343740000     1.7331370000
| 17>  C        2.7646830000     1.6439090000     3.0698750000
| 18>  N        3.2713920000     2.7315690000     3.8947160000
| 19>  H        2.1161250000     0.5101190000    -2.0705270000
| 20>  H        1.6386310000     1.4498940000    -0.6355740000
| 21>  H        1.4948930000    -0.3149540000    -0.6429820000
| 22>  H        4.0909030000     1.0196730000    -0.9027560000
| 23>  H        3.1705860000    -0.5287680000     1.4009830000
| 24>  H        5.5197440000     1.4207650000     0.9363750000
| 25>  H        5.2014520000     0.4392590000     2.4355460000
| 26>  H        3.3165370000     2.5459230000     1.1556080000
| 27>  H        2.8836850000     0.6467510000     3.5264740000
| 28>  H        1.6888860000     1.7986590000     2.9326520000
| 29>  H        4.2698020000     2.6246460000     4.0306930000
| 30>  H        2.8416650000     2.7201410000     4.8113990000
| 31> *
| 32>
| 33>                          ****END OF INPUT****
 Total Charge           Charge          ....    0
 Multiplicity           Mult            ....    1
 Number of Electrons    NEL             ....   56
 Basis Dimension        Dim             ....  158

MULLIKEN ATOMIC CHARGES
-----------------------
   0 C :    0.058585
   1 N :   -0.164306
   2 C :   -0.046634
   3 C :    0.002434
   4 C :   -0.161896
   5 C :    0.164698
   6 N :   -0.211428
   7 H :    0.025780
   8 H :    0.001212
   9 H :    0.018403
  10 H :    0.086877
  11 H :    0.009301
  12 H :    0.025452
  13 H :    0.021726
  14 H :    0.015786
  15 H :   -0.024662
  16 H :    0.009882
  17 H :    0.084983
  18 H :    0.083807
Sum of atomic charges:   -0.0000000

LOEWDIN ATOMIC CHARGES
----------------------
   0 C :   -0.007214
   1 N :   -0.081621
   2 C :    0.000933
   3 C :   -0.052259
   4 C :   -0.067203
   5 C :    0.011068
   6 N :   -0.114044
   7 H :    0.022627
   8 H :   -0.000910
   9 H :    0.022185
  10 H :    0.053236
  11 H :    0.017987
  12 H :    0.025702
  13 H :    0.024701
  14 H :    0.025033
  15 H :   -0.002549
  16 H :    0.023127
  17 H :    0.048801
  18 H :    0.050399

  Mayer bond orders larger than 0.1
B(  0-C ,  1-N ) :   1.0639 B(  0-C ,  7-H ) :   0.9726 B(  0-C ,  8-H ) :   0.9469
B(  0-C ,  9-H ) :   0.9655 B(  1-N ,  2-C ) :   1.1402 B(  1-N , 10-H ) :   0.9366
B(  2-C ,  3-C ) :   1.0156 B(  2-C ,  4-C ) :   0.8952 B(  2-C , 11-H ) :   0.9285
B(  3-C ,  4-C ) :   0.9745 B(  3-C , 12-H ) :   0.9375 B(  3-C , 13-H ) :   0.9321
B(  4-C ,  5-C ) :   1.0824 B(  4-C , 14-H ) :   0.9329 B(  5-C ,  6-N ) :   1.0838
B(  5-C , 15-H ) :   0.9098 B(  5-C , 16-H ) :   0.9247 B(  6-N , 17-H ) :   0.9713
B(  6-N , 18-H ) :   0.9614

FINAL SINGLE POINT ENERGY      -306.576773002676

DIPOLE MOMENT
-------------
                                X             Y             Z
Electronic contribution:      1.65262      -0.09334       0.17245
Nuclear contribution   :     -1.59127       0.08802       0.09922
                        -----------------------------------------
Total Dipole Moment    :      0.06135      -0.00533       0.27167
                        -----------------------------------------
Magnitude (a.u.)       :      0.27856
Magnitude (Debye)      :      0.70804

                             ****ORCA TERMINATED NORMALLY****
TOTAL RUN TIME: 0 days 0 hours 0 minutes 8 seconds 242 msec
