                         Program Version 3.0.3 - RELEASE   -
|  1> ! RI PBE def2-SVP def2-SVP/J NBO PAL2
|  2> % maxcore 2000
|  3> % output
|  4>     # printlevel mini
|  5>     print[ P_Basis ] 0
|  6>     print[ P_SCFInfo ] 1
|  7>     print[ P_SCFIterInfo ] 1
|  8>     print[ P_OrbEn ] 0
|  9>     print[ P_Cartesian ] 0
| 10> end
| 11> *xyz 0 1
| 12>  C        1.7674470000     0.2803220000    -0.2141520000
| 13>  N        3.0892640000    -0.2896890000    -0.0666890000
| 14>  C        3.5981810000    -0.2537700000     1.2633850000
| 15>  C        5.0680520000    -0.1824020000     1.5066900000
| 16>  C        4.1946220000     0.9675160000     1.9368220000
| 17>  C        4.3105400000     2.2696660000     1.1876370000
| 18>  N        3.9605850000     1.0376890000     3.3537110000
| 19>  H        1.4487990000     0.2046050000    -1.2558930000
| 20>  H        1.6897070000     1.3334460000     0.0973920000
| 21>  H        1.0581620000    -0.2946620000     0.3877920000
| 22>  H        3.7409490000     0.1162880000    -0.7230150000
| 23>  H        3.0438080000    -0.8910240000     1.9471120000
| 24>  H        5.7046840000    -0.0219140000     0.6425060000
| 25>  H        5.4937370000    -0.8127900000     2.2766580000
| 26>  H        4.3923850000     2.1204070000     0.1080610000
| 27>  H        5.1979720000     2.8243020000     1.5096020000
| 28>  H        3.4377130000     2.9039540000     1.3707250000
| 29>  H        4.7234590000     1.5137920000     3.8228190000
| 30>  H        3.1132440000     1.5576530000     3.5518270000
| 31> *
| 32>
| 33>                          ****END OF INPUT****
 Total Charge           Charge          ....    0
 Multiplicity           Mult            ....    1
 Number of Electrons    NEL             ....   56
 Basis Dimension        Dim             ....  158

MULLIKEN ATOMIC CHARGES
-----------------------
   0 C :    0.080383
   1 N :   -0.158751
   2 C :   -0.029968
   3 C :    0.033069
   4 C :   -0.252695
   5 C :    0.112326
   6 N :   -0.129788
   7 H :    0.018284
   8 H :   -0.006743
   9 H :    0.014839
  10 H :    0.088566
  11 H :    0.011600
  12 H :    0.016695
  13 H :    0.022241
  14 H :   -0.020011
  15 H :    0.011702
  16 H :    0.017629
  17 H :    0.086214
  18 H :    0.084407
Sum of atomic charges:    0.0000000

LOEWDIN ATOMIC CHARGES
----------------------
   0 C :   -0.002786
   1 N :   -0.077781
   2 C :   -0.002851
   3 C :   -0.048239
   4 C :   -0.054347
   5 C :   -0.067346
   6 N :   -0.078316
   7 H :    0.021474
   8 H :   -0.002683
   9 H :    0.022555
  10 H :    0.050229
  11 H :    0.022217
  12 H :    0.022604
  13 H :    0.029263
  14 H :    0.017925
  15 H :    0.024729
  16 H :    0.022789
  17 H :    0.050002
  18 H :    0.050560

  Mayer bond orders larger than 0.1
B(  0-C ,  1-N ) :   1.0610 B(  0-C ,  7-H ) :   0.9727 B(  0-C ,  8-H ) :   0.9466
B(  0-C ,  9-H ) :   0.9636 B(  1-N ,  2-C ) :   1.1607 B(  1-N , 10-H ) :   0.9379
B(  2-C ,  3-C ) :   1.0075 B(  2-C ,  4-C ) :   0.8675 B(  2-C , 11-H ) :   0.9236
B(  3-C ,  4-C ) :   0.9621 B(  3-C , 12-H ) :   0.9406 B(  3-C , 13-H ) :   0.9200
B(  4-C ,  5-C ) :   1.0794 B(  4-C ,  6-N ) :   1.1304 B(  5-C , 14-H ) :   0.9199
B(  5-C , 15-H ) :   0.9479 B(  5-C , 16-H ) :   0.9503 B(  6-N , 17-H ) :   0.9636
B(  6-N , 18-H ) :   0.9692

FINAL SINGLE POINT ENERGY      -306.583819231048

DIPOLE MOMENT
-------------
                                X             Y             Z
Electronic contribution:      1.21265      -2.59765       1.44117
Nuclear contribution   :     -1.16102       3.36623      -1.50903
                        -----------------------------------------
Total Dipole Moment    :      0.05163       0.76858      -0.06786
                        -----------------------------------------
Magnitude (a.u.)       :      0.77329
Magnitude (Debye)      :      1.96555

                             ****ORCA TERMINATED NORMALLY****
TOTAL RUN TIME: 0 days 0 hours 0 minutes 8 seconds 448 msec
