                         Program Version 3.0.3 - RELEASE   -
|  1> ! RI PBE def2-SVP def2-SVP/J NBO PAL2
|  2> % maxcore 2000
|  3> % output
|  4>     # printlevel mini
|  5>     print[ P_Basis ] 0
|  6>     print[ P_SCFInfo ] 1
|  7>     print[ P_SCFIterInfo ] 1
|  8>     print[ P_OrbEn ] 0
|  9>     print[ P_Cartesian ] 0
| 10> end
| 11> *xyz 0 1
| 12>  C        3.3118000000     0.0604950000     0.8549900000
| 13>  N        2.3948850000    -0.1010570000    -0.2545760000
| 14>  C        2.8497150000     0.4398350000    -1.4789950000
| 15>  C        1.8993750000     0.9946990000    -2.4638680000
| 16>  C        2.8325650000     1.9523600000    -1.7497110000
| 17>  C        3.9077220000     2.5571730000    -2.4663060000
| 18>  N        4.7891880000     3.0212350000    -3.0454520000
| 19>  H        2.8848680000    -0.3964660000     1.7488770000
| 20>  H        3.5591660000     1.1089240000     1.0792680000
| 21>  H        4.2461110000    -0.4601340000     0.6312720000
| 22>  H        1.4683160000     0.2309290000    -0.0245060000
| 23>  H        3.7212920000    -0.0679930000    -1.8812250000
| 24>  H        0.8535230000     1.0561050000    -2.1859420000
| 25>  H        2.0780730000     0.8149190000    -3.5155640000
| 26>  H        2.3962000000     2.5721530000    -0.9747600000
| 27> *
| 28>
| 29>                          ****END OF INPUT****
 Total Charge           Charge          ....    0
 Multiplicity           Mult            ....    1
 Number of Electrons    NEL             ....   52
 Basis Dimension        Dim             ....  138

MULLIKEN ATOMIC CHARGES
-----------------------
   0 C :    0.074855
   1 N :   -0.160559
   2 C :   -0.047400
   3 C :    0.046077
   4 C :   -0.213250
   5 C :   -0.111217
   6 N :    0.050244
   7 H :    0.028411
   8 H :    0.007181
   9 H :    0.026738
  10 H :    0.096551
  11 H :    0.044009
  12 H :    0.044451
  13 H :    0.055569
  14 H :    0.058341
Sum of atomic charges:    0.0000000

LOEWDIN ATOMIC CHARGES
----------------------
   0 C :    0.001480
   1 N :   -0.067663
   2 C :    0.024740
   3 C :   -0.016584
   4 C :   -0.092292
   5 C :   -0.047923
   6 N :   -0.078860
   7 H :    0.026362
   8 H :    0.003952
   9 H :    0.027931
  10 H :    0.059068
  11 H :    0.033660
  12 H :    0.035503
  13 H :    0.042224
  14 H :    0.048402

  Mayer bond orders larger than 0.1
B(  0-C ,  1-N ) :   1.0511 B(  0-C ,  7-H ) :   0.9728 B(  0-C ,  8-H ) :   0.9508
B(  0-C ,  9-H ) :   0.9654 B(  1-N ,  2-C ) :   1.1709 B(  1-N , 10-H ) :   0.9331
B(  2-C ,  3-C ) :   0.9993 B(  2-C ,  4-C ) :   0.8674 B(  2-C , 11-H ) :   0.9379
B(  3-C ,  4-C ) :   0.9715 B(  3-C , 12-H ) :   0.9373 B(  3-C , 13-H ) :   0.9353
B(  4-C ,  5-C ) :   1.1577 B(  4-C , 14-H ) :   0.9020 B(  5-C ,  6-N ) :   3.0105

FINAL SINGLE POINT ENERGY      -304.179602883439

DIPOLE MOMENT
-------------
                                X             Y             Z
Electronic contribution:      2.23653       3.98231      -5.06945
Nuclear contribution   :     -3.50326      -4.64583       6.05296
                        -----------------------------------------
Total Dipole Moment    :     -1.26673      -0.66352       0.98352
                        -----------------------------------------
Magnitude (a.u.)       :      1.73557
Magnitude (Debye)      :      4.41146

                             ****ORCA TERMINATED NORMALLY****
TOTAL RUN TIME: 0 days 0 hours 0 minutes 6 seconds 933 msec
