                         Program Version 3.0.3 - RELEASE   -
|  1> ! RI PBE def2-SVP def2-SVP/J NBO PAL2
|  2> % maxcore 2000
|  3> % output
|  4>     # printlevel mini
|  5>     print[ P_Basis ] 0
|  6>     print[ P_SCFInfo ] 1
|  7>     print[ P_SCFIterInfo ] 1
|  8>     print[ P_OrbEn ] 0
|  9>     print[ P_Cartesian ] 0
| 10> end
| 11> *xyz 0 1
| 12>  C        1.3620410000    -0.6420320000    -0.3378720000
| 13>  N        1.8512300000     0.6980860000    -0.0902450000
| 14>  C        2.6458360000     1.2203230000    -1.1535660000
| 15>  C        1.9300490000     1.8968080000    -2.2853670000
| 16>  C        2.7288910000     2.7067850000    -1.3135730000
| 17>  N        3.9654630000     3.2606290000    -1.7602630000
| 18>  C        4.8651130000     3.6064650000    -0.6807210000
| 19>  H        0.7885910000    -0.9896870000     0.5240640000
| 20>  H        2.1549300000    -1.3788340000    -0.5452790000
| 21>  H        0.6919950000    -0.6286270000    -1.2011340000
| 22>  H        2.3701910000     0.7275140000     0.7783700000
| 23>  H        3.5516620000     0.6789730000    -1.4370960000
| 24>  H        0.8513790000     1.9584810000    -2.2161240000
| 25>  H        2.3378650000     1.7772100000    -3.2809930000
| 26>  H        2.1499990000     3.2713330000    -0.5784810000
| 27>  H        3.7924240000     4.0657670000    -2.3484230000
| 28>  H        5.1653610000     2.6971590000    -0.1532500000
| 29>  H        4.4300080000     4.2941190000     0.0628110000
| 30>  H        5.7682610000     4.0672390000    -1.0860560000
| 31> *
| 32>
| 33>                          ****END OF INPUT****
 Total Charge           Charge          ....    0
 Multiplicity           Mult            ....    1
 Number of Electrons    NEL             ....   56
 Basis Dimension        Dim             ....  158

MULLIKEN ATOMIC CHARGES
-----------------------
   0 C :    0.081824
   1 N :   -0.204613
   2 C :   -0.042467
   3 C :    0.034624
   4 C :   -0.059709
   5 N :   -0.201155
   6 C :    0.076776
   7 H :    0.017999
   8 H :   -0.006713
   9 H :    0.019078
  10 H :    0.100891
  11 H :    0.001422
  12 H :    0.026813
  13 H :    0.021394
  14 H :   -0.001580
  15 H :    0.104694
  16 H :    0.012740
  17 H :   -0.002722
  18 H :    0.020705
Sum of atomic charges:   -0.0000000

LOEWDIN ATOMIC CHARGES
----------------------
   0 C :   -0.004252
   1 N :   -0.090682
   2 C :   -0.010384
   3 C :   -0.051246
   4 C :   -0.009999
   5 N :   -0.089540
   6 C :   -0.005630
   7 H :    0.020456
   8 H :   -0.000912
   9 H :    0.022031
  10 H :    0.056612
  11 H :    0.004617
  12 H :    0.029211
  13 H :    0.027056
  14 H :    0.003469
  15 H :    0.057681
  16 H :    0.020053
  17 H :   -0.000494
  18 H :    0.021954

  Mayer bond orders larger than 0.1
B(  0-C ,  1-N ) :   1.0568 B(  0-C ,  7-H ) :   0.9712 B(  0-C ,  8-H ) :   0.9463
B(  0-C ,  9-H ) :   0.9683 B(  1-N ,  2-C ) :   1.1156 B(  1-N , 10-H ) :   0.9461
B(  2-C ,  3-C ) :   1.0123 B(  2-C ,  4-C ) :   0.9315 B(  2-C , 11-H ) :   0.9121
B(  3-C ,  4-C ) :   1.0180 B(  3-C , 12-H ) :   0.9222 B(  3-C , 13-H ) :   0.9295
B(  4-C ,  5-N ) :   1.1108 B(  4-C , 14-H ) :   0.9166 B(  5-N ,  6-C ) :   1.0618
B(  5-N , 15-H ) :   0.9423 B(  6-C , 16-H ) :   0.9666 B(  6-C , 17-H ) :   0.9471
B(  6-C , 18-H ) :   0.9709

FINAL SINGLE POINT ENERGY      -306.575375451600

DIPOLE MOMENT
-------------
                                X             Y             Z
Electronic contribution:     -0.49152       1.27198      -1.03735
Nuclear contribution   :      0.66557      -1.15103       1.23480
                        -----------------------------------------
Total Dipole Moment    :      0.17404       0.12095       0.19745
                        -----------------------------------------
Magnitude (a.u.)       :      0.28967
Magnitude (Debye)      :      0.73627

                             ****ORCA TERMINATED NORMALLY****
TOTAL RUN TIME: 0 days 0 hours 0 minutes 7 seconds 655 msec
