                         Program Version 3.0.3 - RELEASE   -
|  1> ! RI PBE def2-SVP def2-SVP/J NBO PAL2
|  2> % maxcore 2000
|  3> % output
|  4>     # printlevel mini
|  5>     print[ P_Basis ] 0
|  6>     print[ P_SCFInfo ] 1
|  7>     print[ P_SCFIterInfo ] 1
|  8>     print[ P_OrbEn ] 0
|  9>     print[ P_Cartesian ] 0
| 10> end
| 11> *xyz 0 1
| 12>  C        1.1488360000     0.4313010000    -0.3450780000
| 13>  N        2.3584750000    -0.0086870000     0.3150980000
| 14>  C        2.9441960000    -1.2017190000    -0.2234470000
| 15>  C        4.1927000000    -1.7463810000     0.4811650000
| 16>  C        3.7258410000    -3.1668080000     0.1187890000
| 17>  C        2.2997590000    -2.6148140000    -0.0782370000
| 18>  C        1.4439990000    -3.1827920000    -1.1860070000
| 19>  H        0.7935450000     1.3554220000     0.1160340000
| 20>  H        0.3233110000    -0.2971130000    -0.3264000000
| 21>  H        1.3692940000     0.6517480000    -1.3935310000
| 22>  H        2.1981550000    -0.1229930000     1.3085370000
| 23>  H        3.1590450000    -1.0246750000    -1.2855160000
| 24>  H        4.1280890000    -1.5717970000     1.5594420000
| 25>  H        5.1681290000    -1.4059290000     0.1320060000
| 26>  H        3.8708660000    -3.9577890000     0.8559050000
| 27>  H        4.1505960000    -3.4968570000    -0.8333050000
| 28>  H        1.7630820000    -2.6500550000     0.8783170000
| 29>  H        1.9575850000    -3.1057120000    -2.1492880000
| 30>  H        0.4901950000    -2.6561850000    -1.2749190000
| 31>  H        1.2229830000    -4.2408660000    -1.0155640000
| 32> *
| 33>
| 34>                          ****END OF INPUT****
 Total Charge           Charge          ....    0
 Multiplicity           Mult            ....    1
 Number of Electrons    NEL             ....   56
 Basis Dimension        Dim             ....  163

MULLIKEN ATOMIC CHARGES
-----------------------
   0 C :    0.068182
   1 N :   -0.186908
   2 C :   -0.076412
   3 C :    0.077496
   4 C :    0.033059
   5 C :   -0.146626
   6 C :    0.075819
   7 H :    0.016008
   8 H :    0.005006
   9 H :    0.015010
  10 H :    0.091004
  11 H :   -0.009105
  12 H :   -0.001888
  13 H :    0.005906
  14 H :    0.010260
  15 H :    0.003653
  16 H :   -0.018743
  17 H :    0.006512
  18 H :    0.015755
  19 H :    0.016013
Sum of atomic charges:    0.0000000

LOEWDIN ATOMIC CHARGES
----------------------
   0 C :   -0.006382
   1 N :   -0.091172
   2 C :    0.004116
   3 C :   -0.032072
   4 C :   -0.031454
   5 C :   -0.057736
   6 C :   -0.065916
   7 H :    0.021478
   8 H :   -0.000994
   9 H :    0.022318
  10 H :    0.050284
  11 H :    0.018345
  12 H :    0.021750
  13 H :    0.016802
  14 H :    0.016432
  15 H :    0.021907
  16 H :    0.017916
  17 H :    0.022521
  18 H :    0.024785
  19 H :    0.027071

  Mayer bond orders larger than 0.1
B(  0-C ,  1-N ) :   1.0665 B(  0-C ,  7-H ) :   0.9690 B(  0-C ,  8-H ) :   0.9492
B(  0-C ,  9-H ) :   0.9644 B(  1-N ,  2-C ) :   1.1243 B(  1-N , 10-H ) :   0.9309
B(  2-C ,  3-C ) :   1.0826 B(  2-C ,  5-C ) :   0.9993 B(  2-C , 11-H ) :   0.8918
B(  3-C ,  4-C ) :   1.1221 B(  3-C , 12-H ) :   0.9114 B(  3-C , 13-H ) :   0.9239
B(  4-C ,  5-C ) :   1.0918 B(  4-C , 14-H ) :   0.9267 B(  4-C , 15-H ) :   0.9221
B(  5-C ,  6-C ) :   1.0959 B(  5-C , 16-H ) :   0.8792 B(  6-C , 17-H ) :   0.9496
B(  6-C , 18-H ) :   0.9576 B(  6-C , 19-H ) :   0.9534

FINAL SINGLE POINT ENERGY      -290.571208152918

DIPOLE MOMENT
-------------
                                X             Y             Z
Electronic contribution:      2.14679       1.19231       1.63383
Nuclear contribution   :     -2.42414      -1.35626      -1.51069
                        -----------------------------------------
Total Dipole Moment    :     -0.27735      -0.16395       0.12314
                        -----------------------------------------
Magnitude (a.u.)       :      0.34491
Magnitude (Debye)      :      0.87670

                             ****ORCA TERMINATED NORMALLY****
TOTAL RUN TIME: 0 days 0 hours 0 minutes 8 seconds 922 msec
