                         Program Version 3.0.3 - RELEASE   -
|  1> ! RI PBE def2-SVP def2-SVP/J NBO PAL2
|  2> % maxcore 2000
|  3> % output
|  4>     # printlevel mini
|  5>     print[ P_Basis ] 0
|  6>     print[ P_SCFInfo ] 1
|  7>     print[ P_SCFIterInfo ] 1
|  8>     print[ P_OrbEn ] 0
|  9>     print[ P_Cartesian ] 0
| 10> end
| 11> *xyz 0 1
| 12>  C        2.7725910000     0.7294900000    -0.3878060000
| 13>  N        3.4632940000    -0.0925210000     0.5838260000
| 14>  C        3.0378190000    -1.4615340000     0.6519520000
| 15>  C        1.5830550000    -1.7301130000     0.9572260000
| 16>  C        4.0520700000    -2.4081300000     1.2219310000
| 17>  C        3.7551190000    -2.4350100000    -0.2512930000
| 18>  C        4.7963400000    -1.9975830000    -1.2405630000
| 19>  H        3.2136080000     1.7287140000    -0.3933660000
| 20>  H        1.6907060000     0.8393990000    -0.2191650000
| 21>  H        2.9105880000     0.3030940000    -1.3843710000
| 22>  H        3.4200370000     0.3287450000     1.5033700000
| 23>  H        0.9234510000    -1.3128830000     0.1912710000
| 24>  H        1.3008400000    -1.2920970000     1.9206070000
| 25>  H        1.3869670000    -2.8032630000     1.0092770000
| 26>  H        3.7037210000    -3.2233920000     1.8451210000
| 27>  H        5.0018510000    -1.9765370000     1.5161510000
| 28>  H        3.1395120000    -3.2677930000    -0.5802160000
| 29>  H        5.2999020000    -1.0957650000    -0.8895950000
| 30>  H        4.3547500000    -1.7823630000    -2.2179430000
| 31>  H        5.5488980000    -2.7781780000    -1.3839040000
| 32> *
| 33>
| 34>                          ****END OF INPUT****
 Total Charge           Charge          ....    0
 Multiplicity           Mult            ....    1
 Number of Electrons    NEL             ....   56
 Basis Dimension        Dim             ....  163

MULLIKEN ATOMIC CHARGES
-----------------------
   0 C :    0.077105
   1 N :   -0.192509
   2 C :   -0.219173
   3 C :    0.111594
   4 C :    0.032609
   5 C :   -0.139764
   6 C :    0.077209
   7 H :    0.016692
   8 H :    0.003392
   9 H :    0.018902
  10 H :    0.097786
  11 H :    0.021941
  12 H :    0.001907
  13 H :   -0.000012
  14 H :    0.017621
  15 H :    0.017743
  16 H :    0.008197
  17 H :    0.014172
  18 H :    0.017272
  19 H :    0.017315
Sum of atomic charges:   -0.0000000

LOEWDIN ATOMIC CHARGES
----------------------
   0 C :   -0.005335
   1 N :   -0.077177
   2 C :   -0.031746
   3 C :   -0.060953
   4 C :   -0.044517
   5 C :   -0.043118
   6 C :   -0.059851
   7 H :    0.022269
   8 H :   -0.000932
   9 H :    0.022998
  10 H :    0.054383
  11 H :    0.025472
  12 H :    0.022268
  13 H :    0.027150
  14 H :    0.021804
  15 H :    0.026060
  16 H :    0.021990
  17 H :    0.026832
  18 H :    0.024430
  19 H :    0.027973

  Mayer bond orders larger than 0.1
B(  0-C ,  1-N ) :   1.0543 B(  0-C ,  7-H ) :   0.9688 B(  0-C ,  8-H ) :   0.9483
B(  0-C ,  9-H ) :   0.9652 B(  1-N ,  2-C ) :   1.1275 B(  1-N , 10-H ) :   0.9412
B(  2-C ,  3-C ) :   1.0679 B(  2-C ,  4-C ) :   0.9782 B(  2-C ,  5-C ) :   0.9121
B(  3-C , 11-H ) :   0.9520 B(  3-C , 12-H ) :   0.9491 B(  3-C , 13-H ) :   0.9317
B(  4-C ,  5-C ) :   0.9999 B(  4-C , 14-H ) :   0.9381 B(  4-C , 15-H ) :   0.9323
B(  5-C ,  6-C ) :   1.1172 B(  5-C , 16-H ) :   0.9389 B(  6-C , 17-H ) :   0.9358
B(  6-C , 18-H ) :   0.9576 B(  6-C , 19-H ) :   0.9528

FINAL SINGLE POINT ENERGY      -290.569300136940

DIPOLE MOMENT
-------------
                                X             Y             Z
Electronic contribution:      1.10426      -0.47312       1.79545
Nuclear contribution   :     -1.38998       0.60883      -1.66208
                        -----------------------------------------
Total Dipole Moment    :     -0.28571       0.13571       0.13337
                        -----------------------------------------
Magnitude (a.u.)       :      0.34327
Magnitude (Debye)      :      0.87253

                             ****ORCA TERMINATED NORMALLY****
TOTAL RUN TIME: 0 days 0 hours 0 minutes 8 seconds 295 msec
