                         Program Version 3.0.3 - RELEASE   -
|  1> ! RI PBE def2-SVP def2-SVP/J NBO PAL2
|  2> % maxcore 2000
|  3> % output
|  4>     # printlevel mini
|  5>     print[ P_Basis ] 0
|  6>     print[ P_SCFInfo ] 1
|  7>     print[ P_SCFIterInfo ] 1
|  8>     print[ P_OrbEn ] 0
|  9>     print[ P_Cartesian ] 0
| 10> end
| 11> *xyz 0 1
| 12>  C        2.9928860000     0.2764550000     1.0836040000
| 13>  N        2.3177540000    -0.0768660000    -0.1460850000
| 14>  C        2.8584440000     0.5603310000    -1.3029400000
| 15>  C        1.9823820000     0.9953620000    -2.4366320000
| 16>  C        0.4858010000     0.8552990000    -2.3945270000
| 17>  C        2.6943320000     2.0316400000    -1.6069940000
| 18>  C        3.8216870000     2.8403810000    -2.1810740000
| 19>  H        2.5144980000    -0.2291920000     1.9250180000
| 20>  H        3.0114260000     1.3586470000     1.2898550000
| 21>  H        4.0304970000    -0.0667220000     1.0408720000
| 22>  H        1.3247750000     0.0905050000    -0.0704230000
| 23>  H        3.8202010000     0.1398750000    -1.5924710000
| 24>  H        2.4067690000     0.8249240000    -3.4227100000
| 25>  H        0.1702480000    -0.1682290000    -2.6156560000
| 26>  H        0.0729900000     1.1299180000    -1.4202310000
| 27>  H        0.0175870000     1.5144200000    -3.1303670000
| 28>  H        2.0479400000     2.5629190000    -0.9112820000
| 29>  H        4.4532110000     2.2201030000    -2.8233640000
| 30>  H        4.4593550000     3.2552390000    -1.3952110000
| 31>  H        3.4548270000     3.6731610000    -2.7887710000
| 32> *
| 33>
| 34>                          ****END OF INPUT****
 Total Charge           Charge          ....    0
 Multiplicity           Mult            ....    1
 Number of Electrons    NEL             ....   56
 Basis Dimension        Dim             ....  163

MULLIKEN ATOMIC CHARGES
-----------------------
   0 C :    0.083231
   1 N :   -0.173513
   2 C :   -0.016881
   3 C :   -0.119547
   4 C :    0.073493
   5 C :   -0.150614
   6 C :    0.081740
   7 H :    0.016279
   8 H :   -0.004124
   9 H :    0.011977
  10 H :    0.086250
  11 H :    0.002166
  12 H :    0.007583
  13 H :    0.026849
  14 H :   -0.000673
  15 H :    0.022511
  16 H :    0.010105
  17 H :    0.006656
  18 H :    0.018565
  19 H :    0.017946
Sum of atomic charges:   -0.0000000

LOEWDIN ATOMIC CHARGES
----------------------
   0 C :   -0.002476
   1 N :   -0.083759
   2 C :   -0.000524
   3 C :   -0.047460
   4 C :   -0.056367
   5 C :   -0.066705
   6 C :   -0.057212
   7 H :    0.020509
   8 H :   -0.002599
   9 H :    0.020764
  10 H :    0.050621
  11 H :    0.016497
  12 H :    0.024842
  13 H :    0.030162
  14 H :    0.019802
  15 H :    0.032942
  16 H :    0.020994
  17 H :    0.026004
  18 H :    0.027646
  19 H :    0.026320

  Mayer bond orders larger than 0.1
B(  0-C ,  1-N ) :   1.0624 B(  0-C ,  7-H ) :   0.9713 B(  0-C ,  8-H ) :   0.9468
B(  0-C ,  9-H ) :   0.9644 B(  1-N ,  2-C ) :   1.1552 B(  1-N , 10-H ) :   0.9344
B(  2-C ,  3-C ) :   0.9538 B(  2-C ,  5-C ) :   0.9122 B(  2-C , 11-H ) :   0.9304
B(  3-C ,  4-C ) :   1.1091 B(  3-C ,  5-C ) :   0.9397 B(  3-C , 12-H ) :   0.9259
B(  4-C , 13-H ) :   0.9599 B(  4-C , 14-H ) :   0.9432 B(  4-C , 15-H ) :   0.9532
B(  5-C ,  6-C ) :   1.0936 B(  5-C , 16-H ) :   0.9339 B(  6-C , 17-H ) :   0.9499
B(  6-C , 18-H ) :   0.9587 B(  6-C , 19-H ) :   0.9554

FINAL SINGLE POINT ENERGY      -290.565545407707

DIPOLE MOMENT
-------------
                                X             Y             Z
Electronic contribution:     -0.17081      -1.94165      -0.32284
Nuclear contribution   :     -0.02658       2.23663       0.35469
                        -----------------------------------------
Total Dipole Moment    :     -0.19739       0.29498       0.03185
                        -----------------------------------------
Magnitude (a.u.)       :      0.35636
Magnitude (Debye)      :      0.90579

                             ****ORCA TERMINATED NORMALLY****
TOTAL RUN TIME: 0 days 0 hours 0 minutes 8 seconds 471 msec
