                         Program Version 3.0.3 - RELEASE   -
|  1> ! RI PBE def2-SVP def2-SVP/J NBO PAL2
|  2> % maxcore 2000
|  3> % output
|  4>     # printlevel mini
|  5>     print[ P_Basis ] 0
|  6>     print[ P_SCFInfo ] 1
|  7>     print[ P_SCFIterInfo ] 1
|  8>     print[ P_OrbEn ] 0
|  9>     print[ P_Cartesian ] 0
| 10> end
| 11> *xyz 0 1
| 12>  C        2.5310670000    -1.4084090000     0.0325360000
| 13>  N        2.3598850000     0.0274000000     0.0064930000
| 14>  C        2.8731770000     0.6726680000    -1.1671970000
| 15>  C        2.8314020000     2.2055520000    -1.2086570000
| 16>  C        4.1273120000     2.1789100000    -2.0381010000
| 17>  C        4.3975290000     0.7643250000    -1.5054070000
| 18>  N        5.0835070000    -0.1471930000    -2.3843100000
| 19>  H        2.0899260000    -1.8164690000     0.9444630000
| 20>  H        3.5776590000    -1.7495760000    -0.0174060000
| 21>  H        2.0003720000    -1.8510830000    -0.8154280000
| 22>  H        2.7634910000     0.4479040000     0.8347010000
| 23>  H        2.3546570000     0.2588790000    -2.0433960000
| 24>  H        3.0060240000     2.6216660000    -0.2120580000
| 25>  H        1.9476160000     2.6808590000    -1.6336660000
| 26>  H        4.8807660000     2.9459060000    -1.8590390000
| 27>  H        3.9108140000     2.1462630000    -3.1097490000
| 28>  H        4.9579750000     0.8258290000    -0.5642030000
| 29>  H        4.5612350000    -0.2792220000    -3.2424630000
| 30>  H        5.2033980000    -1.0572900000    -1.9583340000
| 31> *
| 32>
| 33>                          ****END OF INPUT****
 Total Charge           Charge          ....    0
 Multiplicity           Mult            ....    1
 Number of Electrons    NEL             ....   56
 Basis Dimension        Dim             ....  158

MULLIKEN ATOMIC CHARGES
-----------------------
   0 C :    0.071766
   1 N :   -0.188687
   2 C :   -0.049281
   3 C :    0.056852
   4 C :    0.032395
   5 C :   -0.069039
   6 N :   -0.124293
   7 H :    0.020575
   8 H :   -0.009628
   9 H :    0.015270
  10 H :    0.090852
  11 H :   -0.025867
  12 H :    0.000875
  13 H :    0.011159
  14 H :    0.015121
  15 H :    0.005982
  16 H :   -0.019664
  17 H :    0.081137
  18 H :    0.084477
Sum of atomic charges:    0.0000000

LOEWDIN ATOMIC CHARGES
----------------------
   0 C :   -0.005514
   1 N :   -0.092833
   2 C :   -0.017160
   3 C :   -0.033524
   4 C :   -0.037235
   5 C :   -0.020038
   6 N :   -0.091158
   7 H :    0.022486
   8 H :   -0.006515
   9 H :    0.021382
  10 H :    0.050849
  11 H :    0.012635
  12 H :    0.021956
  13 H :    0.018549
  14 H :    0.018836
  15 H :    0.023452
  16 H :    0.016418
  17 H :    0.047893
  18 H :    0.049520

  Mayer bond orders larger than 0.1
B(  0-C ,  1-N ) :   1.0664 B(  0-C ,  7-H ) :   0.9719 B(  0-C ,  8-H ) :   0.9461
B(  0-C ,  9-H ) :   0.9653 B(  1-N ,  2-C ) :   1.1187 B(  1-N , 10-H ) :   0.9319
B(  2-C ,  3-C ) :   1.0789 B(  2-C ,  5-C ) :   0.9681 B(  2-C , 11-H ) :   0.8728
B(  3-C ,  4-C ) :   1.1114 B(  3-C , 12-H ) :   0.9161 B(  3-C , 13-H ) :   0.9242
B(  4-C ,  5-C ) :   1.0861 B(  4-C , 14-H ) :   0.9233 B(  4-C , 15-H ) :   0.9175
B(  5-C ,  6-N ) :   1.1576 B(  5-C , 16-H ) :   0.8749 B(  6-N , 17-H ) :   0.9558
B(  6-N , 18-H ) :   0.9686

FINAL SINGLE POINT ENERGY      -306.587558753945

DIPOLE MOMENT
-------------
                                X             Y             Z
Electronic contribution:      0.26878       1.15548      -0.26103
Nuclear contribution   :     -0.31231      -1.50817       0.40889
                        -----------------------------------------
Total Dipole Moment    :     -0.04353      -0.35269       0.14786
                        -----------------------------------------
Magnitude (a.u.)       :      0.38490
Magnitude (Debye)      :      0.97834

                             ****ORCA TERMINATED NORMALLY****
TOTAL RUN TIME: 0 days 0 hours 0 minutes 7 seconds 866 msec
