                         Program Version 3.0.3 - RELEASE   -
|  1> ! RI PBE def2-SVP def2-SVP/J NBO PAL2
|  2> % maxcore 2000
|  3> % output
|  4>     # printlevel mini
|  5>     print[ P_Basis ] 0
|  6>     print[ P_SCFInfo ] 1
|  7>     print[ P_SCFIterInfo ] 1
|  8>     print[ P_OrbEn ] 0
|  9>     print[ P_Cartesian ] 0
| 10> end
| 11> *xyz 0 1
| 12>  C        2.0468660000    -0.1019520000     0.9331720000
| 13>  N        3.2773240000     0.5368780000     0.5142450000
| 14>  C        3.1511180000     1.4633420000    -0.5744580000
| 15>  C        2.5270710000     0.9849190000    -1.8613260000
| 16>  C        4.2774060000     2.4597040000    -0.6662810000
| 17>  C        2.9471260000     2.9075400000    -0.1571000000
| 18>  N        2.8306820000     3.3211560000     1.2089550000
| 19>  H        2.2448510000    -0.7335530000     1.8019420000
| 20>  H        1.5644020000    -0.7244120000     0.1653570000
| 21>  H        1.3286710000     0.6635740000     1.2377340000
| 22>  H        3.9880530000    -0.1542840000     0.3089290000
| 23>  H        1.5063340000     0.6230220000    -1.7101980000
| 24>  H        3.1113190000     0.1716130000    -2.3062190000
| 25>  H        2.4806720000     1.7954170000    -2.5922740000
| 26>  H        4.6055960000     2.7833670000    -1.6468460000
| 27>  H        5.0651140000     2.3655450000     0.0727670000
| 28>  H        2.3537640000     3.5140170000    -0.8342640000
| 29>  H        3.2990580000     2.6360840000     1.7934310000
| 30>  H        1.8565930000     3.3255330000     1.4896300000
| 31> *
| 32>
| 33>                          ****END OF INPUT****
 Total Charge           Charge          ....    0
 Multiplicity           Mult            ....    1
 Number of Electrons    NEL             ....   56
 Basis Dimension        Dim             ....  158

MULLIKEN ATOMIC CHARGES
-----------------------
   0 C :    0.077439
   1 N :   -0.200994
   2 C :   -0.232555
   3 C :    0.113895
   4 C :    0.029983
   5 C :   -0.054515
   6 N :   -0.105321
   7 H :    0.021989
   8 H :    0.005912
   9 H :    0.003186
  10 H :    0.103050
  11 H :    0.014992
  12 H :    0.006297
  13 H :    0.003970
  14 H :    0.017383
  15 H :    0.019927
  16 H :    0.010931
  17 H :    0.079212
  18 H :    0.085219
Sum of atomic charges:    0.0000000

LOEWDIN ATOMIC CHARGES
----------------------
   0 C :   -0.007364
   1 N :   -0.078057
   2 C :   -0.056136
   3 C :   -0.063970
   4 C :   -0.050555
   5 C :   -0.005806
   6 N :   -0.078459
   7 H :    0.022793
   8 H :    0.000735
   9 H :    0.016514
  10 H :    0.055823
  11 H :    0.024168
  12 H :    0.022520
  13 H :    0.028920
  14 H :    0.023432
  15 H :    0.026997
  16 H :    0.019313
  17 H :    0.046893
  18 H :    0.052239

  Mayer bond orders larger than 0.1
B(  0-C ,  1-N ) :   1.0554 B(  0-C ,  7-H ) :   0.9697 B(  0-C ,  8-H ) :   0.9468
B(  0-C ,  9-H ) :   0.9624 B(  1-N ,  2-C ) :   1.1257 B(  1-N , 10-H ) :   0.9416
B(  2-C ,  3-C ) :   1.0662 B(  2-C ,  4-C ) :   0.9588 B(  2-C ,  5-C ) :   0.8512
B(  3-C , 11-H ) :   0.9486 B(  3-C , 12-H ) :   0.9453 B(  3-C , 13-H ) :   0.9310
B(  4-C ,  5-C ) :   1.0033 B(  4-C , 14-H ) :   0.9365 B(  4-C , 15-H ) :   0.9293
B(  5-C ,  6-N ) :   1.1939 B(  5-C , 16-H ) :   0.9427 B(  6-N , 17-H ) :   0.9419
B(  6-N , 18-H ) :   0.9688

FINAL SINGLE POINT ENERGY      -306.585146315113

DIPOLE MOMENT
-------------
                                X             Y             Z
Electronic contribution:      1.95886       2.38083       1.26610
Nuclear contribution   :     -2.24224      -3.06621      -1.39392
                        -----------------------------------------
Total Dipole Moment    :     -0.28338      -0.68538      -0.12782
                        -----------------------------------------
Magnitude (a.u.)       :      0.75259
Magnitude (Debye)      :      1.91292

                             ****ORCA TERMINATED NORMALLY****
TOTAL RUN TIME: 0 days 0 hours 0 minutes 7 seconds 941 msec
