                         Program Version 3.0.3 - RELEASE   -
|  1> ! RI PBE def2-SVP def2-SVP/J NBO PAL2
|  2> % maxcore 2000
|  3> % output
|  4>     # printlevel mini
|  5>     print[ P_Basis ] 0
|  6>     print[ P_SCFInfo ] 1
|  7>     print[ P_SCFIterInfo ] 1
|  8>     print[ P_OrbEn ] 0
|  9>     print[ P_Cartesian ] 0
| 10> end
| 11> *xyz 0 1
| 12>  C        3.0115180000    -0.5546750000     1.1201120000
| 13>  N        2.3451350000    -0.0125260000    -0.0439480000
| 14>  C        3.0313230000     1.0845620000    -0.6436660000
| 15>  C        2.2833410000     2.2463670000    -1.2316200000
| 16>  C        0.7846030000     2.3590420000    -1.1813610000
| 17>  C        3.1274090000     2.4602020000    -0.0125320000
| 18>  N        4.2892670000     3.2977660000    -0.0760510000
| 19>  H        2.4144390000    -1.3655690000     1.5423910000
| 20>  H        3.2045670000     0.1863320000     1.9121690000
| 21>  H        3.9758360000    -0.9777040000     0.8239690000
| 22>  H        1.3868000000     0.2253700000     0.1660420000
| 23>  H        3.9176160000     0.7792770000    -1.1985590000
| 24>  H        2.7156570000     2.6260230000    -2.1544510000
| 25>  H        0.3101030000     1.7435640000    -1.9505430000
| 26>  H        0.3816150000     2.0546390000    -0.2123440000
| 27>  H        0.4732370000     3.3944660000    -1.3406240000
| 28>  H        2.5592870000     2.5740130000     0.9094100000
| 29>  H        4.5466740000     3.4994050000    -1.0324660000
| 30>  H        5.0859630000     2.8631460000     0.3727720000
| 31> *
| 32>
| 33>                          ****END OF INPUT****
 Total Charge           Charge          ....    0
 Multiplicity           Mult            ....    1
 Number of Electrons    NEL             ....   56
 Basis Dimension        Dim             ....  158

MULLIKEN ATOMIC CHARGES
-----------------------
   0 C :    0.076804
   1 N :   -0.170454
   2 C :   -0.012520
   3 C :   -0.132767
   4 C :    0.078921
   5 C :   -0.067689
   6 N :   -0.115110
   7 H :    0.020165
   8 H :   -0.002693
   9 H :    0.011497
  10 H :    0.086500
  11 H :   -0.008945
  12 H :    0.008673
  13 H :    0.029186
  14 H :    0.002443
  15 H :    0.022025
  16 H :    0.006891
  17 H :    0.075803
  18 H :    0.091270
Sum of atomic charges:    0.0000000

LOEWDIN ATOMIC CHARGES
----------------------
   0 C :   -0.003707
   1 N :   -0.083206
   2 C :   -0.022159
   3 C :   -0.049653
   4 C :   -0.054938
   5 C :   -0.028648
   6 N :   -0.087502
   7 H :    0.021275
   8 H :   -0.002074
   9 H :    0.020016
  10 H :    0.050696
  11 H :    0.011599
  12 H :    0.024803
  13 H :    0.030798
  14 H :    0.021170
  15 H :    0.033849
  16 H :    0.014390
  17 H :    0.049786
  18 H :    0.053504

  Mayer bond orders larger than 0.1
B(  0-C ,  1-N ) :   1.0632 B(  0-C ,  7-H ) :   0.9720 B(  0-C ,  8-H ) :   0.9465
B(  0-C ,  9-H ) :   0.9643 B(  1-N ,  2-C ) :   1.1509 B(  1-N , 10-H ) :   0.9350
B(  2-C ,  3-C ) :   0.9427 B(  2-C ,  5-C ) :   0.8750 B(  2-C , 11-H ) :   0.9229
B(  3-C ,  4-C ) :   1.1138 B(  3-C ,  5-C ) :   0.9384 B(  3-C , 12-H ) :   0.9193
B(  4-C , 13-H ) :   0.9599 B(  4-C , 14-H ) :   0.9426 B(  4-C , 15-H ) :   0.9523
B(  5-C ,  6-N ) :   1.1572 B(  5-C , 16-H ) :   0.9314 B(  6-N , 17-H ) :   0.9620
B(  6-N , 18-H ) :   0.9691

FINAL SINGLE POINT ENERGY      -306.577956519822

DIPOLE MOMENT
-------------
                                X             Y             Z
Electronic contribution:      1.43459       0.82826      -1.07858
Nuclear contribution   :     -1.41131      -0.90444       1.03888
                        -----------------------------------------
Total Dipole Moment    :      0.02327      -0.07618      -0.03970
                        -----------------------------------------
Magnitude (a.u.)       :      0.08900
Magnitude (Debye)      :      0.22623

                             ****ORCA TERMINATED NORMALLY****
TOTAL RUN TIME: 0 days 0 hours 0 minutes 7 seconds 766 msec
