                         Program Version 3.0.3 - RELEASE   -
|  1> ! RI PBE def2-SVP def2-SVP/J NBO PAL2
|  2> % maxcore 2000
|  3> % output
|  4>     # printlevel mini
|  5>     print[ P_Basis ] 0
|  6>     print[ P_SCFInfo ] 1
|  7>     print[ P_SCFIterInfo ] 1
|  8>     print[ P_OrbEn ] 0
|  9>     print[ P_Cartesian ] 0
| 10> end
| 11> *xyz 0 1
| 12>  C        3.2573590000     0.3466930000    -0.9199760000
| 13>  N        2.4271130000    -0.0103320000     0.2089110000
| 14>  C        2.8139070000    -1.2255520000     0.8866130000
| 15>  C        1.9377450000    -1.5059830000     2.1078380000
| 16>  C        2.1105510000    -3.0031050000     2.4173130000
| 17>  C        2.8757550000    -3.5954010000     1.2144360000
| 18>  C        2.7478180000    -2.5497420000     0.1136880000
| 19>  H        2.9005980000     1.2826070000    -1.3554370000
| 20>  H        3.2990800000    -0.4072590000    -1.7217490000
| 21>  H        4.2816250000     0.5167900000    -0.5751690000
| 22>  H        1.4561990000    -0.0748070000    -0.0744060000
| 23>  H        3.8522450000    -1.0861510000     1.2201810000
| 24>  H        0.8974190000    -1.2874290000     1.8414310000
| 25>  H        2.1886030000    -0.8553020000     2.9467720000
| 26>  H        1.1400200000    -3.4881540000     2.5416140000
| 27>  H        2.6575540000    -3.1637550000     3.3484980000
| 28>  H        2.5011460000    -4.5771960000     0.9181180000
| 29>  H        3.9315580000    -3.7261440000     1.4704380000
| 30>  H        1.7682240000    -2.6230790000    -0.3765050000
| 31>  H        3.5129700000    -2.6470110000    -0.6594180000
| 32> *
| 33>
| 34>                          ****END OF INPUT****
 Total Charge           Charge          ....    0
 Multiplicity           Mult            ....    1
 Number of Electrons    NEL             ....   56
 Basis Dimension        Dim             ....  163

MULLIKEN ATOMIC CHARGES
-----------------------
   0 C :    0.077298
   1 N :   -0.215631
   2 C :   -0.089412
   3 C :    0.059781
   4 C :   -0.006503
   5 C :    0.020090
   6 C :    0.016123
   7 H :    0.014378
   8 H :    0.002851
   9 H :    0.011709
  10 H :    0.092267
  11 H :   -0.003372
  12 H :   -0.009886
  13 H :    0.010239
  14 H :    0.005995
  15 H :    0.002090
  16 H :    0.001107
  17 H :    0.004222
  18 H :   -0.008603
  19 H :    0.015257
Sum of atomic charges:    0.0000000

LOEWDIN ATOMIC CHARGES
----------------------
   0 C :   -0.006859
   1 N :   -0.093297
   2 C :   -0.003126
   3 C :   -0.040044
   4 C :   -0.043481
   5 C :   -0.040524
   6 C :   -0.058176
   7 H :    0.021154
   8 H :   -0.002249
   9 H :    0.021292
  10 H :    0.049492
  11 H :    0.018529
  12 H :    0.019954
  13 H :    0.026235
  14 H :    0.024364
  15 H :    0.023429
  16 H :    0.022104
  17 H :    0.023620
  18 H :    0.016744
  19 H :    0.020839

  Mayer bond orders larger than 0.1
B(  0-C ,  1-N ) :   1.0656 B(  0-C ,  7-H ) :   0.9709 B(  0-C ,  8-H ) :   0.9463
B(  0-C ,  9-H ) :   0.9647 B(  1-N ,  2-C ) :   1.0887 B(  1-N , 10-H ) :   0.9356
B(  2-C ,  3-C ) :   1.0826 B(  2-C ,  6-C ) :   1.0180 B(  2-C , 11-H ) :   0.9019
B(  3-C ,  4-C ) :   1.1240 B(  3-C , 12-H ) :   0.9186 B(  3-C , 13-H ) :   0.9254
B(  4-C ,  5-C ) :   1.1237 B(  4-C , 14-H ) :   0.9298 B(  4-C , 15-H ) :   0.9282
B(  5-C ,  6-C ) :   1.1120 B(  5-C , 16-H ) :   0.9309 B(  5-C , 17-H ) :   0.9238
B(  6-C , 18-H ) :   0.9196 B(  6-C , 19-H ) :   0.9298

FINAL SINGLE POINT ENERGY      -290.593469314525

DIPOLE MOMENT
-------------
                                X             Y             Z
Electronic contribution:     -0.64707       0.75364       0.98862
Nuclear contribution   :      0.56358      -0.96258      -1.20469
                        -----------------------------------------
Total Dipole Moment    :     -0.08350      -0.20894      -0.21606
                        -----------------------------------------
Magnitude (a.u.)       :      0.31195
Magnitude (Debye)      :      0.79291

                             ****ORCA TERMINATED NORMALLY****
TOTAL RUN TIME: 0 days 0 hours 0 minutes 8 seconds 586 msec
