                         Program Version 3.0.3 - RELEASE   -
|  1> ! RI PBE def2-SVP def2-SVP/J NBO PAL2
|  2> % maxcore 2000
|  3> % output
|  4>     # printlevel mini
|  5>     print[ P_Basis ] 0
|  6>     print[ P_SCFInfo ] 1
|  7>     print[ P_SCFIterInfo ] 1
|  8>     print[ P_OrbEn ] 0
|  9>     print[ P_Cartesian ] 0
| 10> end
| 11> *xyz 0 1
| 12>  C        2.7759430000    -0.5718050000     0.9069750000
| 13>  N        2.3186340000     0.6379590000     0.2567770000
| 14>  C        2.8812530000     0.9060440000    -1.0578510000
| 15>  C        2.4321060000    -0.1456880000    -2.0485570000
| 16>  C        2.6021920000     2.3780080000    -1.4425170000
| 17>  C        4.0428580000     2.7492050000    -1.0424310000
| 18>  C        4.4052390000     1.2526080000    -1.0634440000
| 19>  H        2.4103650000    -0.5832040000     1.9354660000
| 20>  H        3.8712570000    -0.6894050000     0.9361990000
| 21>  H        2.3611960000    -1.4509190000     0.4090240000
| 22>  H        2.4893330000     1.4324400000     0.8604350000
| 23>  H        2.8389650000    -1.1310730000    -1.8063830000
| 24>  H        1.3414800000    -0.2181790000    -2.0561580000
| 25>  H        2.7725020000     0.1096160000    -3.0541880000
| 26>  H        1.7795020000     2.8564420000    -0.9063240000
| 27>  H        2.4284160000     2.4880900000    -2.5146980000
| 28>  H        4.1027190000     3.1816260000    -0.0414410000
| 29>  H        4.5931950000     3.4014220000    -1.7215680000
| 30>  H        4.9991620000     0.8659560000    -0.2325010000
| 31>  H        4.8892730000     0.9575560000    -1.9973160000
| 32> *
| 33>
| 34>                          ****END OF INPUT****
 Total Charge           Charge          ....    0
 Multiplicity           Mult            ....    1
 Number of Electrons    NEL             ....   56
 Basis Dimension        Dim             ....  163

MULLIKEN ATOMIC CHARGES
-----------------------
   0 C :    0.077205
   1 N :   -0.177714
   2 C :   -0.389130
   3 C :    0.100791
   4 C :    0.131371
   5 C :   -0.037262
   6 C :    0.128881
   7 H :    0.016801
   8 H :   -0.003714
   9 H :    0.015136
  10 H :    0.088279
  11 H :    0.012359
  12 H :    0.023792
  13 H :    0.001782
  14 H :   -0.000798
  15 H :   -0.002390
  16 H :    0.009327
  17 H :    0.009805
  18 H :    0.004310
  19 H :   -0.008831
Sum of atomic charges:   -0.0000000

LOEWDIN ATOMIC CHARGES
----------------------
   0 C :   -0.006009
   1 N :   -0.086396
   2 C :   -0.016115
   3 C :   -0.060828
   4 C :   -0.028585
   5 C :   -0.039466
   6 C :   -0.043703
   7 H :    0.023999
   8 H :   -0.002563
   9 H :    0.018383
  10 H :    0.051099
  11 H :    0.023971
  12 H :    0.029386
  13 H :    0.023474
  14 H :    0.015179
  15 H :    0.024771
  16 H :    0.018784
  17 H :    0.019113
  18 H :    0.014737
  19 H :    0.020769

  Mayer bond orders larger than 0.1
B(  0-C ,  1-N ) :   1.0632 B(  0-C ,  7-H ) :   0.9699 B(  0-C ,  8-H ) :   0.9400
B(  0-C ,  9-H ) :   0.9637 B(  1-N ,  2-C ) :   1.0602 B(  1-N , 10-H ) :   0.9371
B(  2-C ,  3-C ) :   1.0629 B(  2-C ,  4-C ) :   1.0497 B(  2-C ,  6-C ) :   1.0223
B(  3-C , 11-H ) :   0.9501 B(  3-C , 12-H ) :   0.9535 B(  3-C , 13-H ) :   0.9411
B(  4-C ,  5-C ) :   1.1420 B(  4-C , 14-H ) :   0.9169 B(  4-C , 15-H ) :   0.9086
B(  5-C ,  6-C ) :   1.1353 B(  5-C , 16-H ) :   0.9299 B(  5-C , 17-H ) :   0.9236
B(  6-C , 18-H ) :   0.9192 B(  6-C , 19-H ) :   0.9040

FINAL SINGLE POINT ENERGY      -290.567506549781

DIPOLE MOMENT
-------------
                                X             Y             Z
Electronic contribution:     -0.74529       1.73592       0.35758
Nuclear contribution   :      1.01492      -1.66690      -0.24327
                        -----------------------------------------
Total Dipole Moment    :      0.26963       0.06903       0.11430
                        -----------------------------------------
Magnitude (a.u.)       :      0.30088
Magnitude (Debye)      :      0.76478

                             ****ORCA TERMINATED NORMALLY****
TOTAL RUN TIME: 0 days 0 hours 0 minutes 9 seconds 32 msec
