                         Program Version 3.0.3 - RELEASE   -
|  1> ! RI PBE def2-SVP def2-SVP/J NBO PAL2
|  2> % maxcore 2000
|  3> % output
|  4>     # printlevel mini
|  5>     print[ P_Basis ] 0
|  6>     print[ P_SCFInfo ] 1
|  7>     print[ P_SCFIterInfo ] 1
|  8>     print[ P_OrbEn ] 0
|  9>     print[ P_Cartesian ] 0
| 10> end
| 11> *xyz 0 1
| 12>  C        2.2057920000     0.4537820000     1.4974450000
| 13>  N        2.2817690000    -0.1084360000     0.1669670000
| 14>  C        3.1775550000    -1.2434860000     0.0635650000
| 15>  C        3.4801240000    -1.6640910000    -1.3439070000
| 16>  C        3.2775680000    -2.9810120000    -1.4691450000
| 17>  C        2.7795570000    -3.5135940000    -0.2001040000
| 18>  C        2.6792490000    -2.5173840000     0.6883840000
| 19>  H        1.5984900000     1.3603870000     1.4750340000
| 20>  H        3.1882410000     0.7038390000     1.9332470000
| 21>  H        1.7134010000    -0.2494510000     2.1733720000
| 22>  H        2.5752760000     0.6027350000    -0.4896210000
| 23>  H        4.1602720000    -1.0340340000     0.5481580000
| 24>  H        3.8434510000    -0.9857820000    -2.1050280000
| 25>  H        3.4537440000    -3.5727330000    -2.3584110000
| 26>  H        2.5359030000    -4.5537450000    -0.0242290000
| 27>  H        2.3429080000    -2.5962150000     1.7126820000
| 28> *
| 29>
| 30>                          ****END OF INPUT****
 Total Charge           Charge          ....    0
 Multiplicity           Mult            ....    1
 Number of Electrons    NEL             ....   52
 Basis Dimension        Dim             ....  143

MULLIKEN ATOMIC CHARGES
-----------------------
   0 C :    0.068533
   1 N :   -0.231184
   2 C :    0.079080
   3 C :   -0.030072
   4 C :    0.003000
   5 C :    0.010019
   6 C :   -0.015305
   7 H :    0.023971
   8 H :   -0.009311
   9 H :    0.023811
  10 H :    0.103415
  11 H :    0.021448
  12 H :   -0.010512
  13 H :   -0.013796
  14 H :   -0.015565
  15 H :   -0.007531
Sum of atomic charges:   -0.0000000

LOEWDIN ATOMIC CHARGES
----------------------
   0 C :   -0.007485
   1 N :   -0.087870
   2 C :    0.006318
   3 C :   -0.036353
   4 C :   -0.029830
   5 C :   -0.033006
   6 C :   -0.028715
   7 H :    0.024938
   8 H :   -0.002540
   9 H :    0.021295
  10 H :    0.056029
  11 H :    0.031434
  12 H :    0.020086
  13 H :    0.022828
  14 H :    0.022300
  15 H :    0.020570

  Mayer bond orders larger than 0.1
B(  0-C ,  1-N ) :   1.0658 B(  0-C ,  7-H ) :   0.9701 B(  0-C ,  8-H ) :   0.9392
B(  0-C ,  9-H ) :   0.9679 B(  1-N ,  2-C ) :   1.0132 B(  1-N , 10-H ) :   0.9413
B(  2-C ,  3-C ) :   1.0081 B(  2-C ,  6-C ) :   1.0233 B(  2-C , 11-H ) :   0.8238
B(  3-C ,  4-C ) :   1.7515 B(  3-C , 12-H ) :   0.9832 B(  4-C ,  5-C ) :   1.0818
B(  4-C , 13-H ) :   0.9962 B(  5-C ,  6-C ) :   1.7536 B(  5-C , 14-H ) :   0.9963
B(  6-C , 15-H ) :   0.9827

FINAL SINGLE POINT ENERGY      -288.155372293517

DIPOLE MOMENT
-------------
                                X             Y             Z
Electronic contribution:      0.32022      -3.28848      -2.95743
Nuclear contribution   :     -0.03172       3.60129       3.03946
                        -----------------------------------------
Total Dipole Moment    :      0.28850       0.31280       0.08203
                        -----------------------------------------
Magnitude (a.u.)       :      0.43337
Magnitude (Debye)      :      1.10153

                             ****ORCA TERMINATED NORMALLY****
TOTAL RUN TIME: 0 days 0 hours 0 minutes 7 seconds 174 msec
