                         Program Version 3.0.3 - RELEASE   -
|  1> ! RI PBE def2-SVP def2-SVP/J NBO PAL2
|  2> % maxcore 2000
|  3> % output
|  4>     # printlevel mini
|  5>     print[ P_Basis ] 0
|  6>     print[ P_SCFInfo ] 1
|  7>     print[ P_SCFIterInfo ] 1
|  8>     print[ P_OrbEn ] 0
|  9>     print[ P_Cartesian ] 0
| 10> end
| 11> *xyz 0 1
| 12>  C        1.5950310000     0.9071460000    -0.9504480000
| 13>  N        2.2511430000    -0.0316790000    -0.0697540000
| 14>  C        2.9310770000    -1.1256760000    -0.7406350000
| 15>  C        3.7068490000    -1.9594080000     0.2968050000
| 16>  C        2.8246840000    -3.1495640000     0.5281250000
| 17>  C        1.8831870000    -3.2521870000    -0.4038640000
| 18>  C        1.9840770000    -2.1507200000    -1.4169210000
| 19>  H        1.0982030000     1.6768790000    -0.3562590000
| 20>  H        0.8443660000     0.4695750000    -1.6284060000
| 21>  H        2.3457880000     1.4051830000    -1.5712580000
| 22>  H        1.5925840000    -0.4059640000     0.6040080000
| 23>  H        3.6054320000    -0.6722320000    -1.4726910000
| 24>  H        3.8968370000    -1.3671760000     1.1961050000
| 25>  H        4.6850050000    -2.2735710000    -0.0874720000
| 26>  H        2.9725760000    -3.8486230000     1.3433130000
| 27>  H        1.1450920000    -4.0444700000    -0.4577970000
| 28>  H        1.0170490000    -1.7059410000    -1.6714080000
| 29>  H        2.4033100000    -2.5307620000    -2.3573440000
| 30> *
| 31>
| 32>                          ****END OF INPUT****
 Total Charge           Charge          ....    0
 Multiplicity           Mult            ....    1
 Number of Electrons    NEL             ....   54
 Basis Dimension        Dim             ....  153

MULLIKEN ATOMIC CHARGES
-----------------------
   0 C :    0.069794
   1 N :   -0.222849
   2 C :   -0.090271
   3 C :    0.127699
   4 C :   -0.077973
   5 C :   -0.081153
   6 C :    0.109818
   7 H :    0.021612
   8 H :   -0.004495
   9 H :    0.015505
  10 H :    0.096687
  11 H :   -0.006080
  12 H :    0.013361
  13 H :    0.020556
  14 H :   -0.009313
  15 H :   -0.008259
  16 H :    0.007450
  17 H :    0.017911
Sum of atomic charges:    0.0000000

LOEWDIN ATOMIC CHARGES
----------------------
   0 C :   -0.008524
   1 N :   -0.092232
   2 C :    0.016767
   3 C :   -0.040253
   4 C :   -0.044242
   5 C :   -0.046076
   6 C :   -0.054482
   7 H :    0.023668
   8 H :   -0.005707
   9 H :    0.021052
  10 H :    0.053684
  11 H :    0.017578
  12 H :    0.027127
  13 H :    0.034180
  14 H :    0.020935
  15 H :    0.019947
  16 H :    0.024722
  17 H :    0.031858

  Mayer bond orders larger than 0.1
B(  0-C ,  1-N ) :   1.0689 B(  0-C ,  7-H ) :   0.9716 B(  0-C ,  8-H ) :   0.9389
B(  0-C ,  9-H ) :   0.9653 B(  1-N ,  2-C ) :   1.0741 B(  1-N , 10-H ) :   0.9438
B(  2-C ,  3-C ) :   1.0557 B(  2-C ,  6-C ) :   1.0300 B(  2-C , 11-H ) :   0.9126
B(  3-C ,  4-C ) :   1.0245 B(  3-C , 12-H ) :   0.9201 B(  3-C , 13-H ) :   0.9082
B(  4-C ,  5-C ) :   1.8629 B(  4-C , 14-H ) :   0.9853 B(  5-C ,  6-C ) :   1.0112
B(  5-C , 15-H ) :   0.9834 B(  6-C , 16-H ) :   0.9216 B(  6-C , 17-H ) :   0.9034

FINAL SINGLE POINT ENERGY      -289.376204917970

DIPOLE MOMENT
-------------
                                X             Y             Z
Electronic contribution:      0.90079      -2.79293       1.70211
Nuclear contribution   :     -1.10890       2.69295      -1.83483
                        -----------------------------------------
Total Dipole Moment    :     -0.20811      -0.09998      -0.13271
                        -----------------------------------------
Magnitude (a.u.)       :      0.26631
Magnitude (Debye)      :      0.67689

                             ****ORCA TERMINATED NORMALLY****
TOTAL RUN TIME: 0 days 0 hours 0 minutes 7 seconds 773 msec
