                         Program Version 3.0.3 - RELEASE   -
|  1> ! RI PBE def2-SVP def2-SVP/J NBO PAL2
|  2> % maxcore 2000
|  3> % output
|  4>     # printlevel mini
|  5>     print[ P_Basis ] 0
|  6>     print[ P_SCFInfo ] 1
|  7>     print[ P_SCFIterInfo ] 1
|  8>     print[ P_OrbEn ] 0
|  9>     print[ P_Cartesian ] 0
| 10> end
| 11> *xyz 0 1
| 12>  C        1.1937310000    -0.0516060000     0.2458750000
| 13>  N        2.6231430000    -0.1214830000     0.0319550000
| 14>  C        2.9974220000    -0.8207410000    -1.1636870000
| 15>  C        4.4969290000    -1.0343320000    -1.4091100000
| 16>  C        4.1755850000    -2.4174610000    -2.0202150000
| 17>  C        4.1023280000    -2.4229780000    -3.5340280000
| 18>  C        2.7975900000    -2.3547490000    -1.3228420000
| 19>  H        0.9850660000     0.4638560000     1.1855450000
| 20>  H        0.6901920000    -1.0314720000     0.2730050000
| 21>  H        0.7354040000     0.5319560000    -0.5578800000
| 22>  H        3.0753650000    -0.5495000000     0.8313260000
| 23>  H        2.5390060000    -0.2986230000    -2.0101370000
| 24>  H        5.0311340000    -1.1292900000    -0.4591460000
| 25>  H        5.0219480000    -0.3067790000    -2.0316190000
| 26>  H        4.8248560000    -3.2296020000    -1.6843850000
| 27>  H        3.4613780000    -1.6185790000    -3.9068940000
| 28>  H        3.6957060000    -3.3680220000    -3.9045990000
| 29>  H        5.0932120000    -2.2879370000    -3.9764940000
| 30>  H        2.8139400000    -2.8494850000    -0.3470390000
| 31>  H        1.9329660000    -2.7141700000    -1.8860380000
| 32> *
| 33>
| 34>                          ****END OF INPUT****
 Total Charge           Charge          ....    0
 Multiplicity           Mult            ....    1
 Number of Electrons    NEL             ....   56
 Basis Dimension        Dim             ....  163

MULLIKEN ATOMIC CHARGES
-----------------------
   0 C :    0.066991
   1 N :   -0.190088
   2 C :   -0.151192
   3 C :    0.145217
   4 C :   -0.230571
   5 C :    0.068354
   6 C :    0.145516
   7 H :    0.019707
   8 H :   -0.002733
   9 H :    0.017074
  10 H :    0.089950
  11 H :    0.001498
  12 H :   -0.010419
  13 H :    0.007755
  14 H :    0.001338
  15 H :    0.007342
  16 H :    0.016182
  17 H :    0.017300
  18 H :   -0.021879
  19 H :    0.002658
Sum of atomic charges:   -0.0000000

LOEWDIN ATOMIC CHARGES
----------------------
   0 C :   -0.006261
   1 N :   -0.092247
   2 C :    0.004273
   3 C :   -0.030964
   4 C :   -0.038590
   5 C :   -0.057090
   6 C :   -0.050225
   7 H :    0.021934
   8 H :   -0.001710
   9 H :    0.021506
  10 H :    0.049509
  11 H :    0.018429
  12 H :    0.022491
  13 H :    0.016603
  14 H :    0.015979
  15 H :    0.022845
  16 H :    0.025869
  17 H :    0.026152
  18 H :    0.018965
  19 H :    0.012531

  Mayer bond orders larger than 0.1
B(  0-C ,  1-N ) :   1.0656 B(  0-C ,  7-H ) :   0.9730 B(  0-C ,  8-H ) :   0.9463
B(  0-C ,  9-H ) :   0.9660 B(  1-N ,  2-C ) :   1.1087 B(  1-N , 10-H ) :   0.9309
B(  2-C ,  3-C ) :   1.0715 B(  2-C ,  6-C ) :   1.0436 B(  2-C , 11-H ) :   0.9009
B(  3-C ,  4-C ) :   1.0734 B(  3-C , 12-H ) :   0.8940 B(  3-C , 13-H ) :   0.9275
B(  4-C ,  5-C ) :   1.0695 B(  4-C ,  6-C ) :   1.0964 B(  4-C , 14-H ) :   0.9135
B(  5-C , 15-H ) :   0.9593 B(  5-C , 16-H ) :   0.9572 B(  5-C , 17-H ) :   0.9576
B(  6-C , 18-H ) :   0.8807 B(  6-C , 19-H ) :   0.9313

FINAL SINGLE POINT ENERGY      -290.569549436998

DIPOLE MOMENT
-------------
                                X             Y             Z
Electronic contribution:      1.15399       1.02249       1.61991
Nuclear contribution   :     -1.22584      -1.31183      -1.49506
                        -----------------------------------------
Total Dipole Moment    :     -0.07185      -0.28933       0.12485
                        -----------------------------------------
Magnitude (a.u.)       :      0.32321
Magnitude (Debye)      :      0.82153

                             ****ORCA TERMINATED NORMALLY****
TOTAL RUN TIME: 0 days 0 hours 0 minutes 8 seconds 525 msec
