                         Program Version 3.0.3 - RELEASE   -
|  1> ! RI PBE def2-SVP def2-SVP/J NBO PAL2
|  2> % maxcore 2000
|  3> % output
|  4>     # printlevel mini
|  5>     print[ P_Basis ] 0
|  6>     print[ P_SCFInfo ] 1
|  7>     print[ P_SCFIterInfo ] 1
|  8>     print[ P_OrbEn ] 0
|  9>     print[ P_Cartesian ] 0
| 10> end
| 11> *xyz 0 1
| 12>  C        2.8527120000     1.2869160000     0.0181530000
| 13>  N        2.4492890000    -0.0980930000    -0.0920270000
| 14>  C        2.9826980000    -0.7758270000    -1.2706960000
| 15>  C        2.4879220000    -2.2294550000    -1.3327270000
| 16>  C        3.6160530000    -3.0884840000    -0.7427940000
| 17>  C        4.8132480000    -2.1974590000    -0.8763090000
| 18>  C        4.4779730000    -0.9485440000    -1.1746350000
| 19>  H        2.3192460000     1.7585940000     0.8456030000
| 20>  H        2.6680380000     1.8804910000    -0.8940580000
| 21>  H        3.9202540000     1.3485130000     0.2424810000
| 22>  H        1.4382950000    -0.1485800000    -0.1290610000
| 23>  H        2.7136520000    -0.2255600000    -2.1908670000
| 24>  H        2.3268080000    -2.5079740000    -2.3768410000
| 25>  H        1.5379730000    -2.3547970000    -0.8081190000
| 26>  H        3.7348230000    -4.0388370000    -1.2710060000
| 27>  H        3.4413480000    -3.3357910000     0.3108100000
| 28>  H        5.8278390000    -2.5441770000    -0.7127520000
| 29>  H        5.1775080000    -0.1304550000    -1.2986460000
| 30> *
| 31>
| 32>                          ****END OF INPUT****
 Total Charge           Charge          ....    0
 Multiplicity           Mult            ....    1
 Number of Electrons    NEL             ....   54
 Basis Dimension        Dim             ....  153

MULLIKEN ATOMIC CHARGES
-----------------------
   0 C :    0.069020
   1 N :   -0.241322
   2 C :   -0.007104
   3 C :    0.045431
   4 C :    0.071009
   5 C :   -0.083590
   6 C :    0.002440
   7 H :    0.019048
   8 H :   -0.010374
   9 H :    0.020811
  10 H :    0.098704
  11 H :   -0.016446
  12 H :    0.010224
  13 H :   -0.005538
  14 H :    0.016121
  15 H :    0.028347
  16 H :   -0.009809
  17 H :   -0.006971
Sum of atomic charges:   -0.0000000

LOEWDIN ATOMIC CHARGES
----------------------
   0 C :   -0.009337
   1 N :   -0.103141
   2 C :    0.004876
   3 C :   -0.030506
   4 C :   -0.038018
   5 C :   -0.022456
   6 C :   -0.040550
   7 H :    0.022810
   8 H :   -0.004056
   9 H :    0.020204
  10 H :    0.051013
  11 H :   -0.002908
  12 H :    0.027630
  13 H :    0.021686
  14 H :    0.027162
  15 H :    0.035414
  16 H :    0.020535
  17 H :    0.019641

  Mayer bond orders larger than 0.1
B(  0-C ,  1-N ) :   1.0675 B(  0-C ,  7-H ) :   0.9706 B(  0-C ,  8-H ) :   0.9397
B(  0-C ,  9-H ) :   0.9664 B(  1-N ,  2-C ) :   1.0114 B(  1-N , 10-H ) :   0.9417
B(  2-C ,  3-C ) :   1.0779 B(  2-C ,  6-C ) :   0.9993 B(  2-C , 11-H ) :   0.8958
B(  3-C ,  4-C ) :   1.0970 B(  3-C , 12-H ) :   0.9272 B(  3-C , 13-H ) :   0.9256
B(  4-C ,  5-C ) :   1.0397 B(  4-C , 14-H ) :   0.9327 B(  4-C , 15-H ) :   0.9098
B(  5-C ,  6-C ) :   1.8725 B(  5-C , 16-H ) :   0.9851 B(  6-C , 17-H ) :   0.9833

FINAL SINGLE POINT ENERGY      -289.373077252920

DIPOLE MOMENT
-------------
                                X             Y             Z
Electronic contribution:      1.33506      -1.69104      -0.26652
Nuclear contribution   :     -1.55689       1.73804       0.11922
                        -----------------------------------------
Total Dipole Moment    :     -0.22182       0.04699      -0.14730
                        -----------------------------------------
Magnitude (a.u.)       :      0.27039
Magnitude (Debye)      :      0.68728

                             ****ORCA TERMINATED NORMALLY****
TOTAL RUN TIME: 0 days 0 hours 0 minutes 7 seconds 723 msec
