                         Program Version 3.0.3 - RELEASE   -
|  1> ! RI PBE def2-SVP def2-SVP/J NBO PAL2
|  2> % maxcore 2000
|  3> % output
|  4>     # printlevel mini
|  5>     print[ P_Basis ] 0
|  6>     print[ P_SCFInfo ] 1
|  7>     print[ P_SCFIterInfo ] 1
|  8>     print[ P_OrbEn ] 0
|  9>     print[ P_Cartesian ] 0
| 10> end
| 11> *xyz 0 1
| 12>  C        1.1637770000     0.1430980000    -0.0651390000
| 13>  N        2.5697600000    -0.1334240000     0.0262310000
| 14>  C        3.1155580000    -0.9001860000    -0.8209670000
| 15>  C        2.5478190000    -1.5997810000    -2.0442080000
| 16>  C        3.6834450000    -2.5074470000    -2.5157390000
| 17>  C        4.9378580000    -1.8172230000    -1.9839720000
| 18>  N        4.4503880000    -1.2260300000    -0.7609000000
| 19>  H        1.0039100000     1.2247870000    -0.1258260000
| 20>  H        0.6577180000    -0.1926730000     0.8467070000
| 21>  H        0.6514810000    -0.3172030000    -0.9211170000
| 22>  H        2.3000200000    -0.8423910000    -2.7949790000
| 23>  H        1.6297900000    -2.1427060000    -1.8186800000
| 24>  H        3.7070610000    -2.6456230000    -3.5970080000
| 25>  H        3.5897940000    -3.4918750000    -2.0515570000
| 26>  H        5.3038010000    -1.0637070000    -2.6977350000
| 27>  H        5.7527030000    -2.5187040000    -1.7907450000
| 28>  H        5.0397870000    -0.6525330000    -0.1804570000
| 29> *
| 30>
| 31>                          ****END OF INPUT****
 Total Charge           Charge          ....    0
 Multiplicity           Mult            ....    1
 Number of Electrons    NEL             ....   54
 Basis Dimension        Dim             ....  148

MULLIKEN ATOMIC CHARGES
-----------------------
   0 C :    0.077960
   1 N :   -0.181635
   2 C :   -0.108585
   3 C :   -0.001310
   4 C :   -0.032132
   5 C :    0.118774
   6 N :   -0.157564
   7 H :    0.020014
   8 H :    0.019952
   9 H :   -0.014827
  10 H :    0.036954
  11 H :    0.041958
  12 H :    0.017196
  13 H :    0.027678
  14 H :    0.013456
  15 H :    0.017180
  16 H :    0.104932
Sum of atomic charges:   -0.0000000

LOEWDIN ATOMIC CHARGES
----------------------
   0 C :   -0.012080
   1 N :   -0.172162
   2 C :   -0.002277
   3 C :   -0.060363
   4 C :   -0.039139
   5 C :    0.025139
   6 N :   -0.013811
   7 H :    0.021461
   8 H :    0.021581
   9 H :   -0.002176
  10 H :    0.040110
  11 H :    0.036697
  12 H :    0.027703
  13 H :    0.031233
  14 H :    0.009223
  15 H :    0.020269
  16 H :    0.068591

  Mayer bond orders larger than 0.1
B(  0-C ,  1-N ) :   1.0595 B(  0-C ,  7-H ) :   0.9615 B(  0-C ,  8-H ) :   0.9614
B(  0-C ,  9-H ) :   0.9378 B(  1-N ,  2-C ) :   1.9029 B(  2-C ,  3-C ) :   0.9959
B(  2-C ,  6-N ) :   1.1827 B(  3-C ,  4-C ) :   1.1129 B(  3-C , 10-H ) :   0.9080
B(  3-C , 11-H ) :   0.9232 B(  4-C ,  5-C ) :   1.0920 B(  4-C , 12-H ) :   0.9327
B(  4-C , 13-H ) :   0.9329 B(  5-C ,  6-N ) :   1.0137 B(  5-C , 14-H ) :   0.9312
B(  5-C , 15-H ) :   0.9424 B(  6-N , 16-H ) :   0.9285

FINAL SINGLE POINT ENERGY      -305.427686097530

DIPOLE MOMENT
-------------
                                X             Y             Z
Electronic contribution:      2.49078       0.75567       2.44549
Nuclear contribution   :     -2.18365      -1.14660      -3.21514
                        -----------------------------------------
Total Dipole Moment    :      0.30713      -0.39093      -0.76965
                        -----------------------------------------
Magnitude (a.u.)       :      0.91625
Magnitude (Debye)      :      2.32891

                             ****ORCA TERMINATED NORMALLY****
TOTAL RUN TIME: 0 days 0 hours 0 minutes 7 seconds 622 msec
