                         Program Version 3.0.3 - RELEASE   -
|  1> ! RI PBE def2-SVP def2-SVP/J NBO PAL2
|  2> % maxcore 2000
|  3> % output
|  4>     # printlevel mini
|  5>     print[ P_Basis ] 0
|  6>     print[ P_SCFInfo ] 1
|  7>     print[ P_SCFIterInfo ] 1
|  8>     print[ P_OrbEn ] 0
|  9>     print[ P_Cartesian ] 0
| 10> end
| 11> *xyz 0 1
| 12>  C        0.9541700000     0.0841930000     0.0972590000
| 13>  N        2.3973870000     0.0491780000     0.0966570000
| 14>  C        2.9943530000    -0.5080270000    -0.8709480000
| 15>  C        4.4611170000    -0.6107180000    -0.9907900000
| 16>  C        4.6963260000    -1.2595460000    -2.1371350000
| 17>  C        3.3684760000    -1.5479700000    -2.7084990000
| 18>  N        2.3862710000    -1.1243900000    -1.9958730000
| 19>  H        0.6092030000     0.5974950000     0.9940560000
| 20>  H        0.5336230000    -0.9253890000     0.0760880000
| 21>  H        0.5700610000     0.6037670000    -0.7853780000
| 22>  H        5.1573490000    -0.2200890000    -0.2644760000
| 23>  H        5.6455560000    -1.5293550000    -2.5771400000
| 24>  H        3.1983980000    -2.0698580000    -3.6461100000
| 25> *
| 26>
| 27>                          ****END OF INPUT****
 Total Charge           Charge          ....    0
 Multiplicity           Mult            ....    1
 Number of Electrons    NEL             ....   50
 Basis Dimension        Dim             ....  128

MULLIKEN ATOMIC CHARGES
-----------------------
   0 C :    0.084767
   1 N :   -0.093456
   2 C :   -0.079276
   3 C :    0.068810
   4 C :   -0.014739
   5 C :    0.070785
   6 N :   -0.143808
   7 H :    0.030274
   8 H :    0.041254
   9 H :    0.043334
  10 H :   -0.009029
  11 H :   -0.004308
  12 H :    0.005392
Sum of atomic charges:   -0.0000000

LOEWDIN ATOMIC CHARGES
----------------------
   0 C :   -0.007958
   1 N :   -0.028789
   2 C :   -0.005445
   3 C :   -0.012472
   4 C :   -0.052123
   5 C :    0.045102
   6 N :   -0.118739
   7 H :    0.022096
   8 H :    0.038283
   9 H :    0.038575
  10 H :    0.034433
  11 H :    0.028036
  12 H :    0.019001

  Mayer bond orders larger than 0.1
B(  0-C ,  1-N ) :   1.0265 B(  0-C ,  7-H ) :   0.9740 B(  0-C ,  8-H ) :   0.9457
B(  0-C ,  9-H ) :   0.9461 B(  1-N ,  2-C ) :   1.9215 B(  1-N ,  5-C ) :   0.1153
B(  2-C ,  3-C ) :   0.9899 B(  2-C ,  6-N ) :   1.1192 B(  3-C ,  4-C ) :   1.6563
B(  3-C , 10-H ) :   1.0082 B(  4-C ,  5-C ) :   1.0126 B(  4-C , 11-H ) :   0.9923
B(  5-C ,  6-N ) :   1.7940 B(  5-C , 12-H ) :   0.9767

FINAL SINGLE POINT ENERGY      -302.992005678354

DIPOLE MOMENT
-------------
                                X             Y             Z
Electronic contribution:      2.36316      -0.71483      -1.17749
Nuclear contribution   :     -2.05340       0.55170       0.89672
                        -----------------------------------------
Total Dipole Moment    :      0.30977      -0.16314      -0.28077
                        -----------------------------------------
Magnitude (a.u.)       :      0.44877
Magnitude (Debye)      :      1.14070

                             ****ORCA TERMINATED NORMALLY****
TOTAL RUN TIME: 0 days 0 hours 0 minutes 6 seconds 272 msec
