                         Program Version 3.0.3 - RELEASE   -
|  1> ! RI PBE def2-SVP def2-SVP/J NBO PAL2
|  2> % maxcore 2000
|  3> % output
|  4>     # printlevel mini
|  5>     print[ P_Basis ] 0
|  6>     print[ P_SCFInfo ] 1
|  7>     print[ P_SCFIterInfo ] 1
|  8>     print[ P_OrbEn ] 0
|  9>     print[ P_Cartesian ] 0
| 10> end
| 11> *xyz 0 1
| 12>  C        1.0877750000     0.0610370000     0.0652640000
| 13>  N        2.5192170000    -0.0975690000     0.0667630000
| 14>  C        3.0231600000    -0.7366100000     1.0371000000
| 15>  C        2.3760940000    -1.3922850000     2.2459340000
| 16>  C        3.5399370000    -1.9701640000     2.9935400000
| 17>  C        4.6543720000    -1.6852080000     2.3157170000
| 18>  N        4.3770890000    -0.9637480000     1.1670350000
| 19>  H        0.7836650000     0.6257300000    -0.8169630000
| 20>  H        0.7244080000     0.6053780000     0.9489850000
| 21>  H        0.5583780000    -0.9025230000     0.0410130000
| 22>  H        1.6457760000    -2.1439890000     1.9218650000
| 23>  H        1.8106060000    -0.6487480000     2.8211140000
| 24>  H        3.4825770000    -2.5204140000     3.9189890000
| 25>  H        5.6767860000    -1.9412100000     2.5541960000
| 26>  H        5.0451410000    -0.6334680000     0.4951380000
| 27> *
| 28>
| 29>                          ****END OF INPUT****
 Total Charge           Charge          ....    0
 Multiplicity           Mult            ....    1
 Number of Electrons    NEL             ....   52
 Basis Dimension        Dim             ....  138

MULLIKEN ATOMIC CHARGES
-----------------------
   0 C :    0.078190
   1 N :   -0.170005
   2 C :   -0.116749
   3 C :    0.083978
   4 C :   -0.142826
   5 C :    0.110662
   6 N :   -0.078848
   7 H :    0.024625
   8 H :    0.005919
   9 H :    0.004189
  10 H :    0.051937
  11 H :    0.050731
  12 H :   -0.007990
  13 H :   -0.003582
  14 H :    0.109770
Sum of atomic charges:   -0.0000000

LOEWDIN ATOMIC CHARGES
----------------------
   0 C :   -0.013393
   1 N :   -0.163183
   2 C :    0.010277
   3 C :   -0.051668
   4 C :   -0.105332
   5 C :    0.012122
   6 N :    0.041652
   7 H :    0.020644
   8 H :    0.012857
   9 H :    0.012720
  10 H :    0.049045
  11 H :    0.048564
  12 H :    0.023098
  13 H :    0.023931
  14 H :    0.078665

  Mayer bond orders larger than 0.1
B(  0-C ,  1-N ) :   1.0527 B(  0-C ,  7-H ) :   0.9754 B(  0-C ,  8-H ) :   0.9461
B(  0-C ,  9-H ) :   0.9457 B(  1-N ,  2-C ) :   1.9075 B(  2-C ,  3-C ) :   0.9962
B(  2-C ,  6-N ) :   1.1505 B(  3-C ,  4-C ) :   1.0532 B(  3-C , 10-H ) :   0.8962
B(  3-C , 11-H ) :   0.8963 B(  4-C ,  5-C ) :   1.7231 B(  4-C , 12-H ) :   0.9889
B(  5-C ,  6-N ) :   1.1078 B(  5-C , 13-H ) :   0.9850 B(  6-N , 14-H ) :   0.9307

FINAL SINGLE POINT ENERGY      -304.215752020309

DIPOLE MOMENT
-------------
                                X             Y             Z
Electronic contribution:      4.62476      -0.33605      -0.28209
Nuclear contribution   :     -4.34919       0.03511       0.73810
                        -----------------------------------------
Total Dipole Moment    :      0.27557      -0.30094       0.45602
                        -----------------------------------------
Magnitude (a.u.)       :      0.61192
Magnitude (Debye)      :      1.55539

                             ****ORCA TERMINATED NORMALLY****
TOTAL RUN TIME: 0 days 0 hours 0 minutes 7 seconds 76 msec
