                         Program Version 3.0.3 - RELEASE   -
|  1> ! RI PBE def2-SVP def2-SVP/J NBO PAL2
|  2> % maxcore 2000
|  3> % output
|  4>     # printlevel mini
|  5>     print[ P_Basis ] 0
|  6>     print[ P_SCFInfo ] 1
|  7>     print[ P_SCFIterInfo ] 1
|  8>     print[ P_OrbEn ] 0
|  9>     print[ P_Cartesian ] 0
| 10> end
| 11> *xyz 0 1
| 12>  C        3.2076250000    -1.1758070000     0.1127920000
| 13>  N        2.5928010000     0.1132890000     0.1311210000
| 14>  C        3.0789280000     1.1911550000    -0.5638920000
| 15>  C        2.6186300000     2.4874310000    -0.6567780000
| 16>  C        3.5118820000     3.1818440000    -1.5170840000
| 17>  C        4.4780920000     2.3075770000    -1.9207680000
| 18>  N        4.2018180000     1.0906550000    -1.3298080000
| 19>  H        2.6332620000    -1.8552820000     0.7416040000
| 20>  H        4.2341290000    -1.1577110000     0.5065720000
| 21>  H        3.2375500000    -1.6130580000    -0.8956790000
| 22>  H        1.7650480000     0.2559720000     0.6734600000
| 23>  H        1.7447630000     2.8836190000    -0.1637700000
| 24>  H        3.4441320000     4.2194310000    -1.8052370000
| 25>  H        5.3307810000     2.4305680000    -2.5669670000
| 26>  H        4.7458470000     0.2565980000    -1.4463550000
| 27> *
| 28>
| 29>                          ****END OF INPUT****
 Total Charge           Charge          ....    0
 Multiplicity           Mult            ....    1
 Number of Electrons    NEL             ....   52
 Basis Dimension        Dim             ....  138

MULLIKEN ATOMIC CHARGES
-----------------------
   0 C :    0.059507
   1 N :   -0.137743
   2 C :    0.082089
   3 C :   -0.104123
   4 C :   -0.016161
   5 C :    0.026748
   6 N :   -0.088291
   7 H :    0.030401
   8 H :    0.022477
   9 H :    0.022814
  10 H :    0.112200
  11 H :   -0.058713
  12 H :   -0.030109
  13 H :   -0.021952
  14 H :    0.100856
Sum of atomic charges:    0.0000000

LOEWDIN ATOMIC CHARGES
----------------------
   0 C :   -0.000944
   1 N :   -0.035743
   2 C :    0.007064
   3 C :   -0.149992
   4 C :   -0.080731
   5 C :   -0.068990
   6 N :    0.072554
   7 H :    0.034902
   8 H :    0.012750
   9 H :    0.012244
  10 H :    0.076060
  11 H :    0.014263
  12 H :    0.020322
  13 H :    0.011969
  14 H :    0.074271

  Mayer bond orders larger than 0.1
B(  0-C ,  1-N ) :   1.0621 B(  0-C ,  7-H ) :   0.9690 B(  0-C ,  8-H ) :   0.9524
B(  0-C ,  9-H ) :   0.9532 B(  1-N ,  2-C ) :   1.1617 B(  1-N , 10-H ) :   0.9375
B(  2-C ,  3-C ) :   1.4145 B(  2-C ,  6-N ) :   1.2315 B(  3-C ,  4-C ) :   1.2624
B(  3-C , 11-H ) :   1.0146 B(  4-C ,  5-C ) :   1.5137 B(  4-C , 12-H ) :   0.9969
B(  5-C ,  6-N ) :   1.1356 B(  5-C , 13-H ) :   0.9892 B(  6-N , 14-H ) :   0.9351

FINAL SINGLE POINT ENERGY      -304.223896234589

DIPOLE MOMENT
-------------
                                X             Y             Z
Electronic contribution:     -0.00198       2.97097      -0.96727
Nuclear contribution   :      0.04890      -4.15962       1.31580
                        -----------------------------------------
Total Dipole Moment    :      0.04692      -1.18864       0.34853
                        -----------------------------------------
Magnitude (a.u.)       :      1.23958
Magnitude (Debye)      :      3.15075

                             ****ORCA TERMINATED NORMALLY****
TOTAL RUN TIME: 0 days 0 hours 0 minutes 7 seconds 115 msec
