                         Program Version 3.0.3 - RELEASE   -
|  1> ! RI PBE def2-SVP def2-SVP/J NBO PAL2
|  2> % maxcore 2000
|  3> % output
|  4>     # printlevel mini
|  5>     print[ P_Basis ] 0
|  6>     print[ P_SCFInfo ] 1
|  7>     print[ P_SCFIterInfo ] 1
|  8>     print[ P_OrbEn ] 0
|  9>     print[ P_Cartesian ] 0
| 10> end
| 11> *xyz 0 1
| 12>  C        2.1722070000    -0.1566920000    -1.2482500000
| 13>  N        3.1375850000    -0.7872670000    -0.3737730000
| 14>  C        2.6472680000    -1.1477110000     0.9407670000
| 15>  C        2.1332620000     0.0143410000     1.7792540000
| 16>  C        3.6127640000    -2.0543250000     1.7318520000
| 17>  N        2.5683660000    -3.0908550000     1.8946080000
| 18>  C        1.6877440000    -2.3595740000     0.9551810000
| 19>  H        2.6232980000    -0.0008350000    -2.2303670000
| 20>  H        1.7824310000     0.8111330000    -0.8979050000
| 21>  H        1.3181820000    -0.8256960000    -1.3868720000
| 22>  H        3.9592520000    -0.2014280000    -0.2802630000
| 23>  H        1.2815970000     0.5081880000     1.3047080000
| 24>  H        1.8060670000    -0.3334200000     2.7632670000
| 25>  H        2.9204180000     0.7596430000     1.9325240000
| 26>  H        4.0103000000    -1.6360440000     2.6612090000
| 27>  H        4.4407900000    -2.4200430000     1.1181150000
| 28>  H        2.1892910000    -3.0884760000     2.8323580000
| 29>  H        0.6732600000    -2.1676900000     1.3159200000
| 30>  H        1.6343060000    -2.8678480000    -0.0114310000
| 31> *
| 32>
| 33>                          ****END OF INPUT****
 Total Charge           Charge          ....    0
 Multiplicity           Mult            ....    1
 Number of Electrons    NEL             ....   56
 Basis Dimension        Dim             ....  158

MULLIKEN ATOMIC CHARGES
-----------------------
   0 C :    0.077833
   1 N :   -0.193173
   2 C :   -0.472254
   3 C :    0.096166
   4 C :    0.279899
   5 N :   -0.287274
   6 C :    0.271858
   7 H :    0.021465
   8 H :   -0.006957
   9 H :    0.018992
  10 H :    0.099234
  11 H :    0.019408
  12 H :   -0.004370
  13 H :    0.013022
  14 H :   -0.006487
  15 H :   -0.010947
  16 H :    0.089373
  17 H :   -0.003263
  18 H :   -0.002524
Sum of atomic charges:   -0.0000000

LOEWDIN ATOMIC CHARGES
----------------------
   0 C :   -0.005765
   1 N :   -0.089612
   2 C :   -0.038810
   3 C :   -0.066349
   4 C :    0.033401
   5 N :   -0.117488
   6 C :    0.031496
   7 H :    0.023645
   8 H :   -0.004004
   9 H :    0.022569
  10 H :    0.053384
  11 H :    0.023594
  12 H :    0.021880
  13 H :    0.023020
  14 H :    0.006670
  15 H :    0.013152
  16 H :    0.046216
  17 H :    0.007113
  18 H :    0.015887

  Mayer bond orders larger than 0.1
B(  0-C ,  1-N ) :   1.0698 B(  0-C ,  7-H ) :   0.9704 B(  0-C ,  8-H ) :   0.9412
B(  0-C ,  9-H ) :   0.9653 B(  1-N ,  2-C ) :   1.0417 B(  1-N , 10-H ) :   0.9419
B(  2-C ,  3-C ) :   1.0000 B(  2-C ,  4-C ) :   1.0520 B(  2-C ,  6-C ) :   1.0506
B(  3-C , 11-H ) :   0.9486 B(  3-C , 12-H ) :   0.9331 B(  3-C , 13-H ) :   0.9507
B(  4-C ,  5-N ) :   1.0772 B(  4-C , 14-H ) :   0.9297 B(  4-C , 15-H ) :   0.8968
B(  5-N ,  6-C ) :   1.0769 B(  5-N , 16-H ) :   0.9434 B(  6-C , 17-H ) :   0.9323
B(  6-C , 18-H ) :   0.8959

FINAL SINGLE POINT ENERGY      -306.573250275244

DIPOLE MOMENT
-------------
                                X             Y             Z
Electronic contribution:      1.73735      -3.52792       0.75301
Nuclear contribution   :     -1.89751       4.34390      -0.48512
                        -----------------------------------------
Total Dipole Moment    :     -0.16016       0.81598       0.26788
                        -----------------------------------------
Magnitude (a.u.)       :      0.87363
Magnitude (Debye)      :      2.22060

                             ****ORCA TERMINATED NORMALLY****
TOTAL RUN TIME: 0 days 0 hours 0 minutes 7 seconds 941 msec
