                         Program Version 3.0.3 - RELEASE   -
|  1> ! RI PBE def2-SVP def2-SVP/J NBO PAL2
|  2> % maxcore 2000
|  3> % output
|  4>     # printlevel mini
|  5>     print[ P_Basis ] 0
|  6>     print[ P_SCFInfo ] 1
|  7>     print[ P_SCFIterInfo ] 1
|  8>     print[ P_OrbEn ] 0
|  9>     print[ P_Cartesian ] 0
| 10> end
| 11> *xyz 0 1
| 12>  C        3.1474980000     0.0991190000    -1.2034670000
| 13>  N        2.3285960000    -0.0120860000    -0.0159470000
| 14>  C        2.8772540000    -0.8757320000     0.9893530000
| 15>  C        2.0105030000    -1.1422400000     2.2288220000
| 16>  C        2.5322220000    -2.5919570000     2.2634210000
| 17>  N        3.5620240000    -2.7792070000     3.2658480000
| 18>  C        2.9856700000    -2.4147490000     0.7892090000
| 19>  H        2.6536000000     0.7424840000    -1.9343400000
| 20>  H        3.3733900000    -0.8634180000    -1.6902250000
| 21>  H        4.1007080000     0.5687640000    -0.9435670000
| 22>  H        1.3967290000    -0.3254550000    -0.2612350000
| 23>  H        3.8524720000    -0.4669170000     1.2772140000
| 24>  H        0.9480210000    -1.1040670000     1.9735840000
| 25>  H        2.1778530000    -0.5351660000     3.1200060000
| 26>  H        1.7714930000    -3.3590400000     2.4232800000
| 27>  H        4.2748920000    -2.0626400000     3.1896430000
| 28>  H        4.0263540000    -3.6704900000     3.1359370000
| 29>  H        2.2249380000    -2.7685350000     0.0857950000
| 30>  H        3.9520630000    -2.8435690000     0.5131600000
| 31> *
| 32>
| 33>                          ****END OF INPUT****
 Total Charge           Charge          ....    0
 Multiplicity           Mult            ....    1
 Number of Electrons    NEL             ....   56
 Basis Dimension        Dim             ....  158

MULLIKEN ATOMIC CHARGES
-----------------------
   0 C :    0.061935
   1 N :   -0.187631
   2 C :   -0.146620
   3 C :    0.135530
   4 C :   -0.160080
   5 N :   -0.129094
   6 C :    0.157635
   7 H :    0.024627
   8 H :   -0.002548
   9 H :    0.015973
  10 H :    0.091312
  11 H :   -0.006320
  12 H :   -0.000882
  13 H :    0.013711
  14 H :    0.003267
  15 H :    0.074726
  16 H :    0.087138
  17 H :   -0.021199
  18 H :   -0.011482
Sum of atomic charges:   -0.0000000

LOEWDIN ATOMIC CHARGES
----------------------
   0 C :   -0.007212
   1 N :   -0.091512
   2 C :    0.001323
   3 C :   -0.035233
   4 C :    0.004377
   5 N :   -0.090942
   6 C :   -0.072953
   7 H :    0.022824
   8 H :   -0.001906
   9 H :    0.021366
  10 H :    0.050470
  11 H :    0.015432
  12 H :    0.026486
  13 H :    0.020133
  14 H :    0.012477
  15 H :    0.046943
  16 H :    0.051014
  17 H :    0.018851
  18 H :    0.008062

  Mayer bond orders larger than 0.1
B(  0-C ,  1-N ) :   1.0677 B(  0-C ,  7-H ) :   0.9733 B(  0-C ,  8-H ) :   0.9453
B(  0-C ,  9-H ) :   0.9649 B(  1-N ,  2-C ) :   1.1168 B(  1-N , 10-H ) :   0.9303
B(  2-C ,  3-C ) :   1.0695 B(  2-C ,  6-C ) :   1.0325 B(  2-C , 11-H ) :   0.8987
B(  3-C ,  4-C ) :   1.0726 B(  3-C , 12-H ) :   0.9030 B(  3-C , 13-H ) :   0.9194
B(  4-C ,  5-N ) :   1.1242 B(  4-C ,  6-C ) :   1.0522 B(  4-C , 14-H ) :   0.9139
B(  5-N , 15-H ) :   0.9664 B(  5-N , 16-H ) :   0.9653 B(  6-C , 17-H ) :   0.8777
B(  6-C , 18-H ) :   0.9200

FINAL SINGLE POINT ENERGY      -306.583990033637

DIPOLE MOMENT
-------------
                                X             Y             Z
Electronic contribution:     -0.90273      -0.26753       2.44186
Nuclear contribution   :      1.09802      -0.02193      -2.96990
                        -----------------------------------------
Total Dipole Moment    :      0.19529      -0.28946      -0.52804
                        -----------------------------------------
Magnitude (a.u.)       :      0.63305
Magnitude (Debye)      :      1.60908

                             ****ORCA TERMINATED NORMALLY****
TOTAL RUN TIME: 0 days 0 hours 0 minutes 8 seconds 411 msec
