                         Program Version 3.0.3 - RELEASE   -
|  1> ! RI PBE def2-SVP def2-SVP/J NBO PAL2
|  2> % maxcore 2000
|  3> % output
|  4>     # printlevel mini
|  5>     print[ P_Basis ] 0
|  6>     print[ P_SCFInfo ] 1
|  7>     print[ P_SCFIterInfo ] 1
|  8>     print[ P_OrbEn ] 0
|  9>     print[ P_Cartesian ] 0
| 10> end
| 11> *xyz 0 1
| 12>  C        1.2720540000     0.0000760000     0.9098040000
| 13>  N        2.5159960000    -0.0137680000     0.2077630000
| 14>  C        3.1633810000    -1.1819810000    -0.1171770000
| 15>  C        4.3623490000    -1.3150330000    -0.7890620000
| 16>  N        4.6292390000    -2.6591520000    -0.8933190000
| 17>  C        3.6411810000    -3.3764760000    -0.3111250000
| 18>  C        2.7085140000    -2.4953220000     0.1847480000
| 19>  H        0.9526740000     1.0325380000     1.0545530000
| 20>  H        1.3480860000    -0.4667150000     1.9015940000
| 21>  H        0.4765680000    -0.5199230000     0.3583380000
| 22>  H        2.9335540000     0.8551700000    -0.0575900000
| 23>  H        5.0314680000    -0.5726940000    -1.1921760000
| 24>  H        5.4397070000    -3.0467170000    -1.3372310000
| 25>  H        3.6646490000    -4.4539400000    -0.2872270000
| 26>  H        1.8027810000    -2.7631640000     0.7050160000
| 27> *
| 28>
| 29>                          ****END OF INPUT****
 Total Charge           Charge          ....    0
 Multiplicity           Mult            ....    1
 Number of Electrons    NEL             ....   52
 Basis Dimension        Dim             ....  138

MULLIKEN ATOMIC CHARGES
-----------------------
   0 C :    0.091216
   1 N :   -0.160552
   2 C :    0.083006
   3 C :   -0.054836
   4 N :   -0.043947
   5 C :    0.037652
   6 C :   -0.101774
   7 H :    0.014379
   8 H :    0.017974
   9 H :    0.016484
  10 H :    0.094542
  11 H :   -0.042065
  12 H :    0.107611
  13 H :   -0.012432
  14 H :   -0.047258
Sum of atomic charges:   -0.0000000

LOEWDIN ATOMIC CHARGES
----------------------
   0 C :    0.005172
   1 N :   -0.037162
   2 C :   -0.032497
   3 C :   -0.104541
   4 N :    0.099604
   5 C :   -0.045774
   6 C :   -0.125215
   7 H :    0.026153
   8 H :    0.013802
   9 H :    0.013106
  10 H :    0.065749
  11 H :    0.008098
  12 H :    0.079490
  13 H :    0.015342
  14 H :    0.018674

  Mayer bond orders larger than 0.1
B(  0-C ,  1-N ) :   1.0701 B(  0-C ,  7-H ) :   0.9703 B(  0-C ,  8-H ) :   0.9544
B(  0-C ,  9-H ) :   0.9545 B(  1-N ,  2-C ) :   1.1670 B(  1-N , 10-H ) :   0.9451
B(  2-C ,  3-C ) :   1.3966 B(  2-C ,  6-C ) :   1.3133 B(  3-C ,  4-N ) :   1.1704
B(  3-C ,  5-C ) :   0.1120 B(  3-C , 11-H ) :   0.9936 B(  4-N ,  5-C ) :   1.2663
B(  4-N , 12-H ) :   0.9437 B(  5-C ,  6-C ) :   1.4032 B(  5-C , 13-H ) :   0.9801
B(  6-C , 14-H ) :   1.0073

FINAL SINGLE POINT ENERGY      -304.223167064429

DIPOLE MOMENT
-------------
                                X             Y             Z
Electronic contribution:      3.80750      -2.01346      -2.07946
Nuclear contribution   :     -3.40637       2.23363       1.84657
                        -----------------------------------------
Total Dipole Moment    :      0.40113       0.22018      -0.23288
                        -----------------------------------------
Magnitude (a.u.)       :      0.51344
Magnitude (Debye)      :      1.30506

                             ****ORCA TERMINATED NORMALLY****
TOTAL RUN TIME: 0 days 0 hours 0 minutes 6 seconds 818 msec
