                         Program Version 3.0.3 - RELEASE   -
|  1> ! RI PBE def2-SVP def2-SVP/J NBO PAL2
|  2> % maxcore 2000
|  3> % output
|  4>     # printlevel mini
|  5>     print[ P_Basis ] 0
|  6>     print[ P_SCFInfo ] 1
|  7>     print[ P_SCFIterInfo ] 1
|  8>     print[ P_OrbEn ] 0
|  9>     print[ P_Cartesian ] 0
| 10> end
| 11> *xyz 0 1
| 12>  C        3.1894420000     0.4309400000    -0.9946720000
| 13>  N        2.3298570000    -0.0866340000     0.0480280000
| 14>  C        2.8976740000    -1.1453180000     0.8237370000
| 15>  C        2.0131660000    -1.7738030000     1.9046160000
| 16>  N        2.6337100000    -3.0728830000     1.6103780000
| 17>  C        3.0707420000    -2.5970440000     0.2859790000
| 18>  C        4.4206760000    -3.0933420000    -0.1665400000
| 19>  H        2.6825890000     1.2446100000    -1.5174870000
| 20>  H        3.5014590000    -0.3133270000    -1.7438780000
| 21>  H        4.0957030000     0.8443190000    -0.5434150000
| 22>  H        1.4386270000    -0.3747580000    -0.3364610000
| 23>  H        3.8462520000    -0.7990760000     1.2473560000
| 24>  H        0.9521480000    -1.7043960000     1.6216170000
| 25>  H        2.1264020000    -1.4236880000     2.9333590000
| 26>  H        2.0115040000    -3.8706170000     1.6118010000
| 27>  H        2.3149800000    -2.7737760000    -0.4984870000
| 28>  H        5.1775440000    -2.8698150000     0.5888850000
| 29>  H        4.7171140000    -2.6270090000    -1.1100500000
| 30>  H        4.4105100000    -4.1766900000    -0.3181560000
| 31> *
| 32>
| 33>                          ****END OF INPUT****
 Total Charge           Charge          ....    0
 Multiplicity           Mult            ....    1
 Number of Electrons    NEL             ....   56
 Basis Dimension        Dim             ....  158

MULLIKEN ATOMIC CHARGES
-----------------------
   0 C :    0.071638
   1 N :   -0.190760
   2 C :   -0.095850
   3 C :    0.187330
   4 N :   -0.253202
   5 C :   -0.022610
   6 C :    0.085712
   7 H :    0.019771
   8 H :    0.001983
   9 H :    0.016421
  10 H :    0.090440
  11 H :   -0.003980
  12 H :   -0.014355
  13 H :    0.008887
  14 H :    0.092050
  15 H :   -0.029883
  16 H :    0.012066
  17 H :    0.009365
  18 H :    0.014979
Sum of atomic charges:   -0.0000000

LOEWDIN ATOMIC CHARGES
----------------------
   0 C :   -0.004349
   1 N :   -0.087280
   2 C :    0.001594
   3 C :    0.025511
   4 N :   -0.106547
   5 C :   -0.005102
   6 C :   -0.073411
   7 H :    0.022299
   8 H :   -0.001309
   9 H :    0.022831
  10 H :    0.048564
  11 H :    0.021332
  12 H :    0.001964
  13 H :    0.011349
  14 H :    0.045128
  15 H :   -0.001735
  16 H :    0.026143
  17 H :    0.025423
  18 H :    0.027594

  Mayer bond orders larger than 0.1
B(  0-C ,  1-N ) :   1.0636 B(  0-C ,  7-H ) :   0.9718 B(  0-C ,  8-H ) :   0.9488
B(  0-C ,  9-H ) :   0.9653 B(  1-N ,  2-C ) :   1.1170 B(  1-N , 10-H ) :   0.9310
B(  2-C ,  3-C ) :   1.0570 B(  2-C ,  5-C ) :   0.9798 B(  2-C , 11-H ) :   0.8786
B(  3-C ,  4-N ) :   1.0445 B(  3-C , 12-H ) :   0.9167 B(  3-C , 13-H ) :   0.9307
B(  4-N ,  5-C ) :   1.0356 B(  4-N , 14-H ) :   0.9384 B(  5-C ,  6-C ) :   1.1020
B(  5-C , 15-H ) :   0.8922 B(  6-C , 16-H ) :   0.9416 B(  6-C , 17-H ) :   0.9499
B(  6-C , 18-H ) :   0.9489

FINAL SINGLE POINT ENERGY      -306.582165192249

DIPOLE MOMENT
-------------
                                X             Y             Z
Electronic contribution:     -2.23026      -0.61852       3.00215
Nuclear contribution   :      1.87945       0.47116      -3.51243
                        -----------------------------------------
Total Dipole Moment    :     -0.35081      -0.14736      -0.51028
                        -----------------------------------------
Magnitude (a.u.)       :      0.63653
Magnitude (Debye)      :      1.61793

                             ****ORCA TERMINATED NORMALLY****
TOTAL RUN TIME: 0 days 0 hours 0 minutes 7 seconds 837 msec
