                         Program Version 3.0.3 - RELEASE   -
|  1> ! RI PBE def2-SVP def2-SVP/J NBO PAL2
|  2> % maxcore 2000
|  3> % output
|  4>     # printlevel mini
|  5>     print[ P_Basis ] 0
|  6>     print[ P_SCFInfo ] 1
|  7>     print[ P_SCFIterInfo ] 1
|  8>     print[ P_OrbEn ] 0
|  9>     print[ P_Cartesian ] 0
| 10> end
| 11> *xyz 0 1
| 12>  C        4.2273960000     0.2359890000     0.9208370000
| 13>  N        3.1269930000     0.2352340000    -0.0225660000
| 14>  C        3.4265130000    -0.3742260000    -1.2854220000
| 15>  C        4.4193810000     0.3327640000    -2.1801280000
| 16>  N        3.9457950000     1.6778330000    -2.4729720000
| 17>  C        3.3799750000    -1.8675850000    -1.3189210000
| 18>  C        2.2791520000    -1.0715310000    -1.9579390000
| 19>  H        3.9007030000     0.7021190000     1.8528480000
| 20>  H        5.1298730000     0.7660420000     0.5793490000
| 21>  H        4.5125510000    -0.7943210000     1.1484040000
| 22>  H        2.8306360000     1.1888000000    -0.1983890000
| 23>  H        4.5966950000    -0.2855540000    -3.0734650000
| 24>  H        5.3815390000     0.4200020000    -1.6646000000
| 25>  H        3.1317110000     1.6405460000    -3.0747870000
| 26>  H        4.6522120000     2.2184960000    -2.9542040000
| 27>  H        3.1513970000    -2.3691560000    -0.3872860000
| 28>  H        4.0769560000    -2.3900860000    -1.9633180000
| 29>  H        1.3256370000    -1.0423840000    -1.4472310000
| 30>  H        2.2286860000    -1.0531740000    -3.0408100000
| 31> *
| 32>
| 33>                          ****END OF INPUT****
 Total Charge           Charge          ....    0
 Multiplicity           Mult            ....    1
 Number of Electrons    NEL             ....   56
 Basis Dimension        Dim             ....  158

MULLIKEN ATOMIC CHARGES
-----------------------
   0 C :    0.090852
   1 N :   -0.182081
   2 C :   -0.258430
   3 C :    0.193731
   4 N :   -0.206564
   5 C :    0.001917
   6 C :   -0.001096
   7 H :    0.016422
   8 H :   -0.004907
   9 H :    0.006254
  10 H :    0.096108
  11 H :   -0.029926
  12 H :   -0.000737
  13 H :    0.086044
  14 H :    0.090561
  15 H :    0.032295
  16 H :    0.023715
  17 H :    0.026164
  18 H :    0.019678
Sum of atomic charges:   -0.0000000

LOEWDIN ATOMIC CHARGES
----------------------
   0 C :   -0.002829
   1 N :   -0.080025
   2 C :   -0.038526
   3 C :    0.007024
   4 N :   -0.107696
   5 C :   -0.042236
   6 C :   -0.048174
   7 H :    0.021293
   8 H :   -0.002746
   9 H :    0.018737
  10 H :    0.051206
  11 H :   -0.000488
  12 H :    0.018899
  13 H :    0.051168
  14 H :    0.053551
  15 H :    0.030050
  16 H :    0.023136
  17 H :    0.027774
  18 H :    0.019881

  Mayer bond orders larger than 0.1
B(  0-C ,  1-N ) :   1.0624 B(  0-C ,  7-H ) :   0.9708 B(  0-C ,  8-H ) :   0.9436
B(  0-C ,  9-H ) :   0.9652 B(  1-N ,  2-C ) :   1.1296 B(  1-N , 10-H ) :   0.9326
B(  2-C ,  3-C ) :   1.0295 B(  2-C ,  5-C ) :   0.9808 B(  2-C ,  6-C ) :   0.9706
B(  3-C ,  4-N ) :   1.1049 B(  3-C , 11-H ) :   0.9007 B(  3-C , 12-H ) :   0.9126
B(  4-N , 13-H ) :   0.9669 B(  4-N , 14-H ) :   0.9621 B(  5-C ,  6-C ) :   1.0539
B(  5-C , 15-H ) :   0.9305 B(  5-C , 16-H ) :   0.9387 B(  6-C , 17-H ) :   0.9344
B(  6-C , 18-H ) :   0.9397

FINAL SINGLE POINT ENERGY      -306.582590221905

DIPOLE MOMENT
-------------
                                X             Y             Z
Electronic contribution:     -1.65181       0.34953      -0.62663
Nuclear contribution   :      1.97880      -0.11910       0.05450
                        -----------------------------------------
Total Dipole Moment    :      0.32699       0.23043      -0.57213
                        -----------------------------------------
Magnitude (a.u.)       :      0.69811
Magnitude (Debye)      :      1.77445

                             ****ORCA TERMINATED NORMALLY****
TOTAL RUN TIME: 0 days 0 hours 0 minutes 7 seconds 733 msec
