                         Program Version 3.0.3 - RELEASE   -
|  1> ! RI PBE def2-SVP def2-SVP/J NBO PAL2
|  2> % maxcore 2000
|  3> % output
|  4>     # printlevel mini
|  5>     print[ P_Basis ] 0
|  6>     print[ P_SCFInfo ] 1
|  7>     print[ P_SCFIterInfo ] 1
|  8>     print[ P_OrbEn ] 0
|  9>     print[ P_Cartesian ] 0
| 10> end
| 11> *xyz 0 1
| 12>  C        1.5519640000    -0.5151560000     0.6555040000
| 13>  N        2.7430920000     0.0054530000     0.0211570000
| 14>  C        2.6496100000     0.0775480000    -1.4128060000
| 15>  C        3.9821980000     0.4344390000    -2.0857500000
| 16>  N        4.1934510000    -0.9878230000    -2.3676380000
| 17>  C        4.8304200000    -1.3597300000    -3.5972500000
| 18>  C        2.7615880000    -1.2504280000    -2.2086280000
| 19>  H        1.7084830000    -0.5784070000     1.7340800000
| 20>  H        1.2402150000    -1.5098390000     0.2974700000
| 21>  H        0.7189580000     0.1728560000     0.4834590000
| 22>  H        3.5500860000    -0.5531160000     0.2739290000
| 23>  H        1.7966260000     0.7062410000    -1.6754470000
| 24>  H        4.7419390000     0.9100240000    -1.4583080000
| 25>  H        3.8352680000     1.0359150000    -2.9969480000
| 26>  H        5.8710050000    -1.0247700000    -3.5962630000
| 27>  H        4.3315680000    -0.9274410000    -4.4844920000
| 28>  H        4.8308300000    -2.4475480000    -3.7041410000
| 29>  H        2.5119940000    -2.1839870000    -1.6939700000
| 30>  H        2.2085160000    -1.2063300000    -3.1611690000
| 31> *
| 32>
| 33>                          ****END OF INPUT****
 Total Charge           Charge          ....    0
 Multiplicity           Mult            ....    1
 Number of Electrons    NEL             ....   56
 Basis Dimension        Dim             ....  158

MULLIKEN ATOMIC CHARGES
-----------------------
   0 C :    0.062658
   1 N :   -0.186058
   2 C :   -0.169307
   3 C :    0.211410
   4 N :   -0.371178
   5 C :    0.089744
   6 C :    0.209460
   7 H :    0.027032
   8 H :   -0.006919
   9 H :    0.018450
  10 H :    0.096025
  11 H :    0.007618
  12 H :    0.007772
  13 H :   -0.013917
  14 H :    0.022200
  15 H :   -0.011268
  16 H :    0.025383
  17 H :    0.000863
  18 H :   -0.019968
Sum of atomic charges:   -0.0000000

LOEWDIN ATOMIC CHARGES
----------------------
   0 C :   -0.008112
   1 N :   -0.086451
   2 C :    0.001730
   3 C :    0.031067
   4 N :   -0.124377
   5 C :   -0.008477
   6 C :    0.014520
   7 H :    0.024324
   8 H :   -0.003360
   9 H :    0.021523
  10 H :    0.056102
  11 H :    0.014576
  12 H :    0.010766
  13 H :    0.004079
  14 H :    0.023757
  15 H :   -0.004132
  16 H :    0.024236
  17 H :    0.007478
  18 H :    0.000753

  Mayer bond orders larger than 0.1
B(  0-C ,  1-N ) :   1.0694 B(  0-C ,  7-H ) :   0.9725 B(  0-C ,  8-H ) :   0.9419
B(  0-C ,  9-H ) :   0.9656 B(  1-N ,  2-C ) :   1.0935 B(  1-N , 10-H ) :   0.9363
B(  2-C ,  3-C ) :   1.0427 B(  2-C ,  6-C ) :   1.0189 B(  2-C , 11-H ) :   0.9254
B(  3-C ,  4-N ) :   1.0062 B(  3-C , 12-H ) :   0.9260 B(  3-C , 13-H ) :   0.9083
B(  4-N ,  5-C ) :   1.0477 B(  4-N ,  6-C ) :   1.0029 B(  5-C , 14-H ) :   0.9676
B(  5-C , 15-H ) :   0.9371 B(  5-C , 16-H ) :   0.9689 B(  6-C , 17-H ) :   0.9250
B(  6-C , 18-H ) :   0.9033

FINAL SINGLE POINT ENERGY      -306.573551222067

DIPOLE MOMENT
-------------
                                X             Y             Z
Electronic contribution:      1.29425       0.98778       0.92894
Nuclear contribution   :     -1.40931      -1.19946      -1.10824
                        -----------------------------------------
Total Dipole Moment    :     -0.11506      -0.21168      -0.17930
                        -----------------------------------------
Magnitude (a.u.)       :      0.30032
Magnitude (Debye)      :      0.76336

                             ****ORCA TERMINATED NORMALLY****
TOTAL RUN TIME: 0 days 0 hours 0 minutes 8 seconds 91 msec
