                         Program Version 3.0.3 - RELEASE   -
|  1> ! RI PBE def2-SVP def2-SVP/J NBO PAL2
|  2> % maxcore 2000
|  3> % output
|  4>     # printlevel mini
|  5>     print[ P_Basis ] 0
|  6>     print[ P_SCFInfo ] 1
|  7>     print[ P_SCFIterInfo ] 1
|  8>     print[ P_OrbEn ] 0
|  9>     print[ P_Cartesian ] 0
| 10> end
| 11> *xyz 0 1
| 12>  C        1.1320810000    -0.1442880000     0.0553100000
| 13>  N        2.5661280000    -0.0467900000    -0.0659820000
| 14>  C        3.1512920000    -0.8176210000    -0.8902070000
| 15>  N        4.5098310000    -0.8164290000    -1.0922220000
| 16>  C        4.9398440000    -1.7706020000    -2.0686170000
| 17>  C        3.6475710000    -2.4002430000    -2.4770970000
| 18>  C        2.6342840000    -1.8568680000    -1.8061830000
| 19>  H        0.7865170000     0.5779490000     0.7968970000
| 20>  H        0.7979010000    -1.1355580000     0.3913240000
| 21>  H        0.6073070000     0.0818420000    -0.8831330000
| 22>  H        5.1143020000    -0.1949580000    -0.5887830000
| 23>  H        5.6337560000    -2.5189520000    -1.6583350000
| 24>  H        5.4437120000    -1.3049840000    -2.9283820000
| 25>  H        3.5895300000    -3.1855830000    -3.2190360000
| 26>  H        1.5889440000    -2.1128070000    -1.8944450000
| 27> *
| 28>
| 29>                          ****END OF INPUT****
 Total Charge           Charge          ....    0
 Multiplicity           Mult            ....    1
 Number of Electrons    NEL             ....   52
 Basis Dimension        Dim             ....  138

MULLIKEN ATOMIC CHARGES
-----------------------
   0 C :    0.074227
   1 N :   -0.184167
   2 C :    0.005685
   3 N :   -0.181695
   4 C :    0.210985
   5 C :   -0.109606
   6 C :   -0.016751
   7 H :    0.020766
   8 H :    0.004653
   9 H :    0.006685
  10 H :    0.105621
  11 H :    0.037761
  12 H :    0.035974
  13 H :    0.007687
  14 H :   -0.017827
Sum of atomic charges:   -0.0000000

LOEWDIN ATOMIC CHARGES
----------------------
   0 C :   -0.016734
   1 N :   -0.178444
   2 C :   -0.004707
   3 N :   -0.004355
   4 C :    0.031298
   5 C :   -0.016199
   6 C :   -0.046461
   7 H :    0.019841
   8 H :    0.010558
   9 H :    0.011041
  10 H :    0.070436
  11 H :    0.032815
  12 H :    0.032610
  13 H :    0.027610
  14 H :    0.030690

  Mayer bond orders larger than 0.1
B(  0-C ,  1-N ) :   1.0490 B(  0-C ,  7-H ) :   0.9760 B(  0-C ,  8-H ) :   0.9515
B(  0-C ,  9-H ) :   0.9518 B(  1-N ,  2-C ) :   1.8525 B(  2-C ,  3-N ) :   1.1558
B(  2-C ,  6-C ) :   0.9913 B(  3-N ,  4-C ) :   1.0408 B(  3-N , 10-H ) :   0.9332
B(  4-C ,  5-C ) :   1.0272 B(  4-C , 11-H ) :   0.9083 B(  4-C , 12-H ) :   0.9071
B(  5-C ,  6-C ) :   1.7715 B(  5-C , 13-H ) :   0.9832 B(  6-C , 14-H ) :   1.0131

FINAL SINGLE POINT ENERGY      -304.210691779576

DIPOLE MOMENT
-------------
                                X             Y             Z
Electronic contribution:      2.54860       0.24793      -0.14196
Nuclear contribution   :     -2.02319      -0.91112      -0.56852
                        -----------------------------------------
Total Dipole Moment    :      0.52542      -0.66318      -0.71047
                        -----------------------------------------
Magnitude (a.u.)       :      1.10483
Magnitude (Debye)      :      2.80825

                             ****ORCA TERMINATED NORMALLY****
TOTAL RUN TIME: 0 days 0 hours 0 minutes 7 seconds 467 msec
