                         Program Version 3.0.3 - RELEASE   -
|  1> ! RI PBE def2-SVP def2-SVP/J NBO PAL2
|  2> % maxcore 2000
|  3> % output
|  4>     # printlevel mini
|  5>     print[ P_Basis ] 0
|  6>     print[ P_SCFInfo ] 1
|  7>     print[ P_SCFIterInfo ] 1
|  8>     print[ P_OrbEn ] 0
|  9>     print[ P_Cartesian ] 0
| 10> end
| 11> *xyz 0 1
| 12>  C        1.8660960000     0.8535870000    -0.1614760000
| 13>  N        3.2412820000     0.5880910000    -0.5148800000
| 14>  C        3.7859950000    -0.5806670000     0.1421020000
| 15>  C        5.2375330000    -0.7623990000    -0.1877900000
| 16>  C        6.2810320000    -0.0288440000     0.6091770000
| 17>  C        6.1425180000    -1.5169040000     0.7328190000
| 18>  C        7.2036560000    -2.4271980000     0.1839440000
| 19>  H        1.5288970000     1.7733000000    -0.6437080000
| 20>  H        1.6904540000     0.9484220000     0.9241040000
| 21>  H        1.2311530000     0.0400590000    -0.5245890000
| 22>  H        3.8209730000     1.3896310000    -0.2978710000
| 23>  H        3.2141970000    -1.4541180000    -0.1958670000
| 24>  H        3.6691720000    -0.5421220000     1.2424350000
| 25>  H        5.4415020000    -0.8691890000    -1.2493320000
| 26>  H        5.9463150000     0.5854910000     1.4381450000
| 27>  H        7.1494180000     0.3563890000     0.0873400000
| 28>  H        5.6800940000    -1.8615440000     1.6538950000
| 29>  H        7.6281340000    -2.0187260000    -0.7370720000
| 30>  H        6.7994460000    -3.4166170000    -0.0476420000
| 31>  H        8.0231320000    -2.5583340000     0.8961650000
| 32> *
| 33>
| 34>                          ****END OF INPUT****
 Total Charge           Charge          ....    0
 Multiplicity           Mult            ....    1
 Number of Electrons    NEL             ....   56
 Basis Dimension        Dim             ....  163

MULLIKEN ATOMIC CHARGES
-----------------------
   0 C :    0.072509
   1 N :   -0.272299
   2 C :    0.208023
   3 C :   -0.156797
   4 C :    0.001194
   5 C :   -0.147795
   6 C :    0.071691
   7 H :    0.018058
   8 H :   -0.008020
   9 H :    0.016136
  10 H :    0.096951
  11 H :    0.001910
  12 H :   -0.034453
  13 H :    0.021276
  14 H :    0.022279
  15 H :    0.024820
  16 H :    0.013743
  17 H :    0.003030
  18 H :    0.022490
  19 H :    0.025255
Sum of atomic charges:   -0.0000000

LOEWDIN ATOMIC CHARGES
----------------------
   0 C :   -0.007751
   1 N :   -0.106395
   2 C :    0.019075
   3 C :   -0.048038
   4 C :   -0.050054
   5 C :   -0.042048
   6 C :   -0.055416
   7 H :    0.022024
   8 H :   -0.003478
   9 H :    0.020685
  10 H :    0.052902
  11 H :    0.020879
  12 H :   -0.004691
  13 H :    0.026989
  14 H :    0.023011
  15 H :    0.024994
  16 H :    0.023592
  17 H :    0.026146
  18 H :    0.028831
  19 H :    0.028741

  Mayer bond orders larger than 0.1
B(  0-C ,  1-N ) :   1.0638 B(  0-C ,  7-H ) :   0.9722 B(  0-C ,  8-H ) :   0.9435
B(  0-C ,  9-H ) :   0.9671 B(  1-N ,  2-C ) :   1.0452 B(  1-N , 10-H ) :   0.9463
B(  2-C ,  3-C ) :   1.0708 B(  2-C , 11-H ) :   0.9205 B(  2-C , 12-H ) :   0.8969
B(  3-C ,  4-C ) :   0.9876 B(  3-C ,  5-C ) :   0.9304 B(  3-C , 13-H ) :   0.9453
B(  4-C ,  5-C ) :   1.0101 B(  4-C , 14-H ) :   0.9384 B(  4-C , 15-H ) :   0.9421
B(  5-C ,  6-C ) :   1.1026 B(  5-C , 16-H ) :   0.9367 B(  6-C , 17-H ) :   0.9477
B(  6-C , 18-H ) :   0.9607 B(  6-C , 19-H ) :   0.9593

FINAL SINGLE POINT ENERGY      -290.565510821336

DIPOLE MOMENT
-------------
                                X             Y             Z
Electronic contribution:      0.40312       0.70592      -0.74044
Nuclear contribution   :     -0.32932      -0.62590       1.00853
                        -----------------------------------------
Total Dipole Moment    :      0.07380       0.08002       0.26809
                        -----------------------------------------
Magnitude (a.u.)       :      0.28935
Magnitude (Debye)      :      0.73547

                             ****ORCA TERMINATED NORMALLY****
TOTAL RUN TIME: 0 days 0 hours 0 minutes 7 seconds 958 msec
