                         Program Version 3.0.3 - RELEASE   -
|  1> ! RI PBE def2-SVP def2-SVP/J NBO PAL2
|  2> % maxcore 2000
|  3> % output
|  4>     # printlevel mini
|  5>     print[ P_Basis ] 0
|  6>     print[ P_SCFInfo ] 1
|  7>     print[ P_SCFIterInfo ] 1
|  8>     print[ P_OrbEn ] 0
|  9>     print[ P_Cartesian ] 0
| 10> end
| 11> *xyz 0 1
| 12>  C        1.4141370000    -1.8581530000    -0.7657980000
| 13>  N        2.8040170000    -1.9669660000    -0.3866020000
| 14>  C        3.3102310000    -0.7845010000     0.2777900000
| 15>  C        4.7778040000    -0.9011540000     0.5594930000
| 16>  C        5.7769050000    -0.5653020000    -0.5206120000
| 17>  C        5.6446920000     0.3213080000     0.6698250000
| 18>  N        6.7382140000     0.4392180000     1.5898140000
| 19>  H        1.1065090000    -2.7520870000    -1.3119370000
| 20>  H        1.1857570000    -0.9765610000    -1.3893090000
| 21>  H        0.7933250000    -1.7918490000     0.1325670000
| 22>  H        3.3757940000    -2.1597560000    -1.1999130000
| 23>  H        2.7575200000    -0.6643190000     1.2181580000
| 24>  H        3.1288160000     0.1385890000    -0.3063080000
| 25>  H        5.0519690000    -1.7300030000     1.2058040000
| 26>  H        5.4056650000    -0.2038750000    -1.4731540000
| 27>  H        6.6703060000    -1.1753550000    -0.5952460000
| 28>  H        5.1428330000     1.2689630000     0.4939660000
| 29>  H        7.3440550000    -0.3694670000     1.5381370000
| 30>  H        6.4039430000     0.5063790000     2.5437120000
| 31> *
| 32>
| 33>                          ****END OF INPUT****
 Total Charge           Charge          ....    0
 Multiplicity           Mult            ....    1
 Number of Electrons    NEL             ....   56
 Basis Dimension        Dim             ....  158

MULLIKEN ATOMIC CHARGES
-----------------------
   0 C :    0.067437
   1 N :   -0.274747
   2 C :    0.221985
   3 C :   -0.157763
   4 C :   -0.004956
   5 C :   -0.072577
   6 N :   -0.119944
   7 H :    0.021446
   8 H :   -0.007700
   9 H :    0.016331
  10 H :    0.098049
  11 H :    0.000461
  12 H :   -0.038353
  13 H :    0.009238
  14 H :    0.025324
  15 H :    0.027220
  16 H :    0.019007
  17 H :    0.077100
  18 H :    0.092443
Sum of atomic charges:    0.0000000

LOEWDIN ATOMIC CHARGES
----------------------
   0 C :   -0.008625
   1 N :   -0.106892
   2 C :    0.019142
   3 C :   -0.069804
   4 C :   -0.052377
   5 C :   -0.003669
   6 N :   -0.084503
   7 H :    0.022365
   8 H :   -0.003481
   9 H :    0.020859
  10 H :    0.052664
  11 H :    0.020417
  12 H :   -0.005265
  13 H :    0.022476
  14 H :    0.024944
  15 H :    0.025885
  16 H :    0.019914
  17 H :    0.050699
  18 H :    0.055252

  Mayer bond orders larger than 0.1
B(  0-C ,  1-N ) :   1.0635 B(  0-C ,  7-H ) :   0.9729 B(  0-C ,  8-H ) :   0.9431
B(  0-C ,  9-H ) :   0.9670 B(  1-N ,  2-C ) :   1.0423 B(  1-N , 10-H ) :   0.9483
B(  2-C ,  3-C ) :   1.0658 B(  2-C , 11-H ) :   0.9204 B(  2-C , 12-H ) :   0.8956
B(  3-C ,  4-C ) :   0.9778 B(  3-C ,  5-C ) :   0.8929 B(  3-C , 13-H ) :   0.9385
B(  4-C ,  5-C ) :   1.0136 B(  4-C , 14-H ) :   0.9384 B(  4-C , 15-H ) :   0.9397
B(  5-C ,  6-N ) :   1.1575 B(  5-C , 16-H ) :   0.9371 B(  6-N , 17-H ) :   0.9603
B(  6-N , 18-H ) :   0.9704

FINAL SINGLE POINT ENERGY      -306.577628307297

DIPOLE MOMENT
-------------
                                X             Y             Z
Electronic contribution:      3.27934       0.45992       1.45245
Nuclear contribution   :     -3.36788      -0.65534      -1.48131
                        -----------------------------------------
Total Dipole Moment    :     -0.08854      -0.19542      -0.02886
                        -----------------------------------------
Magnitude (a.u.)       :      0.21648
Magnitude (Debye)      :      0.55024

                             ****ORCA TERMINATED NORMALLY****
TOTAL RUN TIME: 0 days 0 hours 0 minutes 7 seconds 589 msec
