                         Program Version 3.0.3 - RELEASE   -
|  1> ! RI PBE def2-SVP def2-SVP/J NBO PAL2
|  2> % maxcore 2000
|  3> % output
|  4>     # printlevel mini
|  5>     print[ P_Basis ] 0
|  6>     print[ P_SCFInfo ] 1
|  7>     print[ P_SCFIterInfo ] 1
|  8>     print[ P_OrbEn ] 0
|  9>     print[ P_Cartesian ] 0
| 10> end
| 11> *xyz 0 1
| 12>  C        2.0520540000     0.8594920000    -0.9574120000
| 13>  N        2.2446160000    -0.1972410000     0.0073270000
| 14>  C        1.0530810000    -0.4571660000     0.7746220000
| 15>  C        2.8988330000    -1.3262300000    -0.5863590000
| 16>  C        2.6953570000    -2.7399760000    -0.1411330000
| 17>  C        2.2409130000    -2.3305660000    -1.5071910000
| 18>  N        2.8797550000    -2.8813840000    -2.6681200000
| 19>  H        1.7144130000     1.7672970000    -0.4511040000
| 20>  H        1.3127820000     0.6083450000    -1.7387170000
| 21>  H        3.0001920000     1.0829080000    -1.4531780000
| 22>  H        0.7169960000     0.4794280000     1.2258970000
| 23>  H        1.2650900000    -1.1537340000     1.5863470000
| 24>  H        0.2093640000    -0.8559270000     0.1831480000
| 25>  H        3.9241090000    -1.0896270000    -0.8674410000
| 26>  H        1.9336170000    -2.9686770000     0.5924870000
| 27>  H        3.5782940000    -3.3649010000    -0.0622020000
| 28>  H        1.1635340000    -2.2403080000    -1.6147090000
| 29>  H        3.7794180000    -3.2798010000    -2.4343350000
| 30>  H        3.0338810000    -2.1725310000    -3.3749380000
| 31> *
| 32>
| 33>                          ****END OF INPUT****
 Total Charge           Charge          ....    0
 Multiplicity           Mult            ....    1
 Number of Electrons    NEL             ....   56
 Basis Dimension        Dim             ....  158

MULLIKEN ATOMIC CHARGES
-----------------------
   0 C :    0.114883
   1 N :   -0.286145
   2 C :    0.093218
   3 C :    0.013076
   4 C :   -0.017180
   5 C :   -0.105916
   6 N :   -0.119103
   7 H :    0.015605
   8 H :   -0.011094
   9 H :    0.011568
  10 H :    0.012405
  11 H :    0.029476
  12 H :   -0.004527
  13 H :   -0.003390
  14 H :    0.036091
  15 H :    0.026533
  16 H :    0.026003
  17 H :    0.077709
  18 H :    0.090788
Sum of atomic charges:    0.0000000

LOEWDIN ATOMIC CHARGES
----------------------
   0 C :    0.007437
   1 N :   -0.101904
   2 C :    0.003086
   3 C :   -0.016536
   4 C :   -0.052119
   5 C :   -0.028816
   6 N :   -0.086712
   7 H :    0.019698
   8 H :   -0.003084
   9 H :    0.020605
  10 H :    0.023359
  11 H :    0.023710
  12 H :   -0.002470
  13 H :    0.013703
  14 H :    0.028552
  15 H :    0.027451
  16 H :    0.019257
  17 H :    0.050554
  18 H :    0.054230

  Mayer bond orders larger than 0.1
B(  0-C ,  1-N ) :   1.0332 B(  0-C ,  7-H ) :   0.9670 B(  0-C ,  8-H ) :   0.9411
B(  0-C ,  9-H ) :   0.9620 B(  1-N ,  2-C ) :   1.0452 B(  1-N ,  3-C ) :   1.0720
B(  2-C , 10-H ) :   0.9607 B(  2-C , 11-H ) :   0.9625 B(  2-C , 12-H ) :   0.9389
B(  3-C ,  4-C ) :   0.9948 B(  3-C ,  5-C ) :   0.8797 B(  3-C , 13-H ) :   0.9310
B(  4-C ,  5-C ) :   0.9885 B(  4-C , 14-H ) :   0.9358 B(  4-C , 15-H ) :   0.9315
B(  5-C ,  6-N ) :   1.1602 B(  5-C , 16-H ) :   0.9331 B(  6-N , 17-H ) :   0.9618
B(  6-N , 18-H ) :   0.9716

FINAL SINGLE POINT ENERGY      -306.566886495314

DIPOLE MOMENT
-------------
                                X             Y             Z
Electronic contribution:      1.87511      -1.79868      -0.53083
Nuclear contribution   :     -1.69045       2.05819       0.50986
                        -----------------------------------------
Total Dipole Moment    :      0.18466       0.25951      -0.02097
                        -----------------------------------------
Magnitude (a.u.)       :      0.31919
Magnitude (Debye)      :      0.81132

                             ****ORCA TERMINATED NORMALLY****
TOTAL RUN TIME: 0 days 0 hours 0 minutes 8 seconds 421 msec
