                         Program Version 3.0.3 - RELEASE   -
|  1> ! RI PBE def2-SVP def2-SVP/J NBO PAL2
|  2> % maxcore 2000
|  3> % output
|  4>     # printlevel mini
|  5>     print[ P_Basis ] 0
|  6>     print[ P_SCFInfo ] 1
|  7>     print[ P_SCFIterInfo ] 1
|  8>     print[ P_OrbEn ] 0
|  9>     print[ P_Cartesian ] 0
| 10> end
| 11> *xyz 0 1
| 12>  C        1.2315860000    -0.8388080000     0.4523510000
| 13>  N        2.6586290000    -0.6214900000     0.3873700000
| 14>  C        3.2081240000    -0.0539760000     1.5998010000
| 15>  C        4.6943300000     0.1744040000     1.4850920000
| 16>  C        5.4699040000     0.6180670000     2.7419000000
| 17>  C        6.6316920000    -0.2901360000     2.2950520000
| 18>  C        5.6382640000    -1.0408150000     1.3878520000
| 19>  H        0.8679050000    -1.2116790000    -0.5073440000
| 20>  H        0.6508950000     0.0619030000     0.7157810000
| 21>  H        1.0121320000    -1.6008280000     1.2058030000
| 22>  H        2.8801960000    -0.0202180000    -0.3968520000
| 23>  H        3.0185140000    -0.7606870000     2.4181220000
| 24>  H        2.7126210000     0.8930100000     1.8901000000
| 25>  H        4.8992460000     0.8705450000     0.6620550000
| 26>  H        4.9907850000     0.2349380000     3.6476930000
| 27>  H        5.6680530000     1.6828160000     2.8771340000
| 28>  H        7.1567110000    -0.8607290000     3.0625460000
| 29>  H        7.3694010000     0.2643200000     1.7104550000
| 30>  H        5.2013840000    -1.9056430000     1.8942120000
| 31>  H        5.9747990000    -1.3534940000     0.3989670000
| 32> *
| 33>
| 34>                          ****END OF INPUT****
 Total Charge           Charge          ....    0
 Multiplicity           Mult            ....    1
 Number of Electrons    NEL             ....   56
 Basis Dimension        Dim             ....  163

MULLIKEN ATOMIC CHARGES
-----------------------
   0 C :    0.072928
   1 N :   -0.270136
   2 C :    0.202017
   3 C :   -0.248772
   4 C :    0.057289
   5 C :   -0.024724
   6 C :    0.077680
   7 H :    0.018289
   8 H :   -0.008721
   9 H :    0.017651
  10 H :    0.096856
  11 H :   -0.014454
  12 H :   -0.022927
  13 H :    0.005061
  14 H :   -0.000076
  15 H :    0.012363
  16 H :    0.008997
  17 H :    0.011900
  18 H :    0.000539
  19 H :    0.008239
Sum of atomic charges:   -0.0000000

LOEWDIN ATOMIC CHARGES
----------------------
   0 C :   -0.007469
   1 N :   -0.105108
   2 C :    0.009731
   3 C :   -0.044919
   4 C :   -0.029445
   5 C :   -0.035747
   6 C :   -0.026639
   7 H :    0.021680
   8 H :   -0.003273
   9 H :    0.021104
  10 H :    0.052605
  11 H :    0.015427
  12 H :   -0.004051
  13 H :    0.021168
  14 H :    0.022020
  15 H :    0.015177
  16 H :    0.015420
  17 H :    0.022657
  18 H :    0.024053
  19 H :    0.015610

  Mayer bond orders larger than 0.1
B(  0-C ,  1-N ) :   1.0678 B(  0-C ,  7-H ) :   0.9722 B(  0-C ,  8-H ) :   0.9429
B(  0-C ,  9-H ) :   0.9684 B(  1-N ,  2-C ) :   1.0507 B(  1-N , 10-H ) :   0.9466
B(  2-C ,  3-C ) :   1.0582 B(  2-C , 11-H ) :   0.9066 B(  2-C , 12-H ) :   0.9056
B(  3-C ,  4-C ) :   1.0809 B(  3-C ,  6-C ) :   1.0780 B(  3-C , 13-H ) :   0.9064
B(  4-C ,  5-C ) :   1.1214 B(  4-C , 14-H ) :   0.9160 B(  4-C , 15-H ) :   0.9333
B(  5-C ,  6-C ) :   1.1223 B(  5-C , 16-H ) :   0.9346 B(  5-C , 17-H ) :   0.9338
B(  6-C , 18-H ) :   0.9170 B(  6-C , 19-H ) :   0.9351

FINAL SINGLE POINT ENERGY      -290.564871757190

DIPOLE MOMENT
-------------
                                X             Y             Z
Electronic contribution:      1.49397       0.12301      -0.64962
Nuclear contribution   :     -1.61482       0.16552       0.55367
                        -----------------------------------------
Total Dipole Moment    :     -0.12085       0.28852      -0.09595
                        -----------------------------------------
Magnitude (a.u.)       :      0.32720
Magnitude (Debye)      :      0.83167

                             ****ORCA TERMINATED NORMALLY****
TOTAL RUN TIME: 0 days 0 hours 0 minutes 8 seconds 700 msec
