                         Program Version 3.0.3 - RELEASE   -
|  1> ! RI PBE def2-SVP def2-SVP/J NBO PAL2
|  2> % maxcore 2000
|  3> % output
|  4>     # printlevel mini
|  5>     print[ P_Basis ] 0
|  6>     print[ P_SCFInfo ] 1
|  7>     print[ P_SCFIterInfo ] 1
|  8>     print[ P_OrbEn ] 0
|  9>     print[ P_Cartesian ] 0
| 10> end
| 11> *xyz 0 1
| 12>  C        2.5046020000    -0.9223260000     0.8235820000
| 13>  N        2.2118570000     0.2179710000    -0.0120910000
| 14>  C        0.7930610000     0.3506690000    -0.2349600000
| 15>  C        2.8865710000     1.4101780000     0.4282410000
| 16>  C        2.8876370000     2.6725240000    -0.4486280000
| 17>  C        2.9744660000     3.5012480000     0.8477690000
| 18>  C        2.4053410000     2.2942440000     1.6154530000
| 19>  H        2.0918790000    -1.8279070000     0.3712410000
| 20>  H        2.0863640000    -0.8376910000     1.8426730000
| 21>  H        3.5859440000    -1.0520520000     0.9114290000
| 22>  H        0.4207580000    -0.5520180000    -0.7259700000
| 23>  H        0.5826130000     1.1934370000    -0.8945150000
| 24>  H        0.2110760000     0.4871890000     0.6933690000
| 25>  H        3.9280720000     1.1290590000     0.6178240000
| 26>  H        1.9230790000     2.8239260000    -0.9375700000
| 27>  H        3.6775300000     2.7706160000    -1.1948140000
| 28>  H        2.4169290000     4.4373310000     0.8882020000
| 29>  H        4.0112390000     3.7012050000     1.1270110000
| 30>  H        1.3143630000     2.3418830000     1.6579790000
| 31>  H        2.7896990000     2.0831160000     2.6147560000
| 32> *
| 33>
| 34>                          ****END OF INPUT****
 Total Charge           Charge          ....    0
 Multiplicity           Mult            ....    1
 Number of Electrons    NEL             ....   56
 Basis Dimension        Dim             ....  163

MULLIKEN ATOMIC CHARGES
-----------------------
   0 C :    0.105491
   1 N :   -0.291156
   2 C :    0.094635
   3 C :   -0.070279
   4 C :    0.046778
   5 C :   -0.022618
   6 C :    0.026727
   7 H :    0.012153
   8 H :   -0.010377
   9 H :    0.019490
  10 H :    0.016485
  11 H :    0.021152
  12 H :   -0.007131
  13 H :   -0.001877
  14 H :    0.005082
  15 H :    0.018251
  16 H :    0.007460
  17 H :    0.014173
  18 H :    0.006814
  19 H :    0.008746
Sum of atomic charges:    0.0000000

LOEWDIN ATOMIC CHARGES
----------------------
   0 C :    0.005306
   1 N :   -0.107108
   2 C :    0.001258
   3 C :    0.006823
   4 C :   -0.036759
   5 C :   -0.032277
   6 C :   -0.053270
   7 H :    0.019744
   8 H :   -0.001964
   9 H :    0.021621
  10 H :    0.022523
  11 H :    0.020106
  12 H :   -0.002865
  13 H :    0.022821
  14 H :    0.021607
  15 H :    0.017280
  16 H :    0.016491
  17 H :    0.023178
  18 H :    0.022855
  19 H :    0.012631

  Mayer bond orders larger than 0.1
B(  0-C ,  1-N ) :   1.0371 B(  0-C ,  7-H ) :   0.9654 B(  0-C ,  8-H ) :   0.9412
B(  0-C ,  9-H ) :   0.9643 B(  1-N ,  2-C ) :   1.0396 B(  1-N ,  3-C ) :   1.0668
B(  2-C , 10-H ) :   0.9636 B(  2-C , 11-H ) :   0.9634 B(  2-C , 12-H ) :   0.9351
B(  3-C ,  4-C ) :   1.0687 B(  3-C ,  6-C ) :   1.0445 B(  3-C , 13-H ) :   0.9090
B(  4-C ,  5-C ) :   1.0983 B(  4-C , 14-H ) :   0.9113 B(  4-C , 15-H ) :   0.9321
B(  5-C ,  6-C ) :   1.1182 B(  5-C , 16-H ) :   0.9337 B(  5-C , 17-H ) :   0.9389
B(  6-C , 18-H ) :   0.9116 B(  6-C , 19-H ) :   0.9352

FINAL SINGLE POINT ENERGY      -290.559605892820

DIPOLE MOMENT
-------------
                                X             Y             Z
Electronic contribution:      1.43251       0.51213      -1.07387
Nuclear contribution   :     -1.51214      -0.53193       1.21715
                        -----------------------------------------
Total Dipole Moment    :     -0.07963      -0.01980       0.14328
                        -----------------------------------------
Magnitude (a.u.)       :      0.16511
Magnitude (Debye)      :      0.41968

                             ****ORCA TERMINATED NORMALLY****
TOTAL RUN TIME: 0 days 0 hours 0 minutes 8 seconds 965 msec
