                         Program Version 3.0.3 - RELEASE   -
|  1> ! RI PBE def2-SVP def2-SVP/J NBO PAL2
|  2> % maxcore 2000
|  3> % output
|  4>     # printlevel mini
|  5>     print[ P_Basis ] 0
|  6>     print[ P_SCFInfo ] 1
|  7>     print[ P_SCFIterInfo ] 1
|  8>     print[ P_OrbEn ] 0
|  9>     print[ P_Cartesian ] 0
| 10> end
| 11> *xyz 0 1
| 12>  C        1.2929910000    -0.4570580000     0.2649630000
| 13>  N        2.6214480000     0.0980020000     0.1603980000
| 14>  C        3.6318640000    -0.9258470000     0.0399850000
| 15>  C        2.7369440000     1.1453090000    -0.8202030000
| 16>  C        2.5245510000     0.7870280000    -2.2729850000
| 17>  C        3.7496490000     2.2003530000    -0.4970720000
| 18>  C        2.2831250000     2.4947470000    -0.3551640000
| 19>  H        1.2335670000    -1.0976840000     1.1489770000
| 20>  H        0.9956860000    -1.0670400000    -0.6057850000
| 21>  H        0.5650600000     0.3489110000     0.3793580000
| 22>  H        3.6023940000    -1.5728740000     0.9208200000
| 23>  H        4.6201290000    -0.4639200000    -0.0099510000
| 24>  H        3.5088760000    -1.5703920000    -0.8477470000
| 25>  H        1.5209110000     0.3876860000    -2.4436290000
| 26>  H        3.2483680000     0.0401230000    -2.6107330000
| 27>  H        2.6405930000     1.6683940000    -2.9067920000
| 28>  H        4.2904270000     2.6582370000    -1.3167510000
| 29>  H        4.3165630000     2.0749010000     0.4167100000
| 30>  H        1.8168270000     3.1542170000    -1.0774050000
| 31>  H        1.8903380000     2.5615070000     0.6515280000
| 32> *
| 33>
| 34>                          ****END OF INPUT****
 Total Charge           Charge          ....    0
 Multiplicity           Mult            ....    1
 Number of Electrons    NEL             ....   56
 Basis Dimension        Dim             ....  163

MULLIKEN ATOMIC CHARGES
-----------------------
   0 C :    0.107739
   1 N :   -0.298104
   2 C :    0.114254
   3 C :   -0.243429
   4 C :    0.109628
   5 C :    0.013171
   6 C :    0.008772
   7 H :    0.016617
   8 H :   -0.007381
   9 H :    0.019139
  10 H :    0.017874
  11 H :    0.015996
  12 H :   -0.009899
  13 H :    0.016184
  14 H :    0.020411
  15 H :    0.001285
  16 H :    0.020869
  17 H :    0.028883
  18 H :    0.023875
  19 H :    0.024116
Sum of atomic charges:   -0.0000000

LOEWDIN ATOMIC CHARGES
----------------------
   0 C :    0.003433
   1 N :   -0.098379
   2 C :    0.004717
   3 C :   -0.027021
   4 C :   -0.058834
   5 C :   -0.043015
   6 C :   -0.043123
   7 H :    0.021040
   8 H :   -0.003524
   9 H :    0.022866
  10 H :    0.021038
  11 H :    0.022066
  12 H :   -0.003820
  13 H :    0.026200
  14 H :    0.026601
  15 H :    0.029006
  16 H :    0.022565
  17 H :    0.027987
  18 H :    0.023017
  19 H :    0.027180

  Mayer bond orders larger than 0.1
B(  0-C ,  1-N ) :   1.0343 B(  0-C ,  7-H ) :   0.9650 B(  0-C ,  8-H ) :   0.9399
B(  0-C ,  9-H ) :   0.9627 B(  1-N ,  2-C ) :   1.0310 B(  1-N ,  3-C ) :   1.0673
B(  2-C , 10-H ) :   0.9662 B(  2-C , 11-H ) :   0.9635 B(  2-C , 12-H ) :   0.9396
B(  3-C ,  4-C ) :   1.0598 B(  3-C ,  5-C ) :   0.9882 B(  3-C ,  6-C ) :   0.9904
B(  4-C , 13-H ) :   0.9499 B(  4-C , 14-H ) :   0.9517 B(  4-C , 15-H ) :   0.9321
B(  5-C ,  6-C ) :   1.0413 B(  5-C , 16-H ) :   0.9423 B(  5-C , 17-H ) :   0.9308
B(  6-C , 18-H ) :   0.9438 B(  6-C , 19-H ) :   0.9305

FINAL SINGLE POINT ENERGY      -290.559970987584

DIPOLE MOMENT
-------------
                                X             Y             Z
Electronic contribution:      0.54336       2.00491       1.48245
Nuclear contribution   :     -0.58557      -2.11978      -1.65461
                        -----------------------------------------
Total Dipole Moment    :     -0.04222      -0.11487      -0.17216
                        -----------------------------------------
Magnitude (a.u.)       :      0.21123
Magnitude (Debye)      :      0.53689

                             ****ORCA TERMINATED NORMALLY****
TOTAL RUN TIME: 0 days 0 hours 0 minutes 9 seconds 18 msec
