                         Program Version 3.0.3 - RELEASE   -
|  1> ! RI PBE def2-SVP def2-SVP/J NBO PAL2
|  2> % maxcore 2000
|  3> % output
|  4>     # printlevel mini
|  5>     print[ P_Basis ] 0
|  6>     print[ P_SCFInfo ] 1
|  7>     print[ P_SCFIterInfo ] 1
|  8>     print[ P_OrbEn ] 0
|  9>     print[ P_Cartesian ] 0
| 10> end
| 11> *xyz 0 1
| 12>  C        1.0019250000     1.0944230000    -2.4747500000
| 13>  N        2.4460090000     1.0916060000    -2.5133030000
| 14>  C        3.0477250000     0.5306990000    -1.3224000000
| 15>  C        4.5531830000     0.5707270000    -1.3853300000
| 16>  C        5.1733170000    -0.2320060000    -2.4986600000
| 17>  C        5.2160760000     1.8575310000    -0.9802110000
| 18>  C        5.2866300000     0.6556010000    -0.0830170000
| 19>  H        0.6068400000     1.5806860000    -3.3689440000
| 20>  H        0.5766670000     1.5998390000    -1.5905190000
| 21>  H        0.6337670000     0.0643890000    -2.4703120000
| 22>  H        2.7934440000     2.0337820000    -2.6460660000
| 23>  H        2.7137820000    -0.5115700000    -1.2365170000
| 24>  H        2.7124180000     1.0407500000    -0.3997660000
| 25>  H        4.7858120000     0.0860100000    -3.4686150000
| 26>  H        4.9472450000    -1.2964980000    -2.3814740000
| 27>  H        6.2600520000    -0.1193720000    -2.5049730000
| 28>  H        4.5892720000     2.6839360000    -0.6634560000
| 29>  H        6.1154400000     2.1552150000    -1.5060270000
| 30>  H        4.7083100000     0.6740010000     0.8335080000
| 31>  H        6.2341070000     0.1357700000    -0.0041770000
| 32> *
| 33>
| 34>                          ****END OF INPUT****
 Total Charge           Charge          ....    0
 Multiplicity           Mult            ....    1
 Number of Electrons    NEL             ....   56
 Basis Dimension        Dim             ....  163

MULLIKEN ATOMIC CHARGES
-----------------------
   0 C :    0.074922
   1 N :   -0.263008
   2 C :    0.222693
   3 C :   -0.344403
   4 C :    0.113258
   5 C :   -0.011356
   6 C :    0.001021
   7 H :    0.019872
   8 H :   -0.009839
   9 H :    0.016453
  10 H :    0.097098
  11 H :   -0.002180
  12 H :   -0.043750
  13 H :    0.017628
  14 H :    0.016000
  15 H :    0.003078
  16 H :    0.020675
  17 H :    0.025034
  18 H :    0.024681
  19 H :    0.022122
Sum of atomic charges:    0.0000000

LOEWDIN ATOMIC CHARGES
----------------------
   0 C :   -0.005933
   1 N :   -0.101124
   2 C :    0.027636
   3 C :   -0.067969
   4 C :   -0.046658
   5 C :   -0.046505
   6 C :   -0.039259
   7 H :    0.022308
   8 H :   -0.003427
   9 H :    0.020932
  10 H :    0.053297
  11 H :    0.019801
  12 H :   -0.005485
  13 H :    0.026992
  14 H :    0.027881
  15 H :    0.023772
  16 H :    0.021656
  17 H :    0.024264
  18 H :    0.023260
  19 H :    0.024561

  Mayer bond orders larger than 0.1
B(  0-C ,  1-N ) :   1.0666 B(  0-C ,  7-H ) :   0.9727 B(  0-C ,  8-H ) :   0.9431
B(  0-C ,  9-H ) :   0.9678 B(  1-N ,  2-C ) :   1.0616 B(  1-N , 10-H ) :   0.9421
B(  2-C ,  3-C ) :   1.0615 B(  2-C , 11-H ) :   0.9185 B(  2-C , 12-H ) :   0.8894
B(  3-C ,  4-C ) :   1.0766 B(  3-C ,  5-C ) :   0.9729 B(  3-C ,  6-C ) :   0.9733
B(  4-C , 13-H ) :   0.9492 B(  4-C , 14-H ) :   0.9549 B(  4-C , 15-H ) :   0.9436
B(  5-C ,  6-C ) :   1.0379 B(  5-C , 16-H ) :   0.9401 B(  5-C , 17-H ) :   0.9453
B(  6-C , 18-H ) :   0.9375 B(  6-C , 19-H ) :   0.9427

FINAL SINGLE POINT ENERGY      -290.565842356553

DIPOLE MOMENT
-------------
                                X             Y             Z
Electronic contribution:      1.16880       0.47955       0.31757
Nuclear contribution   :     -1.26215      -0.24589      -0.19000
                        -----------------------------------------
Total Dipole Moment    :     -0.09334       0.23366       0.12757
                        -----------------------------------------
Magnitude (a.u.)       :      0.28211
Magnitude (Debye)      :      0.71706

                             ****ORCA TERMINATED NORMALLY****
TOTAL RUN TIME: 0 days 0 hours 0 minutes 8 seconds 753 msec
