                         Program Version 3.0.3 - RELEASE   -
|  1> ! RI PBE def2-SVP def2-SVP/J NBO PAL2
|  2> % maxcore 2000
|  3> % output
|  4>     # printlevel mini
|  5>     print[ P_Basis ] 0
|  6>     print[ P_SCFInfo ] 1
|  7>     print[ P_SCFIterInfo ] 1
|  8>     print[ P_OrbEn ] 0
|  9>     print[ P_Cartesian ] 0
| 10> end
| 11> *xyz 0 1
| 12>  C        2.6053680000    -2.1459330000    -0.5406660000
| 13>  N        3.8602970000    -1.4311060000    -0.6106370000
| 14>  C        3.7042210000    -0.0486860000    -1.0068070000
| 15>  C        5.0118120000     0.7178520000    -1.0612610000
| 16>  C        5.9452740000     0.5499640000     0.1559270000
| 17>  C        6.8432290000    -0.3015860000    -0.7558250000
| 18>  N        6.0747230000     0.1640390000    -1.9219580000
| 19>  H        2.7894670000    -3.1963230000    -0.3066060000
| 20>  H        2.0097680000    -2.0973620000    -1.4679810000
| 21>  H        1.9919400000    -1.7313960000     0.2642700000
| 22>  H        4.4814210000    -1.9013390000    -1.2570920000
| 23>  H        3.0554040000     0.4433560000    -0.2714220000
| 24>  H        3.1933200000     0.0546380000    -1.9838640000
| 25>  H        4.7706140000     1.7555960000    -1.3205570000
| 26>  H        5.5099860000     0.0356020000     1.0108380000
| 27>  H        6.4074930000     1.4834110000     0.4761170000
| 28>  H        6.7607940000    -1.3736550000    -0.5440240000
| 29>  H        7.9027950000    -0.0328670000    -0.7934910000
| 30>  H        5.7965830000    -0.5332060000    -2.6007500000
| 31> *
| 32>
| 33>                          ****END OF INPUT****
 Total Charge           Charge          ....    0
 Multiplicity           Mult            ....    1
 Number of Electrons    NEL             ....   56
 Basis Dimension        Dim             ....  158

MULLIKEN ATOMIC CHARGES
-----------------------
   0 C :    0.066510
   1 N :   -0.272222
   2 C :    0.139250
   3 C :   -0.046396
   4 C :    0.009552
   5 C :    0.102280
   6 N :   -0.249392
   7 H :    0.023958
   8 H :   -0.004318
   9 H :    0.021201
  10 H :    0.090769
  11 H :    0.008979
  12 H :   -0.011264
  13 H :   -0.001898
  14 H :    0.015785
  15 H :    0.012341
  16 H :    0.005392
  17 H :    0.007948
  18 H :    0.081525
Sum of atomic charges:   -0.0000000

LOEWDIN ATOMIC CHARGES
----------------------
   0 C :   -0.006549
   1 N :   -0.102499
   2 C :   -0.002229
   3 C :    0.011235
   4 C :   -0.035557
   5 C :    0.024429
   6 N :   -0.109807
   7 H :    0.023378
   8 H :   -0.001335
   9 H :    0.022284
  10 H :    0.045811
  11 H :    0.024997
  12 H :   -0.000958
  13 H :    0.012547
  14 H :    0.022557
  15 H :    0.024436
  16 H :    0.002589
  17 H :    0.009086
  18 H :    0.035584

  Mayer bond orders larger than 0.1
B(  0-C ,  1-N ) :   1.0696 B(  0-C ,  7-H ) :   0.9712 B(  0-C ,  8-H ) :   0.9435
B(  0-C ,  9-H ) :   0.9683 B(  1-N ,  2-C ) :   1.0414 B(  1-N , 10-H ) :   0.9321
B(  2-C ,  3-C ) :   1.0346 B(  2-C , 11-H ) :   0.9180 B(  2-C , 12-H ) :   0.9080
B(  3-C ,  4-C ) :   1.0838 B(  3-C ,  6-N ) :   1.0932 B(  3-C , 13-H ) :   0.9044
B(  4-C ,  5-C ) :   1.1222 B(  4-C , 14-H ) :   0.9293 B(  4-C , 15-H ) :   0.9167
B(  5-C ,  6-N ) :   1.0678 B(  5-C , 16-H ) :   0.9272 B(  5-C , 17-H ) :   0.9317
B(  6-N , 18-H ) :   0.9493

FINAL SINGLE POINT ENERGY      -306.574671656925

DIPOLE MOMENT
-------------
                                X             Y             Z
Electronic contribution:      2.72598       1.78097      -1.13879
Nuclear contribution   :     -3.09154      -2.20087       1.05943
                        -----------------------------------------
Total Dipole Moment    :     -0.36556      -0.41990      -0.07936
                        -----------------------------------------
Magnitude (a.u.)       :      0.56236
Magnitude (Debye)      :      1.42940

                             ****ORCA TERMINATED NORMALLY****
TOTAL RUN TIME: 0 days 0 hours 0 minutes 8 seconds 412 msec
