                         Program Version 3.0.3 - RELEASE   -
|  1> ! RI PBE def2-SVP def2-SVP/J NBO PAL2
|  2> % maxcore 2000
|  3> % output
|  4>     # printlevel mini
|  5>     print[ P_Basis ] 0
|  6>     print[ P_SCFInfo ] 1
|  7>     print[ P_SCFIterInfo ] 1
|  8>     print[ P_OrbEn ] 0
|  9>     print[ P_Cartesian ] 0
| 10> end
| 11> *xyz 0 1
| 12>  C        0.9468900000    -0.3992580000     0.0748670000
| 13>  N        2.3603010000    -0.1863700000    -0.1400470000
| 14>  C        2.9552220000    -1.1771260000    -1.0048300000
| 15>  C        4.3695880000    -0.8484280000    -1.4425650000
| 16>  C        5.1582840000    -2.0514650000    -1.8866850000
| 17>  C        5.1027930000     0.3049450000    -0.8777760000
| 18>  N        4.5144610000     0.3824980000    -2.2138480000
| 19>  H        0.5683620000     0.3343250000     0.7894710000
| 20>  H        0.6927630000    -1.4061390000     0.4484120000
| 21>  H        0.4093100000    -0.2515230000    -0.8657170000
| 22>  H        2.8423320000    -0.1837920000     0.7499810000
| 23>  H        2.3367140000    -1.2501420000    -1.9070490000
| 24>  H        2.9573940000    -2.1851080000    -0.5499780000
| 25>  H        4.6602470000    -2.5571490000    -2.7204360000
| 26>  H        5.2664600000    -2.7780520000    -1.0768740000
| 27>  H        6.1598320000    -1.7631710000    -2.2160300000
| 28>  H        6.1817890000     0.2165250000    -0.7850780000
| 29>  H        4.6263230000     0.9500650000    -0.1487890000
| 30>  H        5.2355260000     0.2628660000    -2.9182310000
| 31> *
| 32>
| 33>                          ****END OF INPUT****
 Total Charge           Charge          ....    0
 Multiplicity           Mult            ....    1
 Number of Electrons    NEL             ....   56
 Basis Dimension        Dim             ....  158

MULLIKEN ATOMIC CHARGES
-----------------------
   0 C :    0.070144
   1 N :   -0.259484
   2 C :    0.230859
   3 C :   -0.324821
   4 C :    0.093138
   5 C :    0.066605
   6 N :   -0.170260
   7 H :    0.021100
   8 H :   -0.010609
   9 H :    0.023268
  10 H :    0.099556
  11 H :    0.001332
  12 H :   -0.027769
  13 H :    0.024616
  14 H :    0.029341
  15 H :   -0.002335
  16 H :    0.020249
  17 H :    0.020133
  18 H :    0.094940
Sum of atomic charges:   -0.0000000

LOEWDIN ATOMIC CHARGES
----------------------
   0 C :   -0.005234
   1 N :   -0.094647
   2 C :    0.017179
   3 C :   -0.044482
   4 C :   -0.058996
   5 C :   -0.001555
   6 N :   -0.090576
   7 H :    0.022621
   8 H :   -0.004127
   9 H :    0.022993
  10 H :    0.053521
  11 H :    0.026632
  12 H :   -0.003289
  13 H :    0.030129
  14 H :    0.031871
  15 H :    0.024208
  16 H :    0.010338
  17 H :    0.015947
  18 H :    0.047466

  Mayer bond orders larger than 0.1
B(  0-C ,  1-N ) :   1.0680 B(  0-C ,  7-H ) :   0.9721 B(  0-C ,  8-H ) :   0.9427
B(  0-C ,  9-H ) :   0.9685 B(  1-N ,  2-C ) :   1.0888 B(  1-N , 10-H ) :   0.9356
B(  2-C ,  3-C ) :   0.9890 B(  2-C , 11-H ) :   0.9020 B(  2-C , 12-H ) :   0.9194
B(  3-C ,  4-C ) :   1.0847 B(  3-C ,  5-C ) :   1.0657 B(  3-C ,  6-N ) :   0.9473
B(  4-C , 13-H ) :   0.9536 B(  4-C , 14-H ) :   0.9462 B(  4-C , 15-H ) :   0.9328
B(  5-C ,  6-N ) :   1.0211 B(  5-C , 16-H ) :   0.9390 B(  5-C , 17-H ) :   0.9128
B(  6-N , 18-H ) :   0.9472

FINAL SINGLE POINT ENERGY      -306.573271974890

DIPOLE MOMENT
-------------
                                X             Y             Z
Electronic contribution:      1.62626       2.78903      -1.09313
Nuclear contribution   :     -1.25085      -3.42313       1.40041
                        -----------------------------------------
Total Dipole Moment    :      0.37541      -0.63411       0.30728
                        -----------------------------------------
Magnitude (a.u.)       :      0.79840
Magnitude (Debye)      :      2.02937

                             ****ORCA TERMINATED NORMALLY****
TOTAL RUN TIME: 0 days 0 hours 0 minutes 8 seconds 306 msec
