                         Program Version 3.0.3 - RELEASE   -
|  1> ! RI PBE def2-SVP def2-SVP/J NBO PAL2
|  2> % maxcore 2000
|  3> % output
|  4>     # printlevel mini
|  5>     print[ P_Basis ] 0
|  6>     print[ P_SCFInfo ] 1
|  7>     print[ P_SCFIterInfo ] 1
|  8>     print[ P_OrbEn ] 0
|  9>     print[ P_Cartesian ] 0
| 10> end
| 11> *xyz 0 1
| 12>  C        1.2460950000     1.1001570000    -2.3008980000
| 13>  N        2.6816700000     0.9332200000    -2.2880320000
| 14>  C        3.1568900000     0.1754190000    -1.1510320000
| 15>  C        4.6511220000     0.0463970000    -1.1876380000
| 16>  C        5.5415920000     1.0313070000    -0.5248510000
| 17>  N        5.3237020000    -0.2807890000     0.0476960000
| 18>  C        6.4273230000    -1.2084210000    -0.0478440000
| 19>  H        0.9524790000     1.7222850000    -3.1487770000
| 20>  H        0.8378140000     1.5533140000    -1.3816850000
| 21>  H        0.7664170000     0.1251060000    -2.4259610000
| 22>  H        3.1360070000     1.8383210000    -2.2997760000
| 23>  H        2.7051530000    -0.8232090000    -1.1950860000
| 24>  H        2.8648810000     0.6082810000    -0.1784060000
| 25>  H        5.0455360000    -0.4074300000    -2.0965840000
| 26>  H        5.1187940000     1.8641160000     0.0298510000
| 27>  H        6.5054420000     1.2283190000    -0.9891440000
| 28>  H        7.1012700000    -1.0594640000     0.7991140000
| 29>  H        7.0089670000    -1.0950450000    -0.9768460000
| 30>  H        6.0464460000    -2.2314030000    -0.0037990000
| 31> *
| 32>
| 33>                          ****END OF INPUT****
 Total Charge           Charge          ....    0
 Multiplicity           Mult            ....    1
 Number of Electrons    NEL             ....   56
 Basis Dimension        Dim             ....  158

MULLIKEN ATOMIC CHARGES
-----------------------
   0 C :    0.073205
   1 N :   -0.280135
   2 C :    0.235792
   3 C :   -0.113797
   4 C :    0.076052
   5 N :   -0.290508
   6 C :    0.094583
   7 H :    0.021031
   8 H :   -0.007907
   9 H :    0.016428
  10 H :    0.096899
  11 H :    0.001996
  12 H :   -0.026006
  13 H :    0.011041
  14 H :    0.021786
  15 H :    0.020601
  16 H :    0.027754
  17 H :   -0.005582
  18 H :    0.026767
Sum of atomic charges:   -0.0000000

LOEWDIN ATOMIC CHARGES
----------------------
   0 C :   -0.006435
   1 N :   -0.106408
   2 C :    0.013114
   3 C :   -0.006972
   4 C :    0.000992
   5 N :   -0.107484
   6 C :    0.001758
   7 H :    0.022197
   8 H :   -0.002736
   9 H :    0.021159
  10 H :    0.053115
  11 H :    0.023077
  12 H :    0.001272
  13 H :    0.012717
  14 H :    0.017452
  15 H :    0.012525
  16 H :    0.024394
  17 H :    0.001469
  18 H :    0.024797

  Mayer bond orders larger than 0.1
B(  0-C ,  1-N ) :   1.0664 B(  0-C ,  7-H ) :   0.9730 B(  0-C ,  8-H ) :   0.9444
B(  0-C ,  9-H ) :   0.9678 B(  1-N ,  2-C ) :   1.0404 B(  1-N , 10-H ) :   0.9473
B(  2-C ,  3-C ) :   1.0404 B(  2-C , 11-H ) :   0.9153 B(  2-C , 12-H ) :   0.8987
B(  3-C ,  4-C ) :   1.0466 B(  3-C ,  5-N ) :   0.9206 B(  3-C , 13-H ) :   0.9288
B(  4-C ,  5-N ) :   0.9817 B(  4-C , 14-H ) :   0.9345 B(  4-C , 15-H ) :   0.9350
B(  5-N ,  6-C ) :   1.0218 B(  6-C , 16-H ) :   0.9716 B(  6-C , 17-H ) :   0.9373
B(  6-C , 18-H ) :   0.9716

FINAL SINGLE POINT ENERGY      -306.567727567934

DIPOLE MOMENT
-------------
                                X             Y             Z
Electronic contribution:      1.49652       0.06854       0.73914
Nuclear contribution   :     -1.31728       0.16926      -0.87568
                        -----------------------------------------
Total Dipole Moment    :      0.17925       0.23780      -0.13654
                        -----------------------------------------
Magnitude (a.u.)       :      0.32760
Magnitude (Debye)      :      0.83270

                             ****ORCA TERMINATED NORMALLY****
TOTAL RUN TIME: 0 days 0 hours 0 minutes 8 seconds 104 msec
