                         Program Version 3.0.3 - RELEASE   -
|  1> ! RI PBE def2-SVP def2-SVP/J NBO PAL2
|  2> % maxcore 2000
|  3> % output
|  4>     # printlevel mini
|  5>     print[ P_Basis ] 0
|  6>     print[ P_SCFInfo ] 1
|  7>     print[ P_SCFIterInfo ] 1
|  8>     print[ P_OrbEn ] 0
|  9>     print[ P_Cartesian ] 0
| 10> end
| 11> *xyz 0 1
| 12>  C        1.5899330000     0.9456240000     1.2990450000
| 13>  N        2.8945660000     0.4204520000     1.6323890000
| 14>  C        3.7170540000     0.1506810000     0.4727360000
| 15>  C        5.0566400000    -0.4109980000     0.8705060000
| 16>  C        6.1471050000    -0.5521520000    -0.2052210000
| 17>  N        7.1342870000    -0.0787930000     0.7774080000
| 18>  C        6.0584040000     0.4973030000     1.6025680000
| 19>  H        0.9979360000     1.0736830000     2.2073880000
| 20>  H        1.0171190000     0.3140300000     0.5988600000
| 21>  H        1.7000790000     1.9305520000     0.8363040000
| 22>  H        2.7960460000    -0.4253860000     2.1805540000
| 23>  H        3.8660870000     1.0976180000    -0.0612530000
| 24>  H        3.2289790000    -0.5348530000    -0.2468640000
| 25>  H        4.9293260000    -1.3552030000     1.4095460000
| 26>  H        5.9725460000     0.1410530000    -1.0410860000
| 27>  H        6.3439700000    -1.5484020000    -0.6106410000
| 28>  H        7.8205350000     0.5774220000     0.4285450000
| 29>  H        5.8466760000     1.5563980000     1.4018240000
| 30>  H        6.1844130000     0.3623800000     2.6792930000
| 31> *
| 32>
| 33>                          ****END OF INPUT****
 Total Charge           Charge          ....    0
 Multiplicity           Mult            ....    1
 Number of Electrons    NEL             ....   56
 Basis Dimension        Dim             ....  158

MULLIKEN ATOMIC CHARGES
-----------------------
   0 C :    0.064687
   1 N :   -0.266900
   2 C :    0.163442
   3 C :   -0.263645
   4 C :    0.184644
   5 N :   -0.281559
   6 C :    0.174948
   7 H :    0.023660
   8 H :   -0.004629
   9 H :    0.017408
  10 H :    0.099063
  11 H :   -0.008007
  12 H :   -0.010290
  13 H :    0.013170
  14 H :   -0.011466
  15 H :    0.005382
  16 H :    0.091431
  17 H :   -0.005418
  18 H :    0.014078
Sum of atomic charges:   -0.0000000

LOEWDIN ATOMIC CHARGES
----------------------
   0 C :   -0.008596
   1 N :   -0.104952
   2 C :    0.008396
   3 C :   -0.047892
   4 C :    0.031814
   5 N :   -0.116103
   6 C :    0.030169
   7 H :    0.023087
   8 H :   -0.002108
   9 H :    0.021680
  10 H :    0.053656
  11 H :    0.015235
  12 H :   -0.001327
  13 H :    0.025093
  14 H :    0.002602
  15 H :    0.008431
  16 H :    0.044259
  17 H :    0.005728
  18 H :    0.010828

  Mayer bond orders larger than 0.1
B(  0-C ,  1-N ) :   1.0694 B(  0-C ,  7-H ) :   0.9721 B(  0-C ,  8-H ) :   0.9436
B(  0-C ,  9-H ) :   0.9667 B(  1-N ,  2-C ) :   1.0445 B(  1-N , 10-H ) :   0.9440
B(  2-C ,  3-C ) :   1.0495 B(  2-C , 11-H ) :   0.9106 B(  2-C , 12-H ) :   0.9124
B(  3-C ,  4-C ) :   1.0680 B(  3-C ,  6-C ) :   1.0653 B(  3-C , 13-H ) :   0.8961
B(  4-C ,  5-N ) :   1.0536 B(  4-C , 14-H ) :   0.9214 B(  4-C , 15-H ) :   0.9337
B(  5-N ,  6-C ) :   1.0467 B(  5-N , 16-H ) :   0.9439 B(  6-C , 17-H ) :   0.9230
B(  6-C , 18-H ) :   0.9374

FINAL SINGLE POINT ENERGY      -306.573061610923

DIPOLE MOMENT
-------------
                                X             Y             Z
Electronic contribution:      4.04768      -1.16681       0.91498
Nuclear contribution   :     -4.42778       1.24197      -1.17473
                        -----------------------------------------
Total Dipole Moment    :     -0.38010       0.07515      -0.25976
                        -----------------------------------------
Magnitude (a.u.)       :      0.46647
Magnitude (Debye)      :      1.18567

                             ****ORCA TERMINATED NORMALLY****
TOTAL RUN TIME: 0 days 0 hours 0 minutes 7 seconds 961 msec
