                         Program Version 3.0.3 - RELEASE   -
|  1> ! RI PBE def2-SVP def2-SVP/J NBO PAL2
|  2> % maxcore 2000
|  3> % output
|  4>     # printlevel mini
|  5>     print[ P_Basis ] 0
|  6>     print[ P_SCFInfo ] 1
|  7>     print[ P_SCFIterInfo ] 1
|  8>     print[ P_OrbEn ] 0
|  9>     print[ P_Cartesian ] 0
| 10> end
| 11> *xyz 0 1
| 12>  C        2.2907960000    -1.2325790000     0.3593210000
| 13>  N        2.7595210000     0.1158440000     0.1409830000
| 14>  C        3.7006500000     0.5147060000     1.1592570000
| 15>  C        3.1582260000     0.3498340000    -1.2163980000
| 16>  C        3.4621650000     1.7747120000    -1.7027760000
| 17>  N        4.4620510000     1.1992940000    -2.6171630000
| 18>  C        4.5546900000    -0.0171200000    -1.7948570000
| 19>  H        1.8519850000    -1.3131540000     1.3571660000
| 20>  H        3.0896660000    -1.9917180000     0.2838450000
| 21>  H        1.5173430000    -1.4808420000    -0.3708850000
| 22>  H        3.2145120000     0.4603630000     2.1365930000
| 23>  H        4.0213650000     1.5459280000     1.0078480000
| 24>  H        4.6019410000    -0.1213760000     1.2003460000
| 25>  H        2.3897040000    -0.0836020000    -1.8606100000
| 26>  H        3.8910830000     2.3986970000    -0.9085010000
| 27>  H        2.6511050000     2.3267610000    -2.1845990000
| 28>  H        5.3191800000     1.7274960000    -2.7119100000
| 29>  H        5.3373660000     0.0221560000    -1.0253250000
| 30>  H        4.6552440000    -0.9483990000    -2.3585150000
| 31> *
| 32>
| 33>                          ****END OF INPUT****
 Total Charge           Charge          ....    0
 Multiplicity           Mult            ....    1
 Number of Electrons    NEL             ....   56
 Basis Dimension        Dim             ....  158

MULLIKEN ATOMIC CHARGES
-----------------------
   0 C :    0.104332
   1 N :   -0.294090
   2 C :    0.097977
   3 C :   -0.121678
   4 C :    0.171870
   5 N :   -0.277443
   6 C :    0.153552
   7 H :    0.016689
   8 H :   -0.007149
   9 H :    0.020018
  10 H :    0.017896
  11 H :    0.015506
  12 H :   -0.006014
  13 H :    0.014084
  14 H :   -0.007204
  15 H :    0.012969
  16 H :    0.091586
  17 H :   -0.010249
  18 H :    0.007348
Sum of atomic charges:   -0.0000000

LOEWDIN ATOMIC CHARGES
----------------------
   0 C :    0.006211
   1 N :   -0.104313
   2 C :    0.001297
   3 C :    0.002159
   4 C :    0.023028
   5 N :   -0.111966
   6 C :    0.006421
   7 H :    0.021042
   8 H :   -0.000950
   9 H :    0.022648
  10 H :    0.023078
  11 H :    0.018002
  12 H :   -0.003141
  13 H :    0.027665
  14 H :    0.002680
  15 H :    0.010682
  16 H :    0.045792
  17 H :    0.002789
  18 H :    0.006875

  Mayer bond orders larger than 0.1
B(  0-C ,  1-N ) :   1.0338 B(  0-C ,  7-H ) :   0.9661 B(  0-C ,  8-H ) :   0.9436
B(  0-C ,  9-H ) :   0.9637 B(  1-N ,  2-C ) :   1.0388 B(  1-N ,  3-C ) :   1.0681
B(  2-C , 10-H ) :   0.9627 B(  2-C , 11-H ) :   0.9618 B(  2-C , 12-H ) :   0.9355
B(  3-C ,  4-C ) :   1.0498 B(  3-C ,  6-C ) :   1.0296 B(  3-C , 13-H ) :   0.8999
B(  4-C ,  5-N ) :   1.0371 B(  4-C , 14-H ) :   0.9171 B(  4-C , 15-H ) :   0.9325
B(  5-N ,  6-C ) :   1.0481 B(  5-N , 16-H ) :   0.9417 B(  6-C , 17-H ) :   0.9160
B(  6-C , 18-H ) :   0.9356

FINAL SINGLE POINT ENERGY      -306.566768533022

DIPOLE MOMENT
-------------
                                X             Y             Z
Electronic contribution:     -0.27025       1.80561      -3.29739
Nuclear contribution   :      0.54846      -1.84613       3.72427
                        -----------------------------------------
Total Dipole Moment    :      0.27821      -0.04052       0.42688
                        -----------------------------------------
Magnitude (a.u.)       :      0.51115
Magnitude (Debye)      :      1.29923

                             ****ORCA TERMINATED NORMALLY****
TOTAL RUN TIME: 0 days 0 hours 0 minutes 7 seconds 923 msec
