                         Program Version 3.0.3 - RELEASE   -
|  1> ! RI PBE def2-SVP def2-SVP/J NBO PAL2
|  2> % maxcore 2000
|  3> % output
|  4>     # printlevel mini
|  5>     print[ P_Basis ] 0
|  6>     print[ P_SCFInfo ] 1
|  7>     print[ P_SCFIterInfo ] 1
|  8>     print[ P_OrbEn ] 0
|  9>     print[ P_Cartesian ] 0
| 10> end
| 11> *xyz 0 1
| 12>  C        2.3912840000     0.5902690000    -1.1068440000
| 13>  N        3.5705270000    -0.1249800000    -0.6776380000
| 14>  C        4.1182270000     0.3659480000     0.5673850000
| 15>  C        5.3860450000    -0.3495430000     0.9210640000
| 16>  N        6.6576400000     0.0762240000     0.3256100000
| 17>  C        6.4164040000     0.2953150000     1.7528180000
| 18>  C        7.2740860000    -0.4773480000     2.7081330000
| 19>  H        2.0541380000     0.2049540000    -2.0709220000
| 20>  H        2.5353130000     1.6802900000    -1.2016150000
| 21>  H        1.5835580000     0.4288330000    -0.3869730000
| 22>  H        4.2816950000    -0.0983940000    -1.3977180000
| 23>  H        3.3713430000     0.1997540000     1.3539420000
| 24>  H        4.3148680000     1.4566950000     0.5514810000
| 25>  H        5.2871730000    -1.4307310000     0.9822410000
| 26>  H        6.5239780000     0.9449160000    -0.1841680000
| 27>  H        6.1996000000     1.3195590000     2.0521390000
| 28>  H        7.4500220000    -1.4853730000     2.3284840000
| 29>  H        6.7971660000    -0.5533860000     3.6890480000
| 30>  H        8.2454230000     0.0065870000     2.8394350000
| 31> *
| 32>
| 33>                          ****END OF INPUT****
 Total Charge           Charge          ....    0
 Multiplicity           Mult            ....    1
 Number of Electrons    NEL             ....   56
 Basis Dimension        Dim             ....  158

MULLIKEN ATOMIC CHARGES
-----------------------
   0 C :    0.070364
   1 N :   -0.269118
   2 C :    0.192803
   3 C :   -0.092750
   4 N :   -0.172000
   5 C :   -0.125836
   6 C :    0.099255
   7 H :    0.019856
   8 H :   -0.004914
   9 H :    0.019259
  10 H :    0.100028
  11 H :    0.013033
  12 H :   -0.038431
  13 H :    0.021723
  14 H :    0.098885
  15 H :    0.011427
  16 H :    0.014167
  17 H :    0.020921
  18 H :    0.021328
Sum of atomic charges:   -0.0000000

LOEWDIN ATOMIC CHARGES
----------------------
   0 C :   -0.007617
   1 N :   -0.104265
   2 C :    0.004693
   3 C :   -0.011479
   4 N :   -0.107840
   5 C :   -0.006208
   6 C :   -0.062114
   7 H :    0.023645
   8 H :   -0.002372
   9 H :    0.021839
  10 H :    0.054402
  11 H :    0.026368
  12 H :   -0.006166
  13 H :    0.023174
  14 H :    0.048077
  15 H :    0.012326
  16 H :    0.033263
  17 H :    0.029707
  18 H :    0.030565

  Mayer bond orders larger than 0.1
B(  0-C ,  1-N ) :   1.0637 B(  0-C ,  7-H ) :   0.9712 B(  0-C ,  8-H ) :   0.9446
B(  0-C ,  9-H ) :   0.9669 B(  1-N ,  2-C ) :   1.0443 B(  1-N , 10-H ) :   0.9473
B(  2-C ,  3-C ) :   1.0601 B(  2-C , 11-H ) :   0.9178 B(  2-C , 12-H ) :   0.8857
B(  3-C ,  4-N ) :   0.9694 B(  3-C ,  5-C ) :   0.9853 B(  3-C , 13-H ) :   0.9278
B(  4-N ,  5-C ) :   1.0048 B(  4-N , 14-H ) :   0.9406 B(  5-C ,  6-C ) :   1.0828
B(  5-C , 15-H ) :   0.9344 B(  6-C , 16-H ) :   0.9410 B(  6-C , 17-H ) :   0.9591
B(  6-C , 18-H ) :   0.9502

FINAL SINGLE POINT ENERGY      -306.578223834166

DIPOLE MOMENT
-------------
                                X             Y             Z
Electronic contribution:      1.98339      -1.09516      -0.99941
Nuclear contribution   :     -2.26839       1.70794       1.06526
                        -----------------------------------------
Total Dipole Moment    :     -0.28500       0.61277       0.06585
                        -----------------------------------------
Magnitude (a.u.)       :      0.67901
Magnitude (Debye)      :      1.72590

                             ****ORCA TERMINATED NORMALLY****
TOTAL RUN TIME: 0 days 0 hours 0 minutes 8 seconds 109 msec
