                         Program Version 3.0.3 - RELEASE   -
|  1> ! RI PBE def2-SVP def2-SVP/J NBO PAL2
|  2> % maxcore 2000
|  3> % output
|  4>     # printlevel mini
|  5>     print[ P_Basis ] 0
|  6>     print[ P_SCFInfo ] 1
|  7>     print[ P_SCFIterInfo ] 1
|  8>     print[ P_OrbEn ] 0
|  9>     print[ P_Cartesian ] 0
| 10> end
| 11> *xyz 0 1
| 12>  C        1.1076010000     0.3408720000    -1.5899070000
| 13>  N        2.5320020000     0.2036570000    -1.3850180000
| 14>  C        3.2337440000     1.4695200000    -1.3283060000
| 15>  C        4.6965780000     1.2503380000    -1.0301160000
| 16>  N        5.0193310000     0.5848070000     0.2016340000
| 17>  C        5.6024100000     0.9500720000    -2.1914340000
| 18>  C        5.6781990000     2.2763860000    -1.4908060000
| 19>  H        0.6482740000    -0.6458450000    -1.6766590000
| 20>  H        0.8370530000     0.9267970000    -2.4842960000
| 21>  H        0.6599430000     0.8382550000    -0.7248410000
| 22>  H        2.9356530000    -0.3635280000    -2.1211850000
| 23>  H        2.7850450000     2.0656080000    -0.5230490000
| 24>  H        3.1263920000     2.0615410000    -2.2553410000
| 25>  H        4.4251480000    -0.2328560000     0.2937780000
| 26>  H        4.8045430000     1.1901660000     0.9868230000
| 27>  H        5.1761760000     0.9289450000    -3.1880680000
| 28>  H        6.4036700000     0.2456340000    -2.0121580000
| 29>  H        5.3031410000     3.1510160000    -2.0088920000
| 30>  H        6.5335970000     2.4505030000    -0.8507600000
| 31> *
| 32>
| 33>                          ****END OF INPUT****
 Total Charge           Charge          ....    0
 Multiplicity           Mult            ....    1
 Number of Electrons    NEL             ....   56
 Basis Dimension        Dim             ....  158

MULLIKEN ATOMIC CHARGES
-----------------------
   0 C :    0.076484
   1 N :   -0.266662
   2 C :    0.221945
   3 C :   -0.266409
   4 N :   -0.119297
   5 C :    0.000477
   6 C :    0.000607
   7 H :    0.019823
   8 H :   -0.006236
   9 H :    0.018449
  10 H :    0.098066
  11 H :   -0.007388
  12 H :   -0.040004
  13 H :    0.081980
  14 H :    0.085677
  15 H :    0.021612
  16 H :    0.030911
  17 H :    0.022547
  18 H :    0.027419
Sum of atomic charges:    0.0000000

LOEWDIN ATOMIC CHARGES
----------------------
   0 C :   -0.005940
   1 N :   -0.102935
   2 C :    0.011235
   3 C :   -0.041494
   4 N :   -0.080046
   5 C :   -0.049200
   6 C :   -0.041171
   7 H :    0.022332
   8 H :   -0.001551
   9 H :    0.021377
  10 H :    0.054417
  11 H :    0.015893
  12 H :   -0.003247
  13 H :    0.046871
  14 H :    0.051940
  15 H :    0.020237
  16 H :    0.029067
  17 H :    0.023168
  18 H :    0.029046

  Mayer bond orders larger than 0.1
B(  0-C ,  1-N ) :   1.0633 B(  0-C ,  7-H ) :   0.9718 B(  0-C ,  8-H ) :   0.9446
B(  0-C ,  9-H ) :   0.9685 B(  1-N ,  2-C ) :   1.0525 B(  1-N , 10-H ) :   0.9413
B(  2-C ,  3-C ) :   1.0287 B(  2-C , 11-H ) :   0.9179 B(  2-C , 12-H ) :   0.8836
B(  3-C ,  4-N ) :   1.1495 B(  3-C ,  5-C ) :   0.9585 B(  3-C ,  6-C ) :   0.9828
B(  4-N , 13-H ) :   0.9585 B(  4-N , 14-H ) :   0.9649 B(  5-C ,  6-C ) :   1.0552
B(  5-C , 15-H ) :   0.9418 B(  5-C , 16-H ) :   0.9343 B(  6-C , 17-H ) :   0.9383
B(  6-C , 18-H ) :   0.9349

FINAL SINGLE POINT ENERGY      -306.584937714061

DIPOLE MOMENT
-------------
                                X             Y             Z
Electronic contribution:      2.79273      -0.56460       1.29172
Nuclear contribution   :     -3.32299       0.67142      -1.49247
                        -----------------------------------------
Total Dipole Moment    :     -0.53026       0.10682      -0.20074
                        -----------------------------------------
Magnitude (a.u.)       :      0.57696
Magnitude (Debye)      :      1.46652

                             ****ORCA TERMINATED NORMALLY****
TOTAL RUN TIME: 0 days 0 hours 0 minutes 7 seconds 743 msec
