                         Program Version 3.0.3 - RELEASE   -
|  1> ! RI PBE def2-SVP def2-SVP/J NBO PAL2
|  2> % maxcore 2000
|  3> % output
|  4>     # printlevel mini
|  5>     print[ P_Basis ] 0
|  6>     print[ P_SCFInfo ] 1
|  7>     print[ P_SCFIterInfo ] 1
|  8>     print[ P_OrbEn ] 0
|  9>     print[ P_Cartesian ] 0
| 10> end
| 11> *xyz 0 1
| 12>  C        1.3647680000    -0.2534460000    -0.8520480000
| 13>  N        2.6645310000    -0.0183540000    -0.2655580000
| 14>  C        2.9197850000     1.3781120000     0.0141000000
| 15>  C        4.3099130000     1.5852610000     0.5872410000
| 16>  C        4.5996130000     3.0234600000     0.9146660000
| 17>  C        4.1687580000     3.5920970000     2.2329300000
| 18>  C        5.6244530000     3.3700870000     1.9486640000
| 19>  H        1.2533420000    -1.3115240000    -1.0976140000
| 20>  H        1.1703230000     0.3355490000    -1.7647490000
| 21>  H        0.5856090000     0.0001920000    -0.1273960000
| 22>  H        3.3870590000    -0.3762420000    -0.8785700000
| 23>  H        2.1739520000     1.7208490000     0.7408640000
| 24>  H        2.7925850000     2.0180980000    -0.8798080000
| 25>  H        5.0556590000     1.2149410000    -0.1286540000
| 26>  H        4.4149020000     0.9717120000     1.4883810000
| 27>  H        4.5384620000     3.7027980000     0.0688790000
| 28>  H        3.6847350000     2.9200550000     2.9325280000
| 29>  H        3.8020020000     4.6104900000     2.2653570000
| 30>  H        6.1185490000     2.5509160000     2.4580600000
| 31>  H        6.2521980000     4.2371490000     1.7846260000
| 32> *
| 33>
| 34>                          ****END OF INPUT****
 Total Charge           Charge          ....    0
 Multiplicity           Mult            ....    1
 Number of Electrons    NEL             ....   56
 Basis Dimension        Dim             ....  163

MULLIKEN ATOMIC CHARGES
-----------------------
   0 C :    0.072464
   1 N :   -0.264512
   2 C :    0.099939
   3 C :    0.069227
   4 C :   -0.166768
   5 C :   -0.033970
   6 C :   -0.018140
   7 H :    0.019186
   8 H :   -0.010593
   9 H :    0.017710
  10 H :    0.097041
  11 H :    0.001049
  12 H :   -0.023705
  13 H :    0.006839
  14 H :   -0.003677
  15 H :    0.018919
  16 H :    0.032003
  17 H :    0.029844
  18 H :    0.025650
  19 H :    0.031494
Sum of atomic charges:   -0.0000000

LOEWDIN ATOMIC CHARGES
----------------------
   0 C :   -0.007159
   1 N :   -0.106737
   2 C :    0.011797
   3 C :   -0.039258
   4 C :   -0.043996
   5 C :   -0.048102
   6 C :   -0.046840
   7 H :    0.021904
   8 H :   -0.003769
   9 H :    0.020889
  10 H :    0.051630
  11 H :    0.018842
  12 H :   -0.005175
  13 H :    0.023069
  14 H :    0.026156
  15 H :    0.024747
  16 H :    0.025166
  17 H :    0.025747
  18 H :    0.024818
  19 H :    0.026271

  Mayer bond orders larger than 0.1
B(  0-C ,  1-N ) :   1.0686 B(  0-C ,  7-H ) :   0.9720 B(  0-C ,  8-H ) :   0.9423
B(  0-C ,  9-H ) :   0.9681 B(  1-N ,  2-C ) :   1.0485 B(  1-N , 10-H ) :   0.9453
B(  2-C ,  3-C ) :   1.0852 B(  2-C , 11-H ) :   0.9312 B(  2-C , 12-H ) :   0.9130
B(  3-C ,  4-C ) :   1.0806 B(  3-C , 13-H ) :   0.9254 B(  3-C , 14-H ) :   0.9092
B(  4-C ,  5-C ) :   0.9988 B(  4-C ,  6-C ) :   0.9961 B(  4-C , 15-H ) :   0.9405
B(  5-C ,  6-C ) :   1.0460 B(  5-C , 16-H ) :   0.9478 B(  5-C , 17-H ) :   0.9484
B(  6-C , 18-H ) :   0.9450 B(  6-C , 19-H ) :   0.9437

FINAL SINGLE POINT ENERGY      -290.561325084770

DIPOLE MOMENT
-------------
                                X             Y             Z
Electronic contribution:      1.77893       0.41455       0.78710
Nuclear contribution   :     -1.72183      -0.33300      -1.11750
                        -----------------------------------------
Total Dipole Moment    :      0.05709       0.08155      -0.33040
                        -----------------------------------------
Magnitude (a.u.)       :      0.34507
Magnitude (Debye)      :      0.87709

                             ****ORCA TERMINATED NORMALLY****
TOTAL RUN TIME: 0 days 0 hours 0 minutes 8 seconds 191 msec
