                         Program Version 3.0.3 - RELEASE   -
|  1> ! RI PBE def2-SVP def2-SVP/J NBO PAL2
|  2> % maxcore 2000
|  3> % output
|  4>     # printlevel mini
|  5>     print[ P_Basis ] 0
|  6>     print[ P_SCFInfo ] 1
|  7>     print[ P_SCFIterInfo ] 1
|  8>     print[ P_OrbEn ] 0
|  9>     print[ P_Cartesian ] 0
| 10> end
| 11> *xyz 0 1
| 12>  C        2.7663030000    -0.7155880000     1.3971340000
| 13>  N        2.5845910000    -0.2481770000     0.0432110000
| 14>  C        1.1978800000    -0.3200910000    -0.3483330000
| 15>  C        3.1215970000     1.0797220000    -0.1720980000
| 16>  C        4.6160420000     1.1597910000    -0.0334900000
| 17>  C        5.2579670000     2.5063360000     0.0983680000
| 18>  C        5.2533880000     1.5650810000     1.2619160000
| 19>  H        2.3818480000    -1.7341700000     1.4868750000
| 20>  H        2.2384800000    -0.0866020000     2.1393780000
| 21>  H        3.8249620000    -0.7274630000     1.6560140000
| 22>  H        0.8356000000    -1.3454830000    -0.2435610000
| 23>  H        1.0887130000    -0.0266730000    -1.3950770000
| 24>  H        0.5433580000     0.3332950000     0.2589620000
| 25>  H        2.6584600000     1.8223640000     0.5110140000
| 26>  H        2.8441640000     1.3799670000    -1.1885760000
| 27>  H        5.1524960000     0.4258700000    -0.6265300000
| 28>  H        4.6042380000     3.3697940000     0.1469680000
| 29>  H        6.1927660000     2.6822910000    -0.4185980000
| 30>  H        4.5950230000     1.7953000000     2.0918050000
| 31>  H        6.1868030000     1.0951470000     1.5468090000
| 32> *
| 33>
| 34>                          ****END OF INPUT****
 Total Charge           Charge          ....    0
 Multiplicity           Mult            ....    1
 Number of Electrons    NEL             ....   56
 Basis Dimension        Dim             ....  163

MULLIKEN ATOMIC CHARGES
-----------------------
   0 C :    0.099270
   1 N :   -0.344679
   2 C :    0.109109
   3 C :    0.227495
   4 C :   -0.185652
   5 C :   -0.024945
   6 C :   -0.020279
   7 H :    0.013087
   8 H :   -0.019666
   9 H :    0.032237
  10 H :    0.016580
  11 H :    0.015874
  12 H :   -0.017762
  13 H :   -0.044048
  14 H :   -0.001017
  15 H :    0.026982
  16 H :    0.030319
  17 H :    0.030577
  18 H :    0.026050
  19 H :    0.030469
Sum of atomic charges:    0.0000000

LOEWDIN ATOMIC CHARGES
----------------------
   0 C :    0.002842
   1 N :   -0.113129
   2 C :    0.003018
   3 C :    0.025961
   4 C :   -0.052026
   5 C :   -0.043350
   6 C :   -0.047465
   7 H :    0.020822
   8 H :   -0.004844
   9 H :    0.024175
  10 H :    0.020667
  11 H :    0.020550
  12 H :   -0.004026
  13 H :   -0.005441
  14 H :    0.022398
  15 H :    0.028376
  16 H :    0.025239
  17 H :    0.027131
  18 H :    0.023021
  19 H :    0.026082

  Mayer bond orders larger than 0.1
B(  0-C ,  1-N ) :   1.0346 B(  0-C ,  7-H ) :   0.9649 B(  0-C ,  8-H ) :   0.9321
B(  0-C ,  9-H ) :   0.9653 B(  1-N ,  2-C ) :   1.0367 B(  1-N ,  3-C ) :   1.0308
B(  2-C , 10-H ) :   0.9671 B(  2-C , 11-H ) :   0.9648 B(  2-C , 12-H ) :   0.9344
B(  3-C ,  4-C ) :   1.0729 B(  3-C , 13-H ) :   0.8885 B(  3-C , 14-H ) :   0.9258
B(  4-C ,  5-C ) :   0.9791 B(  4-C ,  6-C ) :   0.9891 B(  4-C , 15-H ) :   0.9438
B(  5-C ,  6-C ) :   1.0452 B(  5-C , 16-H ) :   0.9471 B(  5-C , 17-H ) :   0.9451
B(  6-C , 18-H ) :   0.9430 B(  6-C , 19-H ) :   0.9494

FINAL SINGLE POINT ENERGY      -290.555511033697

DIPOLE MOMENT
-------------
                                X             Y             Z
Electronic contribution:      2.08781       0.11034      -1.47064
Nuclear contribution   :     -2.13606      -0.05490       1.52649
                        -----------------------------------------
Total Dipole Moment    :     -0.04825       0.05545       0.05585
                        -----------------------------------------
Magnitude (a.u.)       :      0.09231
Magnitude (Debye)      :      0.23464

                             ****ORCA TERMINATED NORMALLY****
TOTAL RUN TIME: 0 days 0 hours 0 minutes 8 seconds 845 msec
