                         Program Version 3.0.3 - RELEASE   -
|  1> ! RI PBE def2-SVP def2-SVP/J NBO PAL2
|  2> % maxcore 2000
|  3> % output
|  4>     # printlevel mini
|  5>     print[ P_Basis ] 0
|  6>     print[ P_SCFInfo ] 1
|  7>     print[ P_SCFIterInfo ] 1
|  8>     print[ P_OrbEn ] 0
|  9>     print[ P_Cartesian ] 0
| 10> end
| 11> *xyz 0 1
| 12>  C        1.1493380000    -0.7421530000     0.2321590000
| 13>  N        2.5316890000    -0.7097520000     0.6561530000
| 14>  C        3.0779830000     0.6226190000     0.8583580000
| 15>  C        2.4802960000     1.2739910000     2.0957710000
| 16>  C        4.5753930000     0.5199230000     0.9713780000
| 17>  C        5.4115730000     0.4429310000    -0.2711050000
| 18>  C        5.4368410000     1.6768220000     0.5818890000
| 19>  H        0.8757190000    -1.7643940000    -0.0359550000
| 20>  H        0.9333600000    -0.0905700000    -0.6323180000
| 21>  H        0.4903990000    -0.4367070000     1.0480110000
| 22>  H        3.1076260000    -1.1879130000    -0.0252770000
| 23>  H        2.8578190000     1.2759230000    -0.0104430000
| 24>  H        2.6706360000     0.6527520000     2.9745310000
| 25>  H        1.4009430000     1.4096190000     2.0027790000
| 26>  H        2.9267300000     2.2572720000     2.2582660000
| 27>  H        4.9122600000    -0.0744210000     1.8158530000
| 28>  H        4.9008720000     0.5091360000    -1.2256650000
| 29>  H        6.2829710000    -0.1998960000    -0.2723920000
| 30>  H        4.9451870000     2.5623250000     0.1957190000
| 31>  H        6.3251670000     1.8782950000     1.1671960000
| 32> *
| 33>
| 34>                          ****END OF INPUT****
 Total Charge           Charge          ....    0
 Multiplicity           Mult            ....    1
 Number of Electrons    NEL             ....   56
 Basis Dimension        Dim             ....  163

MULLIKEN ATOMIC CHARGES
-----------------------
   0 C :    0.067681
   1 N :   -0.233481
   2 C :    0.044765
   3 C :    0.053293
   4 C :   -0.147539
   5 C :   -0.038668
   6 C :   -0.015806
   7 H :    0.017416
   8 H :   -0.009994
   9 H :    0.023690
  10 H :    0.097035
  11 H :   -0.040455
  12 H :    0.013856
  13 H :    0.015927
  14 H :    0.007808
  15 H :    0.019729
  16 H :    0.030016
  17 H :    0.035607
  18 H :    0.028802
  19 H :    0.030318
Sum of atomic charges:   -0.0000000

LOEWDIN ATOMIC CHARGES
----------------------
   0 C :   -0.007617
   1 N :   -0.099416
   2 C :    0.009172
   3 C :   -0.062010
   4 C :   -0.043930
   5 C :   -0.052580
   6 C :   -0.042255
   7 H :    0.023261
   8 H :   -0.002989
   9 H :    0.019331
  10 H :    0.053375
  11 H :   -0.002951
  12 H :    0.026738
  13 H :    0.023163
  14 H :    0.027344
  15 H :    0.027415
  16 H :    0.024604
  17 H :    0.027393
  18 H :    0.024828
  19 H :    0.027124

  Mayer bond orders larger than 0.1
B(  0-C ,  1-N ) :   1.0635 B(  0-C ,  7-H ) :   0.9706 B(  0-C ,  8-H ) :   0.9408
B(  0-C ,  9-H ) :   0.9668 B(  1-N ,  2-C ) :   1.0392 B(  1-N , 10-H ) :   0.9390
B(  2-C ,  3-C ) :   1.0778 B(  2-C ,  4-C ) :   1.0502 B(  2-C , 11-H ) :   0.8815
B(  3-C , 12-H ) :   0.9511 B(  3-C , 13-H ) :   0.9509 B(  3-C , 14-H ) :   0.9529
B(  4-C ,  5-C ) :   0.9812 B(  4-C ,  6-C ) :   0.9861 B(  4-C , 15-H ) :   0.9415
B(  5-C ,  6-C ) :   1.0580 B(  5-C , 16-H ) :   0.9407 B(  5-C , 17-H ) :   0.9453
B(  6-C , 18-H ) :   0.9407 B(  6-C , 19-H ) :   0.9454

FINAL SINGLE POINT ENERGY      -290.564165093211

DIPOLE MOMENT
-------------
                                X             Y             Z
Electronic contribution:      2.40794      -1.08836      -0.09569
Nuclear contribution   :     -2.34548       1.14185      -0.19086
                        -----------------------------------------
Total Dipole Moment    :      0.06246       0.05349      -0.28655
                        -----------------------------------------
Magnitude (a.u.)       :      0.29812
Magnitude (Debye)      :      0.75776

                             ****ORCA TERMINATED NORMALLY****
TOTAL RUN TIME: 0 days 0 hours 0 minutes 8 seconds 805 msec
