                         Program Version 3.0.3 - RELEASE   -
|  1> ! RI PBE def2-SVP def2-SVP/J NBO PAL2
|  2> % maxcore 2000
|  3> % output
|  4>     # printlevel mini
|  5>     print[ P_Basis ] 0
|  6>     print[ P_SCFInfo ] 1
|  7>     print[ P_SCFIterInfo ] 1
|  8>     print[ P_OrbEn ] 0
|  9>     print[ P_Cartesian ] 0
| 10> end
| 11> *xyz 0 1
| 12>  C        2.2441940000     0.4637180000    -0.9029890000
| 13>  N        2.9453990000    -0.1540270000     0.2001590000
| 14>  C        3.3756360000     0.7949120000     1.2036650000
| 15>  C        4.1263230000     0.1049920000     2.3289200000
| 16>  C        4.5904280000     1.0587270000     3.3918560000
| 17>  C        3.7372690000     1.3467290000     4.5602550000
| 18>  N        4.9643110000     0.5658100000     4.7122950000
| 19>  H        1.9993460000    -0.2889820000    -1.6549160000
| 20>  H        2.8073760000     1.2743520000    -1.3957040000
| 21>  H        1.3026800000     0.8896680000    -0.5446190000
| 22>  H        3.7483930000    -0.6644640000    -0.1471600000
| 23>  H        2.4836790000     1.2855340000     1.6102300000
| 24>  H        4.0045970000     1.6014840000     0.7822820000
| 25>  H        4.9949850000    -0.4228900000     1.9133860000
| 26>  H        3.4771900000    -0.6574950000     2.7739490000
| 27>  H        5.2428080000     1.8549890000     3.0397670000
| 28>  H        2.7833240000     0.8302340000     4.6196400000
| 29>  H        3.7551190000     2.3251440000     5.0279480000
| 30>  H        4.7375530000    -0.4210250000     4.7855460000
| 31> *
| 32>
| 33>                          ****END OF INPUT****
 Total Charge           Charge          ....    0
 Multiplicity           Mult            ....    1
 Number of Electrons    NEL             ....   56
 Basis Dimension        Dim             ....  158

MULLIKEN ATOMIC CHARGES
-----------------------
   0 C :    0.070578
   1 N :   -0.267312
   2 C :    0.095211
   3 C :    0.077928
   4 C :   -0.138363
   5 C :    0.038672
   6 N :   -0.184833
   7 H :    0.022314
   8 H :   -0.007588
   9 H :    0.018102
  10 H :    0.098684
  11 H :   -0.000851
  12 H :   -0.011870
  13 H :    0.010831
  14 H :   -0.006831
  15 H :    0.024438
  16 H :    0.023631
  17 H :    0.034066
  18 H :    0.103192
Sum of atomic charges:    0.0000000

LOEWDIN ATOMIC CHARGES
----------------------
   0 C :   -0.006755
   1 N :   -0.107038
   2 C :    0.012867
   3 C :   -0.050965
   4 C :   -0.010448
   5 C :   -0.001240
   6 N :   -0.102627
   7 H :    0.023002
   8 H :   -0.002723
   9 H :    0.021517
  10 H :    0.052623
  11 H :    0.019266
  12 H :   -0.002258
  13 H :    0.025425
  14 H :    0.024644
  15 H :    0.020674
  16 H :    0.013369
  17 H :    0.020327
  18 H :    0.050340

  Mayer bond orders larger than 0.1
B(  0-C ,  1-N ) :   1.0669 B(  0-C ,  7-H ) :   0.9720 B(  0-C ,  8-H ) :   0.9434
B(  0-C ,  9-H ) :   0.9677 B(  1-N ,  2-C ) :   1.0461 B(  1-N , 10-H ) :   0.9450
B(  2-C ,  3-C ) :   1.0790 B(  2-C , 11-H ) :   0.9270 B(  2-C , 12-H ) :   0.9182
B(  3-C ,  4-C ) :   1.0607 B(  3-C , 13-H ) :   0.9193 B(  3-C , 14-H ) :   0.9041
B(  4-C ,  5-C ) :   1.0545 B(  4-C ,  6-N ) :   0.9911 B(  4-C , 15-H ) :   0.9305
B(  5-C ,  6-N ) :   1.0203 B(  5-C , 16-H ) :   0.9397 B(  5-C , 17-H ) :   0.9416
B(  6-N , 18-H ) :   0.9492

FINAL SINGLE POINT ENERGY      -306.571160765957

DIPOLE MOMENT
-------------
                                X             Y             Z
Electronic contribution:      2.50533      -0.66096       4.28917
Nuclear contribution   :     -2.75080       0.53383      -4.84968
                        -----------------------------------------
Total Dipole Moment    :     -0.24547      -0.12713      -0.56051
                        -----------------------------------------
Magnitude (a.u.)       :      0.62497
Magnitude (Debye)      :      1.58855

                             ****ORCA TERMINATED NORMALLY****
TOTAL RUN TIME: 0 days 0 hours 0 minutes 8 seconds 85 msec
