                         Program Version 3.0.3 - RELEASE   -
|  1> ! RI PBE def2-SVP def2-SVP/J NBO PAL2
|  2> % maxcore 2000
|  3> % output
|  4>     # printlevel mini
|  5>     print[ P_Basis ] 0
|  6>     print[ P_SCFInfo ] 1
|  7>     print[ P_SCFIterInfo ] 1
|  8>     print[ P_OrbEn ] 0
|  9>     print[ P_Cartesian ] 0
| 10> end
| 11> *xyz 0 1
| 12>  C        3.8838560000    -1.7060870000     0.0448170000
| 13>  N        3.9843570000    -0.5004430000    -0.7448720000
| 14>  C        2.9530030000    -0.4584860000    -1.7544840000
| 15>  C        3.9574620000     0.7013370000     0.0662030000
| 16>  C        5.1139200000     0.8264950000     1.0185250000
| 17>  C        6.4084400000     1.3265410000     0.5273560000
| 18>  N        5.5819160000     2.1548090000     1.4038730000
| 19>  H        3.9107880000    -2.5758670000    -0.6149430000
| 20>  H        2.9491080000    -1.7549540000     0.6345500000
| 21>  H        4.7265440000    -1.7864090000     0.7325550000
| 22>  H        3.0253250000    -1.3414530000    -2.3933440000
| 23>  H        3.0809080000     0.4259600000    -2.3831690000
| 24>  H        1.9326460000    -0.4297960000    -1.3285090000
| 25>  H        3.0085570000     0.7790770000     0.6348010000
| 26>  H        3.9859060000     1.5594750000    -0.6158300000
| 27>  H        5.1202490000     0.1286360000     1.8507830000
| 28>  H        6.4707250000     1.5800250000    -0.5265810000
| 29>  H        7.3344900000     0.9745910000     0.9682940000
| 30>  H        5.1008100000     2.8642680000     0.8597870000
| 31> *
| 32>
| 33>                          ****END OF INPUT****
 Total Charge           Charge          ....    0
 Multiplicity           Mult            ....    1
 Number of Electrons    NEL             ....   56
 Basis Dimension        Dim             ....  158

MULLIKEN ATOMIC CHARGES
-----------------------
   0 C :    0.091587
   1 N :   -0.346218
   2 C :    0.100448
   3 C :    0.207395
   4 C :   -0.135006
   5 C :    0.048678
   6 N :   -0.187461
   7 H :    0.019547
   8 H :   -0.014332
   9 H :    0.034752
  10 H :    0.022067
  11 H :    0.019480
  12 H :   -0.013637
  13 H :   -0.016765
  14 H :   -0.026818
  15 H :    0.036547
  16 H :    0.027505
  17 H :    0.031309
  18 H :    0.100923
Sum of atomic charges:    0.0000000

LOEWDIN ATOMIC CHARGES
----------------------
   0 C :    0.002048
   1 N :   -0.114748
   2 C :    0.001805
   3 C :    0.012190
   4 C :   -0.016033
   5 C :    0.003993
   6 N :   -0.098471
   7 H :    0.023937
   8 H :   -0.002551
   9 H :    0.023414
  10 H :    0.022750
  11 H :    0.021228
  12 H :   -0.003088
  13 H :   -0.000381
  14 H :    0.017460
  15 H :    0.021415
  16 H :    0.015581
  17 H :    0.020835
  18 H :    0.048614

  Mayer bond orders larger than 0.1
B(  0-C ,  1-N ) :   1.0299 B(  0-C ,  7-H ) :   0.9655 B(  0-C ,  8-H ) :   0.9341
B(  0-C ,  9-H ) :   0.9654 B(  1-N ,  2-C ) :   1.0350 B(  1-N ,  3-C ) :   1.0192
B(  2-C , 10-H ) :   0.9674 B(  2-C , 11-H ) :   0.9659 B(  2-C , 12-H ) :   0.9354
B(  3-C ,  4-C ) :   1.0571 B(  3-C , 13-H ) :   0.9011 B(  3-C , 14-H ) :   0.9045
B(  4-C ,  5-C ) :   1.0542 B(  4-C ,  6-N ) :   0.9986 B(  4-C , 15-H ) :   0.9237
B(  5-C ,  6-N ) :   1.0126 B(  5-C , 16-H ) :   0.9394 B(  5-C , 17-H ) :   0.9426
B(  6-N , 18-H ) :   0.9484

FINAL SINGLE POINT ENERGY      -306.562938291661

DIPOLE MOMENT
-------------
                                X             Y             Z
Electronic contribution:      3.07233       2.98525       2.16984
Nuclear contribution   :     -3.40777      -3.18075      -2.70233
                        -----------------------------------------
Total Dipole Moment    :     -0.33543      -0.19550      -0.53249
                        -----------------------------------------
Magnitude (a.u.)       :      0.65900
Magnitude (Debye)      :      1.67505

                             ****ORCA TERMINATED NORMALLY****
TOTAL RUN TIME: 0 days 0 hours 0 minutes 8 seconds 325 msec
