                         Program Version 3.0.3 - RELEASE   -
|  1> ! RI PBE def2-SVP def2-SVP/J NBO PAL2
|  2> % maxcore 2000
|  3> % output
|  4>     # printlevel mini
|  5>     print[ P_Basis ] 0
|  6>     print[ P_SCFInfo ] 1
|  7>     print[ P_SCFIterInfo ] 1
|  8>     print[ P_OrbEn ] 0
|  9>     print[ P_Cartesian ] 0
| 10> end
| 11> *xyz 0 1
| 12>  C        1.4593610000    -0.5158510000     0.5695480000
| 13>  N        2.8799380000    -0.2472870000     0.6850740000
| 14>  C        3.2870420000     1.0953060000     0.2981770000
| 15>  C        2.4755470000     2.1615260000     1.0173140000
| 16>  C        4.7595310000     1.3166400000     0.5951850000
| 17>  C        5.3408680000     0.9689680000     1.9026160000
| 18>  N        5.7318920000     0.2361970000     0.6958680000
| 19>  H        1.2879630000    -1.5841610000     0.7130090000
| 20>  H        1.0287730000    -0.2274920000    -0.4035310000
| 21>  H        0.9052720000     0.0091290000     1.3491050000
| 22>  H        3.3642200000    -0.9045700000     0.0861190000
| 23>  H        3.1440010000     1.2465050000    -0.7881390000
| 24>  H        2.5072440000     1.9992550000     2.0974970000
| 25>  H        1.4327640000     2.1736120000     0.6952580000
| 26>  H        2.8956770000     3.1478400000     0.8090150000
| 27>  H        5.1590120000     2.1924370000     0.0891100000
| 28>  H        4.6919540000     0.4578170000     2.6060650000
| 29>  H        6.1156080000     1.5897510000     2.3393390000
| 30>  H        5.2591230000    -0.6615210000     0.7114910000
| 31> *
| 32>
| 33>                          ****END OF INPUT****
 Total Charge           Charge          ....    0
 Multiplicity           Mult            ....    1
 Number of Electrons    NEL             ....   56
 Basis Dimension        Dim             ....  158

MULLIKEN ATOMIC CHARGES
-----------------------
   0 C :    0.055752
   1 N :   -0.266305
   2 C :    0.058125
   3 C :    0.014282
   4 C :   -0.101824
   5 C :    0.040157
   6 N :   -0.190320
   7 H :    0.023204
   8 H :   -0.000700
   9 H :    0.032407
  10 H :    0.105224
  11 H :   -0.007861
  12 H :    0.026821
  13 H :    0.021929
  14 H :    0.019621
  15 H :    0.016482
  16 H :    0.030717
  17 H :    0.030669
  18 H :    0.091618
Sum of atomic charges:   -0.0000000

LOEWDIN ATOMIC CHARGES
----------------------
   0 C :   -0.004558
   1 N :   -0.099696
   2 C :   -0.001707
   3 C :   -0.061028
   4 C :   -0.015194
   5 C :   -0.000804
   6 N :   -0.102225
   7 H :    0.025216
   8 H :    0.001120
   9 H :    0.022718
  10 H :    0.050842
  11 H :    0.005794
  12 H :    0.029102
  13 H :    0.023872
  14 H :    0.032484
  15 H :    0.021220
  16 H :    0.012734
  17 H :    0.017447
  18 H :    0.042663

  Mayer bond orders larger than 0.1
B(  0-C ,  1-N ) :   1.0672 B(  0-C ,  7-H ) :   0.9699 B(  0-C ,  8-H ) :   0.9442
B(  0-C ,  9-H ) :   0.9657 B(  1-N ,  2-C ) :   1.0146 B(  1-N , 10-H ) :   0.9267
B(  2-C ,  3-C ) :   1.0827 B(  2-C ,  4-C ) :   1.0024 B(  2-C , 11-H ) :   0.9003
B(  3-C , 12-H ) :   0.9514 B(  3-C , 13-H ) :   0.9493 B(  3-C , 14-H ) :   0.9556
B(  4-C ,  5-C ) :   1.0366 B(  4-C ,  6-N ) :   1.0246 B(  4-C , 15-H ) :   0.9321
B(  5-C ,  6-N ) :   0.9988 B(  5-C , 16-H ) :   0.9396 B(  5-C , 17-H ) :   0.9415
B(  6-N , 18-H ) :   0.9416

FINAL SINGLE POINT ENERGY      -306.571427452539

DIPOLE MOMENT
-------------
                                X             Y             Z
Electronic contribution:      4.96162      -1.10233      -0.52880
Nuclear contribution   :     -5.76205       1.00964       0.40758
                        -----------------------------------------
Total Dipole Moment    :     -0.80042      -0.09269      -0.12122
                        -----------------------------------------
Magnitude (a.u.)       :      0.81484
Magnitude (Debye)      :      2.07116

                             ****ORCA TERMINATED NORMALLY****
TOTAL RUN TIME: 0 days 0 hours 0 minutes 8 seconds 457 msec
