                         Program Version 3.0.3 - RELEASE   -
|  1> ! RI PBE def2-SVP def2-SVP/J NBO PAL2
|  2> % maxcore 2000
|  3> % output
|  4>     # printlevel mini
|  5>     print[ P_Basis ] 0
|  6>     print[ P_SCFInfo ] 1
|  7>     print[ P_SCFIterInfo ] 1
|  8>     print[ P_OrbEn ] 0
|  9>     print[ P_Cartesian ] 0
| 10> end
| 11> *xyz 0 1
| 12>  C        2.9086580000     1.3459940000    -0.1263570000
| 13>  N        2.4667720000    -0.0214100000     0.0276880000
| 14>  C        1.0345740000    -0.0497780000     0.2194990000
| 15>  C        2.9866490000    -0.9691350000    -0.9799470000
| 16>  C        2.5591700000    -2.3852580000    -0.5939320000
| 17>  C        2.4996650000    -0.6679090000    -2.4028410000
| 18>  C        4.5146870000    -0.9288500000    -0.9548450000
| 19>  H        2.5689880000     1.9229980000     0.7373550000
| 20>  H        2.5128230000     1.8465630000    -1.0277130000
| 21>  H        3.9956690000     1.4097370000    -0.1507240000
| 22>  H        0.7821770000     0.5921660000     1.0671510000
| 23>  H        0.6877700000    -1.0539190000     0.4596600000
| 24>  H        0.4583250000     0.3164800000    -0.6485390000
| 25>  H        1.4896760000    -2.5512080000    -0.7343940000
| 26>  H        2.8078570000    -2.5854340000     0.4509380000
| 27>  H        3.0820390000    -3.1118170000    -1.2192130000
| 28>  H        1.4107490000    -0.7219110000    -2.4749140000
| 29>  H        2.9113670000    -1.3952970000    -3.1069560000
| 30>  H        2.8154900000     0.3241970000    -2.7342400000
| 31>  H        4.8807460000    -1.0416510000     0.0683590000
| 32>  H        4.9144850000    -0.0004950000    -1.3664330000
| 33>  H        4.9152650000    -1.7464630000    -1.5575920000
| 34> *
| 35>
| 36>                          ****END OF INPUT****
 Total Charge           Charge          ....    0
 Multiplicity           Mult            ....    1
 Number of Electrons    NEL             ....   58
 Basis Dimension        Dim             ....  173

MULLIKEN ATOMIC CHARGES
-----------------------
   0 C :    0.092421
   1 N :   -0.303463
   2 C :    0.098118
   3 C :   -0.245849
   4 C :    0.059496
   5 C :    0.061299
   6 C :    0.067813
   7 H :    0.016571
   8 H :   -0.011224
   9 H :    0.022404
  10 H :    0.012988
  11 H :    0.018578
  12 H :   -0.008063
  13 H :    0.018379
  14 H :    0.016922
  15 H :    0.007874
  16 H :    0.018554
  17 H :    0.008133
  18 H :    0.009267
  19 H :    0.017288
  20 H :    0.015844
  21 H :    0.006650
Sum of atomic charges:   -0.0000000

LOEWDIN ATOMIC CHARGES
----------------------
   0 C :   -0.000127
   1 N :   -0.110052
   2 C :    0.001041
   3 C :   -0.015291
   4 C :   -0.054885
   5 C :   -0.064149
   6 C :   -0.052717
   7 H :    0.022660
   8 H :   -0.004922
   9 H :    0.020830
  10 H :    0.021616
  11 H :    0.020587
  12 H :   -0.003998
  13 H :    0.021172
  14 H :    0.026944
  15 H :    0.026282
  16 H :    0.023335
  17 H :    0.026550
  18 H :    0.021992
  19 H :    0.026530
  20 H :    0.020803
  21 H :    0.025798

  Mayer bond orders larger than 0.1
B(  0-C ,  1-N ) :   1.0436 B(  0-C ,  7-H ) :   0.9627 B(  0-C ,  8-H ) :   0.9332
B(  0-C ,  9-H ) :   0.9621 B(  1-N ,  2-C ) :   1.0424 B(  1-N ,  3-C ) :   1.0079
B(  2-C , 10-H ) :   0.9630 B(  2-C , 11-H ) :   0.9624 B(  2-C , 12-H ) :   0.9354
B(  3-C ,  4-C ) :   1.0561 B(  3-C ,  5-C ) :   1.0376 B(  3-C ,  6-C ) :   1.0573
B(  4-C , 13-H ) :   0.9518 B(  4-C , 14-H ) :   0.9505 B(  4-C , 15-H ) :   0.9514
B(  5-C , 16-H ) :   0.9519 B(  5-C , 17-H ) :   0.9515 B(  5-C , 18-H ) :   0.9473
B(  6-C , 19-H ) :   0.9536 B(  6-C , 20-H ) :   0.9496 B(  6-C , 21-H ) :   0.9521

FINAL SINGLE POINT ENERGY      -291.777982460527

DIPOLE MOMENT
-------------
                                X             Y             Z
Electronic contribution:      0.22135       0.09387       1.57210
Nuclear contribution   :     -0.26649      -0.07182      -1.73345
                        -----------------------------------------
Total Dipole Moment    :     -0.04515       0.02205      -0.16135
                        -----------------------------------------
Magnitude (a.u.)       :      0.16899
Magnitude (Debye)      :      0.42955

                             ****ORCA TERMINATED NORMALLY****
TOTAL RUN TIME: 0 days 0 hours 0 minutes 10 seconds 15 msec
