                         Program Version 3.0.3 - RELEASE   -
|  1> ! RI PBE def2-SVP def2-SVP/J NBO PAL2
|  2> % maxcore 2000
|  3> % output
|  4>     # printlevel mini
|  5>     print[ P_Basis ] 0
|  6>     print[ P_SCFInfo ] 1
|  7>     print[ P_SCFIterInfo ] 1
|  8>     print[ P_OrbEn ] 0
|  9>     print[ P_Cartesian ] 0
| 10> end
| 11> *xyz 0 1
| 12>  C        1.7208150000     0.5688690000    -0.3622440000
| 13>  N        3.1586040000     0.5780960000    -0.4799030000
| 14>  C        3.6905110000     1.9084250000    -0.2976410000
| 15>  C        3.7732100000    -0.3787040000     0.4210960000
| 16>  C        5.2249690000    -0.6278300000     0.1183290000
| 17>  C        5.5402370000    -1.0632420000    -1.2763330000
| 18>  C        6.1550530000    -0.4936320000     1.0581810000
| 19>  H        1.2849160000     1.2531120000    -1.0940350000
| 20>  H        1.3679580000     0.8765050000     0.6398020000
| 21>  H        1.3353960000    -0.4332840000    -0.5636940000
| 22>  H        3.2636050000     2.5827080000    -1.0435210000
| 23>  H        4.7749840000     1.9012090000    -0.4214740000
| 24>  H        3.4684720000     2.3206100000     0.7043840000
| 25>  H        3.2306110000    -1.3254330000     0.3059750000
| 26>  H        3.6649840000    -0.0734930000     1.4785450000
| 27>  H        5.0156500000    -1.9942350000    -1.5170750000
| 28>  H        6.6103030000    -1.2227020000    -1.4144230000
| 29>  H        5.1920560000    -0.3205030000    -1.9986250000
| 30>  H        5.9000950000    -0.1708240000     2.0620980000
| 31>  H        7.1992410000    -0.7087720000     0.8579470000
| 32> *
| 33>
| 34>                          ****END OF INPUT****
 Total Charge           Charge          ....    0
 Multiplicity           Mult            ....    1
 Number of Electrons    NEL             ....   56
 Basis Dimension        Dim             ....  163

MULLIKEN ATOMIC CHARGES
-----------------------
   0 C :    0.107590
   1 N :   -0.348199
   2 C :    0.092824
   3 C :    0.183113
   4 C :   -0.225901
   5 C :    0.090257
   6 C :   -0.020013
   7 H :    0.018873
   8 H :   -0.016798
   9 H :    0.016455
  10 H :    0.021296
  11 H :    0.034070
  12 H :   -0.014014
  13 H :    0.012072
  14 H :   -0.027325
  15 H :    0.016889
  16 H :    0.011217
  17 H :    0.032318
  18 H :    0.006620
  19 H :    0.008656
Sum of atomic charges:   -0.0000000

LOEWDIN ATOMIC CHARGES
----------------------
   0 C :    0.003498
   1 N :   -0.111094
   2 C :    0.001102
   3 C :    0.024536
   4 C :   -0.038771
   5 C :   -0.055882
   6 C :   -0.075034
   7 H :    0.021700
   8 H :   -0.003431
   9 H :    0.020641
  10 H :    0.021650
  11 H :    0.024485
  12 H :   -0.002103
  13 H :    0.028485
  14 H :    0.000651
  15 H :    0.035882
  16 H :    0.028329
  17 H :    0.036725
  18 H :    0.018860
  19 H :    0.019771

  Mayer bond orders larger than 0.1
B(  0-C ,  1-N ) :   1.0415 B(  0-C ,  7-H ) :   0.9672 B(  0-C ,  8-H ) :   0.9365
B(  0-C ,  9-H ) :   0.9665 B(  1-N ,  2-C ) :   1.0286 B(  1-N ,  3-C ) :   1.0309
B(  2-C , 10-H ) :   0.9674 B(  2-C , 11-H ) :   0.9623 B(  2-C , 12-H ) :   0.9352
B(  3-C ,  4-C ) :   1.0488 B(  3-C , 13-H ) :   0.9145 B(  3-C , 14-H ) :   0.8992
B(  4-C ,  5-C ) :   1.0837 B(  4-C ,  6-C ) :   1.9749 B(  5-C , 15-H ) :   0.9381
B(  5-C , 16-H ) :   0.9496 B(  5-C , 17-H ) :   0.9349 B(  6-C , 18-H ) :   0.9289
B(  6-C , 19-H ) :   0.9321

FINAL SINGLE POINT ENERGY      -290.564450791632

DIPOLE MOMENT
-------------
                                X             Y             Z
Electronic contribution:      1.22711      -1.28123       0.28403
Nuclear contribution   :     -1.41398       1.32015      -0.30692
                        -----------------------------------------
Total Dipole Moment    :     -0.18687       0.03892      -0.02289
                        -----------------------------------------
Magnitude (a.u.)       :      0.19225
Magnitude (Debye)      :      0.48866

                             ****ORCA TERMINATED NORMALLY****
TOTAL RUN TIME: 0 days 0 hours 0 minutes 8 seconds 777 msec
