                         Program Version 3.0.3 - RELEASE   -
|  1> ! RI PBE def2-SVP def2-SVP/J NBO PAL2
|  2> % maxcore 2000
|  3> % output
|  4>     # printlevel mini
|  5>     print[ P_Basis ] 0
|  6>     print[ P_SCFInfo ] 1
|  7>     print[ P_SCFIterInfo ] 1
|  8>     print[ P_OrbEn ] 0
|  9>     print[ P_Cartesian ] 0
| 10> end
| 11> *xyz 0 1
| 12>  C        1.0770470000     0.1437540000     0.1192560000
| 13>  N        2.5198280000     0.0917960000     0.1520080000
| 14>  C        3.0271940000     0.7431180000     1.3367830000
| 15>  C        2.9944220000    -1.2694520000     0.0098250000
| 16>  C        4.4863640000    -1.3684160000    -0.2908590000
| 17>  C        4.9162250000    -2.7807180000    -0.5102380000
| 18>  C        5.4648520000    -3.2467950000    -1.6234580000
| 19>  H        0.7429150000     1.1830950000     0.1602550000
| 20>  H        0.6065910000    -0.3966730000     0.9618160000
| 21>  H        0.7086560000    -0.2947030000    -0.8108620000
| 22>  H        2.6490350000     1.7667590000     1.3816880000
| 23>  H        4.1163970000     0.7956040000     1.3153950000
| 24>  H        2.7261020000     0.2279750000     2.2687500000
| 25>  H        2.4481210000    -1.7254120000    -0.8212860000
| 26>  H        2.7589890000    -1.8740120000     0.9088590000
| 27>  H        5.0590460000    -0.9530470000     0.5462750000
| 28>  H        4.7138460000    -0.7604510000    -1.1708080000
| 29>  H        4.7500240000    -3.4665400000     0.3196800000
| 30>  H        5.6486580000    -2.6010160000    -2.4769180000
| 31>  H        5.7543800000    -4.2866660000    -1.7220620000
| 32> *
| 33>
| 34>                          ****END OF INPUT****
 Total Charge           Charge          ....    0
 Multiplicity           Mult            ....    1
 Number of Electrons    NEL             ....   56
 Basis Dimension        Dim             ....  163

MULLIKEN ATOMIC CHARGES
-----------------------
   0 C :    0.105504
   1 N :   -0.336306
   2 C :    0.095401
   3 C :    0.082473
   4 C :    0.068489
   5 C :   -0.097324
   6 C :   -0.032154
   7 H :    0.017227
   8 H :   -0.015877
   9 H :    0.018639
  10 H :    0.017343
  11 H :    0.027200
  12 H :   -0.015455
  13 H :    0.008566
  14 H :   -0.021923
  15 H :    0.023944
  16 H :    0.009302
  17 H :    0.005539
  18 H :    0.017250
  19 H :    0.022161
Sum of atomic charges:    0.0000000

LOEWDIN ATOMIC CHARGES
----------------------
   0 C :    0.004586
   1 N :   -0.114327
   2 C :    0.001287
   3 C :    0.020324
   4 C :   -0.046690
   5 C :   -0.028362
   6 C :   -0.066249
   7 H :    0.020879
   8 H :   -0.003546
   9 H :    0.021421
  10 H :    0.023256
  11 H :    0.020223
  12 H :   -0.002964
  13 H :    0.022909
  14 H :   -0.004995
  15 H :    0.032190
  16 H :    0.030177
  17 H :    0.024506
  18 H :    0.021575
  19 H :    0.023800

  Mayer bond orders larger than 0.1
B(  0-C ,  1-N ) :   1.0354 B(  0-C ,  7-H ) :   0.9676 B(  0-C ,  8-H ) :   0.9362
B(  0-C ,  9-H ) :   0.9672 B(  1-N ,  2-C ) :   1.0337 B(  1-N ,  3-C ) :   1.0324
B(  2-C , 10-H ) :   0.9641 B(  2-C , 11-H ) :   0.9650 B(  2-C , 12-H ) :   0.9339
B(  3-C ,  4-C ) :   1.0661 B(  3-C , 13-H ) :   0.9361 B(  3-C , 14-H ) :   0.9138
B(  4-C ,  5-C ) :   1.0571 B(  4-C , 15-H ) :   0.9036 B(  4-C , 16-H ) :   0.9259
B(  5-C ,  6-C ) :   2.0183 B(  5-C , 17-H ) :   0.9525 B(  6-C , 18-H ) :   0.9476
B(  6-C , 19-H ) :   0.9436

FINAL SINGLE POINT ENERGY      -290.556938325008

DIPOLE MOMENT
-------------
                                X             Y             Z
Electronic contribution:      1.89964      -1.20763      -1.65328
Nuclear contribution   :     -2.03760       1.25331       1.85638
                        -----------------------------------------
Total Dipole Moment    :     -0.13796       0.04568       0.20310
                        -----------------------------------------
Magnitude (a.u.)       :      0.24974
Magnitude (Debye)      :      0.63478

                             ****ORCA TERMINATED NORMALLY****
TOTAL RUN TIME: 0 days 0 hours 0 minutes 9 seconds 130 msec
