                         Program Version 3.0.3 - RELEASE   -
|  1> ! RI PBE def2-SVP def2-SVP/J NBO PAL2
|  2> % maxcore 2000
|  3> % output
|  4>     # printlevel mini
|  5>     print[ P_Basis ] 0
|  6>     print[ P_SCFInfo ] 1
|  7>     print[ P_SCFIterInfo ] 1
|  8>     print[ P_OrbEn ] 0
|  9>     print[ P_Cartesian ] 0
| 10> end
| 11> *xyz 0 1
| 12>  C        0.8084990000    -0.1321660000     0.1088240000
| 13>  N        2.2209180000     0.1155570000    -0.0690220000
| 14>  C        2.5155430000     0.4279970000    -1.4486670000
| 15>  C        2.6919720000     1.1296120000     0.8495630000
| 16>  C        4.2163940000     1.1569650000     0.9642800000
| 17>  C        4.6686910000     2.0930000000     1.9783430000
| 18>  C        5.0193810000     2.8717450000     2.8222050000
| 19>  H        0.4919510000    -0.9472480000    -0.5459310000
| 20>  H        0.1832390000     0.7497830000    -0.1217960000
| 21>  H        0.6084200000    -0.4289750000     1.1405880000
| 22>  H        2.1555850000    -0.3789100000    -2.0902880000
| 23>  H        3.5912430000     0.5171990000    -1.6073980000
| 24>  H        2.0396610000     1.3685030000    -1.7830370000
| 25>  H        2.2817790000     0.9070950000     1.8377000000
| 26>  H        2.3302980000     2.1379810000     0.5753700000
| 27>  H        4.6709070000     1.4305020000     0.0075210000
| 28>  H        4.5679820000     0.1486510000     1.2046360000
| 29>  H        5.3379270000     3.5597080000     3.5689010000
| 30> *
| 31>
| 32>                          ****END OF INPUT****
 Total Charge           Charge          ....    0
 Multiplicity           Mult            ....    1
 Number of Electrons    NEL             ....   54
 Basis Dimension        Dim             ....  153

MULLIKEN ATOMIC CHARGES
-----------------------
   0 C :    0.098287
   1 N :   -0.338269
   2 C :    0.094021
   3 C :    0.067307
   4 C :    0.114169
   5 C :    0.325439
   6 C :   -0.507576
   7 H :    0.020563
   8 H :   -0.010599
   9 H :    0.022200
  10 H :    0.024055
  11 H :    0.024315
  12 H :   -0.012028
  13 H :    0.018810
  14 H :   -0.005675
  15 H :    0.033097
  16 H :    0.035995
  17 H :   -0.004111
Sum of atomic charges:   -0.0000000

LOEWDIN ATOMIC CHARGES
----------------------
   0 C :    0.004366
   1 N :   -0.114968
   2 C :    0.001863
   3 C :    0.027325
   4 C :   -0.049935
   5 C :   -0.019920
   6 C :   -0.093693
   7 H :    0.022215
   8 H :   -0.001408
   9 H :    0.022708
  10 H :    0.024774
  11 H :    0.019942
  12 H :   -0.001118
  13 H :    0.027160
  14 H :    0.002516
  15 H :    0.045264
  16 H :    0.049600
  17 H :    0.033309

  Mayer bond orders larger than 0.1
B(  0-C ,  1-N ) :   1.0360 B(  0-C ,  7-H ) :   0.9674 B(  0-C ,  8-H ) :   0.9376
B(  0-C ,  9-H ) :   0.9671 B(  1-N ,  2-C ) :   1.0301 B(  1-N ,  3-C ) :   1.0349
B(  2-C , 10-H ) :   0.9656 B(  2-C , 11-H ) :   0.9648 B(  2-C , 12-H ) :   0.9347
B(  3-C ,  4-C ) :   1.0664 B(  3-C , 13-H ) :   0.9386 B(  3-C , 14-H ) :   0.9161
B(  4-C ,  5-C ) :   1.0582 B(  4-C , 15-H ) :   0.8862 B(  4-C , 16-H ) :   0.8877
B(  5-C ,  6-C ) :   2.3381 B(  5-C , 17-H ) :  -0.1137 B(  6-C , 17-H ) :   1.1045

FINAL SINGLE POINT ENERGY      -289.314737917556

DIPOLE MOMENT
-------------
                                X             Y             Z
Electronic contribution:      4.97184       2.18441       4.54142
Nuclear contribution   :     -5.23598      -2.27185      -4.81331
                        -----------------------------------------
Total Dipole Moment    :     -0.26414      -0.08744      -0.27189
                        -----------------------------------------
Magnitude (a.u.)       :      0.38902
Magnitude (Debye)      :      0.98881

                             ****ORCA TERMINATED NORMALLY****
TOTAL RUN TIME: 0 days 0 hours 0 minutes 8 seconds 280 msec
