                         Program Version 3.0.3 - RELEASE   -
|  1> ! RI PBE def2-SVP def2-SVP/J NBO PAL2
|  2> % maxcore 2000
|  3> % output
|  4>     # printlevel mini
|  5>     print[ P_Basis ] 0
|  6>     print[ P_SCFInfo ] 1
|  7>     print[ P_SCFIterInfo ] 1
|  8>     print[ P_OrbEn ] 0
|  9>     print[ P_Cartesian ] 0
| 10> end
| 11> *xyz 0 1
| 12>  C        1.0869080000    -0.0563890000    -0.2318520000
| 13>  N        2.5031080000    -0.2370460000     0.0091410000
| 14>  C        2.9356030000     0.1841990000     1.3352280000
| 15>  C        2.4021870000    -0.7657670000     2.3704640000
| 16>  C        1.6838440000    -0.4084920000     3.4241920000
| 17>  C        4.4357000000     0.1805500000     1.3723490000
| 18>  C        5.1823240000     1.2443610000     1.6289320000
| 19>  H        0.8541580000    -0.3447190000    -1.2585530000
| 20>  H        0.7369150000     0.9771370000    -0.0732140000
| 21>  H        0.5126640000    -0.7029130000     0.4349710000
| 22>  H        3.0411170000     0.2703930000    -0.6820070000
| 23>  H        2.5818910000     1.2003840000     1.5865810000
| 24>  H        2.6526840000    -1.8117190000     2.2043490000
| 25>  H        1.4161630000     0.6288410000     3.6010460000
| 26>  H        1.3412750000    -1.1358870000     4.1510660000
| 27>  H        4.9030870000    -0.7782950000     1.1577390000
| 28>  H        4.7367090000     2.2112980000     1.8417110000
| 29>  H        6.2646530000     1.1874660000     1.6436390000
| 30> *
| 31>
| 32>                          ****END OF INPUT****
 Total Charge           Charge          ....    0
 Multiplicity           Mult            ....    1
 Number of Electrons    NEL             ....   54
 Basis Dimension        Dim             ....  153

MULLIKEN ATOMIC CHARGES
-----------------------
   0 C :    0.074067
   1 N :   -0.253009
   2 C :    0.105054
   3 C :   -0.043155
   4 C :   -0.018454
   5 C :   -0.046818
   6 C :   -0.026908
   7 H :    0.020810
   8 H :   -0.008983
   9 H :    0.026332
  10 H :    0.100500
  11 H :   -0.032625
  12 H :    0.006996
  13 H :    0.016370
  14 H :    0.026173
  15 H :    0.004903
  16 H :    0.018314
  17 H :    0.030432
Sum of atomic charges:   -0.0000000

LOEWDIN ATOMIC CHARGES
----------------------
   0 C :   -0.006177
   1 N :   -0.097771
   2 C :    0.005678
   3 C :   -0.022362
   4 C :   -0.057643
   5 C :   -0.021548
   6 C :   -0.057390
   7 H :    0.023229
   8 H :   -0.001917
   9 H :    0.023247
  10 H :    0.054726
  11 H :    0.005153
  12 H :    0.027803
  13 H :    0.021661
  14 H :    0.026279
  15 H :    0.027428
  16 H :    0.022599
  17 H :    0.027005

  Mayer bond orders larger than 0.1
B(  0-C ,  1-N ) :   1.0603 B(  0-C ,  7-H ) :   0.9719 B(  0-C ,  8-H ) :   0.9441
B(  0-C ,  9-H ) :   0.9640 B(  1-N ,  2-C ) :   1.0031 B(  1-N , 10-H ) :   0.9397
B(  2-C ,  3-C ) :   1.0033 B(  2-C ,  5-C ) :   1.0081 B(  2-C , 11-H ) :   0.9017
B(  3-C ,  4-C ) :   1.9921 B(  3-C , 12-H ) :   0.9502 B(  4-C , 13-H ) :   0.9448
B(  4-C , 14-H ) :   0.9396 B(  5-C ,  6-C ) :   2.0016 B(  5-C , 15-H ) :   0.9520
B(  6-C , 16-H ) :   0.9450 B(  6-C , 17-H ) :   0.9424

FINAL SINGLE POINT ENERGY      -289.340080202436

DIPOLE MOMENT
-------------
                                X             Y             Z
Electronic contribution:      2.17418      -1.01283       0.37750
Nuclear contribution   :     -2.20395       1.28291      -0.50982
                        -----------------------------------------
Total Dipole Moment    :     -0.02978       0.27008      -0.13232
                        -----------------------------------------
Magnitude (a.u.)       :      0.30222
Magnitude (Debye)      :      0.76819

                             ****ORCA TERMINATED NORMALLY****
TOTAL RUN TIME: 0 days 0 hours 0 minutes 7 seconds 827 msec
