                         Program Version 3.0.3 - RELEASE   -
|  1> ! RI PBE def2-SVP def2-SVP/J NBO PAL2
|  2> % maxcore 2000
|  3> % output
|  4>     # printlevel mini
|  5>     print[ P_Basis ] 0
|  6>     print[ P_SCFInfo ] 1
|  7>     print[ P_SCFIterInfo ] 1
|  8>     print[ P_OrbEn ] 0
|  9>     print[ P_Cartesian ] 0
| 10> end
| 11> *xyz 0 1
| 12>  C        0.9585750000     0.0764950000     0.1365540000
| 13>  N        2.3641790000     0.0757910000    -0.2075090000
| 14>  C        2.8654230000    -1.2430820000    -0.5765860000
| 15>  C        2.4184880000    -1.5992930000    -1.9711960000
| 16>  C        1.6894220000    -2.6639800000    -2.2646010000
| 17>  C        4.3241730000    -1.2547260000    -0.4972280000
| 18>  C        5.5221170000    -1.2643800000    -0.4270410000
| 19>  H        0.6623820000     1.0825190000     0.4378340000
| 20>  H        0.6984660000    -0.6214870000     0.9496030000
| 21>  H        0.3643470000    -0.1976150000    -0.7377790000
| 22>  H        2.9203450000     0.4398150000     0.5546930000
| 23>  H        2.4913610000    -2.0283600000     0.1066400000
| 24>  H        2.7330530000    -0.9011420000    -2.7418500000
| 25>  H        1.3701300000    -3.3608910000    -1.4955740000
| 26>  H        1.3901250000    -2.8827140000    -3.2829280000
| 27>  H        6.5848150000    -1.2760690000    -0.3692620000
| 28> *
| 29>
| 30>                          ****END OF INPUT****
 Total Charge           Charge          ....    0
 Multiplicity           Mult            ....    1
 Number of Electrons    NEL             ....   52
 Basis Dimension        Dim             ....  143

MULLIKEN ATOMIC CHARGES
-----------------------
   0 C :    0.072427
   1 N :   -0.238267
   2 C :    0.096836
   3 C :   -0.023962
   4 C :   -0.019139
   5 C :    0.397502
   6 C :   -0.507153
   7 H :    0.025783
   8 H :   -0.004042
   9 H :    0.025000
  10 H :    0.106607
  11 H :    0.004966
  12 H :    0.012297
  13 H :    0.023145
  14 H :    0.027911
  15 H :    0.000090
Sum of atomic charges:    0.0000000

LOEWDIN ATOMIC CHARGES
----------------------
   0 C :   -0.006221
   1 N :   -0.089466
   2 C :    0.000020
   3 C :   -0.014510
   4 C :   -0.054059
   5 C :   -0.013863
   6 C :   -0.073426
   7 H :    0.025772
   8 H :   -0.000114
   9 H :    0.023940
  10 H :    0.059122
  11 H :    0.023784
  12 H :    0.032022
  13 H :    0.023353
  14 H :    0.027969
  15 H :    0.035677

  Mayer bond orders larger than 0.1
B(  0-C ,  1-N ) :   1.0567 B(  0-C ,  7-H ) :   0.9716 B(  0-C ,  8-H ) :   0.9449
B(  0-C ,  9-H ) :   0.9640 B(  1-N ,  2-C ) :   1.0393 B(  1-N , 10-H ) :   0.9341
B(  2-C ,  3-C ) :   1.0116 B(  2-C ,  5-C ) :   0.9568 B(  2-C , 11-H ) :   0.8743
B(  3-C ,  4-C ) :   1.9813 B(  3-C , 12-H ) :   0.9528 B(  4-C , 13-H ) :   0.9445
B(  4-C , 14-H ) :   0.9410 B(  5-C ,  6-C ) :   2.3317 B(  5-C , 15-H ) :  -0.1183
B(  6-C , 15-H ) :   1.1088

FINAL SINGLE POINT ENERGY      -288.093315004422

DIPOLE MOMENT
-------------
                                X             Y             Z
Electronic contribution:      5.43021      -0.17026      -0.33051
Nuclear contribution   :     -5.58288       0.11352       0.64702
                        -----------------------------------------
Total Dipole Moment    :     -0.15268      -0.05674       0.31651
                        -----------------------------------------
Magnitude (a.u.)       :      0.35596
Magnitude (Debye)      :      0.90477

                             ****ORCA TERMINATED NORMALLY****
TOTAL RUN TIME: 0 days 0 hours 0 minutes 7 seconds 254 msec
