                         Program Version 3.0.3 - RELEASE   -
|  1> ! RI PBE def2-SVP def2-SVP/J NBO PAL2
|  2> % maxcore 2000
|  3> % output
|  4>     # printlevel mini
|  5>     print[ P_Basis ] 0
|  6>     print[ P_SCFInfo ] 1
|  7>     print[ P_SCFIterInfo ] 1
|  8>     print[ P_OrbEn ] 0
|  9>     print[ P_Cartesian ] 0
| 10> end
| 11> *xyz 0 1
| 12>  C        3.1887360000    -0.4885640000     1.0924880000
| 13>  N        2.9275750000     0.3062310000    -0.0882110000
| 14>  C        3.2850750000     1.7266350000    -0.0157890000
| 15>  C        2.8153370000     2.3552750000    -1.3287540000
| 16>  C        2.6328030000     2.4605610000     1.1554540000
| 17>  C        4.7911160000     1.8027860000     0.0162630000
| 18>  C        5.5451090000     2.4801430000     0.8697100000
| 19>  H        2.9586110000    -1.5340600000     0.8759000000
| 20>  H        2.6189170000    -0.1958390000     1.9872710000
| 21>  H        4.2504730000    -0.4301830000     1.3429400000
| 22>  H        1.9545420000     0.2250040000    -0.3568230000
| 23>  H        1.7271480000     2.2745950000    -1.4196110000
| 24>  H        3.2680060000     1.8425500000    -2.1795170000
| 25>  H        3.0824330000     3.4124600000    -1.3709260000
| 26>  H        1.5459980000     2.3540720000     1.0992340000
| 27>  H        2.8646230000     3.5276930000     1.1335510000
| 28>  H        2.9625710000     2.0661160000     2.1184330000
| 29>  H        5.2654820000     1.2258980000    -0.7755940000
| 30>  H        5.1242260000     3.0618560000     1.6824820000
| 31>  H        6.6256280000     2.4780710000     0.7820990000
| 32> *
| 33>
| 34>                          ****END OF INPUT****
 Total Charge           Charge          ....    0
 Multiplicity           Mult            ....    1
 Number of Electrons    NEL             ....   56
 Basis Dimension        Dim             ....  163

MULLIKEN ATOMIC CHARGES
-----------------------
   0 C :    0.074067
   1 N :   -0.217535
   2 C :   -0.221851
   3 C :    0.059735
   4 C :    0.063705
   5 C :    0.017230
   6 C :   -0.032724
   7 H :    0.020638
   8 H :   -0.004007
   9 H :    0.021525
  10 H :    0.088636
  11 H :    0.010858
  12 H :    0.017259
  13 H :    0.021996
  14 H :    0.008654
  15 H :    0.020169
  16 H :    0.019951
  17 H :   -0.004703
  18 H :    0.012887
  19 H :    0.023508
Sum of atomic charges:   -0.0000000

LOEWDIN ATOMIC CHARGES
----------------------
   0 C :   -0.008254
   1 N :   -0.089554
   2 C :   -0.024592
   3 C :   -0.047507
   4 C :   -0.064351
   5 C :   -0.014196
   6 C :   -0.071465
   7 H :    0.022645
   8 H :   -0.002920
   9 H :    0.023436
  10 H :    0.049235
  11 H :    0.022074
  12 H :    0.026850
  13 H :    0.029399
  14 H :    0.024526
  15 H :    0.027470
  16 H :    0.024095
  17 H :    0.026625
  18 H :    0.020128
  19 H :    0.026356

  Mayer bond orders larger than 0.1
B(  0-C ,  1-N ) :   1.0641 B(  0-C ,  7-H ) :   0.9704 B(  0-C ,  8-H ) :   0.9415
B(  0-C ,  9-H ) :   0.9616 B(  1-N ,  2-C ) :   1.0238 B(  1-N , 10-H ) :   0.9373
B(  2-C ,  3-C ) :   1.0439 B(  2-C ,  4-C ) :   1.0711 B(  2-C ,  5-C ) :   0.9850
B(  3-C , 11-H ) :   0.9480 B(  3-C , 12-H ) :   0.9501 B(  3-C , 13-H ) :   0.9591
B(  4-C , 14-H ) :   0.9498 B(  4-C , 15-H ) :   0.9400 B(  4-C , 16-H ) :   0.9363
B(  5-C ,  6-C ) :   1.9904 B(  5-C , 17-H ) :   0.9501 B(  6-C , 18-H ) :   0.9272
B(  6-C , 19-H ) :   0.9366

FINAL SINGLE POINT ENERGY      -290.564823522079

DIPOLE MOMENT
-------------
                                X             Y             Z
Electronic contribution:      1.56335      -0.66617      -1.38573
Nuclear contribution   :     -1.89472       0.73320       1.51256
                        -----------------------------------------
Total Dipole Moment    :     -0.33138       0.06703       0.12683
                        -----------------------------------------
Magnitude (a.u.)       :      0.36110
Magnitude (Debye)      :      0.91783

                             ****ORCA TERMINATED NORMALLY****
TOTAL RUN TIME: 0 days 0 hours 0 minutes 8 seconds 659 msec
