                         Program Version 3.0.3 - RELEASE   -
|  1> ! RI PBE def2-SVP def2-SVP/J NBO PAL2
|  2> % maxcore 2000
|  3> % output
|  4>     # printlevel mini
|  5>     print[ P_Basis ] 0
|  6>     print[ P_SCFInfo ] 1
|  7>     print[ P_SCFIterInfo ] 1
|  8>     print[ P_OrbEn ] 0
|  9>     print[ P_Cartesian ] 0
| 10> end
| 11> *xyz 0 1
| 12>  C        2.8147520000     1.4201980000    -0.2755930000
| 13>  N        2.4896960000     0.0306990000    -0.0357780000
| 14>  C        2.9806630000    -0.9399450000    -1.0149550000
| 15>  C        2.5058820000    -2.3197360000    -0.5551150000
| 16>  C        2.4891810000    -0.6788620000    -2.4481970000
| 17>  C        4.4495190000    -0.9178840000    -1.0090090000
| 18>  C        5.6497150000    -0.9193440000    -1.0341020000
| 19>  H        2.4326370000     2.0185960000     0.5537880000
| 20>  H        2.4125080000     1.8403550000    -1.2095730000
| 21>  H        3.9003860000     1.5376930000    -0.2942360000
| 22>  H        1.4880580000    -0.0892650000     0.0528660000
| 23>  H        1.4121950000    -2.3543090000    -0.5638140000
| 24>  H        2.8550690000    -2.5173300000     0.4583430000
| 25>  H        2.8781700000    -3.0995960000    -1.2202630000
| 26>  H        1.3958370000    -0.7039880000    -2.4710460000
| 27>  H        2.8668160000    -1.4415540000    -3.1317010000
| 28>  H        2.8246970000     0.2925870000    -2.8129990000
| 29>  H        6.7139190000    -0.9204870000    -1.0467430000
| 30> *
| 31>
| 32>                          ****END OF INPUT****
 Total Charge           Charge          ....    0
 Multiplicity           Mult            ....    1
 Number of Electrons    NEL             ....   54
 Basis Dimension        Dim             ....  153

MULLIKEN ATOMIC CHARGES
-----------------------
   0 C :    0.073891
   1 N :   -0.207415
   2 C :   -0.230343
   3 C :    0.068824
   4 C :    0.076613
   5 C :    0.520635
   6 C :   -0.560639
   7 H :    0.022257
   8 H :   -0.005809
   9 H :    0.031976
  10 H :    0.094476
  11 H :    0.012513
  12 H :    0.029682
  13 H :    0.023444
  14 H :    0.011434
  15 H :    0.021871
  16 H :    0.024126
  17 H :   -0.007536
Sum of atomic charges:   -0.0000000

LOEWDIN ATOMIC CHARGES
----------------------
   0 C :   -0.007645
   1 N :   -0.082369
   2 C :   -0.030194
   3 C :   -0.040516
   4 C :   -0.054120
   5 C :   -0.000642
   6 C :   -0.089146
   7 H :    0.024474
   8 H :   -0.002994
   9 H :    0.027858
  10 H :    0.051803
  11 H :    0.023473
  12 H :    0.032357
  13 H :    0.031200
  14 H :    0.023812
  15 H :    0.031218
  16 H :    0.027701
  17 H :    0.033731

  Mayer bond orders larger than 0.1
B(  0-C ,  1-N ) :   1.0613 B(  0-C ,  7-H ) :   0.9697 B(  0-C ,  8-H ) :   0.9395
B(  0-C ,  9-H ) :   0.9628 B(  1-N ,  2-C ) :   1.0550 B(  1-N , 10-H ) :   0.9399
B(  2-C ,  3-C ) :   1.0497 B(  2-C ,  4-C ) :   1.0425 B(  2-C ,  5-C ) :   0.9213
B(  3-C , 11-H ) :   0.9505 B(  3-C , 12-H ) :   0.9511 B(  3-C , 13-H ) :   0.9554
B(  4-C , 14-H ) :   0.9500 B(  4-C , 15-H ) :   0.9487 B(  4-C , 16-H ) :   0.9469
B(  5-C ,  6-C ) :   2.2576 B(  5-C , 17-H ) :  -0.1337 B(  6-C , 17-H ) :   1.1231

FINAL SINGLE POINT ENERGY      -289.319508550880

DIPOLE MOMENT
-------------
                                X             Y             Z
Electronic contribution:      4.04442      -0.93574       1.32033
Nuclear contribution   :     -4.44398       0.99535      -1.56945
                        -----------------------------------------
Total Dipole Moment    :     -0.39956       0.05961      -0.24912
                        -----------------------------------------
Magnitude (a.u.)       :      0.47462
Magnitude (Debye)      :      1.20639

                             ****ORCA TERMINATED NORMALLY****
TOTAL RUN TIME: 0 days 0 hours 0 minutes 8 seconds 519 msec
