                         Program Version 3.0.3 - RELEASE   -
|  1> ! RI PBE def2-SVP def2-SVP/J NBO PAL2
|  2> % maxcore 2000
|  3> % output
|  4>     # printlevel mini
|  5>     print[ P_Basis ] 0
|  6>     print[ P_SCFInfo ] 1
|  7>     print[ P_SCFIterInfo ] 1
|  8>     print[ P_OrbEn ] 0
|  9>     print[ P_Cartesian ] 0
| 10> end
| 11> *xyz 0 1
| 12>  C        1.2347500000     0.4083750000    -0.1477780000
| 13>  N        2.5786500000     0.4433030000    -0.6837120000
| 14>  C        2.9753050000    -0.7547500000    -1.4147720000
| 15>  C        2.1917830000    -0.8728220000    -2.7171460000
| 16>  C        4.4441160000    -0.6801670000    -1.6915820000
| 17>  C        5.3417830000    -1.5576100000    -1.2603420000
| 18>  C        6.8047030000    -1.4995480000    -1.5389040000
| 19>  H        1.0898110000     1.2621790000     0.5167780000
| 20>  H        1.0045350000    -0.5104290000     0.4185080000
| 21>  H        0.4983120000     0.4966490000    -0.9493820000
| 22>  H        3.2383330000     0.5855300000     0.0704490000
| 23>  H        2.7841250000    -1.6667510000    -0.8183370000
| 24>  H        2.3526160000     0.0147540000    -3.3342030000
| 25>  H        1.1196800000    -0.9719420000    -2.5348790000
| 26>  H        2.5186760000    -1.7521730000    -3.2750760000
| 27>  H        4.7639780000     0.1723950000    -2.2905390000
| 28>  H        4.9967360000    -2.3975490000    -0.6575390000
| 29>  H        7.0625290000    -0.6261630000    -2.1408950000
| 30>  H        7.1399270000    -2.3938820000    -2.0740860000
| 31>  H        7.3820410000    -1.4575880000    -0.6097730000
| 32> *
| 33>
| 34>                          ****END OF INPUT****
 Total Charge           Charge          ....    0
 Multiplicity           Mult            ....    1
 Number of Electrons    NEL             ....   56
 Basis Dimension        Dim             ....  163

MULLIKEN ATOMIC CHARGES
-----------------------
   0 C :    0.055054
   1 N :   -0.246173
   2 C :    0.032192
   3 C :    0.019250
   4 C :   -0.039290
   5 C :   -0.106797
   6 C :    0.040500
   7 H :    0.022072
   8 H :   -0.006530
   9 H :    0.025826
  10 H :    0.099119
  11 H :   -0.026773
  12 H :    0.022550
  13 H :    0.021670
  14 H :    0.017843
  15 H :   -0.010914
  16 H :   -0.005762
  17 H :    0.022162
  18 H :    0.032523
  19 H :    0.031478
Sum of atomic charges:   -0.0000000

LOEWDIN ATOMIC CHARGES
----------------------
   0 C :   -0.010247
   1 N :   -0.101302
   2 C :    0.003689
   3 C :   -0.063257
   4 C :   -0.043503
   5 C :   -0.045006
   6 C :   -0.065888
   7 H :    0.024675
   8 H :   -0.002050
   9 H :    0.019888
  10 H :    0.053545
  11 H :    0.000816
  12 H :    0.027505
  13 H :    0.024197
  14 H :    0.028859
  15 H :    0.022523
  16 H :    0.021075
  17 H :    0.031349
  18 H :    0.036772
  19 H :    0.036361

  Mayer bond orders larger than 0.1
B(  0-C ,  1-N ) :   1.0649 B(  0-C ,  7-H ) :   0.9707 B(  0-C ,  8-H ) :   0.9409
B(  0-C ,  9-H ) :   0.9660 B(  1-N ,  2-C ) :   1.0117 B(  1-N , 10-H ) :   0.9444
B(  2-C ,  3-C ) :   1.0639 B(  2-C ,  4-C ) :   1.0261 B(  2-C , 11-H ) :   0.9003
B(  3-C , 12-H ) :   0.9544 B(  3-C , 13-H ) :   0.9506 B(  3-C , 14-H ) :   0.9566
B(  4-C ,  5-C ) :   1.9061 B(  4-C , 15-H ) :   0.9531 B(  5-C ,  6-C ) :   1.0819
B(  5-C , 16-H ) :   0.9518 B(  6-C , 17-H ) :   0.9614 B(  6-C , 18-H ) :   0.9470
B(  6-C , 19-H ) :   0.9463

FINAL SINGLE POINT ENERGY      -290.570633035164

DIPOLE MOMENT
-------------
                                X             Y             Z
Electronic contribution:      1.13194       0.75462       0.53380
Nuclear contribution   :     -0.99416      -0.96405      -0.25870
                        -----------------------------------------
Total Dipole Moment    :      0.13778      -0.20942       0.27510
                        -----------------------------------------
Magnitude (a.u.)       :      0.37219
Magnitude (Debye)      :      0.94602

                             ****ORCA TERMINATED NORMALLY****
TOTAL RUN TIME: 0 days 0 hours 0 minutes 8 seconds 73 msec
