                         Program Version 3.0.3 - RELEASE   -
|  1> ! RI PBE def2-SVP def2-SVP/J NBO PAL2
|  2> % maxcore 2000
|  3> % output
|  4>     # printlevel mini
|  5>     print[ P_Basis ] 0
|  6>     print[ P_SCFInfo ] 1
|  7>     print[ P_SCFIterInfo ] 1
|  8>     print[ P_OrbEn ] 0
|  9>     print[ P_Cartesian ] 0
| 10> end
| 11> *xyz 0 1
| 12>  C        1.3591610000    -0.6955260000     0.2908210000
| 13>  N        2.7908990000    -0.6205440000     0.4866110000
| 14>  C        3.2186660000     0.3671600000     1.4646460000
| 15>  C        2.7116640000     0.0013690000     2.8514380000
| 16>  C        4.7466990000     0.5311600000     1.4371230000
| 17>  C        5.4999090000    -0.7366290000     1.8202020000
| 18>  C        5.2351380000     1.0638270000     0.0945140000
| 19>  H        1.1450690000    -1.3214210000    -0.5777190000
| 20>  H        0.8804330000     0.2865210000     0.1323120000
| 21>  H        0.8765800000    -1.1634190000     1.1514300000
| 22>  H        3.2290120000    -0.4104630000    -0.4003730000
| 23>  H        2.7973060000     1.3626280000     1.2169530000
| 24>  H        2.9843750000    -1.0247100000     3.1075700000
| 25>  H        1.6253740000     0.0860950000     2.9173530000
| 26>  H        3.1370250000     0.6737350000     3.6005760000
| 27>  H        4.9686480000     1.2993510000     2.1885890000
| 28>  H        5.2547250000    -1.5548360000     1.1396090000
| 29>  H        5.2592650000    -1.0629820000     2.8337830000
| 30>  H        6.5789720000    -0.5670370000     1.7753580000
| 31>  H        5.1645700000     0.3091080000    -0.6953030000
| 32>  H        6.2870580000     1.3535670000     0.1541200000
| 33>  H        4.6647510000     1.9423420000    -0.2213130000
| 34> *
| 35>
| 36>                          ****END OF INPUT****
 Total Charge           Charge          ....    0
 Multiplicity           Mult            ....    1
 Number of Electrons    NEL             ....   58
 Basis Dimension        Dim             ....  173

MULLIKEN ATOMIC CHARGES
-----------------------
   0 C :    0.067066
   1 N :   -0.231326
   2 C :   -0.011632
   3 C :    0.025999
   4 C :   -0.140084
   5 C :    0.030161
   6 C :    0.017894
   7 H :    0.017993
   8 H :   -0.011564
   9 H :    0.027146
  10 H :    0.091429
  11 H :   -0.026062
  12 H :    0.020439
  13 H :    0.020565
  14 H :    0.010912
  15 H :    0.004428
  16 H :    0.016672
  17 H :    0.010827
  18 H :    0.013587
  19 H :    0.017946
  20 H :    0.017426
  21 H :    0.010179
Sum of atomic charges:    0.0000000

LOEWDIN ATOMIC CHARGES
----------------------
   0 C :   -0.005383
   1 N :   -0.096987
   2 C :    0.007486
   3 C :   -0.066530
   4 C :   -0.049218
   5 C :   -0.060028
   6 C :   -0.063840
   7 H :    0.022774
   8 H :   -0.002756
   9 H :    0.019479
  10 H :    0.049178
  11 H :   -0.003760
  12 H :    0.026069
  13 H :    0.024964
  14 H :    0.027772
  15 H :    0.025874
  16 H :    0.023718
  17 H :    0.024059
  18 H :    0.023695
  19 H :    0.021185
  20 H :    0.028369
  21 H :    0.023881

  Mayer bond orders larger than 0.1
B(  0-C ,  1-N ) :   1.0666 B(  0-C ,  7-H ) :   0.9710 B(  0-C ,  8-H ) :   0.9382
B(  0-C ,  9-H ) :   0.9678 B(  1-N ,  2-C ) :   1.0398 B(  1-N , 10-H ) :   0.9338
B(  2-C ,  3-C ) :   1.0839 B(  2-C ,  4-C ) :   1.0384 B(  2-C , 11-H ) :   0.8925
B(  3-C , 12-H ) :   0.9465 B(  3-C , 13-H ) :   0.9524 B(  3-C , 14-H ) :   0.9518
B(  4-C ,  5-C ) :   1.0697 B(  4-C ,  6-C ) :   1.0958 B(  4-C , 15-H ) :   0.9044
B(  5-C , 16-H ) :   0.9559 B(  5-C , 17-H ) :   0.9559 B(  5-C , 18-H ) :   0.9585
B(  6-C , 19-H ) :   0.9519 B(  6-C , 20-H ) :   0.9534 B(  6-C , 21-H ) :   0.9533

FINAL SINGLE POINT ENERGY      -291.788244130342

DIPOLE MOMENT
-------------
                                X             Y             Z
Electronic contribution:     -0.34357      -0.22367      -0.55349
Nuclear contribution   :      0.29587       0.48428       0.37607
                        -----------------------------------------
Total Dipole Moment    :     -0.04770       0.26061      -0.17742
                        -----------------------------------------
Magnitude (a.u.)       :      0.31885
Magnitude (Debye)      :      0.81046

                             ****ORCA TERMINATED NORMALLY****
TOTAL RUN TIME: 0 days 0 hours 0 minutes 10 seconds 112 msec
