                         Program Version 3.0.3 - RELEASE   -
|  1> ! RI PBE def2-SVP def2-SVP/J NBO PAL2
|  2> % maxcore 2000
|  3> % output
|  4>     # printlevel mini
|  5>     print[ P_Basis ] 0
|  6>     print[ P_SCFInfo ] 1
|  7>     print[ P_SCFIterInfo ] 1
|  8>     print[ P_OrbEn ] 0
|  9>     print[ P_Cartesian ] 0
| 10> end
| 11> *xyz 0 1
| 12>  C        1.6868090000    -0.3608250000    -0.1799230000
| 13>  N        2.9124860000    -0.8650360000     0.4021150000
| 14>  C        3.6589640000     0.1141800000     1.1854280000
| 15>  C        2.8731620000     0.5282660000     2.4242790000
| 16>  C        5.0035170000    -0.4754050000     1.5434480000
| 17>  C        5.0115350000    -1.6795960000     2.4320510000
| 18>  C        6.1216450000     0.0618920000     1.0651750000
| 19>  H        1.2930200000    -1.0974910000    -0.8826020000
| 20>  H        1.8096260000     0.5950490000    -0.7174800000
| 21>  H        0.9277360000    -0.2130830000     0.5909700000
| 22>  H        3.5182710000    -1.2001720000    -0.3369830000
| 23>  H        3.8498910000     1.0276220000     0.5931910000
| 24>  H        2.5672620000    -0.3476910000     3.0002430000
| 25>  H        1.9745710000     1.0859050000     2.1539500000
| 26>  H        3.4837960000     1.1731390000     3.0595010000
| 27>  H        4.3371060000    -2.4476660000     2.0455060000
| 28>  H        4.6590940000    -1.4279000000     3.4371110000
| 29>  H        6.0153400000    -2.0966800000     2.5214640000
| 30>  H        6.0987050000     0.9361020000     0.4227640000
| 31>  H        7.0966740000    -0.3492890000     1.3047120000
| 32> *
| 33>
| 34>                          ****END OF INPUT****
 Total Charge           Charge          ....    0
 Multiplicity           Mult            ....    1
 Number of Electrons    NEL             ....   56
 Basis Dimension        Dim             ....  163

MULLIKEN ATOMIC CHARGES
-----------------------
   0 C :    0.055783
   1 N :   -0.237626
   2 C :    0.045993
   3 C :    0.004071
   4 C :   -0.191553
   5 C :    0.091735
   6 C :   -0.033588
   7 H :    0.023519
   8 H :   -0.004609
   9 H :    0.025752
  10 H :    0.102430
  11 H :   -0.032374
  12 H :    0.026522
  13 H :    0.022095
  14 H :    0.026310
  15 H :    0.028317
  16 H :    0.025757
  17 H :    0.007398
  18 H :    0.009059
  19 H :    0.005011
Sum of atomic charges:   -0.0000000

LOEWDIN ATOMIC CHARGES
----------------------
   0 C :   -0.009184
   1 N :   -0.097814
   2 C :    0.011462
   3 C :   -0.064013
   4 C :   -0.030236
   5 C :   -0.056637
   6 C :   -0.077663
   7 H :    0.024851
   8 H :   -0.000800
   9 H :    0.020294
  10 H :    0.055804
  11 H :    0.001737
  12 H :    0.026926
  13 H :    0.025907
  14 H :    0.031954
  15 H :    0.034864
  16 H :    0.036685
  17 H :    0.028802
  18 H :    0.018371
  19 H :    0.018689

  Mayer bond orders larger than 0.1
B(  0-C ,  1-N ) :   1.0668 B(  0-C ,  7-H ) :   0.9710 B(  0-C ,  8-H ) :   0.9401
B(  0-C ,  9-H ) :   0.9659 B(  1-N ,  2-C ) :   1.0284 B(  1-N , 10-H ) :   0.9378
B(  2-C ,  3-C ) :   1.0681 B(  2-C ,  4-C ) :   1.0241 B(  2-C , 11-H ) :   0.8859
B(  3-C , 12-H ) :   0.9478 B(  3-C , 13-H ) :   0.9510 B(  3-C , 14-H ) :   0.9587
B(  4-C ,  5-C ) :   1.0868 B(  4-C ,  6-C ) :   1.9746 B(  5-C , 15-H ) :   0.9337
B(  5-C , 16-H ) :   0.9346 B(  5-C , 17-H ) :   0.9449 B(  6-C , 18-H ) :   0.9348
B(  6-C , 19-H ) :   0.9316

FINAL SINGLE POINT ENERGY      -290.569723473475

DIPOLE MOMENT
-------------
                                X             Y             Z
Electronic contribution:      2.12948      -0.53719      -0.97050
Nuclear contribution   :     -2.21441       0.61132       0.78964
                        -----------------------------------------
Total Dipole Moment    :     -0.08493       0.07413      -0.18086
                        -----------------------------------------
Magnitude (a.u.)       :      0.21312
Magnitude (Debye)      :      0.54171

                             ****ORCA TERMINATED NORMALLY****
TOTAL RUN TIME: 0 days 0 hours 0 minutes 8 seconds 806 msec
