                         Program Version 3.0.3 - RELEASE   -
|  1> ! RI PBE def2-SVP def2-SVP/J NBO PAL2
|  2> % maxcore 2000
|  3> % output
|  4>     # printlevel mini
|  5>     print[ P_Basis ] 0
|  6>     print[ P_SCFInfo ] 1
|  7>     print[ P_SCFIterInfo ] 1
|  8>     print[ P_OrbEn ] 0
|  9>     print[ P_Cartesian ] 0
| 10> end
| 11> *xyz 0 1
| 12>  C        2.6325230000    -1.1216020000     0.8196040000
| 13>  N        2.2888520000     0.0260020000     0.0060600000
| 14>  C        2.8652630000     0.0042660000    -1.3310480000
| 15>  C        2.3411730000     1.1890480000    -2.1322280000
| 16>  C        4.3360200000    -0.0295970000    -1.3423460000
| 17>  C        5.5396410000    -0.0415650000    -1.3186300000
| 18>  C        6.9908440000    -0.0593100000    -1.3001470000
| 19>  H        2.1856200000    -1.0084440000     1.8091180000
| 20>  H        3.7145910000    -1.2796090000     0.9390630000
| 21>  H        2.2102050000    -2.0243450000     0.3689310000
| 22>  H        2.5849810000     0.8767260000     0.4710850000
| 23>  H        2.5076800000    -0.9177000000    -1.8077710000
| 24>  H        2.6661300000     2.1287580000    -1.6782470000
| 25>  H        1.2505050000     1.1671600000    -2.1468740000
| 26>  H        2.7186880000     1.1632660000    -3.1553240000
| 27>  H        7.4019510000     0.6889890000    -1.9825240000
| 28>  H        7.3762170000    -1.0365150000    -1.6021390000
| 29>  H        7.3734250000     0.1559820000    -0.2991820000
| 30> *
| 31>
| 32>                          ****END OF INPUT****
 Total Charge           Charge          ....    0
 Multiplicity           Mult            ....    1
 Number of Electrons    NEL             ....   54
 Basis Dimension        Dim             ....  153

MULLIKEN ATOMIC CHARGES
-----------------------
   0 C :    0.078400
   1 N :   -0.240849
   2 C :    0.020684
   3 C :    0.033189
   4 C :   -0.029565
   5 C :   -0.275473
   6 C :    0.057241
   7 H :    0.017987
   8 H :    0.008222
   9 H :    0.010135
  10 H :    0.097417
  11 H :    0.017520
  12 H :    0.014267
  13 H :    0.029944
  14 H :    0.026536
  15 H :    0.046680
  16 H :    0.044636
  17 H :    0.043029
Sum of atomic charges:    0.0000000

LOEWDIN ATOMIC CHARGES
----------------------
   0 C :   -0.006148
   1 N :   -0.087608
   2 C :   -0.005498
   3 C :   -0.052119
   4 C :   -0.078057
   5 C :   -0.075373
   6 C :   -0.068304
   7 H :    0.022629
   8 H :    0.002662
   9 H :    0.020904
  10 H :    0.053487
  11 H :    0.037825
  12 H :    0.025792
  13 H :    0.029649
  14 H :    0.031765
  15 H :    0.049706
  16 H :    0.049299
  17 H :    0.049390

  Mayer bond orders larger than 0.1
B(  0-C ,  1-N ) :   1.0637 B(  0-C ,  7-H ) :   0.9716 B(  0-C ,  8-H ) :   0.9450
B(  0-C ,  9-H ) :   0.9636 B(  1-N ,  2-C ) :   1.0522 B(  1-N , 10-H ) :   0.9449
B(  2-C ,  3-C ) :   1.0881 B(  2-C ,  4-C ) :   0.9360 B(  2-C , 11-H ) :   0.8840
B(  3-C , 12-H ) :   0.9552 B(  3-C , 13-H ) :   0.9550 B(  3-C , 14-H ) :   0.9589
B(  4-C ,  5-C ) :   2.6309 B(  5-C ,  6-C ) :   1.1385 B(  6-C , 15-H ) :   0.9334
B(  6-C , 16-H ) :   0.9332 B(  6-C , 17-H ) :   0.9301

FINAL SINGLE POINT ENERGY      -289.334572837004

DIPOLE MOMENT
-------------
                                X             Y             Z
Electronic contribution:      0.48242       0.09910      -0.77422
Nuclear contribution   :     -0.03320      -0.03481       0.87236
                        -----------------------------------------
Total Dipole Moment    :      0.44922       0.06429       0.09815
                        -----------------------------------------
Magnitude (a.u.)       :      0.46429
Magnitude (Debye)      :      1.18012

                             ****ORCA TERMINATED NORMALLY****
TOTAL RUN TIME: 0 days 0 hours 0 minutes 7 seconds 857 msec
