                         Program Version 3.0.3 - RELEASE   -
|  1> ! RI PBE def2-SVP def2-SVP/J NBO PAL2
|  2> % maxcore 2000
|  3> % output
|  4>     # printlevel mini
|  5>     print[ P_Basis ] 0
|  6>     print[ P_SCFInfo ] 1
|  7>     print[ P_SCFIterInfo ] 1
|  8>     print[ P_OrbEn ] 0
|  9>     print[ P_Cartesian ] 0
| 10> end
| 11> *xyz 0 1
| 12>  C        1.2566300000    -0.8215560000     0.5246370000
| 13>  N        2.5522140000    -0.7988840000     1.1684270000
| 14>  C        2.9705760000     0.5065190000     1.6528350000
| 15>  C        2.1104340000     0.9482940000     2.8243400000
| 16>  C        4.4461590000     0.4237880000     2.0480190000
| 17>  C        5.0554610000     1.7436350000     2.3814070000
| 18>  C        5.6458240000     2.0464310000     3.5292080000
| 19>  H        1.1018390000    -1.7965140000     0.0585870000
| 20>  H        1.1309730000    -0.0461530000    -0.2504740000
| 21>  H        0.4603730000    -0.6867910000     1.2596720000
| 22>  H        3.2507330000    -1.1456950000     0.5229590000
| 23>  H        2.8771500000     1.2706080000     0.8556180000
| 24>  H        2.1439840000     0.1943930000     3.6155460000
| 25>  H        1.0687780000     1.0902230000     2.5309430000
| 26>  H        2.4741400000     1.8943640000     3.2295430000
| 27>  H        4.9981140000    -0.0110070000     1.2026960000
| 28>  H        4.5530380000    -0.2702550000     2.8874460000
| 29>  H        5.0038420000     2.5035270000     1.6023350000
| 30>  H        5.7198460000     1.3229450000     4.3354530000
| 31>  H        6.0793020000     3.0244180000     3.7043120000
| 32> *
| 33>
| 34>                          ****END OF INPUT****
 Total Charge           Charge          ....    0
 Multiplicity           Mult            ....    1
 Number of Electrons    NEL             ....   56
 Basis Dimension        Dim             ....  163

MULLIKEN ATOMIC CHARGES
-----------------------
   0 C :    0.068154
   1 N :   -0.232394
   2 C :   -0.071461
   3 C :    0.038401
   4 C :    0.084146
   5 C :   -0.087838
   6 C :   -0.028944
   7 H :    0.017375
   8 H :   -0.006131
   9 H :    0.023308
  10 H :    0.094533
  11 H :   -0.014835
  12 H :    0.020094
  13 H :    0.015889
  14 H :    0.014611
  15 H :    0.010550
  16 H :    0.007674
  17 H :    0.006155
  18 H :    0.019741
  19 H :    0.020974
Sum of atomic charges:   -0.0000000

LOEWDIN ATOMIC CHARGES
----------------------
   0 C :   -0.006677
   1 N :   -0.100836
   2 C :    0.005073
   3 C :   -0.064739
   4 C :   -0.040531
   5 C :   -0.028643
   6 C :   -0.064487
   7 H :    0.023617
   8 H :   -0.001725
   9 H :    0.019593
  10 H :    0.050512
  11 H :   -0.002274
  12 H :    0.027911
  13 H :    0.023319
  14 H :    0.028404
  15 H :    0.030447
  16 H :    0.029869
  17 H :    0.025082
  18 H :    0.022179
  19 H :    0.023905

  Mayer bond orders larger than 0.1
B(  0-C ,  1-N ) :   1.0627 B(  0-C ,  7-H ) :   0.9701 B(  0-C ,  8-H ) :   0.9416
B(  0-C ,  9-H ) :   0.9663 B(  1-N ,  2-C ) :   1.0464 B(  1-N , 10-H ) :   0.9380
B(  2-C ,  3-C ) :   1.0738 B(  2-C ,  4-C ) :   1.0379 B(  2-C , 11-H ) :   0.9069
B(  3-C , 12-H ) :   0.9528 B(  3-C , 13-H ) :   0.9534 B(  3-C , 14-H ) :   0.9493
B(  4-C ,  5-C ) :   1.0632 B(  4-C , 15-H ) :   0.9045 B(  4-C , 16-H ) :   0.9232
B(  5-C ,  6-C ) :   2.0011 B(  5-C , 17-H ) :   0.9526 B(  6-C , 18-H ) :   0.9487
B(  6-C , 19-H ) :   0.9418

FINAL SINGLE POINT ENERGY      -290.565356053734

DIPOLE MOMENT
-------------
                                X             Y             Z
Electronic contribution:      2.88198      -0.14163      -0.02324
Nuclear contribution   :     -2.86472       0.18889      -0.35341
                        -----------------------------------------
Total Dipole Moment    :      0.01727       0.04726      -0.37665
                        -----------------------------------------
Magnitude (a.u.)       :      0.37999
Magnitude (Debye)      :      0.96586

                             ****ORCA TERMINATED NORMALLY****
TOTAL RUN TIME: 0 days 0 hours 0 minutes 8 seconds 652 msec
