                         Program Version 3.0.3 - RELEASE   -
|  1> ! RI PBE def2-SVP def2-SVP/J NBO PAL2
|  2> % maxcore 2000
|  3> % output
|  4>     # printlevel mini
|  5>     print[ P_Basis ] 0
|  6>     print[ P_SCFInfo ] 1
|  7>     print[ P_SCFIterInfo ] 1
|  8>     print[ P_OrbEn ] 0
|  9>     print[ P_Cartesian ] 0
| 10> end
| 11> *xyz 0 1
| 12>  C        2.8818600000     0.5319780000     1.0300170000
| 13>  N        2.5056250000     0.0329590000    -0.2719110000
| 14>  C        2.9586540000    -1.2995430000    -0.6092300000
| 15>  C        2.3160130000    -1.7331940000    -1.9124940000
| 16>  C        4.4987210000    -1.4289800000    -0.6817090000
| 17>  C        4.9603020000    -2.7954710000    -0.8403320000
| 18>  C        5.3153210000    -3.9364290000    -0.9639280000
| 19>  H        2.4141610000     1.5051240000     1.1933270000
| 20>  H        3.9639150000     0.6504390000     1.1982610000
| 21>  H        2.5017900000    -0.1461480000     1.7993350000
| 22>  H        2.7575590000     0.6878900000    -1.0019700000
| 23>  H        2.6151770000    -1.9640010000     0.1928620000
| 24>  H        2.6125890000    -1.0626810000    -2.7265810000
| 25>  H        1.2292120000    -1.7001170000    -1.8268620000
| 26>  H        2.6236600000    -2.7441090000    -2.1838540000
| 27>  H        4.9435120000    -1.0136940000     0.2278110000
| 28>  H        4.8642530000    -0.8207520000    -1.5186210000
| 29>  H        5.6370660000    -4.9446700000    -1.0747210000
| 30> *
| 31>
| 32>                          ****END OF INPUT****
 Total Charge           Charge          ....    0
 Multiplicity           Mult            ....    1
 Number of Electrons    NEL             ....   54
 Basis Dimension        Dim             ....  153

MULLIKEN ATOMIC CHARGES
-----------------------
   0 C :    0.070150
   1 N :   -0.233505
   2 C :   -0.074128
   3 C :    0.033684
   4 C :    0.119081
   5 C :    0.338497
   6 C :   -0.514485
   7 H :    0.020863
   8 H :    0.004201
   9 H :    0.019650
  10 H :    0.096712
  11 H :    0.013141
  12 H :    0.003218
  13 H :    0.033098
  14 H :    0.028699
  15 H :    0.029176
  16 H :    0.017229
  17 H :   -0.005280
Sum of atomic charges:    0.0000000

LOEWDIN ATOMIC CHARGES
----------------------
   0 C :   -0.006702
   1 N :   -0.090039
   2 C :    0.009854
   3 C :   -0.063089
   4 C :   -0.059635
   5 C :   -0.022302
   6 C :   -0.098880
   7 H :    0.025068
   8 H :   -0.003009
   9 H :    0.024318
  10 H :    0.052616
  11 H :    0.025337
  12 H :    0.022277
  13 H :    0.030776
  14 H :    0.033332
  15 H :    0.045064
  16 H :    0.041996
  17 H :    0.033017

  Mayer bond orders larger than 0.1
B(  0-C ,  1-N ) :   1.0667 B(  0-C ,  7-H ) :   0.9683 B(  0-C ,  8-H ) :   0.9415
B(  0-C ,  9-H ) :   0.9655 B(  1-N ,  2-C ) :   1.0618 B(  1-N , 10-H ) :   0.9425
B(  2-C ,  3-C ) :   1.0863 B(  2-C ,  4-C ) :   1.0100 B(  2-C , 11-H ) :   0.9115
B(  3-C , 12-H ) :   0.9497 B(  3-C , 13-H ) :   0.9586 B(  3-C , 14-H ) :   0.9540
B(  4-C ,  5-C ) :   1.0611 B(  4-C , 15-H ) :   0.8880 B(  4-C , 16-H ) :   0.8788
B(  5-C ,  6-C ) :   2.3073 B(  5-C , 17-H ) :  -0.1148 B(  6-C , 17-H ) :   1.1055

FINAL SINGLE POINT ENERGY      -289.323860183852

DIPOLE MOMENT
-------------
                                X             Y             Z
Electronic contribution:      3.02078      -3.56145      -0.71005
Nuclear contribution   :     -2.93218       3.95899       0.72599
                        -----------------------------------------
Total Dipole Moment    :      0.08860       0.39754       0.01594
                        -----------------------------------------
Magnitude (a.u.)       :      0.40760
Magnitude (Debye)      :      1.03605

                             ****ORCA TERMINATED NORMALLY****
TOTAL RUN TIME: 0 days 0 hours 0 minutes 8 seconds 121 msec
