                         Program Version 3.0.3 - RELEASE   -
|  1> ! RI PBE def2-SVP def2-SVP/J NBO PAL2
|  2> % maxcore 2000
|  3> % output
|  4>     # printlevel mini
|  5>     print[ P_Basis ] 0
|  6>     print[ P_SCFInfo ] 1
|  7>     print[ P_SCFIterInfo ] 1
|  8>     print[ P_OrbEn ] 0
|  9>     print[ P_Cartesian ] 0
| 10> end
| 11> *xyz 0 1
| 12>  C        2.7368600000     0.0416390000     1.3574040000
| 13>  N        2.3929980000    -0.0049830000    -0.0492730000
| 14>  C        2.9814520000    -1.1314430000    -0.7589680000
| 15>  C        2.5055700000    -1.1639190000    -2.1426820000
| 16>  C        2.1182270000    -1.1854760000    -3.2766290000
| 17>  C        4.4548960000    -1.1695390000    -0.7241100000
| 18>  C        5.6529300000    -1.1630890000    -0.6540780000
| 19>  H        2.2657910000     0.9174950000     1.8057880000
| 20>  H        3.8168720000     0.0819990000     1.5580510000
| 21>  H        2.3325840000    -0.8428150000     1.8577130000
| 22>  H        2.6655480000     0.8525910000    -0.5138890000
| 23>  H        2.6195760000    -2.0424170000    -0.2617000000
| 24>  H        1.7715180000    -1.2055780000    -4.2827380000
| 25>  H        6.7163900000    -1.1642050000    -0.6053980000
| 26> *
| 27>
| 28>                          ****END OF INPUT****
 Total Charge           Charge          ....    0
 Multiplicity           Mult            ....    1
 Number of Electrons    NEL             ....   50
 Basis Dimension        Dim             ....  133

MULLIKEN ATOMIC CHARGES
-----------------------
   0 C :    0.076030
   1 N :   -0.241612
   2 C :    0.160953
   3 C :    0.411059
   4 C :   -0.501190
   5 C :    0.376174
   6 C :   -0.503541
   7 H :    0.028353
   8 H :    0.014815
   9 H :    0.017277
  10 H :    0.110738
  11 H :    0.046450
  12 H :    0.003650
  13 H :    0.000843
Sum of atomic charges:   -0.0000000

LOEWDIN ATOMIC CHARGES
----------------------
   0 C :   -0.004361
   1 N :   -0.074292
   2 C :   -0.005169
   3 C :   -0.008853
   4 C :   -0.062224
   5 C :   -0.028410
   6 C :   -0.071659
   7 H :    0.027585
   8 H :    0.006390
   9 H :    0.023829
  10 H :    0.061275
  11 H :    0.062085
  12 H :    0.037466
  13 H :    0.036336

  Mayer bond orders larger than 0.1
B(  0-C ,  1-N ) :   1.0552 B(  0-C ,  7-H ) :   0.9722 B(  0-C ,  8-H ) :   0.9457
B(  0-C ,  9-H ) :   0.9632 B(  1-N ,  2-C ) :   1.0533 B(  1-N , 10-H ) :   0.9387
B(  2-C ,  3-C ) :   0.9739 B(  2-C ,  5-C ) :   0.9166 B(  2-C , 11-H ) :   0.8530
B(  3-C ,  4-C ) :   2.3428 B(  3-C , 12-H ) :  -0.1145 B(  4-C , 12-H ) :   1.1042
B(  5-C ,  6-C ) :   2.3570 B(  5-C , 13-H ) :  -0.1212 B(  6-C , 13-H ) :   1.1112

FINAL SINGLE POINT ENERGY      -286.845826410897

DIPOLE MOMENT
-------------
                                X             Y             Z
Electronic contribution:      0.66712      -1.77307      -4.72506
Nuclear contribution   :     -0.44980       1.94720       4.91999
                        -----------------------------------------
Total Dipole Moment    :      0.21732       0.17413       0.19492
                        -----------------------------------------
Magnitude (a.u.)       :      0.33992
Magnitude (Debye)      :      0.86401

                             ****ORCA TERMINATED NORMALLY****
TOTAL RUN TIME: 0 days 0 hours 0 minutes 6 seconds 502 msec
