                         Program Version 3.0.3 - RELEASE   -
|  1> ! RI PBE def2-SVP def2-SVP/J NBO PAL2
|  2> % maxcore 2000
|  3> % output
|  4>     # printlevel mini
|  5>     print[ P_Basis ] 0
|  6>     print[ P_SCFInfo ] 1
|  7>     print[ P_SCFIterInfo ] 1
|  8>     print[ P_OrbEn ] 0
|  9>     print[ P_Cartesian ] 0
| 10> end
| 11> *xyz 0 1
| 12>  C        0.8635580000    -1.3189970000    -0.5075080000
| 13>  N        2.3061470000    -1.2764020000    -0.5781900000
| 14>  C        2.7992210000    -0.3671280000    -1.5975580000
| 15>  C        4.2907070000    -0.3616350000    -1.6217300000
| 16>  C        5.1022060000    -0.5804590000    -2.6579890000
| 17>  C        4.6537270000    -0.8796520000    -4.0546990000
| 18>  C        6.5894570000    -0.5239410000    -2.4860070000
| 19>  H        0.5501520000    -2.0576480000     0.2329390000
| 20>  H        0.3718960000    -1.5604020000    -1.4655840000
| 21>  H        0.4852070000    -0.3453930000    -0.1823110000
| 22>  H        2.6762170000    -2.2023660000    -0.7535140000
| 23>  H        2.4419470000     0.6375080000    -1.3320090000
| 24>  H        2.3804870000    -0.5828750000    -2.5937880000
| 25>  H        4.7457430000    -0.1605240000    -0.6537410000
| 26>  H        3.5749940000    -0.9958460000    -4.1467900000
| 27>  H        5.1296890000    -1.7963080000    -4.4188040000
| 28>  H        4.9644840000    -0.0795880000    -4.7354970000
| 29>  H        6.8696560000    -0.3021740000    -1.4554590000
| 30>  H        7.0286540000     0.2428140000    -3.1338650000
| 31>  H        7.0525500000    -1.4744840000    -2.7728970000
| 32> *
| 33>
| 34>                          ****END OF INPUT****
 Total Charge           Charge          ....    0
 Multiplicity           Mult            ....    1
 Number of Electrons    NEL             ....   56
 Basis Dimension        Dim             ....  163

MULLIKEN ATOMIC CHARGES
-----------------------
   0 C :    0.074770
   1 N :   -0.286074
   2 C :    0.192659
   3 C :   -0.109920
   4 C :   -0.185099
   5 C :    0.058021
   6 C :    0.050134
   7 H :    0.021358
   8 H :   -0.012051
   9 H :    0.013907
  10 H :    0.096298
  11 H :    0.005039
  12 H :   -0.021892
  13 H :   -0.018374
  14 H :    0.010780
  15 H :    0.017239
  16 H :    0.030601
  17 H :    0.014687
  18 H :    0.024965
  19 H :    0.022952
Sum of atomic charges:   -0.0000000

LOEWDIN ATOMIC CHARGES
----------------------
   0 C :   -0.007854
   1 N :   -0.105054
   2 C :    0.010309
   3 C :   -0.066790
   4 C :   -0.043784
   5 C :   -0.061182
   6 C :   -0.054740
   7 H :    0.022190
   8 H :   -0.004705
   9 H :    0.020239
  10 H :    0.052587
  11 H :    0.027298
  12 H :   -0.000772
  13 H :    0.022551
  14 H :    0.025232
  15 H :    0.033188
  16 H :    0.037251
  17 H :    0.029221
  18 H :    0.032964
  19 H :    0.031853

  Mayer bond orders larger than 0.1
B(  0-C ,  1-N ) :   1.0700 B(  0-C ,  7-H ) :   0.9734 B(  0-C ,  8-H ) :   0.9416
B(  0-C ,  9-H ) :   0.9676 B(  1-N ,  2-C ) :   1.0062 B(  1-N , 10-H ) :   0.9491
B(  2-C ,  3-C ) :   1.0620 B(  2-C , 11-H ) :   0.9024 B(  2-C , 12-H ) :   0.9095
B(  3-C ,  4-C ) :   1.8768 B(  3-C , 13-H ) :   0.9387 B(  4-C ,  5-C ) :   1.1019
B(  4-C ,  6-C ) :   1.0782 B(  5-C , 14-H ) :   0.9437 B(  5-C , 15-H ) :   0.9392
B(  5-C , 16-H ) :   0.9415 B(  6-C , 17-H ) :   0.9541 B(  6-C , 18-H ) :   0.9474
B(  6-C , 19-H ) :   0.9477

FINAL SINGLE POINT ENERGY      -290.572217849278

DIPOLE MOMENT
-------------
                                X             Y             Z
Electronic contribution:      0.57865       0.34816       1.83252
Nuclear contribution   :     -0.56744      -0.54257      -2.22379
                        -----------------------------------------
Total Dipole Moment    :      0.01120      -0.19441      -0.39126
                        -----------------------------------------
Magnitude (a.u.)       :      0.43704
Magnitude (Debye)      :      1.11088

                             ****ORCA TERMINATED NORMALLY****
TOTAL RUN TIME: 0 days 0 hours 0 minutes 8 seconds 419 msec
