                         Program Version 3.0.3 - RELEASE   -
|  1> ! RI PBE def2-SVP def2-SVP/J NBO PAL2
|  2> % maxcore 2000
|  3> % output
|  4>     # printlevel mini
|  5>     print[ P_Basis ] 0
|  6>     print[ P_SCFInfo ] 1
|  7>     print[ P_SCFIterInfo ] 1
|  8>     print[ P_OrbEn ] 0
|  9>     print[ P_Cartesian ] 0
| 10> end
| 11> *xyz 0 1
| 12>  C        1.8077610000     0.1021330000     0.9805520000
| 13>  N        3.1453680000     0.0592510000     0.4336670000
| 14>  C        3.1947260000     0.3868840000    -0.9778580000
| 15>  C        4.5944350000     0.3618680000    -1.4858150000
| 16>  C        5.0087390000    -0.3514620000    -2.5350970000
| 17>  C        6.3705840000    -0.3576890000    -3.0268850000
| 18>  C        6.7860110000    -1.0626830000    -4.0789090000
| 19>  H        1.8272100000    -0.2042340000     2.0281370000
| 20>  H        1.0825100000    -0.5357410000     0.4476990000
| 21>  H        1.4313650000     1.1284730000     0.9439240000
| 22>  H        3.5531790000    -0.8561730000     0.5777370000
| 23>  H        2.7889510000     1.4021840000    -1.0877040000
| 24>  H        2.5602630000    -0.2691040000    -1.6002220000
| 25>  H        5.3082330000     0.9728460000    -0.9363820000
| 26>  H        4.2919590000    -0.9711480000    -3.0724680000
| 27>  H        7.0823050000     0.2616880000    -2.4849330000
| 28>  H        6.1023550000    -1.6890650000    -4.6431620000
| 29>  H        7.8170250000    -1.0358250000    -4.4094010000
| 30> *
| 31>
| 32>                          ****END OF INPUT****
 Total Charge           Charge          ....    0
 Multiplicity           Mult            ....    1
 Number of Electrons    NEL             ....   54
 Basis Dimension        Dim             ....  153

MULLIKEN ATOMIC CHARGES
-----------------------
   0 C :    0.069557
   1 N :   -0.284043
   2 C :    0.189798
   3 C :   -0.097096
   4 C :    0.015448
   5 C :   -0.005000
   6 C :   -0.036720
   7 H :    0.022837
   8 H :   -0.005438
   9 H :    0.017440
  10 H :    0.099224
  11 H :    0.011518
  12 H :   -0.019845
  13 H :   -0.000076
  14 H :   -0.015666
  15 H :   -0.006478
  16 H :    0.019257
  17 H :    0.025283
Sum of atomic charges:   -0.0000000

LOEWDIN ATOMIC CHARGES
----------------------
   0 C :   -0.007146
   1 N :   -0.105239
   2 C :    0.011628
   3 C :   -0.029635
   4 C :   -0.041452
   5 C :   -0.031137
   6 C :   -0.055150
   7 H :    0.023547
   8 H :   -0.001752
   9 H :    0.021158
  10 H :    0.054182
  11 H :    0.030376
  12 H :    0.001323
  13 H :    0.026062
  14 H :    0.025465
  15 H :    0.029616
  16 H :    0.022759
  17 H :    0.025393

  Mayer bond orders larger than 0.1
B(  0-C ,  1-N ) :   1.0656 B(  0-C ,  7-H ) :   0.9723 B(  0-C ,  8-H ) :   0.9445
B(  0-C ,  9-H ) :   0.9678 B(  1-N ,  2-C ) :   1.0146 B(  1-N , 10-H ) :   0.9490
B(  2-C ,  3-C ) :   1.0508 B(  2-C , 11-H ) :   0.9050 B(  2-C , 12-H ) :   0.9112
B(  3-C ,  4-C ) :   1.7658 B(  3-C ,  6-C ) :   0.1370 B(  3-C , 13-H ) :   0.9640
B(  4-C ,  5-C ) :   1.1392 B(  4-C , 14-H ) :   0.9577 B(  5-C ,  6-C ) :   1.8831
B(  5-C , 15-H ) :   0.9624 B(  6-C , 16-H ) :   0.9484 B(  6-C , 17-H ) :   0.9428

FINAL SINGLE POINT ENERGY      -289.353591493006

DIPOLE MOMENT
-------------
                                X             Y             Z
Electronic contribution:      3.42607       0.18318      -1.69484
Nuclear contribution   :     -3.66331      -0.40500       1.72431
                        -----------------------------------------
Total Dipole Moment    :     -0.23724      -0.22182       0.02947
                        -----------------------------------------
Magnitude (a.u.)       :      0.32612
Magnitude (Debye)      :      0.82894

                             ****ORCA TERMINATED NORMALLY****
TOTAL RUN TIME: 0 days 0 hours 0 minutes 7 seconds 665 msec
