                         Program Version 3.0.3 - RELEASE   -
|  1> ! RI PBE def2-SVP def2-SVP/J NBO PAL2
|  2> % maxcore 2000
|  3> % output
|  4>     # printlevel mini
|  5>     print[ P_Basis ] 0
|  6>     print[ P_SCFInfo ] 1
|  7>     print[ P_SCFIterInfo ] 1
|  8>     print[ P_OrbEn ] 0
|  9>     print[ P_Cartesian ] 0
| 10> end
| 11> *xyz 0 1
| 12>  C        1.0242040000     0.0331010000    -0.1394480000
| 13>  N        2.4684640000     0.0853890000    -0.0886400000
| 14>  C        2.9782920000     0.5075130000     1.1997140000
| 15>  C        4.4670080000     0.4933020000     1.2146800000
| 16>  C        5.2169410000     1.5404640000     1.5658210000
| 17>  C        6.6336500000     1.5341290000     1.5971420000
| 18>  C        7.8362840000     1.5634410000     1.6334040000
| 19>  H        0.7009290000    -0.2379520000    -1.1460600000
| 20>  H        0.5298630000     0.9785590000     0.1394920000
| 21>  H        0.6629530000    -0.7414010000     0.5430490000
| 22>  H        2.8224180000     0.7029270000    -0.8085320000
| 23>  H        2.6086240000    -0.2094160000     1.9458090000
| 24>  H        2.6104400000     1.5003610000     1.5144970000
| 25>  H        4.9437460000    -0.4340920000     0.9096890000
| 26>  H        4.7330990000     2.4710100000     1.8565020000
| 27>  H        8.8998730000     1.5786940000     1.6629820000
| 28> *
| 29>
| 30>                          ****END OF INPUT****
 Total Charge           Charge          ....    0
 Multiplicity           Mult            ....    1
 Number of Electrons    NEL             ....   52
 Basis Dimension        Dim             ....  143

MULLIKEN ATOMIC CHARGES
-----------------------
   0 C :    0.070245
   1 N :   -0.284117
   2 C :    0.175870
   3 C :   -0.063586
   4 C :   -0.065926
   5 C :    0.384583
   6 C :   -0.405815
   7 H :    0.023465
   8 H :   -0.005360
   9 H :    0.019770
  10 H :    0.103724
  11 H :    0.023288
  12 H :   -0.018713
  13 H :    0.013616
  14 H :    0.024571
  15 H :    0.004386
Sum of atomic charges:    0.0000000

LOEWDIN ATOMIC CHARGES
----------------------
   0 C :   -0.005583
   1 N :   -0.103561
   2 C :    0.011570
   3 C :   -0.004771
   4 C :   -0.058345
   5 C :   -0.018876
   6 C :   -0.066692
   7 H :    0.024158
   8 H :   -0.001516
   9 H :    0.022108
  10 H :    0.056008
  11 H :    0.034361
  12 H :    0.001844
  13 H :    0.033406
  14 H :    0.040856
  15 H :    0.035033

  Mayer bond orders larger than 0.1
B(  0-C ,  1-N ) :   1.0639 B(  0-C ,  7-H ) :   0.9730 B(  0-C ,  8-H ) :   0.9453
B(  0-C ,  9-H ) :   0.9688 B(  1-N ,  2-C ) :   1.0191 B(  1-N , 10-H ) :   0.9490
B(  2-C ,  3-C ) :   1.0553 B(  2-C , 11-H ) :   0.9068 B(  2-C , 12-H ) :   0.9083
B(  3-C ,  4-C ) :   1.8022 B(  3-C ,  6-C ) :   0.1299 B(  3-C , 13-H ) :   0.9639
B(  4-C ,  5-C ) :   1.0476 B(  4-C , 14-H ) :   0.9342 B(  5-C ,  6-C ) :   2.2825
B(  6-C , 15-H ) :   1.0885

FINAL SINGLE POINT ENERGY      -288.106776527048

DIPOLE MOMENT
-------------
                                X             Y             Z
Electronic contribution:      8.47612       1.59270       1.71452
Nuclear contribution   :     -8.89148      -1.39558      -1.81656
                        -----------------------------------------
Total Dipole Moment    :     -0.41536       0.19712      -0.10203
                        -----------------------------------------
Magnitude (a.u.)       :      0.47095
Magnitude (Debye)      :      1.19706

                             ****ORCA TERMINATED NORMALLY****
TOTAL RUN TIME: 0 days 0 hours 0 minutes 6 seconds 979 msec
