                         Program Version 3.0.3 - RELEASE   -
|  1> ! RI PBE def2-SVP def2-SVP/J NBO PAL2
|  2> % maxcore 2000
|  3> % output
|  4>     # printlevel mini
|  5>     print[ P_Basis ] 0
|  6>     print[ P_SCFInfo ] 1
|  7>     print[ P_SCFIterInfo ] 1
|  8>     print[ P_OrbEn ] 0
|  9>     print[ P_Cartesian ] 0
| 10> end
| 11> *xyz 0 1
| 12>  C        1.1746540000     0.5683540000     0.0778390000
| 13>  N        2.5080520000     0.2495360000    -0.3761720000
| 14>  C        3.5308440000     0.6053090000     0.5907450000
| 15>  C        4.9131800000     0.4564130000     0.0211860000
| 16>  C        5.7165380000    -0.5387910000     0.4038980000
| 17>  C        5.3763740000     1.4224870000    -0.9716850000
| 18>  C        4.7340920000     2.5247290000    -1.3573790000
| 19>  H        0.4509330000     0.3304210000    -0.7040090000
| 20>  H        1.0383780000     1.6251430000     0.3669200000
| 21>  H        0.9280830000    -0.0424190000     0.9515160000
| 22>  H        2.6995100000     0.7051610000    -1.2587660000
| 23>  H        3.4269410000    -0.0549260000     1.4572520000
| 24>  H        3.4050240000     1.6375540000     0.9693810000
| 25>  H        5.4033560000    -1.2680770000     1.1418320000
| 26>  H        6.7121410000    -0.6502900000    -0.0123660000
| 27>  H        6.3451610000     1.2027310000    -1.4146720000
| 28>  H        3.7720350000     2.8093530000    -0.9448530000
| 29>  H        5.1632950000     3.1922120000    -2.0945350000
| 30> *
| 31>
| 32>                          ****END OF INPUT****
 Total Charge           Charge          ....    0
 Multiplicity           Mult            ....    1
 Number of Electrons    NEL             ....   54
 Basis Dimension        Dim             ....  153

MULLIKEN ATOMIC CHARGES
-----------------------
   0 C :    0.075289
   1 N :   -0.266382
   2 C :    0.174200
   3 C :   -0.096347
   4 C :   -0.023737
   5 C :    0.007308
   6 C :   -0.052147
   7 H :    0.024617
   8 H :   -0.010767
   9 H :    0.016115
  10 H :    0.098817
  11 H :   -0.009699
  12 H :   -0.016658
  13 H :    0.021570
  14 H :    0.012521
  15 H :   -0.012759
  16 H :    0.026945
  17 H :    0.031116
Sum of atomic charges:    0.0000000

LOEWDIN ATOMIC CHARGES
----------------------
   0 C :   -0.006411
   1 N :   -0.101516
   2 C :    0.022357
   3 C :   -0.037773
   4 C :   -0.033734
   5 C :   -0.021102
   6 C :   -0.062303
   7 H :    0.023921
   8 H :   -0.004152
   9 H :    0.020718
  10 H :    0.050590
  11 H :    0.022514
  12 H :   -0.000297
  13 H :    0.025091
  14 H :    0.021796
  15 H :    0.030494
  16 H :    0.021801
  17 H :    0.028007

  Mayer bond orders larger than 0.1
B(  0-C ,  1-N ) :   1.0650 B(  0-C ,  7-H ) :   0.9718 B(  0-C ,  8-H ) :   0.9404
B(  0-C ,  9-H ) :   0.9668 B(  1-N ,  2-C ) :   1.0586 B(  1-N , 10-H ) :   0.9496
B(  2-C ,  3-C ) :   1.0418 B(  2-C , 11-H ) :   0.9083 B(  2-C , 12-H ) :   0.8828
B(  3-C ,  4-C ) :   1.9068 B(  3-C ,  5-C ) :   1.1152 B(  4-C ,  6-C ) :   0.1390
B(  4-C , 13-H ) :   0.9310 B(  4-C , 14-H ) :   0.9380 B(  5-C ,  6-C ) :   1.8907
B(  5-C , 15-H ) :   0.9522 B(  6-C , 16-H ) :   0.9320 B(  6-C , 17-H ) :   0.9447

FINAL SINGLE POINT ENERGY      -289.348139213532

DIPOLE MOMENT
-------------
                                X             Y             Z
Electronic contribution:      3.49523      -0.80910      -0.90472
Nuclear contribution   :     -3.50137       1.08275       0.85303
                        -----------------------------------------
Total Dipole Moment    :     -0.00614       0.27365      -0.05169
                        -----------------------------------------
Magnitude (a.u.)       :      0.27855
Magnitude (Debye)      :      0.70802

                             ****ORCA TERMINATED NORMALLY****
TOTAL RUN TIME: 0 days 0 hours 0 minutes 7 seconds 826 msec
