                         Program Version 3.0.3 - RELEASE   -
|  1> ! RI PBE def2-SVP def2-SVP/J NBO PAL2
|  2> % maxcore 2000
|  3> % output
|  4>     # printlevel mini
|  5>     print[ P_Basis ] 0
|  6>     print[ P_SCFInfo ] 1
|  7>     print[ P_SCFIterInfo ] 1
|  8>     print[ P_OrbEn ] 0
|  9>     print[ P_Cartesian ] 0
| 10> end
| 11> *xyz 0 1
| 12>  C        1.5648730000    -0.0183390000     0.0747950000
| 13>  N        3.0089450000     0.0139890000     0.1506400000
| 14>  C        3.6028430000     0.8974750000    -0.8196500000
| 15>  C        5.0977950000     1.0271440000    -0.6681720000
| 16>  C        5.7776580000     0.5363860000     0.3697910000
| 17>  C        5.7537620000     1.7284000000    -1.7209660000
| 18>  C        6.2637500000     2.3298330000    -2.6297890000
| 19>  H        1.1763640000    -0.7476720000     0.7878330000
| 20>  H        1.1717390000    -0.2695390000    -0.9242380000
| 21>  H        1.1624670000     0.9600160000     0.3512110000
| 22>  H        3.3832880000    -0.9193270000     0.0290750000
| 23>  H        3.1596770000     1.8938430000    -0.6965430000
| 24>  H        3.3883620000     0.6086350000    -1.8640950000
| 25>  H        5.2582280000     0.0290010000     1.1727500000
| 26>  H        6.8515880000     0.6535720000     0.4366510000
| 27>  H        6.7295520000     2.8602730000    -3.4261720000
| 28> *
| 29>
| 30>                          ****END OF INPUT****
 Total Charge           Charge          ....    0
 Multiplicity           Mult            ....    1
 Number of Electrons    NEL             ....   52
 Basis Dimension        Dim             ....  143

MULLIKEN ATOMIC CHARGES
-----------------------
   0 C :    0.073558
   1 N :   -0.269849
   2 C :    0.186331
   3 C :   -0.187646
   4 C :    0.012430
   5 C :    0.412363
   6 C :   -0.452935
   7 H :    0.024316
   8 H :   -0.004038
   9 H :    0.021915
  10 H :    0.106270
  11 H :    0.027725
  12 H :    0.003793
  13 H :    0.018946
  14 H :    0.023076
  15 H :    0.003747
Sum of atomic charges:   -0.0000000

LOEWDIN ATOMIC CHARGES
----------------------
   0 C :   -0.002744
   1 N :   -0.096356
   2 C :    0.024612
   3 C :   -0.058032
   4 C :   -0.032852
   5 C :   -0.009056
   6 C :   -0.069684
   7 H :    0.024465
   8 H :   -0.000337
   9 H :    0.022895
  10 H :    0.057294
  11 H :    0.038179
  12 H :    0.012952
  13 H :    0.023207
  14 H :    0.029596
  15 H :    0.035861

  Mayer bond orders larger than 0.1
B(  0-C ,  1-N ) :   1.0632 B(  0-C ,  7-H ) :   0.9726 B(  0-C ,  8-H ) :   0.9452
B(  0-C ,  9-H ) :   0.9695 B(  1-N ,  2-C ) :   1.0630 B(  1-N , 10-H ) :   0.9368
B(  2-C ,  3-C ) :   0.9967 B(  2-C , 11-H ) :   0.9079 B(  2-C , 12-H ) :   0.9067
B(  3-C ,  4-C ) :   1.9240 B(  3-C ,  5-C ) :   1.0104 B(  4-C ,  6-C ) :   0.1235
B(  4-C , 13-H ) :   0.9144 B(  4-C , 14-H ) :   0.9335 B(  5-C ,  6-C ) :   2.2760
B(  5-C , 15-H ) :  -0.1031 B(  6-C , 15-H ) :   1.0933

FINAL SINGLE POINT ENERGY      -288.105693025474

DIPOLE MOMENT
-------------
                                X             Y             Z
Electronic contribution:      5.92656       2.38077      -2.22130
Nuclear contribution   :     -6.25983      -2.64950       2.05873
                        -----------------------------------------
Total Dipole Moment    :     -0.33327      -0.26873      -0.16256
                        -----------------------------------------
Magnitude (a.u.)       :      0.45794
Magnitude (Debye)      :      1.16399

                             ****ORCA TERMINATED NORMALLY****
TOTAL RUN TIME: 0 days 0 hours 0 minutes 7 seconds 405 msec
