                         Program Version 3.0.3 - RELEASE   -
|  1> ! RI PBE def2-SVP def2-SVP/J NBO PAL2
|  2> % maxcore 2000
|  3> % output
|  4>     # printlevel mini
|  5>     print[ P_Basis ] 0
|  6>     print[ P_SCFInfo ] 1
|  7>     print[ P_SCFIterInfo ] 1
|  8>     print[ P_OrbEn ] 0
|  9>     print[ P_Cartesian ] 0
| 10> end
| 11> *xyz 0 1
| 12>  C        1.5297540000     1.5589600000     0.1231680000
| 13>  N        2.9715780000     1.4666660000     0.1649300000
| 14>  C        3.4591720000     0.6785560000     1.2828800000
| 15>  C        4.9576940000     0.5600940000     1.2650500000
| 16>  C        5.5202700000    -0.1688890000     0.0858110000
| 17>  C        5.6735010000     1.0860510000     2.2605590000
| 18>  C        7.1533250000     1.0689020000     2.4399700000
| 19>  H        1.2237210000     2.2121890000    -0.6964560000
| 20>  H        1.0758140000     1.9382030000     1.0545650000
| 21>  H        1.1057370000     0.5689190000    -0.0680200000
| 22>  H        3.3777410000     2.3931290000     0.2169390000
| 23>  H        3.0140740000    -0.3216690000     1.1894860000
| 24>  H        3.1324330000     1.0773430000     2.2586180000
| 25>  H        5.2456630000    -1.2291030000     0.1281510000
| 26>  H        6.6056790000    -0.1067110000     0.0209170000
| 27>  H        5.0900320000     0.2291300000    -0.8362040000
| 28>  H        5.1190680000     1.5852350000     3.0544510000
| 29>  H        7.6756650000     0.5697540000     1.6242140000
| 30>  H        7.4242030000     0.5592680000     3.3706440000
| 31>  H        7.5477650000     2.0872740000     2.5189060000
| 32> *
| 33>
| 34>                          ****END OF INPUT****
 Total Charge           Charge          ....    0
 Multiplicity           Mult            ....    1
 Number of Electrons    NEL             ....   56
 Basis Dimension        Dim             ....  163

MULLIKEN ATOMIC CHARGES
-----------------------
   0 C :    0.072400
   1 N :   -0.270447
   2 C :    0.168122
   3 C :   -0.180456
   4 C :    0.079944
   5 C :   -0.128133
   6 C :    0.054505
   7 H :    0.021705
   8 H :   -0.009860
   9 H :    0.016455
  10 H :    0.097885
  11 H :   -0.000508
  12 H :   -0.025334
  13 H :    0.021760
  14 H :    0.009325
  15 H :    0.021867
  16 H :   -0.019041
  17 H :    0.016361
  18 H :    0.027319
  19 H :    0.026129
Sum of atomic charges:   -0.0000000

LOEWDIN ATOMIC CHARGES
----------------------
   0 C :   -0.007097
   1 N :   -0.102214
   2 C :    0.020397
   3 C :   -0.053025
   4 C :   -0.060674
   5 C :   -0.059658
   6 C :   -0.067473
   7 H :    0.022372
   8 H :   -0.003334
   9 H :    0.020883
  10 H :    0.054173
  11 H :    0.022453
  12 H :   -0.001099
  13 H :    0.036954
  14 H :    0.024570
  15 H :    0.033724
  16 H :    0.019043
  17 H :    0.027791
  18 H :    0.036633
  19 H :    0.035581

  Mayer bond orders larger than 0.1
B(  0-C ,  1-N ) :   1.0701 B(  0-C ,  7-H ) :   0.9730 B(  0-C ,  8-H ) :   0.9425
B(  0-C ,  9-H ) :   0.9677 B(  1-N ,  2-C ) :   1.0328 B(  1-N , 10-H ) :   0.9436
B(  2-C ,  3-C ) :   1.0534 B(  2-C , 11-H ) :   0.9109 B(  2-C , 12-H ) :   0.9051
B(  3-C ,  4-C ) :   1.1031 B(  3-C ,  5-C ) :   1.8914 B(  4-C , 13-H ) :   0.9339
B(  4-C , 14-H ) :   0.9467 B(  4-C , 15-H ) :   0.9283 B(  5-C ,  6-C ) :   1.0945
B(  5-C , 16-H ) :   0.9323 B(  6-C , 17-H ) :   0.9547 B(  6-C , 18-H ) :   0.9423
B(  6-C , 19-H ) :   0.9444

FINAL SINGLE POINT ENERGY      -290.573610312737

DIPOLE MOMENT
-------------
                                X             Y             Z
Electronic contribution:     -0.03374       0.36744       0.20115
Nuclear contribution   :      0.01161      -0.17422      -0.03841
                        -----------------------------------------
Total Dipole Moment    :     -0.02213       0.19321       0.16275
                        -----------------------------------------
Magnitude (a.u.)       :      0.25359
Magnitude (Debye)      :      0.64457

                             ****ORCA TERMINATED NORMALLY****
TOTAL RUN TIME: 0 days 0 hours 0 minutes 8 seconds 753 msec
