                         Program Version 3.0.3 - RELEASE   -
|  1> ! RI PBE def2-SVP def2-SVP/J NBO PAL2
|  2> % maxcore 2000
|  3> % output
|  4>     # printlevel mini
|  5>     print[ P_Basis ] 0
|  6>     print[ P_SCFInfo ] 1
|  7>     print[ P_SCFIterInfo ] 1
|  8>     print[ P_OrbEn ] 0
|  9>     print[ P_Cartesian ] 0
| 10> end
| 11> *xyz 0 1
| 12>  C        1.2198220000    -0.0521900000    -0.3037590000
| 13>  N        2.6553600000     0.1010710000    -0.2246740000
| 14>  C        3.0666950000     1.0410790000     0.7955030000
| 15>  C        4.5853080000     1.1143210000     0.9925960000
| 16>  C        5.1188680000    -0.2384330000     1.4553660000
| 17>  C        5.2712700000     1.5222650000    -0.3101600000
| 18>  C        4.8679200000     2.1691850000     2.0587160000
| 19>  H        0.9629020000    -0.7196100000    -1.1290220000
| 20>  H        0.6734170000     0.8960480000    -0.4452140000
| 21>  H        0.8489180000    -0.5091650000     0.6181160000
| 22>  H        3.0102110000     0.3997210000    -1.1240060000
| 23>  H        2.6103820000     0.7211100000     1.7403330000
| 24>  H        2.6870460000     2.0625070000     0.6008320000
| 25>  H        4.8648180000    -1.0208840000     0.7383850000
| 26>  H        4.6883160000    -0.5158780000     2.4220320000
| 27>  H        6.2062040000    -0.2083530000     1.5701480000
| 28>  H        5.1636950000     0.7552980000    -1.0819320000
| 29>  H        6.3431000000     1.6672800000    -0.1497500000
| 30>  H        4.8632750000     2.4617800000    -0.6964410000
| 31>  H        4.3737200000     1.9175680000     3.0017140000
| 32>  H        4.5140180000     3.1559640000     1.7459080000
| 33>  H        5.9409250000     2.2448260000     2.2546100000
| 34> *
| 35>
| 36>                          ****END OF INPUT****
 Total Charge           Charge          ....    0
 Multiplicity           Mult            ....    1
 Number of Electrons    NEL             ....   58
 Basis Dimension        Dim             ....  173

MULLIKEN ATOMIC CHARGES
-----------------------
   0 C :    0.073265
   1 N :   -0.257265
   2 C :    0.157973
   3 C :   -0.346542
   4 C :    0.073869
   5 C :    0.035142
   6 C :    0.074692
   7 H :    0.020693
   8 H :   -0.010282
   9 H :    0.018630
  10 H :    0.098380
  11 H :   -0.010529
  12 H :   -0.022286
  13 H :    0.016669
  14 H :    0.000469
  15 H :    0.008340
  16 H :    0.020968
  17 H :    0.015740
  18 H :    0.007328
  19 H :    0.006892
  20 H :    0.006946
  21 H :    0.010908
Sum of atomic charges:   -0.0000000

LOEWDIN ATOMIC CHARGES
----------------------
   0 C :   -0.004819
   1 N :   -0.099661
   2 C :    0.021402
   3 C :   -0.072971
   4 C :   -0.049835
   5 C :   -0.055490
   6 C :   -0.046522
   7 H :    0.021853
   8 H :   -0.003070
   9 H :    0.020733
  10 H :    0.051252
  11 H :    0.017129
  12 H :   -0.005210
  13 H :    0.022705
  14 H :    0.022246
  15 H :    0.020883
  16 H :    0.022599
  17 H :    0.026662
  18 H :    0.022380
  19 H :    0.022855
  20 H :    0.021105
  21 H :    0.023774

  Mayer bond orders larger than 0.1
B(  0-C ,  1-N ) :   1.0689 B(  0-C ,  7-H ) :   0.9726 B(  0-C ,  8-H ) :   0.9418
B(  0-C ,  9-H ) :   0.9688 B(  1-N ,  2-C ) :   1.0602 B(  1-N , 10-H ) :   0.9345
B(  2-C ,  3-C ) :   1.0190 B(  2-C , 11-H ) :   0.9228 B(  2-C , 12-H ) :   0.9164
B(  3-C ,  4-C ) :   1.0472 B(  3-C ,  5-C ) :   1.0496 B(  3-C ,  6-C ) :   1.0530
B(  4-C , 13-H ) :   0.9488 B(  4-C , 14-H ) :   0.9536 B(  4-C , 15-H ) :   0.9597
B(  5-C , 16-H ) :   0.9528 B(  5-C , 17-H ) :   0.9562 B(  5-C , 18-H ) :   0.9561
B(  6-C , 19-H ) :   0.9552 B(  6-C , 20-H ) :   0.9547 B(  6-C , 21-H ) :   0.9573

FINAL SINGLE POINT ENERGY      -291.789436564560

DIPOLE MOMENT
-------------
                                X             Y             Z
Electronic contribution:     -0.71771      -0.89170      -0.82074
Nuclear contribution   :      0.60122       1.13837       0.63438
                        -----------------------------------------
Total Dipole Moment    :     -0.11649       0.24667      -0.18635
                        -----------------------------------------
Magnitude (a.u.)       :      0.33036
Magnitude (Debye)      :      0.83972

                             ****ORCA TERMINATED NORMALLY****
TOTAL RUN TIME: 0 days 0 hours 0 minutes 9 seconds 813 msec
