                         Program Version 3.0.3 - RELEASE   -
|  1> ! RI PBE def2-SVP def2-SVP/J NBO PAL2
|  2> % maxcore 2000
|  3> % output
|  4>     # printlevel mini
|  5>     print[ P_Basis ] 0
|  6>     print[ P_SCFInfo ] 1
|  7>     print[ P_SCFIterInfo ] 1
|  8>     print[ P_OrbEn ] 0
|  9>     print[ P_Cartesian ] 0
| 10> end
| 11> *xyz 0 1
| 12>  C        1.2908770000     0.1807760000    -0.3785050000
| 13>  N        2.7180540000     0.1278500000    -0.1499290000
| 14>  C        3.2044720000     1.2459670000     0.6278510000
| 15>  C        4.6944690000     1.1339990000     0.9516600000
| 16>  C        5.5522110000     1.0974140000    -0.3118280000
| 17>  C        5.1072460000     2.2757930000     1.8269040000
| 18>  C        5.5621230000     2.1651620000     3.0669150000
| 19>  H        0.9875080000    -0.6507220000    -1.0178990000
| 20>  H        0.9449130000     1.1186190000    -0.8452990000
| 21>  H        0.7633640000     0.0745390000     0.5735650000
| 22>  H        3.1989900000     0.0947400000    -1.0393610000
| 23>  H        2.6448520000     1.2662490000     1.5690800000
| 24>  H        3.0162450000     2.2203210000     0.1357290000
| 25>  H        4.8416310000     0.1987300000     1.5027710000
| 26>  H        5.3883900000     1.9916970000    -0.9220370000
| 27>  H        5.3304880000     0.2193060000    -0.9232270000
| 28>  H        6.6131540000     1.0575510000    -0.0571670000
| 29>  H        5.0189700000     3.2678130000     1.3832090000
| 30>  H        5.6681780000     1.1965430000     3.5463580000
| 31>  H        5.8463630000     3.0349630000     3.6481090000
| 32> *
| 33>
| 34>                          ****END OF INPUT****
 Total Charge           Charge          ....    0
 Multiplicity           Mult            ....    1
 Number of Electrons    NEL             ....   56
 Basis Dimension        Dim             ....  163

MULLIKEN ATOMIC CHARGES
-----------------------
   0 C :    0.070488
   1 N :   -0.264335
   2 C :    0.122763
   3 C :   -0.068602
   4 C :   -0.006887
   5 C :   -0.052692
   6 C :   -0.028348
   7 H :    0.022084
   8 H :   -0.008410
   9 H :    0.018956
  10 H :    0.099435
  11 H :    0.007344
  12 H :   -0.024277
  13 H :    0.000761
  14 H :    0.016375
  15 H :    0.024863
  16 H :    0.031077
  17 H :   -0.000595
  18 H :    0.017068
  19 H :    0.022931
Sum of atomic charges:   -0.0000000

LOEWDIN ATOMIC CHARGES
----------------------
   0 C :   -0.005290
   1 N :   -0.104431
   2 C :    0.018745
   3 C :   -0.049274
   4 C :   -0.060163
   5 C :   -0.020868
   6 C :   -0.064507
   7 H :    0.022396
   8 H :   -0.002644
   9 H :    0.021171
  10 H :    0.050038
  11 H :    0.022303
  12 H :   -0.006363
  13 H :    0.029756
  14 H :    0.024370
  15 H :    0.024554
  16 H :    0.031391
  17 H :    0.022983
  18 H :    0.021838
  19 H :    0.023995

  Mayer bond orders larger than 0.1
B(  0-C ,  1-N ) :   1.0654 B(  0-C ,  7-H ) :   0.9725 B(  0-C ,  8-H ) :   0.9433
B(  0-C ,  9-H ) :   0.9687 B(  1-N ,  2-C ) :   1.0612 B(  1-N , 10-H ) :   0.9369
B(  2-C ,  3-C ) :   1.0311 B(  2-C , 11-H ) :   0.9295 B(  2-C , 12-H ) :   0.9124
B(  3-C ,  4-C ) :   1.0655 B(  3-C ,  5-C ) :   1.0143 B(  3-C , 13-H ) :   0.9036
B(  4-C , 14-H ) :   0.9616 B(  4-C , 15-H ) :   0.9512 B(  4-C , 16-H ) :   0.9607
B(  5-C ,  6-C ) :   2.0195 B(  5-C , 17-H ) :   0.9509 B(  6-C , 18-H ) :   0.9467
B(  6-C , 19-H ) :   0.9407

FINAL SINGLE POINT ENERGY      -290.563339101720

DIPOLE MOMENT
-------------
                                X             Y             Z
Electronic contribution:      1.23877       0.04458       1.80354
Nuclear contribution   :     -1.29771       0.09815      -2.13806
                        -----------------------------------------
Total Dipole Moment    :     -0.05894       0.14272      -0.33452
                        -----------------------------------------
Magnitude (a.u.)       :      0.36844
Magnitude (Debye)      :      0.93650

                             ****ORCA TERMINATED NORMALLY****
TOTAL RUN TIME: 0 days 0 hours 0 minutes 8 seconds 608 msec
