                         Program Version 3.0.3 - RELEASE   -
|  1> ! RI PBE def2-SVP def2-SVP/J NBO PAL2
|  2> % maxcore 2000
|  3> % output
|  4>     # printlevel mini
|  5>     print[ P_Basis ] 0
|  6>     print[ P_SCFInfo ] 1
|  7>     print[ P_SCFIterInfo ] 1
|  8>     print[ P_OrbEn ] 0
|  9>     print[ P_Cartesian ] 0
| 10> end
| 11> *xyz 0 1
| 12>  C        0.8725700000    -0.0238700000    -0.0705960000
| 13>  N        2.3167980000     0.0349900000     0.0040970000
| 14>  C        2.8915810000    -1.1117590000     0.6701520000
| 15>  C        4.4217000000    -1.1072890000     0.5873570000
| 16>  C        5.0447000000     0.1071020000     1.2770600000
| 17>  C        4.9494470000    -2.3460620000     1.1448410000
| 18>  C        5.3740790000    -3.3632440000     1.6219440000
| 19>  H        0.4901410000     0.8897520000    -0.5298320000
| 20>  H        0.3770400000    -0.1526610000     0.9059430000
| 21>  H        0.5733640000    -0.8627650000    -0.7048330000
| 22>  H        2.5923060000     0.8827970000     0.4826110000
| 23>  H        2.5202010000    -2.0120440000     0.1716020000
| 24>  H        2.5929580000    -1.1957720000     1.7305480000
| 25>  H        4.6843910000    -1.0727180000    -0.4767190000
| 26>  H        4.7468580000     0.1484730000     2.3278620000
| 27>  H        4.7379030000     1.0322120000     0.7845010000
| 28>  H        6.1335210000     0.0561490000     1.2375780000
| 29>  H        5.7542400000    -4.2660920000     2.0376040000
| 30> *
| 31>
| 32>                          ****END OF INPUT****
 Total Charge           Charge          ....    0
 Multiplicity           Mult            ....    1
 Number of Electrons    NEL             ....   54
 Basis Dimension        Dim             ....  153

MULLIKEN ATOMIC CHARGES
-----------------------
   0 C :    0.068286
   1 N :   -0.267135
   2 C :    0.111953
   3 C :   -0.047997
   4 C :   -0.001772
   5 C :    0.408077
   6 C :   -0.529398
   7 H :    0.021583
   8 H :   -0.003992
   9 H :    0.023225
  10 H :    0.101975
  11 H :    0.012273
  12 H :   -0.008732
  13 H :    0.031318
  14 H :    0.025722
  15 H :    0.020260
  16 H :    0.040487
  17 H :   -0.006132
Sum of atomic charges:   -0.0000000

LOEWDIN ATOMIC CHARGES
----------------------
   0 C :   -0.003919
   1 N :   -0.105227
   2 C :    0.026586
   3 C :   -0.054468
   4 C :   -0.050782
   5 C :   -0.011747
   6 C :   -0.094114
   7 H :    0.023085
   8 H :   -0.000417
   9 H :    0.022167
  10 H :    0.051387
  11 H :    0.025726
  12 H :    0.000633
  13 H :    0.048365
  14 H :    0.029211
  15 H :    0.024507
  16 H :    0.035477
  17 H :    0.033531

  Mayer bond orders larger than 0.1
B(  0-C ,  1-N ) :   1.0618 B(  0-C ,  7-H ) :   0.9726 B(  0-C ,  8-H ) :   0.9453
B(  0-C ,  9-H ) :   0.9700 B(  1-N ,  2-C ) :   1.0588 B(  1-N , 10-H ) :   0.9354
B(  2-C ,  3-C ) :   1.0360 B(  2-C , 11-H ) :   0.9311 B(  2-C , 12-H ) :   0.9152
B(  3-C ,  4-C ) :   1.0696 B(  3-C ,  5-C ) :   0.9935 B(  3-C , 13-H ) :   0.8676
B(  4-C , 14-H ) :   0.9598 B(  4-C , 15-H ) :   0.9510 B(  4-C , 16-H ) :   0.9620
B(  5-C ,  6-C ) :   2.3073 B(  5-C , 17-H ) :  -0.1178 B(  6-C , 17-H ) :   1.1075

FINAL SINGLE POINT ENERGY      -289.320851780010

DIPOLE MOMENT
-------------
                                X             Y             Z
Electronic contribution:      4.01351      -4.17190       0.24673
Nuclear contribution   :     -4.24541       4.51621      -0.06186
                        -----------------------------------------
Total Dipole Moment    :     -0.23190       0.34431       0.18487
                        -----------------------------------------
Magnitude (a.u.)       :      0.45443
Magnitude (Debye)      :      1.15506

                             ****ORCA TERMINATED NORMALLY****
TOTAL RUN TIME: 0 days 0 hours 0 minutes 8 seconds 21 msec
