                         Program Version 3.0.3 - RELEASE   -
|  1> ! RI PBE def2-SVP def2-SVP/J NBO PAL2
|  2> % maxcore 2000
|  3> % output
|  4>     # printlevel mini
|  5>     print[ P_Basis ] 0
|  6>     print[ P_SCFInfo ] 1
|  7>     print[ P_SCFIterInfo ] 1
|  8>     print[ P_OrbEn ] 0
|  9>     print[ P_Cartesian ] 0
| 10> end
| 11> *xyz 0 1
| 12>  C        1.0113960000    -0.0083650000     0.0087730000
| 13>  N        2.4526500000     0.0933070000     0.0536530000
| 14>  C        3.0154450000     0.5011960000    -1.2200500000
| 15>  C        4.4681050000     0.4678400000    -1.2158450000
| 16>  C        5.6727960000     0.4199340000    -1.2085670000
| 17>  C        7.0889580000     0.3735400000    -1.2420970000
| 18>  C        7.8701470000     0.2604130000    -0.1680750000
| 19>  H        0.6400900000    -0.3708150000     0.9686740000
| 20>  H        0.6308750000    -0.6741600000    -0.7843080000
| 21>  H        0.5797800000     0.9827800000    -0.1583980000
| 22>  H        2.8630640000    -0.7888180000     0.3318150000
| 23>  H        2.6808270000     1.5251210000    -1.4307660000
| 24>  H        2.6528880000    -0.1145830000    -2.0645800000
| 25>  H        7.5426170000     0.4344020000    -2.2286630000
| 26>  H        7.4541410000     0.1986480000     0.8303760000
| 27>  H        8.9478110000     0.2272700000    -0.2689920000
| 28> *
| 29>
| 30>                          ****END OF INPUT****
 Total Charge           Charge          ....    0
 Multiplicity           Mult            ....    1
 Number of Electrons    NEL             ....   52
 Basis Dimension        Dim             ....  143

MULLIKEN ATOMIC CHARGES
-----------------------
   0 C :    0.072904
   1 N :   -0.280778
   2 C :    0.200783
   3 C :   -0.078462
   4 C :   -0.076989
   5 C :   -0.096328
   6 C :   -0.017397
   7 H :    0.026099
   8 H :   -0.004869
   9 H :    0.018173
  10 H :    0.107456
  11 H :    0.023463
  12 H :    0.009054
  13 H :    0.029420
  14 H :    0.032434
  15 H :    0.035038
Sum of atomic charges:    0.0000000

LOEWDIN ATOMIC CHARGES
----------------------
   0 C :   -0.006260
   1 N :   -0.100196
   2 C :    0.007890
   3 C :   -0.041500
   4 C :   -0.049982
   5 C :   -0.046848
   6 C :   -0.031034
   7 H :    0.025727
   8 H :   -0.001558
   9 H :    0.022273
  10 H :    0.057809
  11 H :    0.042806
  12 H :    0.020168
  13 H :    0.043192
  14 H :    0.029492
  15 H :    0.028021

  Mayer bond orders larger than 0.1
B(  0-C ,  1-N ) :   1.0632 B(  0-C ,  7-H ) :   0.9731 B(  0-C ,  8-H ) :   0.9441
B(  0-C ,  9-H ) :   0.9664 B(  1-N ,  2-C ) :   1.0290 B(  1-N , 10-H ) :   0.9453
B(  2-C ,  3-C ) :   1.0444 B(  2-C , 11-H ) :   0.8831 B(  2-C , 12-H ) :   0.8879
B(  3-C ,  4-C ) :   2.4809 B(  3-C ,  6-C ) :   0.1294 B(  4-C ,  5-C ) :   1.0593
B(  5-C ,  6-C ) :   1.9114 B(  5-C , 13-H ) :   0.9489 B(  6-C , 14-H ) :   0.9541
B(  6-C , 15-H ) :   0.9442

FINAL SINGLE POINT ENERGY      -288.109253449966

DIPOLE MOMENT
-------------
                                X             Y             Z
Electronic contribution:      5.02663       0.75272      -1.38624
Nuclear contribution   :     -5.25620      -1.05931       1.23780
                        -----------------------------------------
Total Dipole Moment    :     -0.22956      -0.30660      -0.14844
                        -----------------------------------------
Magnitude (a.u.)       :      0.41077
Magnitude (Debye)      :      1.04411

                             ****ORCA TERMINATED NORMALLY****
TOTAL RUN TIME: 0 days 0 hours 0 minutes 7 seconds 62 msec
