                         Program Version 3.0.3 - RELEASE   -
|  1> ! RI PBE def2-SVP def2-SVP/J NBO PAL2
|  2> % maxcore 2000
|  3> % output
|  4>     # printlevel mini
|  5>     print[ P_Basis ] 0
|  6>     print[ P_SCFInfo ] 1
|  7>     print[ P_SCFIterInfo ] 1
|  8>     print[ P_OrbEn ] 0
|  9>     print[ P_Cartesian ] 0
| 10> end
| 11> *xyz 0 1
| 12>  C        0.9489560000    -0.0869630000    -0.1042220000
| 13>  N        2.3910780000    -0.0623150000     0.0010550000
| 14>  C        2.9309900000     1.2743280000    -0.1574180000
| 15>  C        4.3821590000     1.2800040000    -0.1719910000
| 16>  C        5.5891310000     1.2827050000    -0.2088810000
| 17>  C        6.9520560000     1.2878900000    -0.2446420000
| 18>  C        8.1571300000     1.2927450000    -0.2791020000
| 19>  H        0.5967720000    -1.1170650000    -0.0333200000
| 20>  H        0.5580340000     0.3503080000    -1.0381120000
| 21>  H        0.5115460000     0.4690310000     0.7298620000
| 22>  H        2.8089110000    -0.6768710000    -0.6857090000
| 23>  H        2.5820330000     1.8896640000     0.6815460000
| 24>  H        2.5738030000     1.7801270000    -1.0743310000
| 25>  H        9.2208700000     1.2967010000    -0.3068870000
| 26> *
| 27>
| 28>                          ****END OF INPUT****
 Total Charge           Charge          ....    0
 Multiplicity           Mult            ....    1
 Number of Electrons    NEL             ....   50
 Basis Dimension        Dim             ....  133

MULLIKEN ATOMIC CHARGES
-----------------------
   0 C :    0.074479
   1 N :   -0.276535
   2 C :    0.177159
   3 C :   -0.098932
   4 C :   -0.025907
   5 C :    0.354728
   6 C :   -0.426288
   7 H :    0.028131
   8 H :   -0.004908
   9 H :    0.020843
  10 H :    0.110847
  11 H :    0.035825
  12 H :    0.018692
  13 H :    0.011865
Sum of atomic charges:   -0.0000000

LOEWDIN ATOMIC CHARGES
----------------------
   0 C :   -0.004686
   1 N :   -0.097181
   2 C :    0.006536
   3 C :   -0.001705
   4 C :   -0.061541
   5 C :   -0.030116
   6 C :   -0.030836
   7 H :    0.026874
   8 H :   -0.000990
   9 H :    0.023355
  10 H :    0.059370
  11 H :    0.047473
  12 H :    0.024194
  13 H :    0.039253

  Mayer bond orders larger than 0.1
B(  0-C ,  1-N ) :   1.0640 B(  0-C ,  7-H ) :   0.9730 B(  0-C ,  8-H ) :   0.9444
B(  0-C ,  9-H ) :   0.9670 B(  1-N ,  2-C ) :   1.0341 B(  1-N , 10-H ) :   0.9450
B(  2-C ,  3-C ) :   1.0514 B(  2-C , 11-H ) :   0.8816 B(  2-C , 12-H ) :   0.8884
B(  3-C ,  4-C ) :   2.3609 B(  3-C ,  6-C ) :   0.2626 B(  4-C ,  5-C ) :   0.9454
B(  5-C ,  6-C ) :   2.1465 B(  5-C , 13-H ) :  -0.1079 B(  6-C , 13-H ) :   1.0972

FINAL SINGLE POINT ENERGY      -286.870958253291

DIPOLE MOMENT
-------------
                                X             Y             Z
Electronic contribution:     10.09674       1.82091       0.17700
Nuclear contribution   :    -10.55493      -1.84415      -0.50973
                        -----------------------------------------
Total Dipole Moment    :     -0.45819      -0.02324      -0.33274
                        -----------------------------------------
Magnitude (a.u.)       :      0.56674
Magnitude (Debye)      :      1.44054

                             ****ORCA TERMINATED NORMALLY****
TOTAL RUN TIME: 0 days 0 hours 0 minutes 6 seconds 164 msec
