                         Program Version 3.0.3 - RELEASE   -
|  1> ! RI PBE def2-SVP def2-SVP/J NBO PAL2
|  2> % maxcore 2000
|  3> % output
|  4>     # printlevel mini
|  5>     print[ P_Basis ] 0
|  6>     print[ P_SCFInfo ] 1
|  7>     print[ P_SCFIterInfo ] 1
|  8>     print[ P_OrbEn ] 0
|  9>     print[ P_Cartesian ] 0
| 10> end
| 11> *xyz 0 1
| 12>  C        1.0717280000    -0.0806540000    -0.0385370000
| 13>  N        2.5078830000     0.0560150000     0.0509210000
| 14>  C        2.9615830000     1.4203650000    -0.1100080000
| 15>  C        4.4799420000     1.5091240000    -0.0434560000
| 16>  C        4.9787210000     2.9142440000    -0.1000730000
| 17>  C        5.7811700000     3.4071940000    -1.0359510000
| 18>  C        6.2776080000     4.8114510000    -1.0898590000
| 19>  H        0.7941310000    -1.1344370000     0.0304470000
| 20>  H        0.6366830000     0.3311840000    -0.9650840000
| 21>  H        0.6026260000     0.4388550000     0.8020060000
| 22>  H        2.9519020000    -0.5304490000    -0.6453550000
| 23>  H        2.5274790000     2.0174130000     0.7012760000
| 24>  H        2.6110180000     1.8800270000    -1.0519400000
| 25>  H        4.9188100000     0.9309360000    -0.8648180000
| 26>  H        4.8007960000     1.0302680000     0.8891820000
| 27>  H        4.6412460000     3.5762870000     0.6981540000
| 28>  H        6.1168260000     2.7437980000    -1.8328420000
| 29>  H        5.8919720000     5.4028080000    -0.2569230000
| 30>  H        5.9795130000     5.3013520000    -2.0224870000
| 31>  H        7.3713530000     4.8465200000    -1.0547620000
| 32> *
| 33>
| 34>                          ****END OF INPUT****
 Total Charge           Charge          ....    0
 Multiplicity           Mult            ....    1
 Number of Electrons    NEL             ....   56
 Basis Dimension        Dim             ....  163

MULLIKEN ATOMIC CHARGES
-----------------------
   0 C :    0.072824
   1 N :   -0.264747
   2 C :    0.072552
   3 C :    0.065863
   4 C :   -0.062246
   5 C :   -0.107149
   6 C :    0.030410
   7 H :    0.018586
   8 H :   -0.010139
   9 H :    0.016970
  10 H :    0.099025
  11 H :    0.003520
  12 H :   -0.014612
  13 H :   -0.004064
  14 H :    0.017945
  15 H :   -0.010986
  16 H :   -0.008974
  17 H :    0.018216
  18 H :    0.030229
  19 H :    0.036779
Sum of atomic charges:   -0.0000000

LOEWDIN ATOMIC CHARGES
----------------------
   0 C :   -0.006112
   1 N :   -0.106985
   2 C :    0.013333
   3 C :   -0.045417
   4 C :   -0.043678
   5 C :   -0.049159
   6 C :   -0.067665
   7 H :    0.021660
   8 H :   -0.003639
   9 H :    0.020783
  10 H :    0.052599
  11 H :    0.018205
  12 H :   -0.003291
  13 H :    0.023128
  14 H :    0.033207
  15 H :    0.020420
  16 H :    0.020305
  17 H :    0.030304
  18 H :    0.035301
  19 H :    0.036701

  Mayer bond orders larger than 0.1
B(  0-C ,  1-N ) :   1.0691 B(  0-C ,  7-H ) :   0.9727 B(  0-C ,  8-H ) :   0.9438
B(  0-C ,  9-H ) :   0.9687 B(  1-N ,  2-C ) :   1.0479 B(  1-N , 10-H ) :   0.9449
B(  2-C ,  3-C ) :   1.0729 B(  2-C , 11-H ) :   0.9318 B(  2-C , 12-H ) :   0.9200
B(  3-C ,  4-C ) :   1.0574 B(  3-C , 13-H ) :   0.9277 B(  3-C , 14-H ) :   0.9063
B(  4-C ,  5-C ) :   1.9332 B(  4-C , 15-H ) :   0.9460 B(  5-C ,  6-C ) :   1.0854
B(  5-C , 16-H ) :   0.9513 B(  6-C , 17-H ) :   0.9602 B(  6-C , 18-H ) :   0.9481
B(  6-C , 19-H ) :   0.9474

FINAL SINGLE POINT ENERGY      -290.569510319683

DIPOLE MOMENT
-------------
                                X             Y             Z
Electronic contribution:      1.46213      -1.05614       0.71749
Nuclear contribution   :     -1.48349       1.09038      -1.05196
                        -----------------------------------------
Total Dipole Moment    :     -0.02136       0.03424      -0.33447
                        -----------------------------------------
Magnitude (a.u.)       :      0.33689
Magnitude (Debye)      :      0.85631

                             ****ORCA TERMINATED NORMALLY****
TOTAL RUN TIME: 0 days 0 hours 0 minutes 8 seconds 254 msec
