                         Program Version 3.0.3 - RELEASE   -
|  1> ! RI PBE def2-SVP def2-SVP/J NBO PAL2
|  2> % maxcore 2000
|  3> % output
|  4>     # printlevel mini
|  5>     print[ P_Basis ] 0
|  6>     print[ P_SCFInfo ] 1
|  7>     print[ P_SCFIterInfo ] 1
|  8>     print[ P_OrbEn ] 0
|  9>     print[ P_Cartesian ] 0
| 10> end
| 11> *xyz 0 1
| 12>  C        1.4119330000    -0.0983920000    -0.2769100000
| 13>  N        2.7891810000     0.0348680000     0.1391860000
| 14>  C        3.0262240000     1.1974560000     0.9676420000
| 15>  C        4.4929470000     1.3180870000     1.3372510000
| 16>  C        4.8533910000     2.5665250000     2.1385330000
| 17>  C        4.1517320000     2.6089700000     3.4901830000
| 18>  C        6.3623040000     2.6624900000     2.3183400000
| 19>  H        1.3067820000    -0.9549560000    -0.9459230000
| 20>  H        1.0086660000     0.7918140000    -0.7896700000
| 21>  H        0.7818890000    -0.2849380000     0.5976320000
| 22>  H        3.3923550000     0.0716770000    -0.6735140000
| 23>  H        2.4167230000     1.0869790000     1.8712020000
| 24>  H        2.6917030000     2.1355370000     0.4835710000
| 25>  H        5.0854920000     1.3158290000     0.4128760000
| 26>  H        4.7930250000     0.4230820000     1.8948530000
| 27>  H        4.5266040000     3.4417420000     1.5604480000
| 28>  H        4.4181990000     1.7329950000     4.0908090000
| 29>  H        3.0645520000     2.6264050000     3.3899610000
| 30>  H        4.4444440000     3.4984080000     4.0542800000
| 31>  H        6.7389430000     1.8086370000     2.8906970000
| 32>  H        6.6410200000     3.5714330000     2.8577730000
| 33>  H        6.8799690000     2.6706540000     1.3554680000
| 34> *
| 35>
| 36>                          ****END OF INPUT****
 Total Charge           Charge          ....    0
 Multiplicity           Mult            ....    1
 Number of Electrons    NEL             ....   58
 Basis Dimension        Dim             ....  173

MULLIKEN ATOMIC CHARGES
-----------------------
   0 C :    0.065229
   1 N :   -0.266212
   2 C :    0.109267
   3 C :    0.007706
   4 C :   -0.160180
   5 C :   -0.001214
   6 C :    0.038875
   7 H :    0.022188
   8 H :   -0.009078
   9 H :    0.017918
  10 H :    0.098587
  11 H :    0.001511
  12 H :   -0.025676
  13 H :   -0.006374
  14 H :    0.007926
  15 H :    0.004207
  16 H :    0.016486
  17 H :    0.029472
  18 H :    0.014778
  19 H :    0.011539
  20 H :    0.011854
  21 H :    0.011190
Sum of atomic charges:    0.0000000

LOEWDIN ATOMIC CHARGES
----------------------
   0 C :   -0.008716
   1 N :   -0.104787
   2 C :    0.009772
   3 C :   -0.042198
   4 C :   -0.047872
   5 C :   -0.062677
   6 C :   -0.056993
   7 H :    0.022283
   8 H :   -0.003881
   9 H :    0.021059
  10 H :    0.051867
  11 H :    0.017491
  12 H :   -0.006018
  13 H :    0.019224
  14 H :    0.023970
  15 H :    0.021755
  16 H :    0.025291
  17 H :    0.024493
  18 H :    0.025553
  19 H :    0.023730
  20 H :    0.023619
  21 H :    0.023034

  Mayer bond orders larger than 0.1
B(  0-C ,  1-N ) :   1.0688 B(  0-C ,  7-H ) :   0.9723 B(  0-C ,  8-H ) :   0.9424
B(  0-C ,  9-H ) :   0.9674 B(  1-N ,  2-C ) :   1.0513 B(  1-N , 10-H ) :   0.9452
B(  2-C ,  3-C ) :   1.0794 B(  2-C , 11-H ) :   0.9182 B(  2-C , 12-H ) :   0.9142
B(  3-C ,  4-C ) :   1.0556 B(  3-C , 13-H ) :   0.9282 B(  3-C , 14-H ) :   0.9282
B(  4-C ,  5-C ) :   1.0795 B(  4-C ,  6-C ) :   1.0877 B(  4-C , 15-H ) :   0.9112
B(  5-C , 16-H ) :   0.9616 B(  5-C , 17-H ) :   0.9600 B(  5-C , 18-H ) :   0.9568
B(  6-C , 19-H ) :   0.9614 B(  6-C , 20-H ) :   0.9590 B(  6-C , 21-H ) :   0.9578

FINAL SINGLE POINT ENERGY      -291.787791312863

DIPOLE MOMENT
-------------
                                X             Y             Z
Electronic contribution:     -0.41174      -1.66976      -1.69298
Nuclear contribution   :      0.41000       1.89497       1.45425
                        -----------------------------------------
Total Dipole Moment    :     -0.00174       0.22520      -0.23873
                        -----------------------------------------
Magnitude (a.u.)       :      0.32819
Magnitude (Debye)      :      0.83420

                             ****ORCA TERMINATED NORMALLY****
TOTAL RUN TIME: 0 days 0 hours 0 minutes 9 seconds 361 msec
