                         Program Version 3.0.3 - RELEASE   -
|  1> ! RI PBE def2-SVP def2-SVP/J NBO PAL2
|  2> % maxcore 2000
|  3> % output
|  4>     # printlevel mini
|  5>     print[ P_Basis ] 0
|  6>     print[ P_SCFInfo ] 1
|  7>     print[ P_SCFIterInfo ] 1
|  8>     print[ P_OrbEn ] 0
|  9>     print[ P_Cartesian ] 0
| 10> end
| 11> *xyz 0 1
| 12>  C        1.6104840000    -0.1712240000    -0.1866100000
| 13>  N        2.9445170000     0.3682850000    -0.0483180000
| 14>  C        2.9630900000     1.7086130000     0.4956810000
| 15>  C        4.3894070000     2.2351440000     0.5886210000
| 16>  C        4.4915150000     3.6265880000     1.1434570000
| 17>  C        4.0483110000     3.8209690000     2.5605620000
| 18>  C        4.9641130000     4.6331310000     0.4143270000
| 19>  H        1.6556850000    -1.1554700000    -0.6570470000
| 20>  H        0.9276740000     0.4631720000    -0.7767870000
| 21>  H        1.1640620000    -0.3001400000     0.8036360000
| 22>  H        3.4114500000     0.3632850000    -0.9471320000
| 23>  H        2.5133720000     1.6663780000     1.4937800000
| 24>  H        2.3513520000     2.4174830000    -0.0919830000
| 25>  H        4.8428170000     2.2123780000    -0.4079730000
| 26>  H        4.9628210000     1.5419790000     1.2157950000
| 27>  H        4.5792800000     3.1371230000     3.2311760000
| 28>  H        2.9812200000     3.6088980000     2.6784580000
| 29>  H        4.2276140000     4.8425470000     2.8977790000
| 30>  H        5.2891220000     4.4857090000    -0.6101100000
| 31>  H        5.0466930000     5.6365730000     0.8181190000
| 32> *
| 33>
| 34>                          ****END OF INPUT****
 Total Charge           Charge          ....    0
 Multiplicity           Mult            ....    1
 Number of Electrons    NEL             ....   56
 Basis Dimension        Dim             ....  163

MULLIKEN ATOMIC CHARGES
-----------------------
   0 C :    0.068349
   1 N :   -0.268585
   2 C :    0.087160
   3 C :    0.072814
   4 C :   -0.207206
   5 C :    0.067718
   6 C :   -0.026324
   7 H :    0.019724
   8 H :   -0.004596
   9 H :    0.017948
  10 H :    0.098524
  11 H :   -0.001060
  12 H :   -0.014585
  13 H :   -0.009470
  14 H :    0.019770
  15 H :    0.024432
  16 H :    0.035916
  17 H :    0.010513
  18 H :    0.003418
  19 H :    0.005542
Sum of atomic charges:   -0.0000000

LOEWDIN ATOMIC CHARGES
----------------------
   0 C :   -0.007206
   1 N :   -0.106427
   2 C :    0.014929
   3 C :   -0.038076
   4 C :   -0.030316
   5 C :   -0.056337
   6 C :   -0.079390
   7 H :    0.022522
   8 H :   -0.002025
   9 H :    0.020950
  10 H :    0.052632
  11 H :    0.016297
  12 H :   -0.001769
  13 H :    0.023794
  14 H :    0.032938
  15 H :    0.035737
  16 H :    0.034935
  17 H :    0.030542
  18 H :    0.017835
  19 H :    0.018433

  Mayer bond orders larger than 0.1
B(  0-C ,  1-N ) :   1.0672 B(  0-C ,  7-H ) :   0.9708 B(  0-C ,  8-H ) :   0.9444
B(  0-C ,  9-H ) :   0.9676 B(  1-N ,  2-C ) :   1.0517 B(  1-N , 10-H ) :   0.9450
B(  2-C ,  3-C ) :   1.0746 B(  2-C , 11-H ) :   0.9243 B(  2-C , 12-H ) :   0.9170
B(  3-C ,  4-C ) :   1.0535 B(  3-C , 13-H ) :   0.9161 B(  3-C , 14-H ) :   0.9064
B(  4-C ,  5-C ) :   1.0824 B(  4-C ,  6-C ) :   1.9919 B(  5-C , 15-H ) :   0.9411
B(  5-C , 16-H ) :   0.9424 B(  5-C , 17-H ) :   0.9480 B(  6-C , 18-H ) :   0.9318
B(  6-C , 19-H ) :   0.9322

FINAL SINGLE POINT ENERGY      -290.568371718187

DIPOLE MOMENT
-------------
                                X             Y             Z
Electronic contribution:      2.28230       0.48873      -0.66881
Nuclear contribution   :     -2.47287      -0.51377       0.52550
                        -----------------------------------------
Total Dipole Moment    :     -0.19057      -0.02504      -0.14332
                        -----------------------------------------
Magnitude (a.u.)       :      0.23976
Magnitude (Debye)      :      0.60942

                             ****ORCA TERMINATED NORMALLY****
TOTAL RUN TIME: 0 days 0 hours 0 minutes 8 seconds 600 msec
