                         Program Version 3.0.3 - RELEASE   -
|  1> ! RI PBE def2-SVP def2-SVP/J NBO PAL2
|  2> % maxcore 2000
|  3> % output
|  4>     # printlevel mini
|  5>     print[ P_Basis ] 0
|  6>     print[ P_SCFInfo ] 1
|  7>     print[ P_SCFIterInfo ] 1
|  8>     print[ P_OrbEn ] 0
|  9>     print[ P_Cartesian ] 0
| 10> end
| 11> *xyz 0 1
| 12>  C        1.3034280000     0.4201790000    -0.1168640000
| 13>  N        2.7156160000     0.1639070000     0.0586520000
| 14>  C        2.9875800000    -0.9041150000     0.9942240000
| 15>  C        4.4890550000    -1.1485020000     1.1056370000
| 16>  C        4.8199670000    -2.2283570000     2.0209950000
| 17>  C        5.0743050000    -3.1259380000     2.7798800000
| 18>  C        5.3888890000    -4.2093230000     3.6930280000
| 19>  H        1.1624730000     1.2706080000    -0.7868070000
| 20>  H        0.7630790000     0.6268810000     0.8222090000
| 21>  H        0.8302920000    -0.4485130000    -0.5832800000
| 22>  H        3.1807920000     1.0097450000     0.3658680000
| 23>  H        2.5045550000    -1.8145940000     0.6250890000
| 24>  H        2.5739190000    -0.7172070000     2.0002790000
| 25>  H        4.9825480000    -0.2272060000     1.4398190000
| 26>  H        4.8833590000    -1.3642750000     0.1075530000
| 27>  H        5.8360030000    -3.8301560000     4.6155400000
| 28>  H        6.0955850000    -4.9107320000     3.2421240000
| 29>  H        4.4895540000    -4.7687910000     3.9629440000
| 30> *
| 31>
| 32>                          ****END OF INPUT****
 Total Charge           Charge          ....    0
 Multiplicity           Mult            ....    1
 Number of Electrons    NEL             ....   54
 Basis Dimension        Dim             ....  153

MULLIKEN ATOMIC CHARGES
-----------------------
   0 C :    0.064633
   1 N :   -0.261507
   2 C :    0.061864
   3 C :    0.088559
   4 C :   -0.087303
   5 C :   -0.249522
   6 C :    0.050667
   7 H :    0.022911
   8 H :   -0.005936
   9 H :    0.020877
  10 H :    0.098856
  11 H :    0.013558
  12 H :   -0.003475
  13 H :    0.018833
  14 H :    0.031387
  15 H :    0.044333
  16 H :    0.046879
  17 H :    0.044385
Sum of atomic charges:   -0.0000000

LOEWDIN ATOMIC CHARGES
----------------------
   0 C :   -0.006653
   1 N :   -0.106127
   2 C :    0.019925
   3 C :   -0.050360
   4 C :   -0.066073
   5 C :   -0.074828
   6 C :   -0.069787
   7 H :    0.022850
   8 H :   -0.001908
   9 H :    0.022039
  10 H :    0.052758
  11 H :    0.023423
  12 H :    0.000783
  13 H :    0.040448
  14 H :    0.046009
  15 H :    0.048693
  16 H :    0.049315
  17 H :    0.049492

  Mayer bond orders larger than 0.1
B(  0-C ,  1-N ) :   1.0665 B(  0-C ,  7-H ) :   0.9729 B(  0-C ,  8-H ) :   0.9443
B(  0-C ,  9-H ) :   0.9689 B(  1-N ,  2-C ) :   1.0538 B(  1-N , 10-H ) :   0.9414
B(  2-C ,  3-C ) :   1.0730 B(  2-C , 11-H ) :   0.9322 B(  2-C , 12-H ) :   0.9258
B(  3-C ,  4-C ) :   1.0525 B(  3-C , 13-H ) :   0.8933 B(  3-C , 14-H ) :   0.8903
B(  4-C ,  5-C ) :   2.6011 B(  5-C ,  6-C ) :   1.1427 B(  6-C , 15-H ) :   0.9326
B(  6-C , 16-H ) :   0.9337 B(  6-C , 17-H ) :   0.9291

FINAL SINGLE POINT ENERGY      -289.333002500820

DIPOLE MOMENT
-------------
                                X             Y             Z
Electronic contribution:      3.64089      -1.28808       0.60652
Nuclear contribution   :     -3.74218       1.43725      -0.31990
                        -----------------------------------------
Total Dipole Moment    :     -0.10129       0.14917       0.28663
                        -----------------------------------------
Magnitude (a.u.)       :      0.33862
Magnitude (Debye)      :      0.86071

                             ****ORCA TERMINATED NORMALLY****
TOTAL RUN TIME: 0 days 0 hours 0 minutes 7 seconds 103 msec
