                         Program Version 3.0.3 - RELEASE   -
|  1> ! RI PBE def2-SVP def2-SVP/J NBO PAL2
|  2> % maxcore 2000
|  3> % output
|  4>     # printlevel mini
|  5>     print[ P_Basis ] 0
|  6>     print[ P_SCFInfo ] 1
|  7>     print[ P_SCFIterInfo ] 1
|  8>     print[ P_OrbEn ] 0
|  9>     print[ P_Cartesian ] 0
| 10> end
| 11> *xyz 0 1
| 12>  C        0.9697970000     0.0526870000    -0.0095490000
| 13>  N        2.4126690000     0.0765870000     0.0708410000
| 14>  C        2.9156630000     1.0707640000     0.9934560000
| 15>  C        4.4315700000     1.0999020000     1.0087440000
| 16>  C        4.9921380000     2.1165710000     1.9987510000
| 17>  C        6.4837960000     2.1170580000     2.0440440000
| 18>  C        7.2567170000     3.1613980000     1.7807180000
| 19>  H        0.6514660000    -0.6712180000    -0.7623570000
| 20>  H        0.5171980000     1.0286250000    -0.2551020000
| 21>  H        0.5554610000    -0.2675000000     0.9508420000
| 22>  H        2.8050890000     0.2414310000    -0.8481880000
| 23>  H        2.5460660000     0.8174420000     1.9950050000
| 24>  H        2.5304920000     2.0845570000     0.7728230000
| 25>  H        4.8043390000     1.3363190000     0.0046790000
| 26>  H        4.8013700000     0.0977890000     1.2487380000
| 27>  H        4.6030660000     1.8815170000     2.9983810000
| 28>  H        4.6326840000     3.1207680000     1.7507700000
| 29>  H        6.9516990000     1.1691270000     2.3072340000
| 30>  H        6.8331840000     4.1246940000     1.5121310000
| 31>  H        8.3376270000     3.0952910000     1.8265710000
| 32> *
| 33>
| 34>                          ****END OF INPUT****
 Total Charge           Charge          ....    0
 Multiplicity           Mult            ....    1
 Number of Electrons    NEL             ....   56
 Basis Dimension        Dim             ....  163

MULLIKEN ATOMIC CHARGES
-----------------------
   0 C :    0.073008
   1 N :   -0.264694
   2 C :    0.107280
   3 C :   -0.048803
   4 C :    0.054315
   5 C :   -0.070299
   6 C :   -0.040486
   7 H :    0.020992
   8 H :   -0.009828
   9 H :    0.016120
  10 H :    0.097543
  11 H :   -0.001474
  12 H :   -0.020814
  13 H :    0.009585
  14 H :    0.016179
  15 H :    0.018126
  16 H :    0.003082
  17 H :    0.000597
  18 H :    0.013873
  19 H :    0.025699
Sum of atomic charges:   -0.0000000

LOEWDIN ATOMIC CHARGES
----------------------
   0 C :   -0.006575
   1 N :   -0.105737
   2 C :    0.010380
   3 C :   -0.042419
   4 C :   -0.039787
   5 C :   -0.025368
   6 C :   -0.071410
   7 H :    0.022171
   8 H :   -0.003662
   9 H :    0.020567
  10 H :    0.052364
  11 H :    0.017963
  12 H :   -0.004835
  13 H :    0.021892
  14 H :    0.025459
  15 H :    0.033623
  16 H :    0.026263
  17 H :    0.024337
  18 H :    0.020487
  19 H :    0.024290

  Mayer bond orders larger than 0.1
B(  0-C ,  1-N ) :   1.0684 B(  0-C ,  7-H ) :   0.9733 B(  0-C ,  8-H ) :   0.9431
B(  0-C ,  9-H ) :   0.9684 B(  1-N ,  2-C ) :   1.0536 B(  1-N , 10-H ) :   0.9447
B(  2-C ,  3-C ) :   1.0884 B(  2-C , 11-H ) :   0.9261 B(  2-C , 12-H ) :   0.9151
B(  3-C ,  4-C ) :   1.0680 B(  3-C , 13-H ) :   0.9365 B(  3-C , 14-H ) :   0.9325
B(  4-C ,  5-C ) :   1.0657 B(  4-C , 15-H ) :   0.9115 B(  4-C , 16-H ) :   0.9301
B(  5-C ,  6-C ) :   2.0182 B(  5-C , 17-H ) :   0.9516 B(  6-C , 18-H ) :   0.9462
B(  6-C , 19-H ) :   0.9442

FINAL SINGLE POINT ENERGY      -290.563620459216

DIPOLE MOMENT
-------------
                                X             Y             Z
Electronic contribution:      2.76379      -0.20330       0.49289
Nuclear contribution   :     -2.94435       0.35799      -0.67936
                        -----------------------------------------
Total Dipole Moment    :     -0.18056       0.15468      -0.18647
                        -----------------------------------------
Magnitude (a.u.)       :      0.30216
Magnitude (Debye)      :      0.76803

                             ****ORCA TERMINATED NORMALLY****
TOTAL RUN TIME: 0 days 0 hours 0 minutes 8 seconds 48 msec
