                         Program Version 3.0.3 - RELEASE   -
|  1> ! RI PBE def2-SVP def2-SVP/J NBO PAL2
|  2> % maxcore 2000
|  3> % output
|  4>     # printlevel mini
|  5>     print[ P_Basis ] 0
|  6>     print[ P_SCFInfo ] 1
|  7>     print[ P_SCFIterInfo ] 1
|  8>     print[ P_OrbEn ] 0
|  9>     print[ P_Cartesian ] 0
| 10> end
| 11> *xyz 0 1
| 12>  C        0.7278440000     0.1586060000     0.1964110000
| 13>  N        2.1558770000    -0.0364350000     0.0794260000
| 14>  C        2.9235940000     0.9068210000     0.8648000000
| 15>  C        4.4115660000     0.6668280000     0.7020520000
| 16>  C        5.2721510000     1.6341650000     1.5167950000
| 17>  C        5.1691660000     3.0188360000     1.0832020000
| 18>  C        5.0883630000     4.1577300000     0.7108870000
| 19>  H        0.2035960000    -0.5378010000    -0.4610510000
| 20>  H        0.3924490000     1.1813410000    -0.0448120000
| 21>  H        0.4128300000    -0.0562020000     1.2215960000
| 22>  H        2.4308270000     0.0367870000    -0.8927800000
| 23>  H        2.6481030000     0.7687240000     1.9180020000
| 24>  H        2.6900620000     1.9574710000     0.6187840000
| 25>  H        4.6847790000     0.7539290000    -0.3553340000
| 26>  H        4.6414420000    -0.3575310000     1.0076500000
| 27>  H        6.3212610000     1.3275740000     1.4565180000
| 28>  H        4.9953880000     1.5710810000     2.5755330000
| 29>  H        5.0173120000     5.1685780000     0.3861030000
| 30> *
| 31>
| 32>                          ****END OF INPUT****
 Total Charge           Charge          ....    0
 Multiplicity           Mult            ....    1
 Number of Electrons    NEL             ....   54
 Basis Dimension        Dim             ....  153

MULLIKEN ATOMIC CHARGES
-----------------------
   0 C :    0.074140
   1 N :   -0.268926
   2 C :    0.091555
   3 C :   -0.024822
   4 C :    0.073369
   5 C :    0.317387
   6 C :   -0.489687
   7 H :    0.020192
   8 H :   -0.007950
   9 H :    0.015742
  10 H :    0.097275
  11 H :   -0.000457
  12 H :   -0.000195
  13 H :    0.017544
  14 H :    0.014411
  15 H :    0.039212
  16 H :    0.035181
  17 H :   -0.003972
Sum of atomic charges:   -0.0000000

LOEWDIN ATOMIC CHARGES
----------------------
   0 C :   -0.005719
   1 N :   -0.106222
   2 C :    0.009785
   3 C :   -0.034853
   4 C :   -0.045303
   5 C :   -0.023242
   6 C :   -0.095349
   7 H :    0.022235
   8 H :   -0.002809
   9 H :    0.020416
  10 H :    0.052361
  11 H :    0.018935
  12 H :    0.003397
  13 H :    0.025657
  14 H :    0.027953
  15 H :    0.050914
  16 H :    0.048493
  17 H :    0.033350

  Mayer bond orders larger than 0.1
B(  0-C ,  1-N ) :   1.0672 B(  0-C ,  7-H ) :   0.9725 B(  0-C ,  8-H ) :   0.9442
B(  0-C ,  9-H ) :   0.9691 B(  1-N ,  2-C ) :   1.0463 B(  1-N , 10-H ) :   0.9468
B(  2-C ,  3-C ) :   1.0849 B(  2-C , 11-H ) :   0.9272 B(  2-C , 12-H ) :   0.9221
B(  3-C ,  4-C ) :   1.0795 B(  3-C , 13-H ) :   0.9354 B(  3-C , 14-H ) :   0.9236
B(  4-C ,  5-C ) :   1.0735 B(  4-C , 15-H ) :   0.8986 B(  4-C , 16-H ) :   0.8948
B(  5-C ,  6-C ) :   2.3348 B(  5-C , 17-H ) :  -0.1116 B(  6-C , 17-H ) :   1.1028

FINAL SINGLE POINT ENERGY      -289.321017029311

DIPOLE MOMENT
-------------
                                X             Y             Z
Electronic contribution:      4.63178       3.56384       0.27306
Nuclear contribution   :     -4.69169      -3.58528      -0.41966
                        -----------------------------------------
Total Dipole Moment    :     -0.05991      -0.02144      -0.14660
                        -----------------------------------------
Magnitude (a.u.)       :      0.15981
Magnitude (Debye)      :      0.40621

                             ****ORCA TERMINATED NORMALLY****
TOTAL RUN TIME: 0 days 0 hours 0 minutes 7 seconds 902 msec
