                         Program Version 3.0.3 - RELEASE   -
|  1> ! RI PBE def2-SVP def2-SVP/J NBO PAL2
|  2> % maxcore 2000
|  3> % output
|  4>     # printlevel mini
|  5>     print[ P_Basis ] 0
|  6>     print[ P_SCFInfo ] 1
|  7>     print[ P_SCFIterInfo ] 1
|  8>     print[ P_OrbEn ] 0
|  9>     print[ P_Cartesian ] 0
| 10> end
| 11> *xyz 0 1
| 12>  C        2.1511600000    -0.5833230000    -0.8163260000
| 13>  N        3.4001800000    -0.1391460000    -0.2408210000
| 14>  C        3.2879680000     1.1204340000     0.4628700000
| 15>  C        4.6287490000     1.5799910000     1.0020580000
| 16>  C        4.5419300000     2.8833240000     1.7779360000
| 17>  C        5.8828810000     3.3436960000     2.3176870000
| 18>  N        5.7488450000     4.6113030000     3.0196620000
| 19>  H        2.3086180000    -1.5045990000    -1.3808930000
| 20>  H        1.6762370000     0.1549560000    -1.4849360000
| 21>  H        1.4386990000    -0.8053640000    -0.0165080000
| 22>  H        4.1017120000    -0.0563200000    -0.9666320000
| 23>  H        2.5894210000     0.9777920000     1.2967060000
| 24>  H        2.8525120000     1.9187850000    -0.1674300000
| 25>  H        5.3287010000     1.7036500000     0.1650350000
| 26>  H        5.0415900000     0.7868110000     1.6343570000
| 27>  H        3.8428210000     2.7609530000     2.6156910000
| 28>  H        4.1295470000     3.6779050000     1.1473380000
| 29>  H        6.5722520000     3.4957030000     1.4800360000
| 30>  H        6.3145300000     2.5383250000     2.9346470000
| 31>  H        5.1555480000     4.4996020000     3.8334760000
| 32>  H        6.6480980000     4.9320920000     3.3557370000
| 33> *
| 34>
| 35>                          ****END OF INPUT****
 Total Charge           Charge          ....    0
 Multiplicity           Mult            ....    1
 Number of Electrons    NEL             ....   58
 Basis Dimension        Dim             ....  168

MULLIKEN ATOMIC CHARGES
-----------------------
   0 C :    0.066426
   1 N :   -0.262983
   2 C :    0.102484
   3 C :   -0.033710
   4 C :   -0.049388
   5 C :    0.071083
   6 N :   -0.204432
   7 H :    0.019729
   8 H :   -0.006741
   9 H :    0.017778
  10 H :    0.098469
  11 H :    0.001923
  12 H :   -0.021844
  13 H :    0.004785
  14 H :    0.012096
  15 H :    0.004667
  16 H :    0.014121
  17 H :    0.003970
  18 H :   -0.011251
  19 H :    0.087427
  20 H :    0.085392
Sum of atomic charges:    0.0000000

LOEWDIN ATOMIC CHARGES
----------------------
   0 C :   -0.008639
   1 N :   -0.106352
   2 C :    0.010254
   3 C :   -0.047717
   4 C :   -0.048396
   5 C :    0.004281
   6 N :   -0.114026
   7 H :    0.021892
   8 H :   -0.003375
   9 H :    0.021286
  10 H :    0.052104
  11 H :    0.018460
  12 H :   -0.005079
  13 H :    0.020186
  14 H :    0.023518
  15 H :    0.020225
  16 H :    0.024215
  17 H :    0.019074
  18 H :   -0.002740
  19 H :    0.049129
  20 H :    0.051701

  Mayer bond orders larger than 0.1
B(  0-C ,  1-N ) :   1.0681 B(  0-C ,  7-H ) :   0.9715 B(  0-C ,  8-H ) :   0.9430
B(  0-C ,  9-H ) :   0.9676 B(  1-N ,  2-C ) :   1.0520 B(  1-N , 10-H ) :   0.9467
B(  2-C ,  3-C ) :   1.0887 B(  2-C , 11-H ) :   0.9253 B(  2-C , 12-H ) :   0.9144
B(  3-C ,  4-C ) :   1.0849 B(  3-C , 13-H ) :   0.9300 B(  3-C , 14-H ) :   0.9283
B(  4-C ,  5-C ) :   1.0943 B(  4-C , 15-H ) :   0.9332 B(  4-C , 16-H ) :   0.9311
B(  5-C ,  6-N ) :   1.0970 B(  5-C , 17-H ) :   0.9284 B(  5-C , 18-H ) :   0.9279
B(  6-N , 19-H ) :   0.9695 B(  6-N , 20-H ) :   0.9627

FINAL SINGLE POINT ENERGY      -307.800645108309

DIPOLE MOMENT
-------------
                                X             Y             Z
Electronic contribution:      1.41411       0.61196       0.75658
Nuclear contribution   :     -1.20828      -0.65013      -0.64285
                        -----------------------------------------
Total Dipole Moment    :      0.20584      -0.03817       0.11372
                        -----------------------------------------
Magnitude (a.u.)       :      0.23824
Magnitude (Debye)      :      0.60556

                             ****ORCA TERMINATED NORMALLY****
TOTAL RUN TIME: 0 days 0 hours 0 minutes 8 seconds 76 msec
