                         Program Version 3.0.3 - RELEASE   -
|  1> ! RI PBE def2-SVP def2-SVP/J NBO PAL2
|  2> % maxcore 2000
|  3> % output
|  4>     # printlevel mini
|  5>     print[ P_Basis ] 0
|  6>     print[ P_SCFInfo ] 1
|  7>     print[ P_SCFIterInfo ] 1
|  8>     print[ P_OrbEn ] 0
|  9>     print[ P_Cartesian ] 0
| 10> end
| 11> *xyz 0 1
| 12>  C        1.1522930000     0.1587450000    -0.1086060000
| 13>  N        2.5846820000     0.0670560000     0.0407650000
| 14>  C        3.1497670000    -1.1864900000    -0.0892180000
| 15>  C        2.4941030000    -2.3425440000    -0.2044000000
| 16>  C        3.3664230000     1.1570080000     0.4315720000
| 17>  C        2.7860180000     2.5221330000     0.2017600000
| 18>  N        4.5328900000     1.0886960000     0.9370460000
| 19>  H        0.8428630000    -0.3267630000    -1.0383570000
| 20>  H        0.8364860000     1.1963120000    -0.1357120000
| 21>  H        0.6354820000    -0.3360950000     0.7220250000
| 22>  H        4.2316450000    -1.1759840000    -0.1528030000
| 23>  H        1.4169420000    -2.4251000000    -0.1488520000
| 24>  H        3.0553510000    -3.2524870000    -0.3638190000
| 25>  H        2.3980860000     2.6392500000    -0.8128010000
| 26>  H        3.5795010000     3.2450260000     0.3733870000
| 27>  H        1.9742690000     2.7365820000     0.9019430000
| 28>  H        4.8197110000     0.1324560000     1.1285610000
| 29> *
| 30>
| 31>                          ****END OF INPUT****
 Total Charge           Charge          ....    0
 Multiplicity           Mult            ....    1
 Number of Electrons    NEL             ....   54
 Basis Dimension        Dim             ....  148

MULLIKEN ATOMIC CHARGES
-----------------------
   0 C :    0.084277
   1 N :   -0.200473
   2 C :    0.056509
   3 C :   -0.094986
   4 C :   -0.149726
   5 C :    0.041089
   6 N :   -0.097257
   7 H :    0.039121
   8 H :    0.027429
   9 H :    0.042797
  10 H :    0.013667
  11 H :    0.019301
  12 H :    0.020664
  13 H :    0.038583
  14 H :    0.037547
  15 H :    0.044603
  16 H :    0.076855
Sum of atomic charges:   -0.0000000

LOEWDIN ATOMIC CHARGES
----------------------
   0 C :    0.021325
   1 N :   -0.010772
   2 C :    0.002675
   3 C :   -0.126144
   4 C :    0.014254
   5 C :   -0.070941
   6 N :   -0.148747
   7 H :    0.028874
   8 H :    0.031023
   9 H :    0.026405
  10 H :    0.025357
  11 H :    0.020421
  12 H :    0.029667
  13 H :    0.034589
  14 H :    0.045789
  15 H :    0.039845
  16 H :    0.036380

  Mayer bond orders larger than 0.1
B(  0-C ,  1-N ) :   1.0065 B(  0-C ,  7-H ) :   0.9552 B(  0-C ,  8-H ) :   0.9529
B(  0-C ,  9-H ) :   0.9573 B(  1-N ,  2-C ) :   1.1117 B(  1-N ,  4-C ) :   1.0563
B(  2-C ,  3-C ) :   1.8745 B(  2-C , 10-H ) :   0.9393 B(  3-C , 11-H ) :   0.9525
B(  3-C , 12-H ) :   0.9350 B(  4-C ,  5-C ) :   1.0537 B(  4-C ,  6-N ) :   2.0451
B(  5-C , 13-H ) :   0.9444 B(  5-C , 14-H ) :   0.9371 B(  5-C , 15-H ) :   0.9373
B(  6-N , 16-H ) :   0.9355

FINAL SINGLE POINT ENERGY      -305.400872307464

DIPOLE MOMENT
-------------
                                X             Y             Z
Electronic contribution:      3.42999      -0.31387       0.89494
Nuclear contribution   :     -4.36069       0.15017      -1.17236
                        -----------------------------------------
Total Dipole Moment    :     -0.93070      -0.16370      -0.27743
                        -----------------------------------------
Magnitude (a.u.)       :      0.98487
Magnitude (Debye)      :      2.50334

                             ****ORCA TERMINATED NORMALLY****
TOTAL RUN TIME: 0 days 0 hours 0 minutes 7 seconds 834 msec
