                         Program Version 3.0.3 - RELEASE   -
|  1> ! RI PBE def2-SVP def2-SVP/J NBO PAL2
|  2> % maxcore 2000
|  3> % output
|  4>     # printlevel mini
|  5>     print[ P_Basis ] 0
|  6>     print[ P_SCFInfo ] 1
|  7>     print[ P_SCFIterInfo ] 1
|  8>     print[ P_OrbEn ] 0
|  9>     print[ P_Cartesian ] 0
| 10> end
| 11> *xyz 0 1
| 12>  C        1.1586140000     0.0289840000    -0.1205930000
| 13>  N        2.6014500000     0.0238860000    -0.1441000000
| 14>  C        3.0907360000    -0.2849840000    -1.4662680000
| 15>  C        3.1336270000     1.2722580000     0.3707980000
| 16>  C        4.6300590000     1.2609350000     0.6340220000
| 17>  C        5.0716010000     0.1931210000     1.6171270000
| 18>  N        6.4939300000     0.3299060000     1.9067760000
| 19>  H        0.7774540000    -0.9389650000    -0.4545960000
| 20>  H        0.7197960000     0.8089850000    -0.7711520000
| 21>  H        0.8021660000     0.2005280000     0.8976790000
| 22>  H        2.6650400000    -1.2331000000    -1.8022270000
| 23>  H        4.1765330000    -0.3933110000    -1.4625700000
| 24>  H        2.8266580000     0.4900870000    -2.2106110000
| 25>  H        2.6168000000     1.4791000000     1.3141740000
| 26>  H        2.8924280000     2.1136880000    -0.3085410000
| 27>  H        4.9168180000     2.2402950000     1.0291530000
| 28>  H        5.1833920000     1.1454320000    -0.3057090000
| 29>  H        4.7856160000    -0.7948810000     1.2307230000
| 30>  H        4.5229410000     0.3286630000     2.5558780000
| 31>  H        7.0363990000     0.1728460000     1.0650940000
| 32>  H        6.7881510000    -0.3729710000     2.5734720000
| 33> *
| 34>
| 35>                          ****END OF INPUT****
 Total Charge           Charge          ....    0
 Multiplicity           Mult            ....    1
 Number of Electrons    NEL             ....   58
 Basis Dimension        Dim             ....  168

MULLIKEN ATOMIC CHARGES
-----------------------
   0 C :    0.109696
   1 N :   -0.347118
   2 C :    0.099438
   3 C :    0.115775
   4 C :   -0.030741
   5 C :    0.076544
   6 N :   -0.208797
   7 H :    0.015092
   8 H :   -0.016934
   9 H :    0.016892
  10 H :    0.013150
  11 H :    0.023822
  12 H :   -0.013333
  13 H :   -0.003886
  14 H :   -0.019760
  15 H :    0.008325
  16 H :    0.002267
  17 H :   -0.004408
  18 H :   -0.003675
  19 H :    0.083473
  20 H :    0.084179
Sum of atomic charges:   -0.0000000

LOEWDIN ATOMIC CHARGES
----------------------
   0 C :    0.004198
   1 N :   -0.114360
   2 C :    0.001282
   3 C :    0.019153
   4 C :   -0.055780
   5 C :    0.006565
   6 N :   -0.116528
   7 H :    0.020148
   8 H :   -0.003797
   9 H :    0.020689
  10 H :    0.022086
  11 H :    0.019195
  12 H :   -0.002708
  13 H :    0.019946
  14 H :   -0.002794
  15 H :    0.029909
  16 H :    0.016878
  17 H :   -0.000878
  18 H :    0.018609
  19 H :    0.047380
  20 H :    0.050808

  Mayer bond orders larger than 0.1
B(  0-C ,  1-N ) :   1.0390 B(  0-C ,  7-H ) :   0.9672 B(  0-C ,  8-H ) :   0.9353
B(  0-C ,  9-H ) :   0.9666 B(  1-N ,  2-C ) :   1.0335 B(  1-N ,  3-C ) :   1.0205
B(  2-C , 10-H ) :   0.9637 B(  2-C , 11-H ) :   0.9635 B(  2-C , 12-H ) :   0.9344
B(  3-C ,  4-C ) :   1.0917 B(  3-C , 13-H ) :   0.9270 B(  3-C , 14-H ) :   0.9121
B(  4-C ,  5-C ) :   1.0878 B(  4-C , 15-H ) :   0.9169 B(  4-C , 16-H ) :   0.9257
B(  5-C ,  6-N ) :   1.0872 B(  5-C , 17-H ) :   0.9302 B(  5-C , 18-H ) :   0.9312
B(  6-N , 19-H ) :   0.9690 B(  6-N , 20-H ) :   0.9664

FINAL SINGLE POINT ENERGY      -307.794568801200

DIPOLE MOMENT
-------------
                                X             Y             Z
Electronic contribution:      1.65911      -0.15658       1.80848
Nuclear contribution   :     -1.73980      -0.21102      -2.05694
                        -----------------------------------------
Total Dipole Moment    :     -0.08069      -0.36759      -0.24846
                        -----------------------------------------
Magnitude (a.u.)       :      0.45096
Magnitude (Debye)      :      1.14626

                             ****ORCA TERMINATED NORMALLY****
TOTAL RUN TIME: 0 days 0 hours 0 minutes 8 seconds 465 msec
