                         Program Version 3.0.3 - RELEASE   -
|  1> ! RI PBE def2-SVP def2-SVP/J NBO PAL2
|  2> % maxcore 2000
|  3> % output
|  4>     # printlevel mini
|  5>     print[ P_Basis ] 0
|  6>     print[ P_SCFInfo ] 1
|  7>     print[ P_SCFIterInfo ] 1
|  8>     print[ P_OrbEn ] 0
|  9>     print[ P_Cartesian ] 0
| 10> end
| 11> *xyz 0 1
| 12>  C        0.9936470000     0.0545480000    -0.0153980000
| 13>  N        2.4244240000    -0.1128900000     0.0400140000
| 14>  C        3.0640570000    -0.7634340000    -1.0726840000
| 15>  C        3.1593590000     0.6007810000     0.9137460000
| 16>  C        4.5061210000     0.7495040000     0.9075610000
| 17>  C        5.1509810000     1.4780290000     1.9286580000
| 18>  N        5.6940920000     2.0751680000     2.7555610000
| 19>  H        0.5061310000    -0.9103280000    -0.1755460000
| 20>  H        0.6890260000     0.7326810000    -0.8226600000
| 21>  H        0.6364300000     0.4657410000     0.9286830000
| 22>  H        2.3513000000    -1.4294520000    -1.5585130000
| 23>  H        3.9099890000    -1.3611790000    -0.7245010000
| 24>  H        3.4324250000    -0.0439910000    -1.8157770000
| 25>  H        2.5852740000     1.0809110000     1.6998030000
| 26>  H        5.1338420000     0.3250100000     0.1349740000
| 27> *
| 28>
| 29>                          ****END OF INPUT****
 Total Charge           Charge          ....    0
 Multiplicity           Mult            ....    1
 Number of Electrons    NEL             ....   52
 Basis Dimension        Dim             ....  138

MULLIKEN ATOMIC CHARGES
-----------------------
   0 C :    0.081752
   1 N :   -0.259732
   2 C :    0.097659
   3 C :    0.107431
   4 C :   -0.203378
   5 C :   -0.127532
   6 N :    0.014018
   7 H :    0.039668
   8 H :    0.040767
   9 H :    0.044059
  10 H :    0.034050
  11 H :    0.048290
  12 H :    0.035322
  13 H :    0.021251
  14 H :    0.026375
Sum of atomic charges:    0.0000000

LOEWDIN ATOMIC CHARGES
----------------------
   0 C :    0.023284
   1 N :   -0.007155
   2 C :    0.017857
   3 C :    0.038750
   4 C :   -0.172773
   5 C :   -0.056627
   6 N :   -0.099743
   7 H :    0.027893
   8 H :    0.023427
   9 H :    0.035044
  10 H :    0.032416
  11 H :    0.034917
  12 H :    0.026333
  13 H :    0.036166
  14 H :    0.040211

  Mayer bond orders larger than 0.1
B(  0-C ,  1-N ) :   1.0068 B(  0-C ,  7-H ) :   0.9638 B(  0-C ,  8-H ) :   0.9604
B(  0-C ,  9-H ) :   0.9639 B(  1-N ,  2-C ) :   1.0176 B(  1-N ,  3-C ) :   1.2488
B(  2-C , 10-H ) :   0.9611 B(  2-C , 11-H ) :   0.9537 B(  2-C , 12-H ) :   0.9559
B(  3-C ,  4-C ) :   1.6296 B(  3-C , 13-H ) :   0.9485 B(  4-C ,  5-C ) :   1.1780
B(  4-C , 14-H ) :   0.9391 B(  5-C ,  6-N ) :   2.9429

FINAL SINGLE POINT ENERGY      -304.200117719177

DIPOLE MOMENT
-------------
                                X             Y             Z
Electronic contribution:      6.30324       3.90771       5.87333
Nuclear contribution   :     -8.15531      -5.10881      -7.55142
                        -----------------------------------------
Total Dipole Moment    :     -1.85207      -1.20111      -1.67809
                        -----------------------------------------
Magnitude (a.u.)       :      2.77287
Magnitude (Debye)      :      7.04807

                             ****ORCA TERMINATED NORMALLY****
TOTAL RUN TIME: 0 days 0 hours 0 minutes 6 seconds 895 msec
