                         Program Version 3.0.3 - RELEASE   -
|  1> ! RI PBE def2-SVP def2-SVP/J NBO PAL2
|  2> % maxcore 2000
|  3> % output
|  4>     # printlevel mini
|  5>     print[ P_Basis ] 0
|  6>     print[ P_SCFInfo ] 1
|  7>     print[ P_SCFIterInfo ] 1
|  8>     print[ P_OrbEn ] 0
|  9>     print[ P_Cartesian ] 0
| 10> end
| 11> *xyz 0 1
| 12>  C        1.0109810000    -0.2298990000     0.0348500000
| 13>  N        2.3325530000     0.3054410000    -0.2075520000
| 14>  C        2.3544810000     1.0905960000    -1.4214510000
| 15>  C        2.8190330000     1.0345890000     0.9408080000
| 16>  C        4.3332370000     1.2458010000     0.8812870000
| 17>  C        4.8345630000     1.8756590000     2.0906990000
| 18>  N        5.2123500000     2.3726880000     3.0560880000
| 19>  H        0.6981390000    -0.8337320000    -0.8194990000
| 20>  H        0.2500030000     0.5551320000     0.1924480000
| 21>  H        1.0246080000    -0.8731130000     0.9170930000
| 22>  H        2.0015770000     0.4808490000    -2.2552210000
| 23>  H        3.3691330000     1.4129640000    -1.6612740000
| 24>  H        1.7138920000     1.9888500000    -1.3586340000
| 25>  H        2.5911870000     0.4519170000     1.8364250000
| 26>  H        2.3190590000     2.0128220000     1.0610900000
| 27>  H        4.6141850000     1.8747950000     0.0329790000
| 28>  H        4.8290110000     0.2803310000     0.7491630000
| 29> *
| 30>
| 31>                          ****END OF INPUT****
 Total Charge           Charge          ....    0
 Multiplicity           Mult            ....    1
 Number of Electrons    NEL             ....   54
 Basis Dimension        Dim             ....  148

MULLIKEN ATOMIC CHARGES
-----------------------
   0 C :    0.092899
   1 N :   -0.340840
   2 C :    0.101463
   3 C :    0.063534
   4 C :    0.106144
   5 C :   -0.300438
   6 N :    0.054551
   7 H :    0.024844
   8 H :   -0.004554
   9 H :    0.028961
  10 H :    0.024571
  11 H :    0.019953
  12 H :   -0.005701
  13 H :    0.027874
  14 H :    0.004735
  15 H :    0.048768
  16 H :    0.053238
Sum of atomic charges:   -0.0000000

LOEWDIN ATOMIC CHARGES
----------------------
   0 C :    0.005259
   1 N :   -0.114795
   2 C :    0.004897
   3 C :    0.030275
   4 C :   -0.061492
   5 C :   -0.044871
   6 N :   -0.067907
   7 H :    0.024340
   8 H :    0.001761
   9 H :    0.024623
  10 H :    0.026333
  11 H :    0.019300
  12 H :    0.001651
  13 H :    0.030678
  14 H :    0.006544
  15 H :    0.053919
  16 H :    0.059486

  Mayer bond orders larger than 0.1
B(  0-C ,  1-N ) :   1.0294 B(  0-C ,  7-H ) :   0.9673 B(  0-C ,  8-H ) :   0.9396
B(  0-C ,  9-H ) :   0.9672 B(  1-N ,  2-C ) :   1.0251 B(  1-N ,  3-C ) :   1.0506
B(  2-C , 10-H ) :   0.9655 B(  2-C , 11-H ) :   0.9637 B(  2-C , 12-H ) :   0.9368
B(  3-C ,  4-C ) :   1.0762 B(  3-C , 13-H ) :   0.9387 B(  3-C , 14-H ) :   0.9147
B(  4-C ,  5-C ) :   1.1166 B(  4-C , 15-H ) :   0.8783 B(  4-C , 16-H ) :   0.8764
B(  5-C ,  6-N ) :   3.0555

FINAL SINGLE POINT ENERGY      -305.394213004824

DIPOLE MOMENT
-------------
                                X             Y             Z
Electronic contribution:      7.21692       2.59814       6.55793
Nuclear contribution   :     -8.01353      -3.15437      -7.80517
                        -----------------------------------------
Total Dipole Moment    :     -0.79661      -0.55623      -1.24723
                        -----------------------------------------
Magnitude (a.u.)       :      1.58100
Magnitude (Debye)      :      4.01859

                             ****ORCA TERMINATED NORMALLY****
TOTAL RUN TIME: 0 days 0 hours 0 minutes 7 seconds 708 msec
