                         Program Version 3.0.3 - RELEASE   -
|  1> ! RI PBE def2-SVP def2-SVP/J NBO PAL2
|  2> % maxcore 2000
|  3> % output
|  4>     # printlevel mini
|  5>     print[ P_Basis ] 0
|  6>     print[ P_SCFInfo ] 1
|  7>     print[ P_SCFIterInfo ] 1
|  8>     print[ P_OrbEn ] 0
|  9>     print[ P_Cartesian ] 0
| 10> end
| 11> *xyz 0 1
| 12>  C        0.7049280000     0.2467140000     0.3592830000
| 13>  N        2.0913490000     0.6029930000     0.2051000000
| 14>  C        2.8922560000    -0.2436910000    -0.6482520000
| 15>  C        3.3301110000    -1.5103910000     0.0233110000
| 16>  C        3.0554780000    -2.7258160000    -0.4264190000
| 17>  C        2.6636830000     1.5453600000     1.0107600000
| 18>  N        3.8820810000     1.8845660000     1.1485280000
| 19>  H        0.5846520000    -0.7542250000     0.7897600000
| 20>  H        0.1890160000     0.2664800000    -0.6065990000
| 21>  H        0.2172450000     0.9638350000     1.0200630000
| 22>  H        3.7635230000     0.3309500000    -0.9802910000
| 23>  H        2.3126090000    -0.4808530000    -1.5462190000
| 24>  H        3.8963110000    -1.3866430000     0.9439260000
| 25>  H        2.4862140000    -2.8757670000    -1.3393520000
| 26>  H        3.3942210000    -3.6150810000     0.0923160000
| 27>  H        1.9187290000     2.0832360000     1.6021130000
| 28>  H        4.5142870000     1.3227310000     0.5818820000
| 29> *
| 30>
| 31>                          ****END OF INPUT****
 Total Charge           Charge          ....    0
 Multiplicity           Mult            ....    1
 Number of Electrons    NEL             ....   54
 Basis Dimension        Dim             ....  148

MULLIKEN ATOMIC CHARGES
-----------------------
   0 C :    0.105512
   1 N :   -0.251500
   2 C :    0.141229
   3 C :   -0.091511
   4 C :   -0.023624
   5 C :    0.001691
   6 N :   -0.151167
   7 H :    0.028083
   8 H :    0.024875
   9 H :    0.036059
  10 H :    0.028434
  11 H :    0.003543
  12 H :    0.021394
  13 H :    0.020145
  14 H :    0.032498
  15 H :    0.007058
  16 H :    0.067281
Sum of atomic charges:   -0.0000000

LOEWDIN ATOMIC CHARGES
----------------------
   0 C :    0.020160
   1 N :   -0.041987
   2 C :    0.025047
   3 C :   -0.042297
   4 C :   -0.053531
   5 C :    0.011622
   6 N :   -0.175608
   7 H :    0.019920
   8 H :    0.021370
   9 H :    0.030927
  10 H :    0.029990
  11 H :    0.027883
  12 H :    0.030201
  13 H :    0.022443
  14 H :    0.028207
  15 H :    0.013576
  16 H :    0.032077

  Mayer bond orders larger than 0.1
B(  0-C ,  1-N ) :   1.0051 B(  0-C ,  7-H ) :   0.9585 B(  0-C ,  8-H ) :   0.9613
B(  0-C ,  9-H ) :   0.9604 B(  1-N ,  2-C ) :   1.0008 B(  1-N ,  5-C ) :   1.1379
B(  1-N ,  6-N ) :   0.1080 B(  2-C ,  3-C ) :   1.0558 B(  2-C , 10-H ) :   0.9098
B(  2-C , 11-H ) :   0.9225 B(  3-C ,  4-C ) :   2.0000 B(  3-C , 12-H ) :   0.9564
B(  4-C , 13-H ) :   0.9475 B(  4-C , 14-H ) :   0.9466 B(  5-C ,  6-N ) :   1.9827
B(  5-C , 15-H ) :   0.9347 B(  6-N , 16-H ) :   0.9515

FINAL SINGLE POINT ENERGY      -305.386915909061

DIPOLE MOMENT
-------------
                                X             Y             Z
Electronic contribution:      2.14727       2.79773       1.09246
Nuclear contribution   :     -2.91826      -3.72045      -1.70400
                        -----------------------------------------
Total Dipole Moment    :     -0.77098      -0.92272      -0.61154
                        -----------------------------------------
Magnitude (a.u.)       :      1.34900
Magnitude (Debye)      :      3.42888

                             ****ORCA TERMINATED NORMALLY****
TOTAL RUN TIME: 0 days 0 hours 0 minutes 7 seconds 787 msec
