                         Program Version 3.0.3 - RELEASE   -
|  1> ! RI PBE def2-SVP def2-SVP/J NBO PAL2
|  2> % maxcore 2000
|  3> % output
|  4>     # printlevel mini
|  5>     print[ P_Basis ] 0
|  6>     print[ P_SCFInfo ] 1
|  7>     print[ P_SCFIterInfo ] 1
|  8>     print[ P_OrbEn ] 0
|  9>     print[ P_Cartesian ] 0
| 10> end
| 11> *xyz 0 1
| 12>  C        1.2266540000     0.2047650000    -0.2192100000
| 13>  N        2.6183710000    -0.1598550000    -0.1664410000
| 14>  C        3.3658700000     0.2275470000     1.0078380000
| 15>  C        3.5081530000     1.6740770000     1.1759540000
| 16>  C        3.6037650000     2.8636450000     1.3011450000
| 17>  C        3.2957180000    -0.4288550000    -1.3267860000
| 18>  N        2.8561590000    -0.5156430000    -2.5144340000
| 19>  H        0.8141810000     0.1912010000     0.7902510000
| 20>  H        0.6734030000    -0.5215540000    -0.8188280000
| 21>  H        1.0679840000     1.2044730000    -0.6423420000
| 22>  H        4.3579050000    -0.2291780000     0.9488570000
| 23>  H        2.8827930000    -0.1884710000     1.8990330000
| 24>  H        3.6964050000     3.9187170000     1.4095510000
| 25>  H        4.3576800000    -0.6202470000    -1.1553480000
| 26>  H        1.8644690000    -0.2938320000    -2.5783290000
| 27> *
| 28>
| 29>                          ****END OF INPUT****
 Total Charge           Charge          ....    0
 Multiplicity           Mult            ....    1
 Number of Electrons    NEL             ....   52
 Basis Dimension        Dim             ....  138

MULLIKEN ATOMIC CHARGES
-----------------------
   0 C :    0.071135
   1 N :   -0.254348
   2 C :    0.177633
   3 C :    0.314468
   4 C :   -0.467100
   5 C :    0.011004
   6 N :   -0.139902
   7 H :    0.028426
   8 H :    0.045603
   9 H :    0.041922
  10 H :    0.045667
  11 H :    0.045539
  12 H :    0.005390
  13 H :    0.005822
  14 H :    0.068742
Sum of atomic charges:   -0.0000000

LOEWDIN ATOMIC CHARGES
----------------------
   0 C :    0.010169
   1 N :   -0.044618
   2 C :    0.024477
   3 C :   -0.042460
   4 C :   -0.067659
   5 C :    0.016186
   6 N :   -0.161657
   7 H :    0.032152
   8 H :    0.029061
   9 H :    0.023037
  10 H :    0.050093
  11 H :    0.043632
  12 H :    0.037447
  13 H :    0.013496
  14 H :    0.036646

  Mayer bond orders larger than 0.1
B(  0-C ,  1-N ) :   1.0029 B(  0-C ,  7-H ) :   0.9580 B(  0-C ,  8-H ) :   0.9575
B(  0-C ,  9-H ) :   0.9582 B(  1-N ,  2-C ) :   1.0389 B(  1-N ,  5-C ) :   1.1243
B(  2-C ,  3-C ) :   1.0230 B(  2-C , 10-H ) :   0.8960 B(  2-C , 11-H ) :   0.9137
B(  3-C ,  4-C ) :   2.3709 B(  3-C , 12-H ) :  -0.1105 B(  4-C , 12-H ) :   1.1016
B(  5-C ,  6-N ) :   2.0002 B(  5-C , 13-H ) :   0.9342 B(  6-N , 14-H ) :   0.9495

FINAL SINGLE POINT ENERGY      -304.140909610996

DIPOLE MOMENT
-------------
                                X             Y             Z
Electronic contribution:      2.61529       0.82362       0.17502
Nuclear contribution   :     -3.11009      -0.55426       0.97392
                        -----------------------------------------
Total Dipole Moment    :     -0.49480       0.26936       1.14894
                        -----------------------------------------
Magnitude (a.u.)       :      1.27963
Magnitude (Debye)      :      3.25255

                             ****ORCA TERMINATED NORMALLY****
TOTAL RUN TIME: 0 days 0 hours 0 minutes 6 seconds 984 msec
