                         Program Version 3.0.3 - RELEASE   -
|  1> ! RI PBE def2-SVP def2-SVP/J NBO PAL2
|  2> % maxcore 2000
|  3> % output
|  4>     # printlevel mini
|  5>     print[ P_Basis ] 0
|  6>     print[ P_SCFInfo ] 1
|  7>     print[ P_SCFIterInfo ] 1
|  8>     print[ P_OrbEn ] 0
|  9>     print[ P_Cartesian ] 0
| 10> end
| 11> *xyz 0 1
| 12>  C        1.0063340000    -0.0724570000    -0.1112930000
| 13>  N        2.4395890000    -0.1848100000    -0.0187270000
| 14>  C        3.1125860000     0.0431430000     1.1307510000
| 15>  C        4.4515790000     0.2110810000     1.2328760000
| 16>  C        5.3621660000     0.2039090000     0.0380700000
| 17>  C        5.0096350000     0.3761270000     2.5216730000
| 18>  N        5.4933720000     0.5169600000     3.5621170000
| 19>  H        0.6387350000    -0.6876080000    -0.9337980000
| 20>  H        0.6668860000     0.9584150000    -0.2684290000
| 21>  H        0.5539410000    -0.4443370000     0.8093450000
| 22>  H        2.9589110000    -0.1112880000    -0.8776400000
| 23>  H        2.4989220000     0.0589960000     2.0255340000
| 24>  H        5.0217870000     0.9097710000    -0.7283110000
| 25>  H        5.4189510000    -0.7885230000    -0.4230120000
| 26>  H        6.3737860000     0.4933210000     0.3185530000
| 27> *
| 28>
| 29>                          ****END OF INPUT****
 Total Charge           Charge          ....    0
 Multiplicity           Mult            ....    1
 Number of Electrons    NEL             ....   52
 Basis Dimension        Dim             ....  138

MULLIKEN ATOMIC CHARGES
-----------------------
   0 C :    0.073339
   1 N :   -0.147500
   2 C :    0.075562
   3 C :   -0.273075
   4 C :    0.064232
   5 C :   -0.158518
   6 N :    0.022367
   7 H :    0.037848
   8 H :    0.038944
   9 H :    0.043473
  10 H :    0.114952
  11 H :    0.009631
  12 H :    0.026150
  13 H :    0.035795
  14 H :    0.036800
Sum of atomic charges:   -0.0000000

LOEWDIN ATOMIC CHARGES
----------------------
   0 C :    0.015414
   1 N :    0.014080
   2 C :    0.034420
   3 C :   -0.161963
   4 C :   -0.051567
   5 C :   -0.054849
   6 N :   -0.102189
   7 H :    0.031045
   8 H :    0.021276
   9 H :    0.035018
  10 H :    0.074909
  11 H :    0.036309
  12 H :    0.029121
  13 H :    0.033471
  14 H :    0.045507

  Mayer bond orders larger than 0.1
B(  0-C ,  1-N ) :   1.0239 B(  0-C ,  7-H ) :   0.9714 B(  0-C ,  8-H ) :   0.9632
B(  0-C ,  9-H ) :   0.9651 B(  1-N ,  2-C ) :   1.2742 B(  1-N , 10-H ) :   0.9302
B(  2-C ,  3-C ) :   1.6470 B(  2-C , 11-H ) :   0.9425 B(  3-C ,  4-C ) :   1.0822
B(  3-C ,  5-C ) :   1.1992 B(  4-C , 12-H ) :   0.9413 B(  4-C , 13-H ) :   0.9495
B(  4-C , 14-H ) :   0.9431 B(  5-C ,  6-N ) :   2.9512

FINAL SINGLE POINT ENERGY      -304.207284219362

DIPOLE MOMENT
-------------
                                X             Y             Z
Electronic contribution:      4.14551       0.51509       6.35696
Nuclear contribution   :     -5.69519      -0.74328      -8.44703
                        -----------------------------------------
Total Dipole Moment    :     -1.54968      -0.22819      -2.09007
                        -----------------------------------------
Magnitude (a.u.)       :      2.61189
Magnitude (Debye)      :      6.63889

                             ****ORCA TERMINATED NORMALLY****
TOTAL RUN TIME: 0 days 0 hours 0 minutes 7 seconds 31 msec
