                         Program Version 3.0.3 - RELEASE   -
|  1> ! RI PBE def2-SVP def2-SVP/J NBO PAL2
|  2> % maxcore 2000
|  3> % output
|  4>     # printlevel mini
|  5>     print[ P_Basis ] 0
|  6>     print[ P_SCFInfo ] 1
|  7>     print[ P_SCFIterInfo ] 1
|  8>     print[ P_OrbEn ] 0
|  9>     print[ P_Cartesian ] 0
| 10> end
| 11> *xyz 0 1
| 12>  C        2.6722360000     0.0131970000     1.0978670000
| 13>  N        2.4106300000     0.1330730000    -0.3232380000
| 14>  C        2.9124140000    -0.9591880000    -1.1170060000
| 15>  C        2.4833000000    -0.8874930000    -2.5611470000
| 16>  C        1.5527190000    -0.0672270000    -3.0201090000
| 17>  C        4.3869590000    -1.0893590000    -1.0477370000
| 18>  N        5.5326510000    -1.1465200000    -0.9620290000
| 19>  H        2.2733730000     0.8910880000     1.6074760000
| 20>  H        3.7377640000    -0.0826570000     1.3512580000
| 21>  H        2.1491110000    -0.8627280000     1.4902000000
| 22>  H        2.7771430000     1.0061320000    -0.6833180000
| 23>  H        2.5123960000    -1.8904990000    -0.6904170000
| 24>  H        2.9925480000    -1.5776240000    -3.2271070000
| 25>  H        1.0293700000     0.6179660000    -2.3640150000
| 26>  H        1.2808170000    -0.0727600000    -4.0686580000
| 27> *
| 28>
| 29>                          ****END OF INPUT****
 Total Charge           Charge          ....    0
 Multiplicity           Mult            ....    1
 Number of Electrons    NEL             ....   52
 Basis Dimension        Dim             ....  138

MULLIKEN ATOMIC CHARGES
-----------------------
   0 C :    0.062948
   1 N :   -0.233185
   2 C :    0.141589
   3 C :   -0.067349
   4 C :   -0.017200
   5 C :   -0.265922
   6 N :    0.034883
   7 H :    0.032175
   8 H :    0.026001
   9 H :    0.024228
  10 H :    0.116988
  11 H :    0.055262
  12 H :    0.023507
  13 H :    0.030944
  14 H :    0.035129
Sum of atomic charges:    0.0000000

LOEWDIN ATOMIC CHARGES
----------------------
   0 C :   -0.001456
   1 N :   -0.066911
   2 C :   -0.013479
   3 C :   -0.028019
   4 C :   -0.045413
   5 C :   -0.062659
   6 N :   -0.064974
   7 H :    0.029450
   8 H :    0.010372
   9 H :    0.026133
  10 H :    0.063683
  11 H :    0.059722
  12 H :    0.036084
  13 H :    0.025836
  14 H :    0.031632

  Mayer bond orders larger than 0.1
B(  0-C ,  1-N ) :   1.0512 B(  0-C ,  7-H ) :   0.9723 B(  0-C ,  8-H ) :   0.9471
B(  0-C ,  9-H ) :   0.9654 B(  1-N ,  2-C ) :   1.1251 B(  1-N , 10-H ) :   0.9322
B(  2-C ,  3-C ) :   1.0006 B(  2-C ,  5-C ) :   0.9425 B(  2-C , 11-H ) :   0.8676
B(  3-C ,  4-C ) :   2.0269 B(  3-C , 12-H ) :   0.9540 B(  4-C , 13-H ) :   0.9313
B(  4-C , 14-H ) :   0.9414 B(  5-C ,  6-N ) :   3.0703

FINAL SINGLE POINT ENERGY      -304.175371766035

DIPOLE MOMENT
-------------
                                X             Y             Z
Electronic contribution:      4.60417      -1.96099      -1.89868
Nuclear contribution   :     -5.69507       2.21846       1.98532
                        -----------------------------------------
Total Dipole Moment    :     -1.09091       0.25748       0.08664
                        -----------------------------------------
Magnitude (a.u.)       :      1.12422
Magnitude (Debye)      :      2.85755

                             ****ORCA TERMINATED NORMALLY****
TOTAL RUN TIME: 0 days 0 hours 0 minutes 6 seconds 915 msec
