                         Program Version 3.0.3 - RELEASE   -
|  1> ! RI PBE def2-SVP def2-SVP/J NBO PAL2
|  2> % maxcore 2000
|  3> % output
|  4>     # printlevel mini
|  5>     print[ P_Basis ] 0
|  6>     print[ P_SCFInfo ] 1
|  7>     print[ P_SCFIterInfo ] 1
|  8>     print[ P_OrbEn ] 0
|  9>     print[ P_Cartesian ] 0
| 10> end
| 11> *xyz 0 1
| 12>  C        0.9021150000     0.1843920000     0.1792580000
| 13>  N        2.2865860000    -0.0446210000    -0.1724680000
| 14>  C        2.7454230000    -1.4124530000     0.0279970000
| 15>  C        2.0574850000    -2.3613250000    -0.9428820000
| 16>  C        4.2661550000    -1.4671450000    -0.0901430000
| 17>  C        4.8321490000    -1.1481210000    -1.4633450000
| 18>  N        6.2891430000    -1.1872850000    -1.4164130000
| 19>  H        0.6964560000     1.2564590000     0.1661920000
| 20>  H        0.6265170000    -0.2068070000     1.1740670000
| 21>  H        0.2381780000    -0.2792310000    -0.5535830000
| 22>  H        2.8730490000     0.5727910000     0.3754410000
| 23>  H        2.4936140000    -1.7545680000     1.0505690000
| 24>  H        2.1825670000    -2.0208970000    -1.9730900000
| 25>  H        0.9872060000    -2.4346890000    -0.7408000000
| 26>  H        2.4772170000    -3.3661150000    -0.8530850000
| 27>  H        4.6148760000    -2.4597030000     0.2102710000
| 28>  H        4.6947000000    -0.7648890000     0.6390470000
| 29>  H        4.4202860000    -0.1912270000    -1.8124750000
| 30>  H        4.5071290000    -1.9104410000    -2.1773950000
| 31>  H        6.6383400000    -0.4540520000    -0.8099810000
| 32>  H        6.6780080000    -1.0121830000    -2.3345810000
| 33> *
| 34>
| 35>                          ****END OF INPUT****
 Total Charge           Charge          ....    0
 Multiplicity           Mult            ....    1
 Number of Electrons    NEL             ....   58
 Basis Dimension        Dim             ....  168

MULLIKEN ATOMIC CHARGES
-----------------------
   0 C :    0.065926
   1 N :   -0.240028
   2 C :   -0.010856
   3 C :   -0.000164
   4 C :   -0.005854
   5 C :    0.058726
   6 N :   -0.204926
   7 H :    0.019195
   8 H :   -0.012728
   9 H :    0.025251
  10 H :    0.097022
  11 H :   -0.026343
  12 H :    0.031409
  13 H :    0.021035
  14 H :    0.017128
  15 H :    0.007252
  16 H :   -0.007526
  17 H :   -0.004966
  18 H :    0.005115
  19 H :    0.081697
  20 H :    0.083635
Sum of atomic charges:   -0.0000000

LOEWDIN ATOMIC CHARGES
----------------------
   0 C :   -0.007594
   1 N :   -0.100411
   2 C :    0.005462
   3 C :   -0.067576
   4 C :   -0.047384
   5 C :    0.003382
   6 N :   -0.114400
   7 H :    0.023342
   8 H :   -0.003166
   9 H :    0.019935
  10 H :    0.051674
  11 H :   -0.001634
  12 H :    0.026887
  13 H :    0.024893
  14 H :    0.029210
  15 H :    0.027087
  16 H :    0.015744
  17 H :   -0.001995
  18 H :    0.019216
  19 H :    0.046545
  20 H :    0.050782

  Mayer bond orders larger than 0.1
B(  0-C ,  1-N ) :   1.0701 B(  0-C ,  7-H ) :   0.9712 B(  0-C ,  8-H ) :   0.9375
B(  0-C ,  9-H ) :   0.9670 B(  1-N ,  2-C ) :   1.0269 B(  1-N , 10-H ) :   0.9398
B(  2-C ,  3-C ) :   1.0744 B(  2-C ,  4-C ) :   1.0597 B(  2-C , 11-H ) :   0.8970
B(  3-C , 12-H ) :   0.9525 B(  3-C , 13-H ) :   0.9525 B(  3-C , 14-H ) :   0.9572
B(  4-C ,  5-C ) :   1.0812 B(  4-C , 15-H ) :   0.9223 B(  4-C , 16-H ) :   0.9299
B(  5-C ,  6-N ) :   1.0850 B(  5-C , 17-H ) :   0.9322 B(  5-C , 18-H ) :   0.9274
B(  6-N , 19-H ) :   0.9699 B(  6-N , 20-H ) :   0.9641

FINAL SINGLE POINT ENERGY      -307.800894029102

DIPOLE MOMENT
-------------
                                X             Y             Z
Electronic contribution:      2.54644       0.82090      -0.08329
Nuclear contribution   :     -2.60275      -0.34759       0.21510
                        -----------------------------------------
Total Dipole Moment    :     -0.05630       0.47331       0.13181
                        -----------------------------------------
Magnitude (a.u.)       :      0.49453
Magnitude (Debye)      :      1.25700

                             ****ORCA TERMINATED NORMALLY****
TOTAL RUN TIME: 0 days 0 hours 0 minutes 8 seconds 498 msec
