                         Program Version 3.0.3 - RELEASE   -
|  1> ! RI PBE def2-SVP def2-SVP/J NBO PAL2
|  2> % maxcore 2000
|  3> % output
|  4>     # printlevel mini
|  5>     print[ P_Basis ] 0
|  6>     print[ P_SCFInfo ] 1
|  7>     print[ P_SCFIterInfo ] 1
|  8>     print[ P_OrbEn ] 0
|  9>     print[ P_Cartesian ] 0
| 10> end
| 11> *xyz 0 1
| 12>  C        1.0452710000     0.0719950000     0.4137370000
| 13>  N        2.4386490000     0.0773990000     0.0477080000
| 14>  C        3.0248190000    -0.8273620000    -0.7795170000
| 15>  C        2.1198360000    -1.6462190000    -1.6367730000
| 16>  C        4.3777020000    -0.9458250000    -0.8372810000
| 17>  C        5.0286870000    -1.8231200000    -1.7238540000
| 18>  N        5.5793410000    -2.5417510000    -2.4433960000
| 19>  H        0.8231680000     0.9939160000     0.9510460000
| 20>  H        0.7710690000    -0.7731300000     1.0576920000
| 21>  H        0.4089420000     0.0492640000    -0.4717290000
| 22>  H        3.0583080000     0.5568110000     0.6790030000
| 23>  H        1.5041980000    -1.0033040000    -2.2717540000
| 24>  H        1.4433560000    -2.2499840000    -1.0258640000
| 25>  H        2.6988530000    -2.3114360000    -2.2736130000
| 26>  H        5.0114810000    -0.3437530000    -0.1946980000
| 27> *
| 28>
| 29>                          ****END OF INPUT****
 Total Charge           Charge          ....    0
 Multiplicity           Mult            ....    1
 Number of Electrons    NEL             ....   52
 Basis Dimension        Dim             ....  138

MULLIKEN ATOMIC CHARGES
-----------------------
   0 C :    0.066691
   1 N :   -0.138047
   2 C :   -0.092965
   3 C :    0.079210
   4 C :   -0.131399
   5 C :   -0.155242
   6 N :    0.002634
   7 H :    0.036974
   8 H :    0.038892
   9 H :    0.041657
  10 H :    0.115608
  11 H :    0.046022
  12 H :    0.039299
  13 H :    0.047065
  14 H :    0.003599
Sum of atomic charges:   -0.0000000

LOEWDIN ATOMIC CHARGES
----------------------
   0 C :    0.009503
   1 N :    0.010364
   2 C :    0.035662
   3 C :   -0.053135
   4 C :   -0.175865
   5 C :   -0.060778
   6 N :   -0.105275
   7 H :    0.034163
   8 H :    0.020940
   9 H :    0.031705
  10 H :    0.077657
  11 H :    0.044252
  12 H :    0.042723
  13 H :    0.050165
  14 H :    0.037919

  Mayer bond orders larger than 0.1
B(  0-C ,  1-N ) :   1.0361 B(  0-C ,  7-H ) :   0.9689 B(  0-C ,  8-H ) :   0.9589
B(  0-C ,  9-H ) :   0.9582 B(  1-N ,  2-C ) :   1.2686 B(  1-N , 10-H ) :   0.9314
B(  2-C ,  3-C ) :   1.1129 B(  2-C ,  4-C ) :   1.6089 B(  3-C , 11-H ) :   0.9331
B(  3-C , 12-H ) :   0.9275 B(  3-C , 13-H ) :   0.9214 B(  4-C ,  5-C ) :   1.1845
B(  4-C , 14-H ) :   0.9344 B(  5-C ,  6-N ) :   2.8945

FINAL SINGLE POINT ENERGY      -304.210688628277

DIPOLE MOMENT
-------------
                                X             Y             Z
Electronic contribution:      8.00734      -1.88708      -2.41744
Nuclear contribution   :     -9.87501       3.17409       3.84566
                        -----------------------------------------
Total Dipole Moment    :     -1.86767       1.28701       1.42822
                        -----------------------------------------
Magnitude (a.u.)       :      2.68038
Magnitude (Debye)      :      6.81297

                             ****ORCA TERMINATED NORMALLY****
TOTAL RUN TIME: 0 days 0 hours 0 minutes 7 seconds 160 msec
