                         Program Version 3.0.3 - RELEASE   -
|  1> ! RI PBE def2-SVP def2-SVP/J NBO PAL2
|  2> % maxcore 2000
|  3> % output
|  4>     # printlevel mini
|  5>     print[ P_Basis ] 0
|  6>     print[ P_SCFInfo ] 1
|  7>     print[ P_SCFIterInfo ] 1
|  8>     print[ P_OrbEn ] 0
|  9>     print[ P_Cartesian ] 0
| 10> end
| 11> *xyz 0 1
| 12>  C        1.0224730000    -0.0257250000    -0.0346730000
| 13>  N        2.4354290000    -0.0907520000     0.2702400000
| 14>  C        2.8563230000    -1.0670630000     1.2789490000
| 15>  C        2.3805320000    -0.6966740000     2.6855960000
| 16>  C        2.3624830000    -2.4559520000     0.9016240000
| 17>  C        4.3912500000    -1.0785740000     1.2445550000
| 18>  N        4.9459490000     0.2643130000     1.3535300000
| 19>  H        0.8448190000     0.8293820000    -0.6901650000
| 20>  H        0.3607850000     0.0826680000     0.8392520000
| 21>  H        0.7072840000    -0.9178440000    -0.5804500000
| 22>  H        2.7528580000     0.8176410000     0.5878590000
| 23>  H        1.2949120000    -0.5776460000     2.7213590000
| 24>  H        2.8463710000     0.2401830000     3.0004040000
| 25>  H        2.6489010000    -1.4716430000     3.4094540000
| 26>  H        1.2811990000    -2.5490580000     1.0236680000
| 27>  H        2.8296850000    -3.2074370000     1.5431070000
| 28>  H        2.6139010000    -2.6847580000    -0.1370290000
| 29>  H        4.7062690000    -1.5916770000     0.3258990000
| 30>  H        4.7489280000    -1.6736930000     2.0900120000
| 31>  H        5.0423390000     0.6785480000     0.4357880000
| 32>  H        5.8658110000     0.2471610000     1.7702320000
| 33> *
| 34>
| 35>                          ****END OF INPUT****
 Total Charge           Charge          ....    0
 Multiplicity           Mult            ....    1
 Number of Electrons    NEL             ....   58
 Basis Dimension        Dim             ....  168

MULLIKEN ATOMIC CHARGES
-----------------------
   0 C :    0.067881
   1 N :   -0.233792
   2 C :   -0.232964
   3 C :    0.061270
   4 C :    0.063016
   5 C :    0.117068
   6 N :   -0.199978
   7 H :    0.015312
   8 H :   -0.004269
   9 H :    0.019996
  10 H :    0.091010
  11 H :    0.011740
  12 H :    0.012917
  13 H :   -0.000326
  14 H :    0.018510
  15 H :    0.007882
  16 H :    0.015313
  17 H :   -0.011118
  18 H :   -0.006633
  19 H :    0.094013
  20 H :    0.093154
Sum of atomic charges:    0.0000000

LOEWDIN ATOMIC CHARGES
----------------------
   0 C :   -0.008235
   1 N :   -0.095458
   2 C :   -0.031656
   3 C :   -0.069243
   4 C :   -0.055453
   5 C :    0.012846
   6 N :   -0.103160
   7 H :    0.022739
   8 H :   -0.003157
   9 H :    0.018106
  10 H :    0.045031
  11 H :    0.020088
  12 H :    0.021986
  13 H :    0.021559
  14 H :    0.024312
  15 H :    0.026824
  16 H :    0.025312
  17 H :    0.003339
  18 H :    0.016833
  19 H :    0.052185
  20 H :    0.055204

  Mayer bond orders larger than 0.1
B(  0-C ,  1-N ) :   1.0738 B(  0-C ,  7-H ) :   0.9697 B(  0-C ,  8-H ) :   0.9391
B(  0-C ,  9-H ) :   0.9644 B(  1-N ,  2-C ) :   1.0256 B(  1-N , 10-H ) :   0.9277
B(  2-C ,  3-C ) :   1.0424 B(  2-C ,  4-C ) :   1.0628 B(  2-C ,  5-C ) :   1.0025
B(  3-C , 11-H ) :   0.9514 B(  3-C , 12-H ) :   0.9423 B(  3-C , 13-H ) :   0.9473
B(  4-C , 14-H ) :   0.9521 B(  4-C , 15-H ) :   0.9504 B(  4-C , 16-H ) :   0.9428
B(  5-C ,  6-N ) :   1.1360 B(  5-C , 17-H ) :   0.9294 B(  5-C , 18-H ) :   0.9353
B(  6-N , 19-H ) :   0.9603 B(  6-N , 20-H ) :   0.9674

FINAL SINGLE POINT ENERGY      -307.804770023805

DIPOLE MOMENT
-------------
                                X             Y             Z
Electronic contribution:      2.56439       1.63119      -0.90106
Nuclear contribution   :     -2.20551      -1.60779       0.90456
                        -----------------------------------------
Total Dipole Moment    :      0.35887       0.02340       0.00351
                        -----------------------------------------
Magnitude (a.u.)       :      0.35965
Magnitude (Debye)      :      0.91416

                             ****ORCA TERMINATED NORMALLY****
TOTAL RUN TIME: 0 days 0 hours 0 minutes 8 seconds 742 msec
