                         Program Version 3.0.3 - RELEASE   -
|  1> ! RI PBE def2-SVP def2-SVP/J NBO PAL2
|  2> % maxcore 2000
|  3> % output
|  4>     # printlevel mini
|  5>     print[ P_Basis ] 0
|  6>     print[ P_SCFInfo ] 1
|  7>     print[ P_SCFIterInfo ] 1
|  8>     print[ P_OrbEn ] 0
|  9>     print[ P_Cartesian ] 0
| 10> end
| 11> *xyz 0 1
| 12>  C        2.8987590000     0.4218620000    -1.2809730000
| 13>  N        2.5768790000     0.0103780000     0.0697700000
| 14>  C        3.0322070000    -1.3106280000     0.4832150000
| 15>  C        2.5600770000    -1.5396120000     1.9191900000
| 16>  C        2.5640320000    -2.4645570000    -0.4162190000
| 17>  C        4.5075980000    -1.2980380000     0.4795460000
| 18>  N        5.6568870000    -1.3200430000     0.4708410000
| 19>  H        2.5570840000     1.4481960000    -1.4240910000
| 20>  H        2.4571500000    -0.1979400000    -2.0742500000
| 21>  H        3.9834980000     0.4181200000    -1.4118760000
| 22>  H        1.5815200000     0.0740740000     0.2418830000
| 23>  H        1.4672650000    -1.5706110000     1.9366970000
| 24>  H        2.8998040000    -0.7279800000     2.5623050000
| 25>  H        2.9350750000    -2.4867890000     2.3075820000
| 26>  H        1.4714310000    -2.4933350000    -0.4189450000
| 27>  H        2.9353530000    -3.4217960000    -0.0461730000
| 28>  H        2.9142410000    -2.3413400000    -1.4413320000
| 29> *
| 30>
| 31>                          ****END OF INPUT****
 Total Charge           Charge          ....    0
 Multiplicity           Mult            ....    1
 Number of Electrons    NEL             ....   54
 Basis Dimension        Dim             ....  148

MULLIKEN ATOMIC CHARGES
-----------------------
   0 C :    0.069352
   1 N :   -0.203701
   2 C :   -0.283813
   3 C :    0.046472
   4 C :    0.075715
   5 C :   -0.148635
   6 N :    0.067892
   7 H :    0.026566
   8 H :    0.001771
   9 H :    0.043856
  10 H :    0.102799
  11 H :    0.026858
  12 H :    0.048932
  13 H :    0.036217
  14 H :    0.021415
  15 H :    0.029463
  16 H :    0.038841
Sum of atomic charges:   -0.0000000

LOEWDIN ATOMIC CHARGES
----------------------
   0 C :   -0.005384
   1 N :   -0.078528
   2 C :   -0.043908
   3 C :   -0.039468
   4 C :   -0.051258
   5 C :   -0.030330
   6 N :   -0.067752
   7 H :    0.028458
   8 H :    0.000888
   9 H :    0.031392
  10 H :    0.056238
  11 H :    0.028913
  12 H :    0.037903
  13 H :    0.036357
  14 H :    0.028738
  15 H :    0.035182
  16 H :    0.032559

  Mayer bond orders larger than 0.1
B(  0-C ,  1-N ) :   1.0517 B(  0-C ,  7-H ) :   0.9678 B(  0-C ,  8-H ) :   0.9437
B(  0-C ,  9-H ) :   0.9616 B(  1-N ,  2-C ) :   1.1080 B(  1-N , 10-H ) :   0.9415
B(  2-C ,  3-C ) :   1.0590 B(  2-C ,  4-C ) :   1.0580 B(  2-C ,  5-C ) :   0.9958
B(  3-C , 11-H ) :   0.9540 B(  3-C , 12-H ) :   0.9509 B(  3-C , 13-H ) :   0.9546
B(  4-C , 14-H ) :   0.9530 B(  4-C , 15-H ) :   0.9475 B(  4-C , 16-H ) :   0.9455
B(  5-C ,  6-N ) :   3.0974

FINAL SINGLE POINT ENERGY      -305.399310371238

DIPOLE MOMENT
-------------
                                X             Y             Z
Electronic contribution:      6.02470       0.49145       1.69475
Nuclear contribution   :     -7.66691      -0.64633      -1.88839
                        -----------------------------------------
Total Dipole Moment    :     -1.64221      -0.15488      -0.19365
                        -----------------------------------------
Magnitude (a.u.)       :      1.66082
Magnitude (Debye)      :      4.22148

                             ****ORCA TERMINATED NORMALLY****
TOTAL RUN TIME: 0 days 0 hours 0 minutes 7 seconds 655 msec
