                         Program Version 3.0.3 - RELEASE   -
|  1> ! RI PBE def2-SVP def2-SVP/J NBO PAL2
|  2> % maxcore 2000
|  3> % output
|  4>     # printlevel mini
|  5>     print[ P_Basis ] 0
|  6>     print[ P_SCFInfo ] 1
|  7>     print[ P_SCFIterInfo ] 1
|  8>     print[ P_OrbEn ] 0
|  9>     print[ P_Cartesian ] 0
| 10> end
| 11> *xyz 0 1
| 12>  C        2.7470320000     1.1474700000     0.0116140000
| 13>  N        2.5813680000    -0.2604480000    -0.2704850000
| 14>  C        3.0991520000    -1.1606110000     0.7465560000
| 15>  C        2.4630370000    -2.5294400000     0.5548490000
| 16>  C        4.6400520000    -1.2164400000     0.7627010000
| 17>  C        5.1986670000    -1.9548950000     1.9725780000
| 18>  N        5.1146950000    -1.7254090000    -0.5208650000
| 19>  H        2.3431680000     1.7321820000    -0.8177970000
| 20>  H        3.7859300000     1.4795000000     0.1739960000
| 21>  H        2.1741320000     1.4114150000     0.9056480000
| 22>  H        3.0392760000    -0.4948760000    -1.1454590000
| 23>  H        2.7794200000    -0.7644550000     1.7187150000
| 24>  H        2.7051790000    -2.9321670000    -0.4327470000
| 25>  H        1.3778560000    -2.4376670000     0.6094960000
| 26>  H        2.7879360000    -3.2479170000     1.3107750000
| 27>  H        4.9833430000    -0.1776730000     0.8225450000
| 28>  H        4.9532740000    -3.0202000000     1.9386850000
| 29>  H        4.8012500000    -1.5501260000     2.9082430000
| 30>  H        6.2881260000    -1.8695460000     2.0081220000
| 31>  H        5.0250560000    -2.7344020000    -0.5575800000
| 32>  H        6.0970410000    -1.5170940000    -0.6462000000
| 33> *
| 34>
| 35>                          ****END OF INPUT****
 Total Charge           Charge          ....    0
 Multiplicity           Mult            ....    1
 Number of Electrons    NEL             ....   58
 Basis Dimension        Dim             ....  168

MULLIKEN ATOMIC CHARGES
-----------------------
   0 C :    0.074592
   1 N :   -0.234269
   2 C :    0.003230
   3 C :    0.018645
   4 C :   -0.045197
   5 C :    0.019982
   6 N :   -0.184432
   7 H :    0.019140
   8 H :   -0.011474
   9 H :    0.010939
  10 H :    0.092356
  11 H :   -0.013346
  12 H :    0.008408
  13 H :    0.027022
  14 H :    0.007869
  15 H :   -0.003453
  16 H :    0.015382
  17 H :    0.009534
  18 H :    0.010594
  19 H :    0.085338
  20 H :    0.089140
Sum of atomic charges:   -0.0000000

LOEWDIN ATOMIC CHARGES
----------------------
   0 C :   -0.007473
   1 N :   -0.094339
   2 C :    0.000623
   3 C :   -0.070757
   4 C :   -0.018089
   5 C :   -0.079916
   6 N :   -0.089304
   7 H :    0.022660
   8 H :   -0.008269
   9 H :    0.018770
  10 H :    0.045605
  11 H :    0.017506
  12 H :    0.022387
  13 H :    0.031302
  14 H :    0.021156
  15 H :    0.019608
  16 H :    0.020573
  17 H :    0.026196
  18 H :    0.021717
  19 H :    0.047403
  20 H :    0.052641

  Mayer bond orders larger than 0.1
B(  0-C ,  1-N ) :   1.0709 B(  0-C ,  7-H ) :   0.9711 B(  0-C ,  8-H ) :   0.9347
B(  0-C ,  9-H ) :   0.9669 B(  1-N ,  2-C ) :   1.0622 B(  1-N , 10-H ) :   0.9334
B(  2-C ,  3-C ) :   1.0721 B(  2-C ,  4-C ) :   1.0026 B(  2-C , 11-H ) :   0.9091
B(  3-C , 12-H ) :   0.9509 B(  3-C , 13-H ) :   0.9545 B(  3-C , 14-H ) :   0.9532
B(  4-C ,  5-C ) :   1.0711 B(  4-C ,  6-N ) :   1.0780 B(  4-C , 15-H ) :   0.9020
B(  5-C , 16-H ) :   0.9524 B(  5-C , 17-H ) :   0.9454 B(  5-C , 18-H ) :   0.9539
B(  6-N , 19-H ) :   0.9682 B(  6-N , 20-H ) :   0.9675

FINAL SINGLE POINT ENERGY      -307.807088733723

DIPOLE MOMENT
-------------
                                X             Y             Z
Electronic contribution:     -0.39747       0.45354      -2.09103
Nuclear contribution   :      1.09632      -0.63873       2.27811
                        -----------------------------------------
Total Dipole Moment    :      0.69885      -0.18518       0.18708
                        -----------------------------------------
Magnitude (a.u.)       :      0.74678
Magnitude (Debye)      :      1.89816

                             ****ORCA TERMINATED NORMALLY****
TOTAL RUN TIME: 0 days 0 hours 0 minutes 8 seconds 669 msec
