                         Program Version 3.0.3 - RELEASE   -
|  1> ! RI PBE def2-SVP def2-SVP/J NBO PAL2
|  2> % maxcore 2000
|  3> % output
|  4>     # printlevel mini
|  5>     print[ P_Basis ] 0
|  6>     print[ P_SCFInfo ] 1
|  7>     print[ P_SCFIterInfo ] 1
|  8>     print[ P_OrbEn ] 0
|  9>     print[ P_Cartesian ] 0
| 10> end
| 11> *xyz 0 1
| 12>  C        1.0847160000     0.1365820000     0.0505930000
| 13>  N        2.5191510000    -0.0297860000    -0.0726110000
| 14>  C        2.9744900000    -1.4081520000    -0.0529950000
| 15>  C        2.4583470000    -2.1789440000    -1.2543580000
| 16>  C        4.5073280000    -1.3702470000    -0.0434320000
| 17>  C        5.1063930000    -2.6876290000     0.0789510000
| 18>  N        5.5673260000    -3.7361400000     0.1790660000
| 19>  H        0.8599540000     1.1947700000     0.1926570000
| 20>  H        0.6427030000    -0.4249700000     0.8898090000
| 21>  H        0.5834660000    -0.1797390000    -0.8657710000
| 22>  H        2.9736350000     0.4778840000     0.6766190000
| 23>  H        2.6448090000    -1.9343430000     0.8612690000
| 24>  H        2.7281070000    -1.6611180000    -2.1786730000
| 25>  H        1.3731830000    -2.2836210000    -1.2235660000
| 26>  H        2.8844450000    -3.1837830000    -1.2747550000
| 27>  H        4.8647260000    -0.7585380000     0.7916620000
| 28>  H        4.8622400000    -0.8981260000    -0.9644640000
| 29> *
| 30>
| 31>                          ****END OF INPUT****
 Total Charge           Charge          ....    0
 Multiplicity           Mult            ....    1
 Number of Electrons    NEL             ....   54
 Basis Dimension        Dim             ....  148

MULLIKEN ATOMIC CHARGES
-----------------------
   0 C :    0.060722
   1 N :   -0.230594
   2 C :   -0.071217
   3 C :    0.014407
   4 C :    0.091584
   5 C :   -0.276391
   6 N :    0.055002
   7 H :    0.024385
   8 H :    0.000338
   9 H :    0.033578
  10 H :    0.101182
  11 H :    0.006548
  12 H :    0.022573
  13 H :    0.034331
  14 H :    0.039419
  15 H :    0.043034
  16 H :    0.051098
Sum of atomic charges:   -0.0000000

LOEWDIN ATOMIC CHARGES
----------------------
   0 C :   -0.003917
   1 N :   -0.099557
   2 C :    0.014405
   3 C :   -0.063507
   4 C :   -0.057016
   5 C :   -0.044113
   6 N :   -0.068707
   7 H :    0.026822
   8 H :    0.002149
   9 H :    0.022901
  10 H :    0.054188
  11 H :    0.007207
  12 H :    0.030069
  13 H :    0.030462
  14 H :    0.037355
  15 H :    0.053435
  16 H :    0.057825

  Mayer bond orders larger than 0.1
B(  0-C ,  1-N ) :   1.0567 B(  0-C ,  7-H ) :   0.9707 B(  0-C ,  8-H ) :   0.9448
B(  0-C ,  9-H ) :   0.9675 B(  1-N ,  2-C ) :   1.0566 B(  1-N , 10-H ) :   0.9331
B(  2-C ,  3-C ) :   1.0719 B(  2-C ,  4-C ) :   1.0509 B(  2-C , 11-H ) :   0.9090
B(  3-C , 12-H ) :   0.9513 B(  3-C , 13-H ) :   0.9556 B(  3-C , 14-H ) :   0.9508
B(  4-C ,  5-C ) :   1.1123 B(  4-C , 15-H ) :   0.8856 B(  4-C , 16-H ) :   0.8841
B(  5-C ,  6-N ) :   3.0451

FINAL SINGLE POINT ENERGY      -305.402783651111

DIPOLE MOMENT
-------------
                                X             Y             Z
Electronic contribution:      7.94822      -4.26707       1.51521
Nuclear contribution   :     -8.78473       5.53394      -1.34364
                        -----------------------------------------
Total Dipole Moment    :     -0.83651       1.26687       0.17156
                        -----------------------------------------
Magnitude (a.u.)       :      1.52779
Magnitude (Debye)      :      3.88334

                             ****ORCA TERMINATED NORMALLY****
TOTAL RUN TIME: 0 days 0 hours 0 minutes 7 seconds 753 msec
