                         Program Version 3.0.3 - RELEASE   -
|  1> ! RI PBE def2-SVP def2-SVP/J NBO PAL2
|  2> % maxcore 2000
|  3> % output
|  4>     # printlevel mini
|  5>     print[ P_Basis ] 0
|  6>     print[ P_SCFInfo ] 1
|  7>     print[ P_SCFIterInfo ] 1
|  8>     print[ P_OrbEn ] 0
|  9>     print[ P_Cartesian ] 0
| 10> end
| 11> *xyz 0 1
| 12>  C        2.6650760000     1.3074290000     0.3569470000
| 13>  N        2.3026260000    -0.0715740000     0.0920510000
| 14>  C        2.8647990000    -1.0201550000     1.0289410000
| 15>  C        2.4211990000    -2.3813380000     0.7389710000
| 16>  C        2.0620010000    -3.4971830000     0.4940320000
| 17>  C        4.3476080000    -0.9784360000     1.0911310000
| 18>  N        5.4924860000    -0.8751060000     1.1050040000
| 19>  H        2.1995870000     1.9421860000    -0.3974320000
| 20>  H        3.7475990000     1.4970270000     0.3556600000
| 21>  H        2.2674680000     1.6050640000     1.3308450000
| 22>  H        2.5491030000    -0.3423470000    -0.8517240000
| 23>  H        2.5095740000    -0.7468520000     2.0318620000
| 24>  H        1.7400430000    -4.4888660000     0.2778710000
| 25> *
| 26>
| 27>                          ****END OF INPUT****
 Total Charge           Charge          ....    0
 Multiplicity           Mult            ....    1
 Number of Electrons    NEL             ....   50
 Basis Dimension        Dim             ....  128

MULLIKEN ATOMIC CHARGES
-----------------------
   0 C :    0.066954
   1 N :   -0.239922
   2 C :    0.167315
   3 C :    0.397498
   4 C :   -0.475791
   5 C :   -0.232554
   6 N :    0.034642
   7 H :    0.037710
   8 H :    0.028078
   9 H :    0.023176
  10 H :    0.120387
  11 H :    0.058896
  12 H :    0.013611
Sum of atomic charges:    0.0000000

LOEWDIN ATOMIC CHARGES
----------------------
   0 C :   -0.002390
   1 N :   -0.067261
   2 C :   -0.012793
   3 C :   -0.016963
   4 C :   -0.039125
   5 C :   -0.054273
   6 N :   -0.054467
   7 H :    0.032217
   8 H :    0.011643
   9 H :    0.026761
  10 H :    0.066274
  11 H :    0.068136
  12 H :    0.042242

  Mayer bond orders larger than 0.1
B(  0-C ,  1-N ) :   1.0528 B(  0-C ,  7-H ) :   0.9708 B(  0-C ,  8-H ) :   0.9447
B(  0-C ,  9-H ) :   0.9635 B(  1-N ,  2-C ) :   1.0877 B(  1-N , 10-H ) :   0.9354
B(  2-C ,  3-C ) :   0.9893 B(  2-C ,  5-C ) :   0.9204 B(  2-C , 11-H ) :   0.8537
B(  3-C ,  4-C ) :   2.3492 B(  3-C , 12-H ) :  -0.1112 B(  4-C , 12-H ) :   1.1008
B(  5-C ,  6-N ) :   3.0645

FINAL SINGLE POINT ENERGY      -302.923764911932

DIPOLE MOMENT
-------------
                                X             Y             Z
Electronic contribution:      2.62279      -4.91957       1.02597
Nuclear contribution   :     -3.65832       5.04956      -1.25727
                        -----------------------------------------
Total Dipole Moment    :     -1.03553       0.12999      -0.23130
                        -----------------------------------------
Magnitude (a.u.)       :      1.06898
Magnitude (Debye)      :      2.71713

                             ****ORCA TERMINATED NORMALLY****
TOTAL RUN TIME: 0 days 0 hours 0 minutes 5 seconds 759 msec
