                         Program Version 3.0.3 - RELEASE   -
|  1> ! RI PBE def2-SVP def2-SVP/J NBO PAL2
|  2> % maxcore 2000
|  3> % output
|  4>     # printlevel mini
|  5>     print[ P_Basis ] 0
|  6>     print[ P_SCFInfo ] 1
|  7>     print[ P_SCFIterInfo ] 1
|  8>     print[ P_OrbEn ] 0
|  9>     print[ P_Cartesian ] 0
| 10> end
| 11> *xyz 0 1
| 12>  C        0.8106300000    -0.0158120000    -1.6312740000
| 13>  N        2.2557430000    -0.0442750000    -1.6122840000
| 14>  C        2.8420150000     1.1488960000    -1.0330530000
| 15>  C        4.3307120000     1.0600890000    -1.0157020000
| 16>  C        5.1464610000     1.9543260000    -1.5610770000
| 17>  C        6.6361470000     1.8743710000    -1.5296880000
| 18>  N        7.1754460000     1.9589720000    -2.8809280000
| 19>  H        0.4294210000    -0.9096490000    -2.1289130000
| 20>  H        0.3840470000     0.8681520000    -2.1349080000
| 21>  H        0.4319140000    -0.0230030000    -0.6050840000
| 22>  H        2.6147540000    -0.1667070000    -2.5510880000
| 23>  H        2.4703150000     1.2248230000    -0.0021970000
| 24>  H        2.5315760000     2.0773970000    -1.5443190000
| 25>  H        4.7454910000     0.1843500000    -0.5185670000
| 26>  H        4.7332720000     2.8158760000    -2.0836100000
| 27>  H        6.9368770000     0.9723330000    -0.9752060000
| 28>  H        7.0262770000     2.7333060000    -0.9703550000
| 29>  H        6.9066630000     1.1414010000    -3.4146900000
| 30>  H        8.1869400000     1.9878650000    -2.8623380000
| 31> *
| 32>
| 33>                          ****END OF INPUT****
 Total Charge           Charge          ....    0
 Multiplicity           Mult            ....    1
 Number of Electrons    NEL             ....   56
 Basis Dimension        Dim             ....  158

MULLIKEN ATOMIC CHARGES
-----------------------
   0 C :    0.071008
   1 N :   -0.285494
   2 C :    0.185128
   3 C :   -0.086772
   4 C :   -0.083650
   5 C :    0.137394
   6 N :   -0.227560
   7 H :    0.020865
   8 H :   -0.007846
   9 H :    0.015967
  10 H :    0.097835
  11 H :    0.009321
  12 H :   -0.019540
  13 H :   -0.005733
  14 H :   -0.004771
  15 H :   -0.008344
  16 H :    0.016843
  17 H :    0.086301
  18 H :    0.089048
Sum of atomic charges:    0.0000000

LOEWDIN ATOMIC CHARGES
----------------------
   0 C :   -0.006979
   1 N :   -0.106798
   2 C :    0.012206
   3 C :   -0.048765
   4 C :   -0.045726
   5 C :    0.005026
   6 N :   -0.112227
   7 H :    0.022510
   8 H :   -0.002723
   9 H :    0.020650
  10 H :    0.053259
  11 H :    0.027975
  12 H :    0.001076
  13 H :    0.022386
  14 H :    0.023067
  15 H :    0.003510
  16 H :    0.030300
  17 H :    0.049683
  18 H :    0.051572

  Mayer bond orders larger than 0.1
B(  0-C ,  1-N ) :   1.0660 B(  0-C ,  7-H ) :   0.9733 B(  0-C ,  8-H ) :   0.9443
B(  0-C ,  9-H ) :   0.9683 B(  1-N ,  2-C ) :   1.0152 B(  1-N , 10-H ) :   0.9495
B(  2-C ,  3-C ) :   1.0534 B(  2-C , 11-H ) :   0.9090 B(  2-C , 12-H ) :   0.9133
B(  3-C ,  4-C ) :   1.8762 B(  3-C , 13-H ) :   0.9551 B(  4-C ,  5-C ) :   1.0655
B(  4-C , 14-H ) :   0.9542 B(  5-C ,  6-N ) :   1.0591 B(  5-C , 15-H ) :   0.9268
B(  5-C , 16-H ) :   0.9135 B(  6-N , 17-H ) :   0.9715 B(  6-N , 18-H ) :   0.9673

FINAL SINGLE POINT ENERGY      -306.581437370892

DIPOLE MOMENT
-------------
                                X             Y             Z
Electronic contribution:      2.62194       0.30769      -0.01652
Nuclear contribution   :     -2.42812      -0.49954      -0.11789
                        -----------------------------------------
Total Dipole Moment    :      0.19382      -0.19185      -0.13441
                        -----------------------------------------
Magnitude (a.u.)       :      0.30404
Magnitude (Debye)      :      0.77280

                             ****ORCA TERMINATED NORMALLY****
TOTAL RUN TIME: 0 days 0 hours 0 minutes 7 seconds 836 msec
