                         Program Version 3.0.3 - RELEASE   -
|  1> ! RI PBE def2-SVP def2-SVP/J NBO PAL2
|  2> % maxcore 2000
|  3> % output
|  4>     # printlevel mini
|  5>     print[ P_Basis ] 0
|  6>     print[ P_SCFInfo ] 1
|  7>     print[ P_SCFIterInfo ] 1
|  8>     print[ P_OrbEn ] 0
|  9>     print[ P_Cartesian ] 0
| 10> end
| 11> *xyz 0 1
| 12>  C        1.3900670000    -0.0510530000     0.5181940000
| 13>  N        2.8070470000    -0.1161290000     0.2291740000
| 14>  C        3.1604520000     0.4961780000    -1.0251090000
| 15>  C        4.6287130000     0.5804160000    -1.2544600000
| 16>  C        5.5519310000     0.2944670000    -0.3360900000
| 17>  C        6.9442240000     0.3876890000    -0.6017370000
| 18>  N        8.0784920000     0.4540310000    -0.7962350000
| 19>  H        1.1819620000    -0.5824890000     1.4480110000
| 20>  H        0.7512380000    -0.4757630000    -0.2728610000
| 21>  H        1.0942330000     0.9916400000     0.6605890000
| 22>  H        3.1169520000    -1.0804510000     0.2338040000
| 23>  H        2.7575160000     1.5188000000    -1.0365940000
| 24>  H        2.7015270000     0.0018000000    -1.9023190000
| 25>  H        4.9425820000     0.9002250000    -2.2439800000
| 26>  H        5.2598530000    -0.0060600000     0.6645940000
| 27> *
| 28>
| 29>                          ****END OF INPUT****
 Total Charge           Charge          ....    0
 Multiplicity           Mult            ....    1
 Number of Electrons    NEL             ....   52
 Basis Dimension        Dim             ....  138

MULLIKEN ATOMIC CHARGES
-----------------------
   0 C :    0.072190
   1 N :   -0.273660
   2 C :    0.160274
   3 C :   -0.077868
   4 C :   -0.102524
   5 C :   -0.092588
   6 N :    0.036151
   7 H :    0.027763
   8 H :    0.000762
   9 H :    0.026825
  10 H :    0.113171
  11 H :    0.034980
  12 H :    0.008720
  13 H :    0.025581
  14 H :    0.040224
Sum of atomic charges:   -0.0000000

LOEWDIN ATOMIC CHARGES
----------------------
   0 C :   -0.001886
   1 N :   -0.096854
   2 C :    0.010815
   3 C :    0.014487
   4 C :   -0.079452
   5 C :   -0.043457
   6 N :   -0.063700
   7 H :    0.027055
   8 H :    0.002147
   9 H :    0.024565
  10 H :    0.059985
  11 H :    0.044028
  12 H :    0.016906
  13 H :    0.039105
  14 H :    0.046257

  Mayer bond orders larger than 0.1
B(  0-C ,  1-N ) :   1.0560 B(  0-C ,  7-H ) :   0.9726 B(  0-C ,  8-H ) :   0.9466
B(  0-C ,  9-H ) :   0.9703 B(  1-N ,  2-C ) :   1.0822 B(  1-N , 10-H ) :   0.9382
B(  2-C ,  3-C ) :   1.0489 B(  2-C , 11-H ) :   0.9012 B(  2-C , 12-H ) :   0.8984
B(  3-C ,  4-C ) :   1.8516 B(  3-C ,  6-N ) :   0.1102 B(  3-C , 13-H ) :   0.9545
B(  4-C ,  5-C ) :   1.1024 B(  4-C , 14-H ) :   0.9273 B(  5-C ,  6-N ) :   2.9682

FINAL SINGLE POINT ENERGY      -304.185675889823

DIPOLE MOMENT
-------------
                                X             Y             Z
Electronic contribution:     11.45766       0.60146      -1.10109
Nuclear contribution   :    -13.47813      -0.88251       1.04839
                        -----------------------------------------
Total Dipole Moment    :     -2.02047      -0.28105      -0.05269
                        -----------------------------------------
Magnitude (a.u.)       :      2.04060
Magnitude (Debye)      :      5.18680

                             ****ORCA TERMINATED NORMALLY****
TOTAL RUN TIME: 0 days 0 hours 0 minutes 6 seconds 518 msec
