                         Program Version 3.0.3 - RELEASE   -
|  1> ! RI PBE def2-SVP def2-SVP/J NBO PAL2
|  2> % maxcore 2000
|  3> % output
|  4>     # printlevel mini
|  5>     print[ P_Basis ] 0
|  6>     print[ P_SCFInfo ] 1
|  7>     print[ P_SCFIterInfo ] 1
|  8>     print[ P_OrbEn ] 0
|  9>     print[ P_Cartesian ] 0
| 10> end
| 11> *xyz 0 1
| 12>  C        1.1241270000     2.4017200000     0.5180360000
| 13>  N        2.5625720000     2.2555690000     0.5299060000
| 14>  C        3.0461870000     1.3256130000    -0.4760440000
| 15>  C        4.5441600000     1.2235120000    -0.4518410000
| 16>  C        5.1577220000     0.1205080000    -0.0375920000
| 17>  C        5.2782840000     2.4497320000    -0.9121940000
| 18>  N        6.7050570000     2.3965740000    -0.6491900000
| 19>  H        0.8118450000     3.0555240000     1.3347130000
| 20>  H        0.5755750000     1.4489780000     0.6089240000
| 21>  H        0.8119210000     2.8716830000    -0.4189980000
| 22>  H        2.8715360000     1.9379900000     1.4406780000
| 23>  H        2.7199840000     1.7057880000    -1.4536050000
| 24>  H        2.6093400000     0.3183730000    -0.3697420000
| 25>  H        4.5886550000    -0.7466390000     0.2809000000
| 26>  H        6.2387740000     0.0507880000    -0.0295980000
| 27>  H        4.7689560000     3.3204220000    -0.4730120000
| 28>  H        5.1370250000     2.5354090000    -1.9977410000
| 29>  H        6.8759880000     2.4396720000     0.3486090000
| 30>  H        7.1671820000     3.1952940000    -1.0636070000
| 31> *
| 32>
| 33>                          ****END OF INPUT****
 Total Charge           Charge          ....    0
 Multiplicity           Mult            ....    1
 Number of Electrons    NEL             ....   56
 Basis Dimension        Dim             ....  158

MULLIKEN ATOMIC CHARGES
-----------------------
   0 C :    0.073285
   1 N :   -0.274256
   2 C :    0.183799
   3 C :   -0.241183
   4 C :   -0.017511
   5 C :    0.168027
   6 N :   -0.203587
   7 H :    0.022848
   8 H :   -0.008465
   9 H :    0.016918
  10 H :    0.097592
  11 H :   -0.002867
  12 H :   -0.019827
  13 H :    0.001151
  14 H :    0.014493
  15 H :   -0.000862
  16 H :    0.011467
  17 H :    0.089899
  18 H :    0.089080
Sum of atomic charges:   -0.0000000

LOEWDIN ATOMIC CHARGES
----------------------
   0 C :   -0.007005
   1 N :   -0.102769
   2 C :    0.020925
   3 C :   -0.048757
   4 C :   -0.073416
   5 C :    0.007864
   6 N :   -0.103354
   7 H :    0.022827
   8 H :   -0.002189
   9 H :    0.021027
  10 H :    0.054113
  11 H :    0.022798
  12 H :    0.002382
  13 H :    0.017856
  14 H :    0.020075
  15 H :    0.008350
  16 H :    0.032864
  17 H :    0.052077
  18 H :    0.054331

  Mayer bond orders larger than 0.1
B(  0-C ,  1-N ) :   1.0668 B(  0-C ,  7-H ) :   0.9732 B(  0-C ,  8-H ) :   0.9424
B(  0-C ,  9-H ) :   0.9682 B(  1-N ,  2-C ) :   1.0199 B(  1-N , 10-H ) :   0.9420
B(  2-C ,  3-C ) :   1.0502 B(  2-C , 11-H ) :   0.9127 B(  2-C , 12-H ) :   0.9037
B(  3-C ,  4-C ) :   1.9987 B(  3-C ,  5-C ) :   1.0161 B(  4-C , 13-H ) :   0.9257
B(  4-C , 14-H ) :   0.9178 B(  5-C ,  6-N ) :   1.1159 B(  5-C , 15-H ) :   0.9089
B(  5-C , 16-H ) :   0.9001 B(  6-N , 17-H ) :   0.9656 B(  6-N , 18-H ) :   0.9613

FINAL SINGLE POINT ENERGY      -306.582498704767

DIPOLE MOMENT
-------------
                                X             Y             Z
Electronic contribution:      2.94599      -0.43030      -0.25435
Nuclear contribution   :     -3.17118       0.78606       0.54622
                        -----------------------------------------
Total Dipole Moment    :     -0.22519       0.35576       0.29186
                        -----------------------------------------
Magnitude (a.u.)       :      0.51231
Magnitude (Debye)      :      1.30219

                             ****ORCA TERMINATED NORMALLY****
TOTAL RUN TIME: 0 days 0 hours 0 minutes 7 seconds 846 msec
