                         Program Version 3.0.3 - RELEASE   -
|  1> ! RI PBE def2-SVP def2-SVP/J NBO PAL2
|  2> % maxcore 2000
|  3> % output
|  4>     # printlevel mini
|  5>     print[ P_Basis ] 0
|  6>     print[ P_SCFInfo ] 1
|  7>     print[ P_SCFIterInfo ] 1
|  8>     print[ P_OrbEn ] 0
|  9>     print[ P_Cartesian ] 0
| 10> end
| 11> *xyz 0 1
| 12>  C        1.4933290000    -0.3795480000     0.1128570000
| 13>  N        2.9298970000    -0.4292060000     0.2880850000
| 14>  C        3.6402240000     0.3998780000    -0.6491080000
| 15>  C        5.1131160000     0.4853280000    -0.3427530000
| 16>  C        5.6846230000     0.0228200000     0.7676900000
| 17>  C        5.9079290000     1.1222660000    -1.3468100000
| 18>  N        6.5150130000     1.6427080000    -2.1762600000
| 19>  H        1.0172770000    -1.0705010000     0.8103640000
| 20>  H        1.1566050000    -0.6300980000    -0.9057210000
| 21>  H        1.1319020000     0.6255670000     0.3450270000
| 22>  H        3.2548590000    -1.3853490000     0.2081620000
| 23>  H        3.2223020000     1.4133310000    -0.6021120000
| 24>  H        3.5229910000     0.0825630000    -1.7004150000
| 25>  H        5.0763640000    -0.4418800000     1.5332650000
| 26>  H        6.7505780000     0.1156230000     0.9301400000
| 27> *
| 28>
| 29>                          ****END OF INPUT****
 Total Charge           Charge          ....    0
 Multiplicity           Mult            ....    1
 Number of Electrons    NEL             ....   52
 Basis Dimension        Dim             ....  138

MULLIKEN ATOMIC CHARGES
-----------------------
   0 C :    0.071799
   1 N :   -0.272727
   2 C :    0.197790
   3 C :   -0.253871
   4 C :    0.043768
   5 C :   -0.123237
   6 N :    0.051903
   7 H :    0.028552
   8 H :    0.002203
   9 H :    0.026684
  10 H :    0.108576
  11 H :    0.037261
  12 H :    0.015127
  13 H :    0.030721
  14 H :    0.035451
Sum of atomic charges:   -0.0000000

LOEWDIN ATOMIC CHARGES
----------------------
   0 C :   -0.000984
   1 N :   -0.095255
   2 C :    0.026414
   3 C :   -0.076333
   4 C :   -0.004107
   5 C :   -0.034402
   6 N :   -0.055698
   7 H :    0.026806
   8 H :    0.002732
   9 H :    0.024796
  10 H :    0.059373
  11 H :    0.042745
  12 H :    0.017798
  13 H :    0.029558
  14 H :    0.036556

  Mayer bond orders larger than 0.1
B(  0-C ,  1-N ) :   1.0561 B(  0-C ,  7-H ) :   0.9721 B(  0-C ,  8-H ) :   0.9478
B(  0-C ,  9-H ) :   0.9703 B(  1-N ,  2-C ) :   1.0665 B(  1-N , 10-H ) :   0.9389
B(  2-C ,  3-C ) :   0.9921 B(  2-C , 11-H ) :   0.9077 B(  2-C , 12-H ) :   0.9076
B(  3-C ,  4-C ) :   1.9513 B(  3-C ,  5-C ) :   1.0948 B(  4-C ,  6-N ) :   0.1085
B(  4-C , 13-H ) :   0.9135 B(  4-C , 14-H ) :   0.9317 B(  5-C ,  6-N ) :   2.9922

FINAL SINGLE POINT ENERGY      -304.182436978534

DIPOLE MOMENT
-------------
                                X             Y             Z
Electronic contribution:      8.14574       3.12021      -3.20066
Nuclear contribution   :     -9.20306      -3.98177       3.95853
                        -----------------------------------------
Total Dipole Moment    :     -1.05732      -0.86156       0.75787
                        -----------------------------------------
Magnitude (a.u.)       :      1.56031
Magnitude (Debye)      :      3.96600

                             ****ORCA TERMINATED NORMALLY****
TOTAL RUN TIME: 0 days 0 hours 0 minutes 7 seconds 273 msec
