                         Program Version 3.0.3 - RELEASE   -
|  1> ! RI PBE def2-SVP def2-SVP/J NBO PAL2
|  2> % maxcore 2000
|  3> % output
|  4>     # printlevel mini
|  5>     print[ P_Basis ] 0
|  6>     print[ P_SCFInfo ] 1
|  7>     print[ P_SCFIterInfo ] 1
|  8>     print[ P_OrbEn ] 0
|  9>     print[ P_Cartesian ] 0
| 10> end
| 11> *xyz 0 1
| 12>  C        0.9885830000    -0.3801290000    -2.2706250000
| 13>  N        2.4323840000    -0.3700820000    -2.2022480000
| 14>  C        2.9481340000    -0.9300460000    -0.9699120000
| 15>  C        4.4706770000    -0.9417390000    -0.9255260000
| 16>  C        4.9707600000    -1.2755700000     0.4709050000
| 17>  C        5.0439470000    -1.8967060000    -1.9669070000
| 18>  N        6.4873730000    -1.7288400000    -2.0964230000
| 19>  H        0.6561130000     0.1167570000    -3.1843350000
| 20>  H        0.4953300000     0.1081610000    -1.4128690000
| 21>  H        0.6311880000    -1.4131680000    -2.3086100000
| 22>  H        2.7713500000     0.5792450000    -2.3023910000
| 23>  H        2.5795850000    -1.9615270000    -0.8892550000
| 24>  H        2.5653430000    -0.4008280000    -0.0780340000
| 25>  H        4.8169530000     0.0721700000    -1.1804560000
| 26>  H        4.5626950000    -2.2355770000     0.8046420000
| 27>  H        4.6702210000    -0.5162610000     1.1974610000
| 28>  H        6.0585690000    -1.3538240000     0.4758850000
| 29>  H        4.4946980000    -1.7588700000    -2.9070440000
| 30>  H        4.8556890000    -2.9237510000    -1.6319320000
| 31>  H        6.6935340000    -0.8511340000    -2.5592920000
| 32>  H        6.8777800000    -2.4591430000    -2.6781520000
| 33> *
| 34>
| 35>                          ****END OF INPUT****
 Total Charge           Charge          ....    0
 Multiplicity           Mult            ....    1
 Number of Electrons    NEL             ....   58
 Basis Dimension        Dim             ....  168

MULLIKEN ATOMIC CHARGES
-----------------------
   0 C :    0.074553
   1 N :   -0.262658
   2 C :    0.138513
   3 C :   -0.148756
   4 C :    0.023904
   5 C :    0.088047
   6 N :   -0.196256
   7 H :    0.018381
   8 H :   -0.009153
   9 H :    0.017479
  10 H :    0.096373
  11 H :   -0.008093
  12 H :   -0.021491
  13 H :   -0.013086
  14 H :    0.003032
  15 H :    0.014248
  16 H :    0.027348
  17 H :   -0.003452
  18 H :   -0.009630
  19 H :    0.083050
  20 H :    0.087648
Sum of atomic charges:    0.0000000

LOEWDIN ATOMIC CHARGES
----------------------
   0 C :   -0.005964
   1 N :   -0.101255
   2 C :    0.016277
   3 C :   -0.057343
   4 C :   -0.060304
   5 C :    0.008607
   6 N :   -0.109414
   7 H :    0.021570
   8 H :   -0.003238
   9 H :    0.020906
  10 H :    0.052050
  11 H :    0.017858
  12 H :   -0.002863
  13 H :    0.016596
  14 H :    0.022165
  15 H :    0.021651
  16 H :    0.027197
  17 H :   -0.001377
  18 H :    0.016390
  19 H :    0.048378
  20 H :    0.052113

  Mayer bond orders larger than 0.1
B(  0-C ,  1-N ) :   1.0666 B(  0-C ,  7-H ) :   0.9726 B(  0-C ,  8-H ) :   0.9421
B(  0-C ,  9-H ) :   0.9686 B(  1-N ,  2-C ) :   1.0407 B(  1-N , 10-H ) :   0.9451
B(  2-C ,  3-C ) :   1.0462 B(  2-C , 11-H ) :   0.9180 B(  2-C , 12-H ) :   0.9179
B(  3-C ,  4-C ) :   1.0791 B(  3-C ,  5-C ) :   1.0483 B(  3-C , 13-H ) :   0.9093
B(  4-C , 14-H ) :   0.9581 B(  4-C , 15-H ) :   0.9579 B(  4-C , 16-H ) :   0.9487
B(  5-C ,  6-N ) :   1.0969 B(  5-C , 17-H ) :   0.9288 B(  5-C , 18-H ) :   0.9274
B(  6-N , 19-H ) :   0.9705 B(  6-N , 20-H ) :   0.9654

FINAL SINGLE POINT ENERGY      -307.802664170231

DIPOLE MOMENT
-------------
                                X             Y             Z
Electronic contribution:      1.68035       0.26011      -1.74839
Nuclear contribution   :     -1.85871       0.02649       1.38948
                        -----------------------------------------
Total Dipole Moment    :     -0.17836       0.28661      -0.35891
                        -----------------------------------------
Magnitude (a.u.)       :      0.49272
Magnitude (Debye)      :      1.25239

                             ****ORCA TERMINATED NORMALLY****
TOTAL RUN TIME: 0 days 0 hours 0 minutes 8 seconds 403 msec
