                         Program Version 3.0.3 - RELEASE   -
|  1> ! RI PBE def2-SVP def2-SVP/J NBO PAL2
|  2> % maxcore 2000
|  3> % output
|  4>     # printlevel mini
|  5>     print[ P_Basis ] 0
|  6>     print[ P_SCFInfo ] 1
|  7>     print[ P_SCFIterInfo ] 1
|  8>     print[ P_OrbEn ] 0
|  9>     print[ P_Cartesian ] 0
| 10> end
| 11> *xyz 0 1
| 12>  C        1.6072820000     0.2391370000     0.7891870000
| 13>  N        2.9735420000    -0.2297080000     0.8640750000
| 14>  C        3.9431150000     0.8243050000     0.6653460000
| 15>  C        5.3877280000     0.3859250000     0.9243900000
| 16>  C        5.7520310000    -0.8128370000     0.0457690000
| 17>  C        5.5748500000     0.0306270000     2.3920940000
| 18>  N        6.2152750000     1.5571970000     0.6354620000
| 19>  H        0.9208460000    -0.6047180000     0.8846540000
| 20>  H        1.3664530000     0.7746630000    -0.1447460000
| 21>  H        1.4089610000     0.9225740000     1.6192970000
| 22>  H        3.1147740000    -0.9591760000     0.1772070000
| 23>  H        3.7140690000     1.6385640000     1.3595440000
| 24>  H        3.8894330000     1.2612580000    -0.3509370000
| 25>  H        5.5826880000    -0.5863420000    -1.0122350000
| 26>  H        5.1736930000    -1.7039580000     0.3059610000
| 27>  H        6.8090270000    -1.0634880000     0.1698670000
| 28>  H        4.8795860000    -0.7569820000     2.6844380000
| 29>  H        5.3947900000     0.9080890000     3.0167320000
| 30>  H        6.5951930000    -0.3185930000     2.5792780000
| 31>  H        6.1915650000     1.7685450000    -0.3564130000
| 32>  H        7.1824760000     1.3643180000     0.8702260000
| 33> *
| 34>
| 35>                          ****END OF INPUT****
 Total Charge           Charge          ....    0
 Multiplicity           Mult            ....    1
 Number of Electrons    NEL             ....   58
 Basis Dimension        Dim             ....  168

MULLIKEN ATOMIC CHARGES
-----------------------
   0 C :    0.071271
   1 N :   -0.258043
   2 C :    0.151168
   3 C :   -0.248048
   4 C :    0.044347
   5 C :    0.066675
   6 N :   -0.147654
   7 H :    0.019589
   8 H :   -0.008180
   9 H :    0.021722
  10 H :    0.099764
  11 H :    0.004951
  12 H :   -0.035201
  13 H :    0.005895
  14 H :    0.013564
  15 H :    0.005300
  16 H :    0.019942
  17 H :    0.015819
  18 H :    0.000487
  19 H :    0.077837
  20 H :    0.078792
Sum of atomic charges:   -0.0000000

LOEWDIN ATOMIC CHARGES
----------------------
   0 C :   -0.005006
   1 N :   -0.099218
   2 C :    0.016171
   3 C :   -0.031282
   4 C :   -0.072716
   5 C :   -0.054084
   6 N :   -0.085973
   7 H :    0.021872
   8 H :   -0.002598
   9 H :    0.021997
  10 H :    0.050847
  11 H :    0.022242
  12 H :   -0.008737
  13 H :    0.018927
  14 H :    0.022423
  15 H :    0.022244
  16 H :    0.025972
  17 H :    0.026495
  18 H :    0.018361
  19 H :    0.044606
  20 H :    0.047457

  Mayer bond orders larger than 0.1
B(  0-C ,  1-N ) :   1.0688 B(  0-C ,  7-H ) :   0.9711 B(  0-C ,  8-H ) :   0.9432
B(  0-C ,  9-H ) :   0.9693 B(  1-N ,  2-C ) :   1.0593 B(  1-N , 10-H ) :   0.9350
B(  2-C ,  3-C ) :   1.0058 B(  2-C , 11-H ) :   0.9260 B(  2-C , 12-H ) :   0.9085
B(  3-C ,  4-C ) :   1.0451 B(  3-C ,  5-C ) :   1.0477 B(  3-C ,  6-N ) :   1.0498
B(  4-C , 13-H ) :   0.9524 B(  4-C , 14-H ) :   0.9417 B(  4-C , 15-H ) :   0.9516
B(  5-C , 16-H ) :   0.9513 B(  5-C , 17-H ) :   0.9538 B(  5-C , 18-H ) :   0.9539
B(  6-N , 19-H ) :   0.9593 B(  6-N , 20-H ) :   0.9606

FINAL SINGLE POINT ENERGY      -307.807080860421

DIPOLE MOMENT
-------------
                                X             Y             Z
Electronic contribution:      0.71870       0.99307       0.03848
Nuclear contribution   :     -0.60385      -1.27742      -0.59420
                        -----------------------------------------
Total Dipole Moment    :      0.11486      -0.28436      -0.55572
                        -----------------------------------------
Magnitude (a.u.)       :      0.63472
Magnitude (Debye)      :      1.61334

                             ****ORCA TERMINATED NORMALLY****
TOTAL RUN TIME: 0 days 0 hours 0 minutes 8 seconds 691 msec
