                         Program Version 3.0.3 - RELEASE   -
|  1> ! RI PBE def2-SVP def2-SVP/J NBO PAL2
|  2> % maxcore 2000
|  3> % output
|  4>     # printlevel mini
|  5>     print[ P_Basis ] 0
|  6>     print[ P_SCFInfo ] 1
|  7>     print[ P_SCFIterInfo ] 1
|  8>     print[ P_OrbEn ] 0
|  9>     print[ P_Cartesian ] 0
| 10> end
| 11> *xyz 0 1
| 12>  C        1.0310900000     0.1467500000     0.2564840000
| 13>  N        2.4629200000    -0.0520570000     0.1602250000
| 14>  C        3.1606640000     0.2896170000     1.3768010000
| 15>  C        4.6276240000    -0.1515070000     1.3128960000
| 16>  C        5.4190830000     0.5419300000     0.2047840000
| 17>  C        5.2580880000     0.0797800000     2.6084970000
| 18>  N        5.7491220000     0.2763740000     3.6296990000
| 19>  H        0.5660420000    -0.0742180000    -0.7057830000
| 20>  H        0.7390710000     1.1663140000     0.5552560000
| 21>  H        0.6147980000    -0.5464800000     0.9919930000
| 22>  H        2.8248700000     0.4941390000    -0.6107130000
| 23>  H        2.6746140000    -0.2357440000     2.2040430000
| 24>  H        3.1205360000     1.3654900000     1.6219180000
| 25>  H        4.6382510000    -1.2323530000     1.1345790000
| 26>  H        5.3754910000     1.6276400000     0.3176740000
| 27>  H        5.0154570000     0.2690220000    -0.7714390000
| 28>  H        6.4668800000     0.2406130000     0.2271080000
| 29> *
| 30>
| 31>                          ****END OF INPUT****
 Total Charge           Charge          ....    0
 Multiplicity           Mult            ....    1
 Number of Electrons    NEL             ....   54
 Basis Dimension        Dim             ....  148

MULLIKEN ATOMIC CHARGES
-----------------------
   0 C :    0.070658
   1 N :   -0.264372
   2 C :    0.096248
   3 C :   -0.089170
   4 C :   -0.002211
   5 C :   -0.224604
   6 N :    0.055473
   7 H :    0.025038
   8 H :   -0.000703
   9 H :    0.027682
  10 H :    0.105590
  11 H :    0.026955
  12 H :    0.004504
  13 H :    0.049584
  14 H :    0.042621
  15 H :    0.030305
  16 H :    0.046402
Sum of atomic charges:    0.0000000

LOEWDIN ATOMIC CHARGES
----------------------
   0 C :   -0.001578
   1 N :   -0.103374
   2 C :    0.026934
   3 C :   -0.067589
   4 C :   -0.046505
   5 C :   -0.038010
   6 N :   -0.070484
   7 H :    0.025191
   8 H :    0.001862
   9 H :    0.024269
  10 H :    0.053387
  11 H :    0.030663
  12 H :    0.005199
  13 H :    0.056791
  14 H :    0.034382
  15 H :    0.029555
  16 H :    0.039309

  Mayer bond orders larger than 0.1
B(  0-C ,  1-N ) :   1.0570 B(  0-C ,  7-H ) :   0.9721 B(  0-C ,  8-H ) :   0.9471
B(  0-C ,  9-H ) :   0.9704 B(  1-N ,  2-C ) :   1.0770 B(  1-N , 10-H ) :   0.9345
B(  2-C ,  3-C ) :   1.0543 B(  2-C , 11-H ) :   0.9297 B(  2-C , 12-H ) :   0.9128
B(  3-C ,  4-C ) :   1.0795 B(  3-C ,  5-C ) :   1.0536 B(  3-C , 13-H ) :   0.8641
B(  4-C , 14-H ) :   0.9611 B(  4-C , 15-H ) :   0.9533 B(  4-C , 16-H ) :   0.9586
B(  5-C ,  6-N ) :   3.0747

FINAL SINGLE POINT ENERGY      -305.400459402208

DIPOLE MOMENT
-------------
                                X             Y             Z
Electronic contribution:      5.63493      -1.11588       6.11297
Nuclear contribution   :     -6.40776       1.24628      -7.50074
                        -----------------------------------------
Total Dipole Moment    :     -0.77284       0.13040      -1.38778
                        -----------------------------------------
Magnitude (a.u.)       :      1.59380
Magnitude (Debye)      :      4.05112

                             ****ORCA TERMINATED NORMALLY****
TOTAL RUN TIME: 0 days 0 hours 0 minutes 7 seconds 686 msec
