                         Program Version 3.0.3 - RELEASE   -
|  1> ! RI PBE def2-SVP def2-SVP/J NBO PAL2
|  2> % maxcore 2000
|  3> % output
|  4>     # printlevel mini
|  5>     print[ P_Basis ] 0
|  6>     print[ P_SCFInfo ] 1
|  7>     print[ P_SCFIterInfo ] 1
|  8>     print[ P_OrbEn ] 0
|  9>     print[ P_Cartesian ] 0
| 10> end
| 11> *xyz 0 1
| 12>  C        1.0251020000     0.1520700000     0.1475940000
| 13>  N        2.4381430000     0.4355350000     0.0409090000
| 14>  C        2.9446080000     0.2209130000    -1.3022920000
| 15>  C        4.3934130000     0.3463370000    -1.3584640000
| 16>  C        5.5931080000     0.4156080000    -1.3830830000
| 17>  C        7.0429270000     0.5492870000    -1.4131490000
| 18>  N        7.5630610000     0.9286020000    -0.1038240000
| 19>  H        0.7040190000     0.2745280000     1.1833410000
| 20>  H        0.7420430000    -0.8608980000    -0.1857860000
| 21>  H        0.4612690000     0.8670860000    -0.4587760000
| 22>  H        2.9666140000    -0.1339350000     0.6893890000
| 23>  H        2.4864230000     0.9656760000    -1.9648360000
| 24>  H        2.6610170000    -0.7668370000    -1.7111270000
| 25>  H        7.3019170000     1.2538400000    -2.2194760000
| 26>  H        7.4846540000    -0.4142580000    -1.6897610000
| 27>  H        7.1236590000     1.7875690000     0.2037240000
| 28>  H        8.5584330000     1.1036870000    -0.1679540000
| 29> *
| 30>
| 31>                          ****END OF INPUT****
 Total Charge           Charge          ....    0
 Multiplicity           Mult            ....    1
 Number of Electrons    NEL             ....   54
 Basis Dimension        Dim             ....  148

MULLIKEN ATOMIC CHARGES
-----------------------
   0 C :    0.078011
   1 N :   -0.280800
   2 C :    0.188849
   3 C :   -0.142830
   4 C :   -0.183035
   5 C :    0.170715
   6 N :   -0.222882
   7 H :    0.023999
   8 H :   -0.010352
   9 H :    0.016918
  10 H :    0.110583
  11 H :    0.022984
  12 H :    0.003108
  13 H :    0.017139
  14 H :    0.021031
  15 H :    0.096413
  16 H :    0.090150
Sum of atomic charges:    0.0000000

LOEWDIN ATOMIC CHARGES
----------------------
   0 C :   -0.006206
   1 N :   -0.099969
   2 C :    0.007188
   3 C :   -0.061591
   4 C :   -0.060291
   5 C :    0.002047
   6 N :   -0.108426
   7 H :    0.024723
   8 H :   -0.003235
   9 H :    0.021715
  10 H :    0.058816
  11 H :    0.038862
  12 H :    0.016736
  13 H :    0.021346
  14 H :    0.040179
  15 H :    0.054680
  16 H :    0.053425

  Mayer bond orders larger than 0.1
B(  0-C ,  1-N ) :   1.0693 B(  0-C ,  7-H ) :   0.9733 B(  0-C ,  8-H ) :   0.9418
B(  0-C ,  9-H ) :   0.9661 B(  1-N ,  2-C ) :   1.0339 B(  1-N , 10-H ) :   0.9458
B(  2-C ,  3-C ) :   1.0458 B(  2-C , 11-H ) :   0.8877 B(  2-C , 12-H ) :   0.8923
B(  3-C ,  4-C ) :   2.6454 B(  4-C ,  5-C ) :   1.0744 B(  5-C ,  6-N ) :   1.0776
B(  5-C , 13-H ) :   0.9049 B(  5-C , 14-H ) :   0.8871 B(  6-N , 15-H ) :   0.9670
B(  6-N , 16-H ) :   0.9629

FINAL SINGLE POINT ENERGY      -305.337384069661

DIPOLE MOMENT
-------------
                                X             Y             Z
Electronic contribution:      3.56204       0.40271      -1.07183
Nuclear contribution   :     -3.40751      -0.32576       0.86615
                        -----------------------------------------
Total Dipole Moment    :      0.15453       0.07694      -0.20568
                        -----------------------------------------
Magnitude (a.u.)       :      0.26852
Magnitude (Debye)      :      0.68253

                             ****ORCA TERMINATED NORMALLY****
TOTAL RUN TIME: 0 days 0 hours 0 minutes 7 seconds 263 msec
