                         Program Version 3.0.3 - RELEASE   -
|  1> ! RI PBE def2-SVP def2-SVP/J NBO PAL2
|  2> % maxcore 2000
|  3> % output
|  4>     # printlevel mini
|  5>     print[ P_Basis ] 0
|  6>     print[ P_SCFInfo ] 1
|  7>     print[ P_SCFIterInfo ] 1
|  8>     print[ P_OrbEn ] 0
|  9>     print[ P_Cartesian ] 0
| 10> end
| 11> *xyz 0 1
| 12>  C        0.9499560000     0.0514920000    -0.0197780000
| 13>  N        2.3965470000     0.1001770000    -0.0352000000
| 14>  C        2.9301940000     0.1047940000    -1.3810790000
| 15>  C        4.3809880000     0.0946010000    -1.3892450000
| 16>  C        5.5854650000     0.0621950000    -1.3965360000
| 17>  C        6.9521710000     0.0309960000    -1.4061640000
| 18>  N        8.1069600000     0.0016870000    -1.4147910000
| 19>  H        0.6017280000    -0.0022610000     1.0123330000
| 20>  H        0.5229810000    -0.7988670000    -0.5758810000
| 21>  H        0.5488070000     0.9703400000    -0.4560500000
| 22>  H        2.7840330000    -0.6787020000     0.4817540000
| 23>  H        2.5875010000     1.0146750000    -1.8894840000
| 24>  H        2.5796990000    -0.7415290000    -2.0011180000
| 25> *
| 26>
| 27>                          ****END OF INPUT****
 Total Charge           Charge          ....    0
 Multiplicity           Mult            ....    1
 Number of Electrons    NEL             ....   50
 Basis Dimension        Dim             ....  128

MULLIKEN ATOMIC CHARGES
-----------------------
   0 C :    0.072886
   1 N :   -0.278754
   2 C :    0.164320
   3 C :   -0.168682
   4 C :    0.035578
   5 C :   -0.176387
   6 N :    0.102497
   7 H :    0.033671
   8 H :    0.001906
   9 H :    0.023758
  10 H :    0.114307
  11 H :    0.042815
  12 H :    0.032087
Sum of atomic charges:   -0.0000000

LOEWDIN ATOMIC CHARGES
----------------------
   0 C :   -0.002514
   1 N :   -0.094815
   2 C :    0.007126
   3 C :    0.042320
   4 C :   -0.080682
   5 C :   -0.047351
   6 N :   -0.026330
   7 H :    0.029617
   8 H :    0.002140
   9 H :    0.024950
  10 H :    0.061431
  11 H :    0.053503
  12 H :    0.030605

  Mayer bond orders larger than 0.1
B(  0-C ,  1-N ) :   1.0573 B(  0-C ,  7-H ) :   0.9727 B(  0-C ,  8-H ) :   0.9472
B(  0-C ,  9-H ) :   0.9672 B(  1-N ,  2-C ) :   1.0357 B(  1-N , 10-H ) :   0.9428
B(  2-C ,  3-C ) :   1.0639 B(  2-C , 11-H ) :   0.8787 B(  2-C , 12-H ) :   0.8873
B(  3-C ,  4-C ) :   2.3282 B(  3-C ,  6-N ) :   0.1864 B(  4-C ,  5-C ) :   1.0107
B(  4-C ,  6-N ) :   0.1189 B(  5-C ,  6-N ) :   2.8732

FINAL SINGLE POINT ENERGY      -302.942584120207

DIPOLE MOMENT
-------------
                                X             Y             Z
Electronic contribution:     13.27534       0.24060      -2.21096
Nuclear contribution   :    -15.28073      -0.54006       2.22528
                        -----------------------------------------
Total Dipole Moment    :     -2.00540      -0.29945       0.01432
                        -----------------------------------------
Magnitude (a.u.)       :      2.02768
Magnitude (Debye)      :      5.15396

                             ****ORCA TERMINATED NORMALLY****
TOTAL RUN TIME: 0 days 0 hours 0 minutes 6 seconds 279 msec
