                         Program Version 3.0.3 - RELEASE   -
|  1> ! RI PBE def2-SVP def2-SVP/J NBO PAL2
|  2> % maxcore 2000
|  3> % output
|  4>     # printlevel mini
|  5>     print[ P_Basis ] 0
|  6>     print[ P_SCFInfo ] 1
|  7>     print[ P_SCFIterInfo ] 1
|  8>     print[ P_OrbEn ] 0
|  9>     print[ P_Cartesian ] 0
| 10> end
| 11> *xyz 0 1
| 12>  C        1.1025260000     0.1748670000    -0.1317470000
| 13>  N        2.5418480000     0.0640110000    -0.0531530000
| 14>  C        2.9783300000    -1.0276050000     0.7965440000
| 15>  C        4.4914480000    -1.0870500000     0.8742620000
| 16>  C        5.0261150000    -2.2214480000     1.7388300000
| 17>  C        6.5347560000    -2.3684840000     1.5747800000
| 18>  N        4.6029300000    -2.0241260000     3.1221530000
| 19>  H        0.8286360000     1.0495330000    -0.7255060000
| 20>  H        0.6030040000     0.2515630000     0.8490080000
| 21>  H        0.6957580000    -0.7060830000    -0.6369630000
| 22>  H        2.9294550000     0.9324440000     0.2960820000
| 23>  H        2.6048270000    -1.9611570000     0.3570570000
| 24>  H        2.5589000000    -0.9748360000     1.8136370000
| 25>  H        4.8767690000    -0.1367950000     1.2726550000
| 26>  H        4.8934470000    -1.1782210000    -0.1392420000
| 27>  H        4.5526050000    -3.1522860000     1.4007030000
| 28>  H        7.0446790000    -1.4467560000     1.8743440000
| 29>  H        6.8098870000    -2.5815640000     0.5379330000
| 30>  H        6.9176620000    -3.1807750000     2.1986370000
| 31>  H        5.0494870000    -1.1946100000     3.5002560000
| 32>  H        4.9061320000    -2.8012110000     3.6972400000
| 33> *
| 34>
| 35>                          ****END OF INPUT****
 Total Charge           Charge          ....    0
 Multiplicity           Mult            ....    1
 Number of Electrons    NEL             ....   58
 Basis Dimension        Dim             ....  168

MULLIKEN ATOMIC CHARGES
-----------------------
   0 C :    0.073965
   1 N :   -0.271117
   2 C :    0.132940
   3 C :   -0.001314
   4 C :   -0.071726
   5 C :    0.047350
   6 N :   -0.179063
   7 H :    0.017020
   8 H :   -0.010858
   9 H :    0.015004
  10 H :    0.094163
  11 H :   -0.012396
  12 H :   -0.011017
  13 H :   -0.013538
  14 H :    0.007932
  15 H :   -0.001320
  16 H :    0.003134
  17 H :    0.010725
  18 H :    0.005157
  19 H :    0.079548
  20 H :    0.085412
Sum of atomic charges:    0.0000000

LOEWDIN ATOMIC CHARGES
----------------------
   0 C :   -0.007546
   1 N :   -0.109196
   2 C :    0.012351
   3 C :   -0.046144
   4 C :   -0.004527
   5 C :   -0.076196
   6 N :   -0.094303
   7 H :    0.020361
   8 H :   -0.004052
   9 H :    0.019745
  10 H :    0.050241
  11 H :    0.016805
  12 H :   -0.001276
  13 H :    0.015769
  14 H :    0.026165
  15 H :    0.020724
  16 H :    0.019968
  17 H :    0.025413
  18 H :    0.019325
  19 H :    0.046377
  20 H :    0.049996

  Mayer bond orders larger than 0.1
B(  0-C ,  1-N ) :   1.0682 B(  0-C ,  7-H ) :   0.9731 B(  0-C ,  8-H ) :   0.9420
B(  0-C ,  9-H ) :   0.9689 B(  1-N ,  2-C ) :   1.0407 B(  1-N , 10-H ) :   0.9446
B(  2-C ,  3-C ) :   1.0870 B(  2-C , 11-H ) :   0.9220 B(  2-C , 12-H ) :   0.9141
B(  3-C ,  4-C ) :   1.0584 B(  3-C , 13-H ) :   0.9210 B(  3-C , 14-H ) :   0.9282
B(  4-C ,  5-C ) :   1.0754 B(  4-C ,  6-N ) :   1.0683 B(  4-C , 15-H ) :   0.9080
B(  5-C , 16-H ) :   0.9527 B(  5-C , 17-H ) :   0.9464 B(  5-C , 18-H ) :   0.9573
B(  6-N , 19-H ) :   0.9686 B(  6-N , 20-H ) :   0.9679

FINAL SINGLE POINT ENERGY      -307.804603775931

DIPOLE MOMENT
-------------
                                X             Y             Z
Electronic contribution:     -0.31562       0.23924       0.24406
Nuclear contribution   :      0.74141      -0.19871       0.16340
                        -----------------------------------------
Total Dipole Moment    :      0.42579       0.04053       0.40746
                        -----------------------------------------
Magnitude (a.u.)       :      0.59073
Magnitude (Debye)      :      1.50151

                             ****ORCA TERMINATED NORMALLY****
TOTAL RUN TIME: 0 days 0 hours 0 minutes 8 seconds 349 msec
