                         Program Version 3.0.3 - RELEASE   -
|  1> ! RI PBE def2-SVP def2-SVP/J NBO PAL2
|  2> % maxcore 2000
|  3> % output
|  4>     # printlevel mini
|  5>     print[ P_Basis ] 0
|  6>     print[ P_SCFInfo ] 1
|  7>     print[ P_SCFIterInfo ] 1
|  8>     print[ P_OrbEn ] 0
|  9>     print[ P_Cartesian ] 0
| 10> end
| 11> *xyz 0 1
| 12>  C        0.8135210000    -0.0666340000    -0.4756710000
| 13>  N        2.2517080000    -0.2025600000    -0.3829410000
| 14>  C        2.9712690000     0.9014550000    -0.9828590000
| 15>  C        4.4631060000     0.7927480000    -0.7220360000
| 16>  C        4.8123180000     0.8563790000     0.7668290000
| 17>  C        4.5193360000     2.1574430000     1.3475710000
| 18>  N        4.2814720000     3.1940410000     1.7851630000
| 19>  H        0.3313820000    -0.9516970000    -0.0565720000
| 20>  H        0.4434570000     0.0742110000    -1.5043540000
| 21>  H        0.4913370000     0.7959920000     0.1130960000
| 22>  H        2.5399490000    -1.0697010000    -0.8208250000
| 23>  H        2.5934000000     1.8293090000    -0.5386540000
| 24>  H        2.7985800000     0.9864310000    -2.0695310000
| 25>  H        4.9874330000     1.5860060000    -1.2607040000
| 26>  H        4.8378980000    -0.1580920000    -1.1158140000
| 27>  H        5.8724490000     0.6433560000     0.9276060000
| 28>  H        4.2319860000     0.1041140000     1.3078970000
| 29> *
| 30>
| 31>                          ****END OF INPUT****
 Total Charge           Charge          ....    0
 Multiplicity           Mult            ....    1
 Number of Electrons    NEL             ....   54
 Basis Dimension        Dim             ....  148

MULLIKEN ATOMIC CHARGES
-----------------------
   0 C :    0.066183
   1 N :   -0.280339
   2 C :    0.085303
   3 C :   -0.026329
   4 C :    0.092361
   5 C :   -0.301955
   6 N :    0.042125
   7 H :    0.024444
   8 H :   -0.003437
   9 H :    0.029392
  10 H :    0.099099
  11 H :    0.024263
  12 H :   -0.000962
  13 H :    0.033653
  14 H :    0.016795
  15 H :    0.049146
  16 H :    0.050259
Sum of atomic charges:   -0.0000000

LOEWDIN ATOMIC CHARGES
----------------------
   0 C :   -0.004636
   1 N :   -0.104300
   2 C :    0.010646
   3 C :   -0.033431
   4 C :   -0.058028
   5 C :   -0.044515
   6 N :   -0.074744
   7 H :    0.023984
   8 H :    0.000023
   9 H :    0.025861
  10 H :    0.053523
  11 H :    0.027065
  12 H :    0.004286
  13 H :    0.035599
  14 H :    0.027969
  15 H :    0.055970
  16 H :    0.054730

  Mayer bond orders larger than 0.1
B(  0-C ,  1-N ) :   1.0628 B(  0-C ,  7-H ) :   0.9729 B(  0-C ,  8-H ) :   0.9468
B(  0-C ,  9-H ) :   0.9696 B(  1-N ,  2-C ) :   1.0289 B(  1-N , 10-H ) :   0.9453
B(  2-C ,  3-C ) :   1.0925 B(  2-C , 11-H ) :   0.9288 B(  2-C , 12-H ) :   0.9183
B(  3-C ,  4-C ) :   1.0842 B(  3-C , 13-H ) :   0.9300 B(  3-C , 14-H ) :   0.9306
B(  4-C ,  5-C ) :   1.1236 B(  4-C , 15-H ) :   0.8915 B(  4-C , 16-H ) :   0.8763
B(  5-C ,  6-N ) :   3.0435

FINAL SINGLE POINT ENERGY      -305.403269041395

DIPOLE MOMENT
-------------
                                X             Y             Z
Electronic contribution:      4.45694       4.69015       4.99994
Nuclear contribution   :     -4.41090      -6.09638      -6.01943
                        -----------------------------------------
Total Dipole Moment    :      0.04605      -1.40623      -1.01949
                        -----------------------------------------
Magnitude (a.u.)       :      1.73751
Magnitude (Debye)      :      4.41641

                             ****ORCA TERMINATED NORMALLY****
TOTAL RUN TIME: 0 days 0 hours 0 minutes 7 seconds 645 msec
