                         Program Version 3.0.3 - RELEASE   -
|  1> ! RI PBE def2-SVP def2-SVP/J NBO PAL2
|  2> % maxcore 2000
|  3> % output
|  4>     # printlevel mini
|  5>     print[ P_Basis ] 0
|  6>     print[ P_SCFInfo ] 1
|  7>     print[ P_SCFIterInfo ] 1
|  8>     print[ P_OrbEn ] 0
|  9>     print[ P_Cartesian ] 0
| 10> end
| 11> *xyz 0 1
| 12>  C        0.5249060000    -1.3937200000    -1.0251990000
| 13>  N        1.8777490000    -0.8905440000    -0.9534040000
| 14>  C        2.8789660000    -1.9165950000    -1.1501330000
| 15>  C        4.2801890000    -1.3553610000    -1.0090710000
| 16>  C        5.3591370000    -2.3926310000    -1.2504220000
| 17>  N        6.6803440000    -1.8315180000    -1.0674320000
| 18>  C        7.7419040000    -2.7731280000    -1.3412680000
| 19>  H       -0.1822130000    -0.5897940000    -0.8111360000
| 20>  H        0.3184850000    -2.2287570000    -0.3340580000
| 21>  H        0.3207350000    -1.7502350000    -2.0390020000
| 22>  H        2.0299170000    -0.4408240000    -0.0588000000
| 23>  H        2.7454810000    -2.3258660000    -2.1590730000
| 24>  H        2.7516770000    -2.7680090000    -0.4548810000
| 25>  H        4.4166110000    -0.9374690000    -0.0051370000
| 26>  H        4.3955600000    -0.5243540000    -1.7142260000
| 27>  H        5.2253970000    -2.8359790000    -2.2554290000
| 28>  H        5.2437660000    -3.2176610000    -0.5367720000
| 29>  H        6.7832260000    -1.0162220000    -1.6594010000
| 30>  H        7.6870910000    -3.2338760000    -2.3424070000
| 31>  H        7.7109300000    -3.5828890000    -0.6064800000
| 32>  H        8.7107320000    -2.2789650000    -1.2447700000
| 33> *
| 34>
| 35>                          ****END OF INPUT****
 Total Charge           Charge          ....    0
 Multiplicity           Mult            ....    1
 Number of Electrons    NEL             ....   58
 Basis Dimension        Dim             ....  168

MULLIKEN ATOMIC CHARGES
-----------------------
   0 C :    0.071795
   1 N :   -0.264126
   2 C :    0.094776
   3 C :   -0.032776
   4 C :    0.093412
   5 N :   -0.264409
   6 C :    0.074832
   7 H :    0.020899
   8 H :   -0.007918
   9 H :    0.014746
  10 H :    0.097861
  11 H :   -0.002993
  12 H :   -0.018177
  13 H :    0.007995
  14 H :    0.011080
  15 H :   -0.023802
  16 H :    0.002761
  17 H :    0.099429
  18 H :   -0.012055
  19 H :    0.018936
  20 H :    0.017734
Sum of atomic charges:   -0.0000000

LOEWDIN ATOMIC CHARGES
----------------------
   0 C :   -0.007120
   1 N :   -0.106387
   2 C :    0.012620
   3 C :   -0.052280
   4 C :    0.012108
   5 N :   -0.105783
   6 C :   -0.006645
   7 H :    0.022362
   8 H :   -0.003265
   9 H :    0.020371
  10 H :    0.052397
  11 H :    0.016768
  12 H :   -0.004224
  13 H :    0.022439
  14 H :    0.022821
  15 H :   -0.005458
  16 H :    0.017755
  17 H :    0.052925
  18 H :   -0.004058
  19 H :    0.021072
  20 H :    0.021581

  Mayer bond orders larger than 0.1
B(  0-C ,  1-N ) :   1.0677 B(  0-C ,  7-H ) :   0.9721 B(  0-C ,  8-H ) :   0.9439
B(  0-C ,  9-H ) :   0.9676 B(  1-N ,  2-C ) :   1.0538 B(  1-N , 10-H ) :   0.9437
B(  2-C ,  3-C ) :   1.0857 B(  2-C , 11-H ) :   0.9244 B(  2-C , 12-H ) :   0.9172
B(  3-C ,  4-C ) :   1.0863 B(  3-C , 13-H ) :   0.9261 B(  3-C , 14-H ) :   0.9288
B(  4-C ,  5-N ) :   1.0570 B(  4-C , 15-H ) :   0.9137 B(  4-C , 16-H ) :   0.9270
B(  5-N ,  6-C ) :   1.0676 B(  5-N , 17-H ) :   0.9451 B(  6-C , 18-H ) :   0.9422
B(  6-C , 19-H ) :   0.9688 B(  6-C , 20-H ) :   0.9730

FINAL SINGLE POINT ENERGY      -307.794085315053

DIPOLE MOMENT
-------------
                                X             Y             Z
Electronic contribution:      0.44879       2.23371       0.53876
Nuclear contribution   :     -0.47149      -2.33869      -0.55948
                        -----------------------------------------
Total Dipole Moment    :     -0.02270      -0.10498      -0.02072
                        -----------------------------------------
Magnitude (a.u.)       :      0.10939
Magnitude (Debye)      :      0.27805

                             ****ORCA TERMINATED NORMALLY****
TOTAL RUN TIME: 0 days 0 hours 0 minutes 8 seconds 383 msec
