                         Program Version 3.0.3 - RELEASE   -
|  1> ! RI PBE def2-SVP def2-SVP/J NBO PAL2
|  2> % maxcore 2000
|  3> % output
|  4>     # printlevel mini
|  5>     print[ P_Basis ] 0
|  6>     print[ P_SCFInfo ] 1
|  7>     print[ P_SCFIterInfo ] 1
|  8>     print[ P_OrbEn ] 0
|  9>     print[ P_Cartesian ] 0
| 10> end
| 11> *xyz 0 1
| 12>  C        0.7828540000    -0.1005000000     0.0926530000
| 13>  N        2.1390770000    -0.1789270000    -0.3881110000
| 14>  C        2.7126290000     1.0253360000    -0.9541190000
| 15>  C        3.1055980000     2.0491070000     0.0691410000
| 16>  C        2.6579100000     3.2962910000     0.0778930000
| 17>  N        2.8856010000    -1.1072140000     0.2117340000
| 18>  C        4.1601190000    -1.1052900000     0.1549920000
| 19>  H        0.6763720000     0.5655780000     0.9594800000
| 20>  H        0.4683800000    -1.1021660000     0.3800000000
| 21>  H        0.1304730000     0.2659610000    -0.7040570000
| 22>  H        1.9738790000     1.4527180000    -1.6372710000
| 23>  H        3.5754740000     0.7370580000    -1.5648910000
| 24>  H        3.7852930000     1.7171480000     0.8499750000
| 25>  H        1.9714900000     3.6570100000    -0.6830200000
| 26>  H        2.9628520000     4.0058940000     0.8384570000
| 27>  H        4.6663620000    -1.9424960000     0.6200230000
| 28>  H        4.7674280000    -0.3422190000    -0.3314680000
| 29> *
| 30>
| 31>                          ****END OF INPUT****
 Total Charge           Charge          ....    0
 Multiplicity           Mult            ....    1
 Number of Electrons    NEL             ....   54
 Basis Dimension        Dim             ....  148

MULLIKEN ATOMIC CHARGES
-----------------------
   0 C :    0.120414
   1 N :   -0.225764
   2 C :    0.140013
   3 C :   -0.085607
   4 C :   -0.036796
   5 N :   -0.068783
   6 C :   -0.080629
   7 H :    0.021978
   8 H :    0.037370
   9 H :    0.017665
  10 H :    0.007504
  11 H :    0.040251
  12 H :    0.019465
  13 H :    0.020375
  14 H :    0.032599
  15 H :    0.032141
  16 H :    0.007804
Sum of atomic charges:   -0.0000000

LOEWDIN ATOMIC CHARGES
----------------------
   0 C :    0.008087
   1 N :   -0.005435
   2 C :    0.008804
   3 C :   -0.042821
   4 C :   -0.056138
   5 N :   -0.026447
   6 C :   -0.102283
   7 H :    0.014029
   8 H :    0.031932
   9 H :    0.021425
  10 H :    0.030627
  11 H :    0.034285
  12 H :    0.028901
  13 H :    0.021850
  14 H :    0.027477
  15 H :    0.016652
  16 H :   -0.010947

  Mayer bond orders larger than 0.1
B(  0-C ,  1-N ) :   1.0044 B(  0-C ,  7-H ) :   0.9567 B(  0-C ,  8-H ) :   0.9620
B(  0-C ,  9-H ) :   0.9614 B(  1-N ,  2-C ) :   0.9974 B(  1-N ,  5-N ) :   1.1214
B(  1-N ,  6-C ) :   0.1484 B(  2-C ,  3-C ) :   1.0480 B(  2-C , 10-H ) :   0.9247
B(  2-C , 11-H ) :   0.9073 B(  3-C ,  4-C ) :   2.0047 B(  3-C , 12-H ) :   0.9542
B(  4-C , 13-H ) :   0.9480 B(  4-C , 14-H ) :   0.9452 B(  5-N ,  6-C ) :   1.8578
B(  6-C , 15-H ) :   0.9540 B(  6-C , 16-H ) :   0.9161

FINAL SINGLE POINT ENERGY      -305.350342940349

DIPOLE MOMENT
-------------
                                X             Y             Z
Electronic contribution:      0.97103      -2.74007      -0.05251
Nuclear contribution   :     -1.10792       3.36773      -0.19281
                        -----------------------------------------
Total Dipole Moment    :     -0.13690       0.62766      -0.24532
                        -----------------------------------------
Magnitude (a.u.)       :      0.68766
Magnitude (Debye)      :      1.74789

                             ****ORCA TERMINATED NORMALLY****
TOTAL RUN TIME: 0 days 0 hours 0 minutes 8 seconds 30 msec
