                         Program Version 3.0.3 - RELEASE   -
|  1> ! RI PBE def2-SVP def2-SVP/J NBO PAL2
|  2> % maxcore 2000
|  3> % output
|  4>     # printlevel mini
|  5>     print[ P_Basis ] 0
|  6>     print[ P_SCFInfo ] 1
|  7>     print[ P_SCFIterInfo ] 1
|  8>     print[ P_OrbEn ] 0
|  9>     print[ P_Cartesian ] 0
| 10> end
| 11> *xyz 0 1
| 12>  C        1.0003210000     0.2690690000     0.2632490000
| 13>  N        2.4259840000     0.2837990000     0.4992960000
| 14>  C        3.2398640000     1.2042460000    -0.2702560000
| 15>  C        2.6263890000     2.5065100000    -0.4590280000
| 16>  C        2.1573370000     3.5964540000    -0.6336750000
| 17>  N        2.9233290000    -0.9290320000     0.7698260000
| 18>  C        4.1494600000    -1.2226060000     0.5793110000
| 19>  H        0.5889900000     1.2654220000     0.4185840000
| 20>  H        0.5577090000    -0.4248640000     0.9751160000
| 21>  H        0.7484850000    -0.0626210000    -0.7540750000
| 22>  H        3.4947410000     0.7720460000    -1.2546290000
| 23>  H        4.1880050000     1.3491890000     0.2601710000
| 24>  H        1.7368640000     4.5625440000    -0.7852810000
| 25>  H        4.4595980000    -2.2159520000     0.8814220000
| 26>  H        4.9035220000    -0.5589930000     0.1580590000
| 27> *
| 28>
| 29>                          ****END OF INPUT****
 Total Charge           Charge          ....    0
 Multiplicity           Mult            ....    1
 Number of Electrons    NEL             ....   52
 Basis Dimension        Dim             ....  138

MULLIKEN ATOMIC CHARGES
-----------------------
   0 C :    0.119247
   1 N :   -0.251588
   2 C :    0.198951
   3 C :    0.321401
   4 C :   -0.487860
   5 N :   -0.071083
   6 C :   -0.061217
   7 H :    0.042242
   8 H :    0.040676
   9 H :    0.013114
  10 H :    0.036308
  11 H :    0.052743
  12 H :    0.005268
  13 H :    0.029676
  14 H :    0.012124
Sum of atomic charges:   -0.0000000

LOEWDIN ATOMIC CHARGES
----------------------
   0 C :    0.010078
   1 N :   -0.010503
   2 C :    0.005249
   3 C :   -0.028545
   4 C :   -0.068524
   5 N :   -0.025237
   6 C :   -0.092853
   7 H :    0.028766
   8 H :    0.033183
   9 H :    0.012846
  10 H :    0.036061
  11 H :    0.051046
  12 H :    0.037826
  13 H :    0.018832
  14 H :   -0.008225

  Mayer bond orders larger than 0.1
B(  0-C ,  1-N ) :   1.0005 B(  0-C ,  7-H ) :   0.9586 B(  0-C ,  8-H ) :   0.9620
B(  0-C ,  9-H ) :   0.9560 B(  1-N ,  2-C ) :   0.9688 B(  1-N ,  5-N ) :   1.1226
B(  1-N ,  6-C ) :   0.1450 B(  2-C ,  3-C ) :   1.0190 B(  2-C , 10-H ) :   0.8904
B(  2-C , 11-H ) :   0.8841 B(  3-C ,  4-C ) :   2.3214 B(  3-C , 12-H ) :  -0.1101
B(  4-C , 12-H ) :   1.1006 B(  5-N ,  6-C ) :   1.8625 B(  6-C , 13-H ) :   0.9504
B(  6-C , 14-H ) :   0.9123

FINAL SINGLE POINT ENERGY      -304.103990479072

DIPOLE MOMENT
-------------
                                X             Y             Z
Electronic contribution:      0.46782       1.69115       0.60786
Nuclear contribution   :     -0.43043      -1.23609      -0.98069
                        -----------------------------------------
Total Dipole Moment    :      0.03739       0.45506      -0.37283
                        -----------------------------------------
Magnitude (a.u.)       :      0.58947
Magnitude (Debye)      :      1.49832

                             ****ORCA TERMINATED NORMALLY****
TOTAL RUN TIME: 0 days 0 hours 0 minutes 6 seconds 944 msec
