                         Program Version 3.0.3 - RELEASE   -
|  1> ! RI PBE def2-SVP def2-SVP/J NBO PAL2
|  2> % maxcore 2000
|  3> % output
|  4>     # printlevel mini
|  5>     print[ P_Basis ] 0
|  6>     print[ P_SCFInfo ] 1
|  7>     print[ P_SCFIterInfo ] 1
|  8>     print[ P_OrbEn ] 0
|  9>     print[ P_Cartesian ] 0
| 10> end
| 11> *xyz 0 1
| 12>  C        2.1360720000    -0.8065730000     0.2764620000
| 13>  N        1.8609450000     0.3620890000    -0.5191720000
| 14>  C        2.8803360000     1.2280980000    -0.8282230000
| 15>  C        2.4719370000     2.4505270000    -1.5524230000
| 16>  C        1.4266700000     2.5361830000    -2.3679680000
| 17>  N        4.0797510000     0.9270510000    -0.5119790000
| 18>  C        5.1616070000     1.7803260000    -0.9356560000
| 19>  H        1.2125320000    -1.3731140000     0.4011800000
| 20>  H        2.5474330000    -0.5567620000     1.2614020000
| 21>  H        2.8720040000    -1.4315320000    -0.2302840000
| 22>  H        0.9609920000     0.7920860000    -0.3921980000
| 23>  H        3.1072590000     3.3177270000    -1.4042820000
| 24>  H        0.7960540000     1.6785670000    -2.5769000000
| 25>  H        1.1835030000     3.4631450000    -2.8743220000
| 26>  H        6.1091760000     1.2883790000    -0.7096180000
| 27>  H        5.1664980000     2.7414920000    -0.4028070000
| 28>  H        5.1521390000     1.9980990000    -2.0110030000
| 29> *
| 30>
| 31>                          ****END OF INPUT****
 Total Charge           Charge          ....    0
 Multiplicity           Mult            ....    1
 Number of Electrons    NEL             ....   54
 Basis Dimension        Dim             ....  148

MULLIKEN ATOMIC CHARGES
-----------------------
   0 C :    0.093631
   1 N :   -0.153514
   2 C :   -0.004203
   3 C :   -0.043645
   4 C :   -0.026410
   5 N :   -0.229054
   6 C :    0.076569
   7 H :    0.015436
   8 H :    0.021011
   9 H :    0.034334
  10 H :    0.110983
  11 H :    0.005637
  12 H :    0.027469
  13 H :    0.030487
  14 H :    0.019582
  15 H :    0.011216
  16 H :    0.010469
Sum of atomic charges:   -0.0000000

LOEWDIN ATOMIC CHARGES
----------------------
   0 C :    0.006794
   1 N :   -0.010710
   2 C :   -0.006202
   3 C :   -0.046602
   4 C :   -0.037391
   5 N :   -0.159533
   6 C :   -0.016423
   7 H :    0.021860
   8 H :    0.017912
   9 H :    0.030526
  10 H :    0.067273
  11 H :    0.033317
  12 H :    0.023179
  13 H :    0.027828
  14 H :    0.020236
  15 H :    0.015873
  16 H :    0.012063

  Mayer bond orders larger than 0.1
B(  0-C ,  1-N ) :   1.0421 B(  0-C ,  7-H ) :   0.9668 B(  0-C ,  8-H ) :   0.9580
B(  0-C ,  9-H ) :   0.9625 B(  1-N ,  2-C ) :   1.2139 B(  1-N , 10-H ) :   0.9228
B(  2-C ,  3-C ) :   1.0208 B(  2-C ,  5-N ) :   1.7939 B(  3-C ,  4-C ) :   1.9505
B(  3-C , 11-H ) :   0.9475 B(  4-C , 12-H ) :   0.9460 B(  4-C , 13-H ) :   0.9361
B(  5-N ,  6-C ) :   1.0545 B(  6-C , 14-H ) :   0.9730 B(  6-C , 15-H ) :   0.9473
B(  6-C , 16-H ) :   0.9492

FINAL SINGLE POINT ENERGY      -305.393657135797

DIPOLE MOMENT
-------------
                                X             Y             Z
Electronic contribution:     -1.12291       0.30098      -0.13050
Nuclear contribution   :      0.38939       0.04781       0.06858
                        -----------------------------------------
Total Dipole Moment    :     -0.73352       0.34879      -0.06192
                        -----------------------------------------
Magnitude (a.u.)       :      0.81458
Magnitude (Debye)      :      2.07051

                             ****ORCA TERMINATED NORMALLY****
TOTAL RUN TIME: 0 days 0 hours 0 minutes 8 seconds 158 msec
