                         Program Version 3.0.3 - RELEASE   -
|  1> ! RI PBE def2-SVP def2-SVP/J NBO PAL2
|  2> % maxcore 2000
|  3> % output
|  4>     # printlevel mini
|  5>     print[ P_Basis ] 0
|  6>     print[ P_SCFInfo ] 1
|  7>     print[ P_SCFIterInfo ] 1
|  8>     print[ P_OrbEn ] 0
|  9>     print[ P_Cartesian ] 0
| 10> end
| 11> *xyz 0 1
| 12>  C        1.7136650000     0.3981730000    -0.4579820000
| 13>  N        3.0590430000     0.3055350000     0.0651520000
| 14>  C        3.5882330000    -1.0394520000     0.0179190000
| 15>  C        5.0458660000    -1.1145180000     0.4527010000
| 16>  C        5.2220980000    -0.6839150000     1.8997280000
| 17>  N        5.4969990000    -2.4860270000     0.2712960000
| 18>  C        6.9301000000    -2.6697450000     0.3528410000
| 19>  H        1.3397080000     1.4168700000    -0.3374430000
| 20>  H        0.9968810000    -0.2911660000     0.0193320000
| 21>  H        1.7208150000     0.1742720000    -1.5285660000
| 22>  H        3.0698630000     0.6411090000     1.0195590000
| 23>  H        3.5182680000    -1.3802870000    -1.0232430000
| 24>  H        3.0053900000    -1.7583910000     0.6219730000
| 25>  H        5.6158710000    -0.4147610000    -0.1851620000
| 26>  H        4.6174410000    -1.3131370000     2.5590140000
| 27>  H        4.9345830000     0.3610080000     2.0357060000
| 28>  H        6.2633880000    -0.7651610000     2.2161360000
| 29>  H        5.1738070000    -2.8166620000    -0.6294460000
| 30>  H        7.2757620000    -2.5483420000     1.3816700000
| 31>  H        7.5055030000    -1.9708620000    -0.2777880000
| 32>  H        7.1812150000    -3.6879410000     0.0496230000
| 33> *
| 34>
| 35>                          ****END OF INPUT****
 Total Charge           Charge          ....    0
 Multiplicity           Mult            ....    1
 Number of Electrons    NEL             ....   58
 Basis Dimension        Dim             ....  168

MULLIKEN ATOMIC CHARGES
-----------------------
   0 C :    0.069127
   1 N :   -0.269012
   2 C :    0.100893
   3 C :   -0.018511
   4 C :    0.016774
   5 N :   -0.245189
   6 C :    0.077212
   7 H :    0.020514
   8 H :   -0.007318
   9 H :    0.020012
  10 H :    0.101169
  11 H :   -0.008141
  12 H :   -0.010146
  13 H :   -0.011085
  14 H :    0.014063
  15 H :    0.013114
  16 H :    0.014521
  17 H :    0.095450
  18 H :    0.019868
  19 H :   -0.007984
  20 H :    0.014669
Sum of atomic charges:   -0.0000000

LOEWDIN ATOMIC CHARGES
----------------------
   0 C :   -0.006087
   1 N :   -0.103319
   2 C :    0.009269
   3 C :   -0.000899
   4 C :   -0.066786
   5 N :   -0.101093
   6 C :   -0.004590
   7 H :    0.022140
   8 H :   -0.001905
   9 H :    0.020568
  10 H :    0.050741
  11 H :    0.015032
  12 H :   -0.001630
  13 H :    0.002155
  14 H :    0.026242
  15 H :    0.024215
  16 H :    0.025370
  17 H :    0.051548
  18 H :    0.017799
  19 H :   -0.001650
  20 H :    0.022880

  Mayer bond orders larger than 0.1
B(  0-C ,  1-N ) :   1.0647 B(  0-C ,  7-H ) :   0.9726 B(  0-C ,  8-H ) :   0.9418
B(  0-C ,  9-H ) :   0.9694 B(  1-N ,  2-C ) :   1.0536 B(  1-N , 10-H ) :   0.9365
B(  2-C ,  3-C ) :   1.0370 B(  2-C , 11-H ) :   0.9255 B(  2-C , 12-H ) :   0.9099
B(  3-C ,  4-C ) :   1.0829 B(  3-C ,  5-N ) :   1.0376 B(  3-C , 13-H ) :   0.8976
B(  4-C , 14-H ) :   0.9511 B(  4-C , 15-H ) :   0.9486 B(  4-C , 16-H ) :   0.9533
B(  5-N ,  6-C ) :   1.0628 B(  5-N , 17-H ) :   0.9374 B(  6-C , 18-H ) :   0.9668
B(  6-C , 19-H ) :   0.9424 B(  6-C , 20-H ) :   0.9705

FINAL SINGLE POINT ENERGY      -307.794769555372

DIPOLE MOMENT
-------------
                                X             Y             Z
Electronic contribution:     -0.23479      -0.21468      -0.73670
Nuclear contribution   :      0.16577       0.20762       0.68279
                        -----------------------------------------
Total Dipole Moment    :     -0.06901      -0.00706      -0.05392
                        -----------------------------------------
Magnitude (a.u.)       :      0.08786
Magnitude (Debye)      :      0.22333

                             ****ORCA TERMINATED NORMALLY****
TOTAL RUN TIME: 0 days 0 hours 0 minutes 8 seconds 395 msec
