                         Program Version 3.0.3 - RELEASE   -
|  1> ! RI PBE def2-SVP def2-SVP/J NBO PAL2
|  2> % maxcore 2000
|  3> % output
|  4>     # printlevel mini
|  5>     print[ P_Basis ] 0
|  6>     print[ P_SCFInfo ] 1
|  7>     print[ P_SCFIterInfo ] 1
|  8>     print[ P_OrbEn ] 0
|  9>     print[ P_Cartesian ] 0
| 10> end
| 11> *xyz 0 1
| 12>  C        1.3608680000     0.6208930000     0.3921820000
| 13>  N        2.6172830000     0.0418020000    -0.0278250000
| 14>  C        3.0431210000    -1.0579180000     0.8094480000
| 15>  C        4.3477150000    -1.6442720000     0.3090300000
| 16>  N        4.7657680000    -2.7521960000     1.1400610000
| 17>  C        6.1682400000    -3.0972970000     1.0803200000
| 18>  C        5.6081520000    -2.4184370000     2.2695620000
| 19>  H        1.1195260000     1.4797970000    -0.2372440000
| 20>  H        1.3476560000     0.9492070000     1.4453510000
| 21>  H        0.5607870000    -0.1142230000     0.2681400000
| 22>  H        3.3345220000     0.7568370000    -0.0394080000
| 23>  H        2.2742950000    -1.8366090000     0.7778020000
| 24>  H        3.1533860000    -0.7724870000     1.8717800000
| 25>  H        5.1199590000    -0.8523740000     0.2712020000
| 26>  H        4.2091760000    -2.0067260000    -0.7134110000
| 27>  H        6.8065000000    -2.5050330000     0.4282490000
| 28>  H        6.3984900000    -4.1568040000     1.1089320000
| 29>  H        5.8718940000    -1.3720040000     2.4100400000
| 30>  H        5.4227420000    -2.9719550000     3.1835090000
| 31> *
| 32>
| 33>                          ****END OF INPUT****
 Total Charge           Charge          ....    0
 Multiplicity           Mult            ....    1
 Number of Electrons    NEL             ....   56
 Basis Dimension        Dim             ....  158

MULLIKEN ATOMIC CHARGES
-----------------------
   0 C :    0.073275
   1 N :   -0.272843
   2 C :    0.099567
   3 C :    0.096397
   4 N :   -0.288473
   5 C :    0.032393
   6 C :    0.026568
   7 H :    0.019433
   8 H :   -0.008820
   9 H :    0.019700
  10 H :    0.098136
  11 H :    0.015663
  12 H :   -0.019985
  13 H :   -0.027896
  14 H :    0.016106
  15 H :    0.022405
  16 H :    0.037482
  17 H :    0.023223
  18 H :    0.037668
Sum of atomic charges:    0.0000000

LOEWDIN ATOMIC CHARGES
----------------------
   0 C :   -0.006189
   1 N :   -0.105426
   2 C :    0.005436
   3 C :    0.009679
   4 N :   -0.106007
   5 C :    0.003879
   6 C :    0.000185
   7 H :    0.021868
   8 H :   -0.002820
   9 H :    0.021993
  10 H :    0.051190
  11 H :    0.024462
  12 H :   -0.003970
  13 H :   -0.005000
  14 H :    0.024784
  15 H :    0.012587
  16 H :    0.021065
  17 H :    0.011301
  18 H :    0.020983

  Mayer bond orders larger than 0.1
B(  0-C ,  1-N ) :   1.0677 B(  0-C ,  7-H ) :   0.9722 B(  0-C ,  8-H ) :   0.9434
B(  0-C ,  9-H ) :   0.9688 B(  1-N ,  2-C ) :   1.0455 B(  1-N , 10-H ) :   0.9445
B(  2-C ,  3-C ) :   1.0804 B(  2-C , 11-H ) :   0.9219 B(  2-C , 12-H ) :   0.9183
B(  3-C ,  4-N ) :   1.0122 B(  3-C , 13-H ) :   0.9068 B(  3-C , 14-H ) :   0.9274
B(  4-N ,  5-C ) :   0.9721 B(  4-N ,  6-C ) :   0.9583 B(  5-C ,  6-C ) :   1.0934
B(  5-C , 15-H ) :   0.9321 B(  5-C , 16-H ) :   0.9491 B(  6-C , 17-H ) :   0.9298
B(  6-C , 18-H ) :   0.9509

FINAL SINGLE POINT ENERGY      -306.563500367009

DIPOLE MOMENT
-------------
                                X             Y             Z
Electronic contribution:      2.07625      -2.99480      -0.35275
Nuclear contribution   :     -1.70862       3.46832       0.57217
                        -----------------------------------------
Total Dipole Moment    :      0.36763       0.47352       0.21942
                        -----------------------------------------
Magnitude (a.u.)       :      0.63837
Magnitude (Debye)      :      1.62260

                             ****ORCA TERMINATED NORMALLY****
TOTAL RUN TIME: 0 days 0 hours 0 minutes 8 seconds 55 msec
