                         Program Version 3.0.3 - RELEASE   -
|  1> ! RI PBE def2-SVP def2-SVP/J NBO PAL2
|  2> % maxcore 2000
|  3> % output
|  4>     # printlevel mini
|  5>     print[ P_Basis ] 0
|  6>     print[ P_SCFInfo ] 1
|  7>     print[ P_SCFIterInfo ] 1
|  8>     print[ P_OrbEn ] 0
|  9>     print[ P_Cartesian ] 0
| 10> end
| 11> *xyz 0 1
| 12>  C        1.3357540000    -1.0302200000    -0.6284250000
| 13>  N        2.6451270000    -1.5114660000    -0.2638430000
| 14>  C        2.9836050000    -1.4789870000     0.9564080000
| 15>  C        2.1555190000    -0.9523230000     2.0910550000
| 16>  N        4.2010750000    -2.0404570000     1.3552910000
| 17>  C        5.3184850000    -2.0309700000     0.4542270000
| 18>  C        5.3231810000    -1.1769860000     1.6707430000
| 19>  H        1.1845880000    -1.1729890000    -1.6990750000
| 20>  H        1.2096410000     0.0396660000    -0.4160440000
| 21>  H        0.5314650000    -1.5623180000    -0.1039570000
| 22>  H        1.7949000000     0.0560130000     1.8740180000
| 23>  H        2.7223800000    -0.9415130000     3.0207840000
| 24>  H        1.2735780000    -1.5834600000     2.2343960000
| 25>  H        5.1612810000    -1.5474860000    -0.5038870000
| 26>  H        5.9109680000    -2.9388800000     0.4345290000
| 27>  H        5.1934020000    -0.1086670000     1.5200470000
| 28>  H        5.9093500000    -1.4563860000     2.5397420000
| 29> *
| 30>
| 31>                          ****END OF INPUT****
 Total Charge           Charge          ....    0
 Multiplicity           Mult            ....    1
 Number of Electrons    NEL             ....   54
 Basis Dimension        Dim             ....  148

MULLIKEN ATOMIC CHARGES
-----------------------
   0 C :    0.074799
   1 N :   -0.178783
   2 C :   -0.140766
   3 C :    0.070774
   4 N :   -0.210807
   5 C :    0.057551
   6 C :    0.027904
   7 H :    0.028794
   8 H :    0.011356
   9 H :    0.006181
  10 H :    0.032659
  11 H :    0.018282
  12 H :    0.046817
  13 H :    0.037382
  14 H :    0.037716
  15 H :    0.039375
  16 H :    0.040768
Sum of atomic charges:   -0.0000000

LOEWDIN ATOMIC CHARGES
----------------------
   0 C :   -0.014971
   1 N :   -0.137690
   2 C :   -0.001511
   3 C :   -0.076237
   4 N :   -0.066980
   5 C :    0.021318
   6 C :    0.016200
   7 H :    0.021963
   8 H :    0.016878
   9 H :    0.016673
  10 H :    0.038941
  11 H :    0.034319
  12 H :    0.047107
  13 H :    0.019177
  14 H :    0.024559
  15 H :    0.019433
  16 H :    0.020820

  Mayer bond orders larger than 0.1
B(  0-C ,  1-N ) :   1.0468 B(  0-C ,  7-H ) :   0.9739 B(  0-C ,  8-H ) :   0.9474
B(  0-C ,  9-H ) :   0.9453 B(  1-N ,  2-C ) :   1.9128 B(  2-C ,  3-C ) :   1.0644
B(  2-C ,  4-N ) :   1.1007 B(  3-C , 10-H ) :   0.9417 B(  3-C , 11-H ) :   0.9342
B(  3-C , 12-H ) :   0.9404 B(  4-N ,  5-C ) :   0.9631 B(  4-N ,  6-C ) :   0.9373
B(  5-C ,  6-C ) :   1.0867 B(  5-C , 13-H ) :   0.9280 B(  5-C , 14-H ) :   0.9478
B(  6-C , 15-H ) :   0.9364 B(  6-C , 16-H ) :   0.9488

FINAL SINGLE POINT ENERGY      -305.376779005596

DIPOLE MOMENT
-------------
                                X             Y             Z
Electronic contribution:      2.78795      -2.45366      -0.36255
Nuclear contribution   :     -2.81205       2.96718       0.81159
                        -----------------------------------------
Total Dipole Moment    :     -0.02411       0.51352       0.44904
                        -----------------------------------------
Magnitude (a.u.)       :      0.68259
Magnitude (Debye)      :      1.73500

                             ****ORCA TERMINATED NORMALLY****
TOTAL RUN TIME: 0 days 0 hours 0 minutes 7 seconds 303 msec
