                         Program Version 3.0.3 - RELEASE   -
|  1> ! RI PBE def2-SVP def2-SVP/J NBO PAL2
|  2> % maxcore 2000
|  3> % output
|  4>     # printlevel mini
|  5>     print[ P_Basis ] 0
|  6>     print[ P_SCFInfo ] 1
|  7>     print[ P_SCFIterInfo ] 1
|  8>     print[ P_OrbEn ] 0
|  9>     print[ P_Cartesian ] 0
| 10> end
| 11> *xyz 0 1
| 12>  C        1.0202520000    -0.1298060000     0.0227310000
| 13>  N        2.4504880000    -0.0831640000    -0.1100220000
| 14>  C        2.9762210000     0.8881280000    -0.7574100000
| 15>  C        2.1755820000     1.9920790000    -1.3920790000
| 16>  N        4.3390240000     0.9229700000    -0.8782660000
| 17>  C        5.0414950000     1.9654650000    -1.5822140000
| 18>  C        5.0786320000    -0.1515990000    -0.2578360000
| 19>  H        0.7429020000    -1.0146980000     0.5984250000
| 20>  H        0.4979690000    -0.1955370000    -0.9434030000
| 21>  H        0.6059760000     0.7423560000     0.5501980000
| 22>  H        1.4697310000     1.5653270000    -2.1093370000
| 23>  H        2.7729950000     2.7401480000    -1.9060290000
| 24>  H        1.5786960000     2.4962710000    -0.6276600000
| 25>  H        4.8816390000     2.9567060000    -1.1427370000
| 26>  H        4.7739430000     2.0156400000    -2.6438940000
| 27>  H        6.1092140000     1.7598970000    -1.5299290000
| 28>  H        4.7792270000    -1.1217050000    -0.6648310000
| 29>  H        4.8874460000    -0.1909570000     0.8184180000
| 30>  H        6.1431890000     0.0008790000    -0.4312050000
| 31> *
| 32>
| 33>                          ****END OF INPUT****
 Total Charge           Charge          ....    0
 Multiplicity           Mult            ....    1
 Number of Electrons    NEL             ....   56
 Basis Dimension        Dim             ....  158

MULLIKEN ATOMIC CHARGES
-----------------------
   0 C :    0.076645
   1 N :   -0.248255
   2 C :   -0.056314
   3 C :    0.036318
   4 N :   -0.277421
   5 C :    0.084491
   6 C :    0.127240
   7 H :    0.020383
   8 H :   -0.004607
   9 H :   -0.002235
  10 H :    0.042863
  11 H :    0.003476
  12 H :    0.040319
  13 H :    0.031281
  14 H :    0.036328
  15 H :    0.029015
  16 H :    0.020965
  17 H :    0.027722
  18 H :    0.011787
Sum of atomic charges:   -0.0000000

LOEWDIN ATOMIC CHARGES
----------------------
   0 C :   -0.017634
   1 N :   -0.181868
   2 C :    0.005398
   3 C :   -0.078913
   4 N :   -0.040759
   5 C :    0.011428
   6 C :    0.017129
   7 H :    0.018783
   8 H :    0.008667
   9 H :    0.009006
  10 H :    0.043909
  11 H :    0.027538
  12 H :    0.043759
  13 H :    0.018850
  14 H :    0.020171
  15 H :    0.030328
  16 H :    0.022768
  17 H :    0.023936
  18 H :    0.017505

  Mayer bond orders larger than 0.1
B(  0-C ,  1-N ) :   1.0727 B(  0-C ,  7-H ) :   0.9737 B(  0-C ,  8-H ) :   0.9430
B(  0-C ,  9-H ) :   0.9434 B(  1-N ,  2-C ) :   1.7965 B(  2-C ,  3-C ) :   1.0689
B(  2-C ,  4-N ) :   1.1735 B(  3-C , 10-H ) :   0.9427 B(  3-C , 11-H ) :   0.9303
B(  3-C , 12-H ) :   0.9403 B(  4-N ,  5-C ) :   1.0225 B(  4-N ,  6-C ) :   1.0149
B(  5-C , 13-H ) :   0.9585 B(  5-C , 14-H ) :   0.9586 B(  5-C , 15-H ) :   0.9626
B(  6-C , 16-H ) :   0.9579 B(  6-C , 17-H ) :   0.9595 B(  6-C , 18-H ) :   0.9593

FINAL SINGLE POINT ENERGY      -306.604010111143

DIPOLE MOMENT
-------------
                                X             Y             Z
Electronic contribution:      0.67246      -1.47560       0.87519
Nuclear contribution   :     -0.31128       2.20811      -1.36175
                        -----------------------------------------
Total Dipole Moment    :      0.36118       0.73250      -0.48656
                        -----------------------------------------
Magnitude (a.u.)       :      0.95066
Magnitude (Debye)      :      2.41638

                             ****ORCA TERMINATED NORMALLY****
TOTAL RUN TIME: 0 days 0 hours 0 minutes 8 seconds 59 msec
