                         Program Version 3.0.3 - RELEASE   -
|  1> ! RI PBE def2-SVP def2-SVP/J NBO PAL2
|  2> % maxcore 2000
|  3> % output
|  4>     # printlevel mini
|  5>     print[ P_Basis ] 0
|  6>     print[ P_SCFInfo ] 1
|  7>     print[ P_SCFIterInfo ] 1
|  8>     print[ P_OrbEn ] 0
|  9>     print[ P_Cartesian ] 0
| 10> end
| 11> *xyz 0 1
| 12>  C        1.0567920000    -0.0663220000    -0.1240670000
| 13>  N        2.4721460000     0.1490070000     0.0265600000
| 14>  C        2.9114430000     1.2464640000     0.4952060000
| 15>  C        2.1029740000     2.4276710000     0.9428990000
| 16>  N        4.2813300000     1.3629520000     0.6029370000
| 17>  C        5.0115200000     2.4268820000     1.0706030000
| 18>  C        6.3423220000     2.4751180000     1.1484800000
| 19>  H        0.8953390000    -1.0626220000    -0.5382470000
| 20>  H        0.5857590000     0.6493850000    -0.8105820000
| 21>  H        0.5131020000    -0.0202740000     0.8286570000
| 22>  H        1.0408180000     2.2347270000     0.8161940000
| 23>  H        2.3614510000     3.3192590000     0.3660010000
| 24>  H        2.2882860000     2.6511070000     1.9966110000
| 25>  H        4.7752460000     0.5406530000     0.2880520000
| 26>  H        4.4201530000     3.2755150000     1.3924670000
| 27>  H        6.9693080000     1.6474920000     0.8368030000
| 28>  H        6.8288230000     3.3597950000     1.5322260000
| 29> *
| 30>
| 31>                          ****END OF INPUT****
 Total Charge           Charge          ....    0
 Multiplicity           Mult            ....    1
 Number of Electrons    NEL             ....   54
 Basis Dimension        Dim             ....  148

MULLIKEN ATOMIC CHARGES
-----------------------
   0 C :    0.073938
   1 N :   -0.205757
   2 C :   -0.120982
   3 C :    0.012366
   4 N :   -0.017179
   5 C :    0.014015
   6 C :   -0.083389
   7 H :    0.021555
   8 H :    0.017343
   9 H :    0.015702
  10 H :    0.024131
  11 H :    0.051755
  12 H :    0.052190
  13 H :    0.108582
  14 H :    0.002906
  15 H :    0.012330
  16 H :    0.020493
Sum of atomic charges:   -0.0000000

LOEWDIN ATOMIC CHARGES
----------------------
   0 C :   -0.016059
   1 N :   -0.161632
   2 C :    0.010175
   3 C :   -0.082159
   4 N :    0.050573
   5 C :    0.000420
   6 C :   -0.139970
   7 H :    0.022806
   8 H :    0.015569
   9 H :    0.015436
  10 H :    0.039099
  11 H :    0.044797
  12 H :    0.044840
  13 H :    0.082046
  14 H :    0.026566
  15 H :    0.019992
  16 H :    0.027503

  Mayer bond orders larger than 0.1
B(  0-C ,  1-N ) :   1.0443 B(  0-C ,  7-H ) :   0.9711 B(  0-C ,  8-H ) :   0.9505
B(  0-C ,  9-H ) :   0.9495 B(  1-N ,  2-C ) :   1.8829 B(  2-C ,  3-C ) :   1.0649
B(  2-C ,  4-N ) :   1.1358 B(  3-C , 10-H ) :   0.9370 B(  3-C , 11-H ) :   0.9351
B(  3-C , 12-H ) :   0.9346 B(  4-N ,  5-C ) :   1.1690 B(  4-N , 13-H ) :   0.9075
B(  5-C ,  6-C ) :   1.8716 B(  5-C , 14-H ) :   0.9432 B(  6-C , 15-H ) :   0.9525
B(  6-C , 16-H ) :   0.9377

FINAL SINGLE POINT ENERGY      -305.405461315189

DIPOLE MOMENT
-------------
                                X             Y             Z
Electronic contribution:      2.83009      -1.66514      -0.55868
Nuclear contribution   :     -3.22239       2.16830       0.74489
                        -----------------------------------------
Total Dipole Moment    :     -0.39230       0.50316       0.18620
                        -----------------------------------------
Magnitude (a.u.)       :      0.66463
Magnitude (Debye)      :      1.68936

                             ****ORCA TERMINATED NORMALLY****
TOTAL RUN TIME: 0 days 0 hours 0 minutes 7 seconds 470 msec
