                         Program Version 3.0.3 - RELEASE   -
|  1> ! RI PBE def2-SVP def2-SVP/J NBO PAL2
|  2> % maxcore 2000
|  3> % output
|  4>     # printlevel mini
|  5>     print[ P_Basis ] 0
|  6>     print[ P_SCFInfo ] 1
|  7>     print[ P_SCFIterInfo ] 1
|  8>     print[ P_OrbEn ] 0
|  9>     print[ P_Cartesian ] 0
| 10> end
| 11> *xyz 0 1
| 12>  C        0.8544290000    -0.5130970000     0.4982890000
| 13>  N        2.2726900000    -0.3262550000     0.3338950000
| 14>  C        2.9373110000     0.0960660000     1.5504280000
| 15>  C        2.7135690000     0.1338460000    -0.8983760000
| 16>  N        1.9755210000     0.5161370000    -1.8703630000
| 17>  C        4.1659970000     0.0806550000    -1.1804370000
| 18>  C        5.0209490000    -0.8034720000    -0.6813140000
| 19>  H        0.6783720000    -1.0752420000     1.4172420000
| 20>  H        0.4482490000    -1.0889640000    -0.3351400000
| 21>  H        0.3000570000     0.4354920000     0.5735920000
| 22>  H        2.4580260000     0.9902250000     1.9743220000
| 23>  H        3.9793370000     0.3313560000     1.3540260000
| 24>  H        2.8937470000    -0.6984940000     2.3005610000
| 25>  H        0.9889870000     0.5212450000    -1.6235310000
| 26>  H        4.4823310000     0.7848310000    -1.9419400000
| 27>  H        4.7144670000    -1.5500620000     0.0430140000
| 28>  H        6.0550510000    -0.8223690000    -1.0045680000
| 29> *
| 30>
| 31>                          ****END OF INPUT****
 Total Charge           Charge          ....    0
 Multiplicity           Mult            ....    1
 Number of Electrons    NEL             ....   54
 Basis Dimension        Dim             ....  148

MULLIKEN ATOMIC CHARGES
-----------------------
   0 C :    0.074200
   1 N :   -0.269867
   2 C :    0.084283
   3 C :   -0.079141
   4 N :   -0.101374
   5 C :   -0.004944
   6 C :   -0.016584
   7 H :    0.024663
   8 H :    0.040938
   9 H :    0.021154
  10 H :    0.011766
  11 H :    0.043122
  12 H :    0.032825
  13 H :    0.067857
  14 H :    0.010352
  15 H :    0.029496
  16 H :    0.031253
Sum of atomic charges:   -0.0000000

LOEWDIN ATOMIC CHARGES
----------------------
   0 C :    0.004786
   1 N :   -0.061831
   2 C :    0.014744
   3 C :   -0.000692
   4 N :   -0.144614
   5 C :   -0.029689
   6 C :   -0.042083
   7 H :    0.028836
   8 H :    0.028710
   9 H :    0.011598
  10 H :    0.013531
  11 H :    0.029996
  12 H :    0.021792
  13 H :    0.034898
  14 H :    0.037536
  15 H :    0.024040
  16 H :    0.028444

  Mayer bond orders larger than 0.1
B(  0-C ,  1-N ) :   1.0222 B(  0-C ,  7-H ) :   0.9564 B(  0-C ,  8-H ) :   0.9604
B(  0-C ,  9-H ) :   0.9489 B(  1-N ,  2-C ) :   0.9977 B(  1-N ,  3-C ) :   1.1183
B(  2-C , 10-H ) :   0.9525 B(  2-C , 11-H ) :   0.9588 B(  2-C , 12-H ) :   0.9673
B(  3-C ,  4-N ) :   1.9720 B(  3-C ,  5-C ) :   1.0292 B(  4-N , 13-H ) :   0.9400
B(  5-C ,  6-C ) :   1.9344 B(  5-C , 14-H ) :   0.9465 B(  6-C , 15-H ) :   0.9440
B(  6-C , 16-H ) :   0.9392

FINAL SINGLE POINT ENERGY      -305.386921169907

DIPOLE MOMENT
-------------
                                X             Y             Z
Electronic contribution:      0.83087       0.69595      -4.06850
Nuclear contribution   :     -0.98345      -0.92532       5.18992
                        -----------------------------------------
Total Dipole Moment    :     -0.15257      -0.22937       1.12142
                        -----------------------------------------
Magnitude (a.u.)       :      1.15476
Magnitude (Debye)      :      2.93516

                             ****ORCA TERMINATED NORMALLY****
TOTAL RUN TIME: 0 days 0 hours 0 minutes 8 seconds 308 msec
