                         Program Version 3.0.3 - RELEASE   -
|  1> ! RI PBE def2-SVP def2-SVP/J NBO PAL2
|  2> % maxcore 2000
|  3> % output
|  4>     # printlevel mini
|  5>     print[ P_Basis ] 0
|  6>     print[ P_SCFInfo ] 1
|  7>     print[ P_SCFIterInfo ] 1
|  8>     print[ P_OrbEn ] 0
|  9>     print[ P_Cartesian ] 0
| 10> end
| 11> *xyz 0 1
| 12>  C        1.0056450000     0.4169430000    -0.1172670000
| 13>  N        2.3738520000    -0.0078260000     0.0552970000
| 14>  C        3.0758320000     0.5336230000     1.1877570000
| 15>  C        3.1170590000    -0.5430270000    -0.9689590000
| 16>  N        4.3902930000    -0.6621230000    -1.0235010000
| 17>  C        2.3674150000    -1.0661710000    -2.0880020000
| 18>  C        1.7796020000    -1.5126320000    -3.0343420000
| 19>  H        0.4261970000     0.1789790000     0.7786610000
| 20>  H        0.5612360000    -0.1034250000    -0.9628340000
| 21>  H        0.9321800000     1.4973400000    -0.2986080000
| 22>  H        2.3555140000     0.7550090000     1.9752430000
| 23>  H        3.6176950000     1.4592850000     0.9480380000
| 24>  H        3.7911690000    -0.1924600000     1.5826850000
| 25>  H        4.8422360000    -0.2449400000    -0.2140020000
| 26>  H        1.2725850000    -1.9133720000    -3.8803750000
| 27> *
| 28>
| 29>                          ****END OF INPUT****
 Total Charge           Charge          ....    0
 Multiplicity           Mult            ....    1
 Number of Electrons    NEL             ....   52
 Basis Dimension        Dim             ....  138

MULLIKEN ATOMIC CHARGES
-----------------------
   0 C :    0.091596
   1 N :   -0.268469
   2 C :    0.082850
   3 C :   -0.063128
   4 N :   -0.098970
   5 C :    0.417697
   6 C :   -0.451524
   7 H :    0.030084
   8 H :    0.050967
   9 H :    0.026585
  10 H :    0.029100
  11 H :    0.031900
  12 H :    0.043174
  13 H :    0.071146
  14 H :    0.006993
Sum of atomic charges:   -0.0000000

LOEWDIN ATOMIC CHARGES
----------------------
   0 C :    0.018218
   1 N :   -0.042788
   2 C :    0.009034
   3 C :   -0.013730
   4 N :   -0.142827
   5 C :   -0.010766
   6 C :   -0.052109
   7 H :    0.023790
   8 H :    0.037534
   9 H :    0.018445
  10 H :    0.032194
  11 H :    0.019798
  12 H :    0.028768
  13 H :    0.036459
  14 H :    0.037977

  Mayer bond orders larger than 0.1
B(  0-C ,  1-N ) :   1.0042 B(  0-C ,  7-H ) :   0.9620 B(  0-C ,  8-H ) :   0.9499
B(  0-C ,  9-H ) :   0.9577 B(  1-N ,  2-C ) :   1.0103 B(  1-N ,  3-C ) :   1.1457
B(  1-N ,  4-N ) :   0.1112 B(  2-C , 10-H ) :   0.9574 B(  2-C , 11-H ) :   0.9553
B(  2-C , 12-H ) :   0.9556 B(  3-C ,  4-N ) :   1.9518 B(  3-C ,  5-C ) :   0.9156
B(  4-N , 13-H ) :   0.9280 B(  5-C ,  6-C ) :   2.3031 B(  5-C , 14-H ) :  -0.1045
B(  6-C , 14-H ) :   1.0942

FINAL SINGLE POINT ENERGY      -304.142788817076

DIPOLE MOMENT
-------------
                                X             Y             Z
Electronic contribution:      1.79966      -3.39303      -4.88571
Nuclear contribution   :     -2.72980       4.00349       5.70895
                        -----------------------------------------
Total Dipole Moment    :     -0.93014       0.61046       0.82325
                        -----------------------------------------
Magnitude (a.u.)       :      1.38403
Magnitude (Debye)      :      3.51793

                             ****ORCA TERMINATED NORMALLY****
TOTAL RUN TIME: 0 days 0 hours 0 minutes 6 seconds 722 msec
