                         Program Version 3.0.3 - RELEASE   -
|  1> ! RI PBE def2-SVP def2-SVP/J NBO PAL2
|  2> % maxcore 2000
|  3> % output
|  4>     # printlevel mini
|  5>     print[ P_Basis ] 0
|  6>     print[ P_SCFInfo ] 1
|  7>     print[ P_SCFIterInfo ] 1
|  8>     print[ P_OrbEn ] 0
|  9>     print[ P_Cartesian ] 0
| 10> end
| 11> *xyz 0 1
| 12>  C        3.6626860000     0.6262770000    -0.9483870000
| 13>  N        3.1890320000    -0.7391910000    -0.8543590000
| 14>  C        3.5720400000    -1.4246900000     0.3782400000
| 15>  C        2.7319930000    -2.6932850000     0.5113970000
| 16>  N        2.8490130000    -3.5181810000    -0.6840800000
| 17>  C        5.0409640000    -1.7238910000     0.4388800000
| 18>  C        5.9096160000    -1.1096430000     1.2309060000
| 19>  H        3.3975470000     1.0332610000    -1.9262920000
| 20>  H        4.7479120000     0.7403680000    -0.8076740000
| 21>  H        3.1623720000     1.2377730000    -0.1919550000
| 22>  H        3.5428650000    -1.2779880000    -1.6368890000
| 23>  H        3.3127510000    -0.7599880000     1.2108120000
| 24>  H        1.6968860000    -2.3961610000     0.7284250000
| 25>  H        3.0982200000    -3.2658530000     1.3678360000
| 26>  H        2.2082550000    -3.1873520000    -1.3942570000
| 27>  H        2.6009040000    -4.4777830000    -0.4872010000
| 28>  H        5.3821330000    -2.4919760000    -0.2531800000
| 29>  H        5.5931590000    -0.3430460000     1.9328630000
| 30>  H        6.9667410000    -1.3514790000     1.2159830000
| 31> *
| 32>
| 33>                          ****END OF INPUT****
 Total Charge           Charge          ....    0
 Multiplicity           Mult            ....    1
 Number of Electrons    NEL             ....   56
 Basis Dimension        Dim             ....  158

MULLIKEN ATOMIC CHARGES
-----------------------
   0 C :    0.082307
   1 N :   -0.257126
   2 C :    0.029423
   3 C :    0.108386
   4 N :   -0.224388
   5 C :   -0.044745
   6 C :   -0.037621
   7 H :    0.015461
   8 H :    0.003193
   9 H :    0.011907
  10 H :    0.097687
  11 H :   -0.010525
  12 H :   -0.003629
  13 H :    0.004875
  14 H :    0.093424
  15 H :    0.095653
  16 H :   -0.000921
  17 H :    0.014056
  18 H :    0.022583
Sum of atomic charges:   -0.0000000

LOEWDIN ATOMIC CHARGES
----------------------
   0 C :   -0.006769
   1 N :   -0.089022
   2 C :   -0.006054
   3 C :    0.010042
   4 N :   -0.109769
   5 C :   -0.037030
   6 C :   -0.074065
   7 H :    0.021399
   8 H :    0.001731
   9 H :    0.019282
  10 H :    0.049505
  11 H :    0.023145
  12 H :    0.005301
  13 H :    0.021730
  14 H :    0.051538
  15 H :    0.055702
  16 H :    0.022657
  17 H :    0.018179
  18 H :    0.022496

  Mayer bond orders larger than 0.1
B(  0-C ,  1-N ) :   1.0598 B(  0-C ,  7-H ) :   0.9724 B(  0-C ,  8-H ) :   0.9420
B(  0-C ,  9-H ) :   0.9670 B(  1-N ,  2-C ) :   1.0307 B(  1-N , 10-H ) :   0.9319
B(  2-C ,  3-C ) :   1.0306 B(  2-C ,  5-C ) :   1.0138 B(  2-C , 11-H ) :   0.9060
B(  3-C ,  4-N ) :   1.1030 B(  3-C , 12-H ) :   0.9259 B(  3-C , 13-H ) :   0.9368
B(  4-N , 14-H ) :   0.9636 B(  4-N , 15-H ) :   0.9671 B(  5-C ,  6-C ) :   1.9630
B(  5-C , 16-H ) :   0.9511 B(  6-C , 17-H ) :   0.9469 B(  6-C , 18-H ) :   0.9433

FINAL SINGLE POINT ENERGY      -306.580446892229

DIPOLE MOMENT
-------------
                                X             Y             Z
Electronic contribution:     -0.25928      -1.84501      -0.13345
Nuclear contribution   :     -0.04751       1.59104       0.03970
                        -----------------------------------------
Total Dipole Moment    :     -0.30679      -0.25397      -0.09375
                        -----------------------------------------
Magnitude (a.u.)       :      0.40916
Magnitude (Debye)      :      1.04000

                             ****ORCA TERMINATED NORMALLY****
TOTAL RUN TIME: 0 days 0 hours 0 minutes 8 seconds 14 msec
