                         Program Version 3.0.3 - RELEASE   -
|  1> ! RI PBE def2-SVP def2-SVP/J NBO PAL2
|  2> % maxcore 2000
|  3> % output
|  4>     # printlevel mini
|  5>     print[ P_Basis ] 0
|  6>     print[ P_SCFInfo ] 1
|  7>     print[ P_SCFIterInfo ] 1
|  8>     print[ P_OrbEn ] 0
|  9>     print[ P_Cartesian ] 0
| 10> end
| 11> *xyz 0 1
| 12>  C        2.6646530000     0.2014730000    -0.9973750000
| 13>  N        2.3619240000    -0.7337160000     0.0672550000
| 14>  C        2.9025010000    -0.3576680000     1.3616240000
| 15>  C        2.3629510000    -1.2996040000     2.4367600000
| 16>  N        2.8004630000    -0.8800210000     3.7526840000
| 17>  C        4.3720950000    -0.3245540000     1.3950090000
| 18>  C        5.5742650000    -0.3421140000     1.3963050000
| 19>  H        2.2406070000    -0.1696860000    -1.9320950000
| 20>  H        3.7396510000     0.3787650000    -1.1481830000
| 21>  H        2.1922680000     1.1630310000    -0.7792770000
| 22>  H        2.7070780000    -1.6544810000    -0.1775740000
| 23>  H        2.5383160000     0.6488990000     1.5981080000
| 24>  H        2.6541100000    -2.3283630000     2.1667340000
| 25>  H        1.2733010000    -1.2465330000     2.3865080000
| 26>  H        3.8059620000    -0.9745090000     3.8361070000
| 27>  H        2.3808810000    -1.4570120000     4.4693340000
| 28>  H        6.6388240000    -0.3437750000     1.3951740000
| 29> *
| 30>
| 31>                          ****END OF INPUT****
 Total Charge           Charge          ....    0
 Multiplicity           Mult            ....    1
 Number of Electrons    NEL             ....   54
 Basis Dimension        Dim             ....  148

MULLIKEN ATOMIC CHARGES
-----------------------
   0 C :    0.080559
   1 N :   -0.236948
   2 C :    0.061469
   3 C :    0.104313
   4 N :   -0.210644
   5 C :    0.372736
   6 C :   -0.529781
   7 H :    0.019330
   8 H :    0.010245
   9 H :    0.014043
  10 H :    0.102705
  11 H :    0.024178
  12 H :   -0.014515
  13 H :    0.019280
  14 H :    0.094485
  15 H :    0.092671
  16 H :   -0.004124
Sum of atomic charges:    0.0000000

LOEWDIN ATOMIC CHARGES
----------------------
   0 C :   -0.003558
   1 N :   -0.080942
   2 C :   -0.009651
   3 C :    0.015274
   4 N :   -0.107727
   5 C :   -0.031759
   6 C :   -0.095396
   7 H :    0.023364
   8 H :    0.004444
   9 H :    0.022561
  10 H :    0.054849
  11 H :    0.043504
  12 H :   -0.002122
  13 H :    0.025775
  14 H :    0.052474
  15 H :    0.055126
  16 H :    0.033783

  Mayer bond orders larger than 0.1
B(  0-C ,  1-N ) :   1.0585 B(  0-C ,  7-H ) :   0.9726 B(  0-C ,  8-H ) :   0.9468
B(  0-C ,  9-H ) :   0.9641 B(  1-N ,  2-C ) :   1.0582 B(  1-N , 10-H ) :   0.9390
B(  2-C ,  3-C ) :   1.0397 B(  2-C ,  5-C ) :   0.9588 B(  2-C , 11-H ) :   0.8652
B(  3-C ,  4-N ) :   1.1023 B(  3-C , 12-H ) :   0.9137 B(  3-C , 13-H ) :   0.9269
B(  4-N , 14-H ) :   0.9620 B(  4-N , 15-H ) :   0.9630 B(  5-C ,  6-C ) :   2.3120
B(  5-C , 16-H ) :  -0.1239 B(  6-C , 16-H ) :   1.1142

FINAL SINGLE POINT ENERGY      -305.336348241151

DIPOLE MOMENT
-------------
                                X             Y             Z
Electronic contribution:      2.29588      -0.06273       1.53748
Nuclear contribution   :     -2.04423      -0.44260      -1.58280
                        -----------------------------------------
Total Dipole Moment    :      0.25165      -0.50533      -0.04532
                        -----------------------------------------
Magnitude (a.u.)       :      0.56634
Magnitude (Debye)      :      1.43953

                             ****ORCA TERMINATED NORMALLY****
TOTAL RUN TIME: 0 days 0 hours 0 minutes 7 seconds 186 msec
