                         Program Version 3.0.3 - RELEASE   -
|  1> ! RI PBE def2-SVP def2-SVP/J NBO PAL2
|  2> % maxcore 2000
|  3> % output
|  4>     # printlevel mini
|  5>     print[ P_Basis ] 0
|  6>     print[ P_SCFInfo ] 1
|  7>     print[ P_SCFIterInfo ] 1
|  8>     print[ P_OrbEn ] 0
|  9>     print[ P_Cartesian ] 0
| 10> end
| 11> *xyz 0 1
| 12>  C        1.1699470000     0.3911930000     2.3802030000
| 13>  N        2.6068810000     0.2918780000     2.2679290000
| 14>  C        3.0518070000    -0.8214080000     1.4618690000
| 15>  C        4.5825360000    -0.8210920000     1.3402010000
| 16>  N        5.1154560000     0.3972000000     0.7571890000
| 17>  C        5.1929440000    -1.1148460000     2.6826240000
| 18>  C        6.1288080000    -0.3906590000     3.2784630000
| 19>  H        0.9061340000     1.2206890000     3.0393070000
| 20>  H        0.6862900000    -0.5220880000     2.7651020000
| 21>  H        0.7385720000     0.6007160000     1.3970920000
| 22>  H        3.0304560000     0.2326850000     3.1867210000
| 23>  H        2.6175530000    -0.7125290000     0.4612640000
| 24>  H        2.7126430000    -1.7997180000     1.8505430000
| 25>  H        4.8470490000    -1.6560140000     0.6779500000
| 26>  H        4.6073260000     1.1842500000     1.1492500000
| 27>  H        4.9392520000     0.4069010000    -0.2393000000
| 28>  H        4.8009170000    -2.0011470000     3.1802060000
| 29>  H        6.5436230000     0.4832160000     2.7894170000
| 30>  H        6.5167130000    -0.6650140000     4.2527580000
| 31> *
| 32>
| 33>                          ****END OF INPUT****
 Total Charge           Charge          ....    0
 Multiplicity           Mult            ....    1
 Number of Electrons    NEL             ....   56
 Basis Dimension        Dim             ....  158

MULLIKEN ATOMIC CHARGES
-----------------------
   0 C :    0.078087
   1 N :   -0.272199
   2 C :    0.104591
   3 C :    0.027885
   4 N :   -0.154270
   5 C :   -0.093233
   6 C :   -0.010213
   7 H :    0.023543
   8 H :   -0.005878
   9 H :    0.017106
  10 H :    0.100301
  11 H :   -0.006602
  12 H :   -0.021366
  13 H :    0.012381
  14 H :    0.082624
  15 H :    0.086118
  16 H :   -0.008783
  17 H :    0.023794
  18 H :    0.016117
Sum of atomic charges:   -0.0000000

LOEWDIN ATOMIC CHARGES
----------------------
   0 C :   -0.004658
   1 N :   -0.100779
   2 C :    0.003411
   3 C :   -0.008943
   4 N :   -0.085793
   5 C :   -0.046783
   6 C :   -0.060145
   7 H :    0.023190
   8 H :   -0.000999
   9 H :    0.020838
  10 H :    0.053911
  11 H :    0.013664
  12 H :   -0.004877
  13 H :    0.033926
  14 H :    0.043711
  15 H :    0.053197
  16 H :    0.022191
  17 H :    0.022842
  18 H :    0.022096

  Mayer bond orders larger than 0.1
B(  0-C ,  1-N ) :   1.0672 B(  0-C ,  7-H ) :   0.9725 B(  0-C ,  8-H ) :   0.9441
B(  0-C ,  9-H ) :   0.9678 B(  1-N ,  2-C ) :   1.0401 B(  1-N , 10-H ) :   0.9398
B(  2-C ,  3-C ) :   1.0182 B(  2-C , 11-H ) :   0.9250 B(  2-C , 12-H ) :   0.9050
B(  3-C ,  4-N ) :   1.1498 B(  3-C ,  5-C ) :   0.9960 B(  3-C , 13-H ) :   0.8903
B(  4-N , 14-H ) :   0.9535 B(  4-N , 15-H ) :   0.9665 B(  5-C ,  6-C ) :   2.0071
B(  5-C , 16-H ) :   0.9536 B(  6-C , 17-H ) :   0.9231 B(  6-C , 18-H ) :   0.9396

FINAL SINGLE POINT ENERGY      -306.583560238749

DIPOLE MOMENT
-------------
                                X             Y             Z
Electronic contribution:      3.26101      -0.15163      -0.44460
Nuclear contribution   :     -3.90225      -0.01921       0.40678
                        -----------------------------------------
Total Dipole Moment    :     -0.64124      -0.17084      -0.03782
                        -----------------------------------------
Magnitude (a.u.)       :      0.66468
Magnitude (Debye)      :      1.68948

                             ****ORCA TERMINATED NORMALLY****
TOTAL RUN TIME: 0 days 0 hours 0 minutes 8 seconds 235 msec
