                         Program Version 3.0.3 - RELEASE   -
|  1> ! RI PBE def2-SVP def2-SVP/J NBO PAL2
|  2> % maxcore 2000
|  3> % output
|  4>     # printlevel mini
|  5>     print[ P_Basis ] 0
|  6>     print[ P_SCFInfo ] 1
|  7>     print[ P_SCFIterInfo ] 1
|  8>     print[ P_OrbEn ] 0
|  9>     print[ P_Cartesian ] 0
| 10> end
| 11> *xyz 0 1
| 12>  C        1.2481680000    -0.0116930000     0.2165000000
| 13>  N        2.6892520000    -0.0828010000     0.0930530000
| 14>  C        3.1380380000    -1.2164450000    -0.6823620000
| 15>  C        4.6419210000    -1.1215720000    -0.9762450000
| 16>  N        5.5025870000    -1.0154020000     0.1930060000
| 17>  C        5.0482100000    -2.2618890000    -1.7935610000
| 18>  C        5.3423900000    -3.2191990000    -2.4549470000
| 19>  H        0.9758860000     0.8220750000     0.8665410000
| 20>  H        0.7870490000    -0.9282930000     0.6193620000
| 21>  H        0.8052390000     0.1767170000    -0.7649630000
| 22>  H        3.0983050000    -0.1285600000     1.0179180000
| 23>  H        2.5992930000    -1.2168940000    -1.6350430000
| 24>  H        2.9279570000    -2.1879370000    -0.2000290000
| 25>  H        4.7968450000    -0.2079670000    -1.5618680000
| 26>  H        5.3786800000    -1.8085060000     0.8108960000
| 27>  H        5.3015440000    -0.1647820000     0.7024050000
| 28>  H        5.6191360000    -4.0599610000    -3.0458710000
| 29> *
| 30>
| 31>                          ****END OF INPUT****
 Total Charge           Charge          ....    0
 Multiplicity           Mult            ....    1
 Number of Electrons    NEL             ....   54
 Basis Dimension        Dim             ....  148

MULLIKEN ATOMIC CHARGES
-----------------------
   0 C :    0.070763
   1 N :   -0.260620
   2 C :    0.101509
   3 C :    0.050781
   4 N :   -0.181264
   5 C :    0.411658
   6 C :   -0.520256
   7 H :    0.023171
   8 H :   -0.003627
   9 H :    0.024150
  10 H :    0.080014
  11 H :    0.011966
  12 H :   -0.013618
  13 H :    0.022646
  14 H :    0.093306
  15 H :    0.091864
  16 H :   -0.002442
Sum of atomic charges:   -0.0000000

LOEWDIN ATOMIC CHARGES
----------------------
   0 C :   -0.003634
   1 N :   -0.107630
   2 C :    0.005571
   3 C :   -0.012743
   4 N :   -0.077513
   5 C :   -0.014109
   6 C :   -0.083697
   7 H :    0.023255
   8 H :    0.000038
   9 H :    0.022617
  10 H :    0.040065
  11 H :    0.027273
  12 H :   -0.001472
  13 H :    0.045287
  14 H :    0.052768
  15 H :    0.049607
  16 H :    0.034316

  Mayer bond orders larger than 0.1
B(  0-C ,  1-N ) :   1.0605 B(  0-C ,  7-H ) :   0.9724 B(  0-C ,  8-H ) :   0.9453
B(  0-C ,  9-H ) :   0.9706 B(  1-N ,  2-C ) :   1.0588 B(  1-N , 10-H ) :   0.9306
B(  2-C ,  3-C ) :   1.0163 B(  2-C , 11-H ) :   0.9197 B(  2-C , 12-H ) :   0.9084
B(  3-C ,  4-N ) :   1.0890 B(  3-C ,  5-C ) :   0.9826 B(  3-C , 13-H ) :   0.8593
B(  4-N , 14-H ) :   0.9675 B(  4-N , 15-H ) :   0.9632 B(  5-C ,  6-C ) :   2.3320
B(  5-C , 16-H ) :  -0.1148 B(  6-C , 16-H ) :   1.1044

FINAL SINGLE POINT ENERGY      -305.334105789476

DIPOLE MOMENT
-------------
                                X             Y             Z
Electronic contribution:      5.49453      -2.33480      -2.90614
Nuclear contribution   :     -6.07761       2.29904       3.47355
                        -----------------------------------------
Total Dipole Moment    :     -0.58308      -0.03576       0.56741
                        -----------------------------------------
Magnitude (a.u.)       :      0.81438
Magnitude (Debye)      :      2.07000

                             ****ORCA TERMINATED NORMALLY****
TOTAL RUN TIME: 0 days 0 hours 0 minutes 7 seconds 573 msec
