                         Program Version 3.0.3 - RELEASE   -
|  1> ! RI PBE def2-SVP def2-SVP/J NBO PAL2
|  2> % maxcore 2000
|  3> % output
|  4>     # printlevel mini
|  5>     print[ P_Basis ] 0
|  6>     print[ P_SCFInfo ] 1
|  7>     print[ P_SCFIterInfo ] 1
|  8>     print[ P_OrbEn ] 0
|  9>     print[ P_Cartesian ] 0
| 10> end
| 11> *xyz 0 1
| 12>  C        1.2326360000     0.0640230000     0.3585390000
| 13>  N        2.6524870000    -0.0762280000     0.1264470000
| 14>  C        2.9663300000    -0.9750970000    -0.9628850000
| 15>  C        4.4682210000    -1.0325390000    -1.1804440000
| 16>  N        4.8792540000    -2.0587020000    -2.1162200000
| 17>  C        4.4256430000    -1.7975600000    -3.4627790000
| 18>  C        6.3105030000    -2.2450290000    -2.0852530000
| 19>  H        1.0607680000     0.6998790000     1.2293930000
| 20>  H        0.7065960000    -0.8921060000     0.5199170000
| 21>  H        0.7680230000     0.5528220000    -0.5025220000
| 22>  H        3.1061470000    -0.3997810000     0.9721470000
| 23>  H        2.4652190000    -0.5904820000    -1.8573960000
| 24>  H        2.5907850000    -2.0016200000    -0.8058020000
| 25>  H        4.9438640000    -1.2590270000    -0.2190350000
| 26>  H        4.8271990000    -0.0300260000    -1.4796270000
| 27>  H        3.3362320000    -1.7620600000    -3.5037250000
| 28>  H        4.7547950000    -2.6038610000    -4.1218980000
| 29>  H        4.8162180000    -0.8450340000    -3.8677860000
| 30>  H        6.6309550000    -2.5063550000    -1.0739990000
| 31>  H        6.8701530000    -1.3438610000    -2.3980730000
| 32>  H        6.5924610000    -3.0631650000    -2.7521910000
| 33> *
| 34>
| 35>                          ****END OF INPUT****
 Total Charge           Charge          ....    0
 Multiplicity           Mult            ....    1
 Number of Electrons    NEL             ....   58
 Basis Dimension        Dim             ....  168

MULLIKEN ATOMIC CHARGES
-----------------------
   0 C :    0.070369
   1 N :   -0.277948
   2 C :    0.101653
   3 C :    0.099819
   4 N :   -0.341515
   5 C :    0.086358
   6 C :    0.102859
   7 H :    0.020898
   8 H :   -0.008462
   9 H :    0.018542
  10 H :    0.098328
  11 H :    0.001114
  12 H :   -0.008990
  13 H :   -0.007814
  14 H :   -0.014891
  15 H :    0.032298
  16 H :    0.021455
  17 H :   -0.014360
  18 H :    0.017800
  19 H :   -0.015084
  20 H :    0.017574
Sum of atomic charges:    0.0000000

LOEWDIN ATOMIC CHARGES
----------------------
   0 C :   -0.006825
   1 N :   -0.103840
   2 C :    0.005103
   3 C :    0.011732
   4 N :   -0.113956
   5 C :    0.000117
   6 C :    0.002849
   7 H :    0.022056
   8 H :   -0.002727
   9 H :    0.020735
  10 H :    0.052189
  11 H :    0.016846
  12 H :   -0.001386
  13 H :    0.017244
  14 H :   -0.000744
  15 H :    0.021442
  16 H :    0.023469
  17 H :   -0.002261
  18 H :    0.020652
  19 H :   -0.003396
  20 H :    0.020702

  Mayer bond orders larger than 0.1
B(  0-C ,  1-N ) :   1.0689 B(  0-C ,  7-H ) :   0.9728 B(  0-C ,  8-H ) :   0.9431
B(  0-C ,  9-H ) :   0.9686 B(  1-N ,  2-C ) :   1.0385 B(  1-N , 10-H ) :   0.9430
B(  2-C ,  3-C ) :   1.0725 B(  2-C , 11-H ) :   0.9197 B(  2-C , 12-H ) :   0.9174
B(  3-C ,  4-N ) :   1.0273 B(  3-C , 13-H ) :   0.9349 B(  3-C , 14-H ) :   0.9085
B(  4-N ,  5-C ) :   1.0335 B(  4-N ,  6-C ) :   1.0417 B(  5-C , 15-H ) :   0.9658
B(  5-C , 16-H ) :   0.9653 B(  5-C , 17-H ) :   0.9335 B(  6-C , 18-H ) :   0.9665
B(  6-C , 19-H ) :   0.9352 B(  6-C , 20-H ) :   0.9676

FINAL SINGLE POINT ENERGY      -307.786729283882

DIPOLE MOMENT
-------------
                                X             Y             Z
Electronic contribution:      0.29008      -0.25951       1.26100
Nuclear contribution   :     -0.28278       0.11316      -1.15197
                        -----------------------------------------
Total Dipole Moment    :      0.00730      -0.14635       0.10903
                        -----------------------------------------
Magnitude (a.u.)       :      0.18264
Magnitude (Debye)      :      0.46424

                             ****ORCA TERMINATED NORMALLY****
TOTAL RUN TIME: 0 days 0 hours 0 minutes 8 seconds 621 msec
