                         Program Version 3.0.3 - RELEASE   -
|  1> ! RI PBE def2-SVP def2-SVP/J NBO PAL2
|  2> % maxcore 2000
|  3> % output
|  4>     # printlevel mini
|  5>     print[ P_Basis ] 0
|  6>     print[ P_SCFInfo ] 1
|  7>     print[ P_SCFIterInfo ] 1
|  8>     print[ P_OrbEn ] 0
|  9>     print[ P_Cartesian ] 0
| 10> end
| 11> *xyz 0 1
| 12>  C        0.9832300000    -0.3278030000    -0.1882070000
| 13>  N        2.3717160000     0.0327320000    -0.0109840000
| 14>  C        3.1004600000     0.4290460000    -1.1879410000
| 15>  C        3.0918430000    -0.3070940000     1.0982920000
| 16>  N        4.3551710000    -0.2973000000     1.2756340000
| 17>  C        2.2982460000    -0.6967750000     2.2542230000
| 18>  N        1.6800920000    -1.0103040000     3.1711030000
| 19>  H        0.4405150000     0.5036310000    -0.6440070000
| 20>  H        0.5244860000    -0.5469710000     0.7743160000
| 21>  H        0.8740380000    -1.2093930000    -0.8311150000
| 22>  H        2.3992550000     0.8406550000    -1.9130100000
| 23>  H        3.6285330000    -0.4116720000    -1.6568950000
| 24>  H        3.8296340000     1.2064360000    -0.9458320000
| 25>  H        4.8579920000    -0.0437780000     0.4291330000
| 26> *
| 27>
| 28>                          ****END OF INPUT****
 Total Charge           Charge          ....    0
 Multiplicity           Mult            ....    1
 Number of Electrons    NEL             ....   52
 Basis Dimension        Dim             ....  133

MULLIKEN ATOMIC CHARGES
-----------------------
   0 C :    0.082276
   1 N :   -0.262169
   2 C :    0.088430
   3 C :   -0.118376
   4 N :   -0.066696
   5 C :   -0.125368
   6 N :    0.053588
   7 H :    0.040198
   8 H :    0.063543
   9 H :    0.037625
  10 H :    0.037818
  11 H :    0.040368
  12 H :    0.046623
  13 H :    0.082138
Sum of atomic charges:    0.0000000

LOEWDIN ATOMIC CHARGES
----------------------
   0 C :    0.021073
   1 N :   -0.033363
   2 C :    0.012799
   3 C :   -0.031177
   4 N :   -0.123853
   5 C :   -0.034235
   6 N :   -0.041864
   7 H :    0.028944
   8 H :    0.042298
   9 H :    0.024039
  10 H :    0.035874
  11 H :    0.024789
  12 H :    0.031436
  13 H :    0.043240

  Mayer bond orders larger than 0.1
B(  0-C ,  1-N ) :   0.9983 B(  0-C ,  7-H ) :   0.9605 B(  0-C ,  8-H ) :   0.9482
B(  0-C ,  9-H ) :   0.9599 B(  1-N ,  2-C ) :   0.9983 B(  1-N ,  3-C ) :   1.1780
B(  1-N ,  4-N ) :   0.1291 B(  2-C , 10-H ) :   0.9582 B(  2-C , 11-H ) :   0.9581
B(  2-C , 12-H ) :   0.9547 B(  3-C ,  4-N ) :   2.0061 B(  3-C ,  5-C ) :   0.9969
B(  4-N , 13-H ) :   0.9248 B(  5-C ,  6-N ) :   3.0105

FINAL SINGLE POINT ENERGY      -320.219530417423

DIPOLE MOMENT
-------------
                                X             Y             Z
Electronic contribution:      0.97284      -1.69855       7.79037
Nuclear contribution   :     -1.25022       2.23323      -9.96092
                        -----------------------------------------
Total Dipole Moment    :     -0.27738       0.53468      -2.17055
                        -----------------------------------------
Magnitude (a.u.)       :      2.25258
Magnitude (Debye)      :      5.72559

                             ****ORCA TERMINATED NORMALLY****
TOTAL RUN TIME: 0 days 0 hours 0 minutes 6 seconds 666 msec
