                         Program Version 3.0.3 - RELEASE   -
|  1> ! RI PBE def2-SVP def2-SVP/J NBO PAL2
|  2> % maxcore 2000
|  3> % output
|  4>     # printlevel mini
|  5>     print[ P_Basis ] 0
|  6>     print[ P_SCFInfo ] 1
|  7>     print[ P_SCFIterInfo ] 1
|  8>     print[ P_OrbEn ] 0
|  9>     print[ P_Cartesian ] 0
| 10> end
| 11> *xyz 0 1
| 12>  C        1.2101390000     0.1048190000    -0.0998190000
| 13>  N        2.6009270000    -0.2728840000    -0.1376840000
| 14>  C        3.2291560000    -0.6250950000     1.1050540000
| 15>  C        3.3186420000     0.4921150000     2.0577190000
| 16>  N        3.3585410000     1.3765290000     2.7905010000
| 17>  C        3.3908080000     0.1174570000    -1.1942000000
| 18>  N        3.0622100000     0.7129020000    -2.2622010000
| 19>  H        0.7040340000    -0.4637520000     0.6812890000
| 20>  H        0.7348310000    -0.1386950000    -1.0519340000
| 21>  H        1.0690020000     1.1733950000     0.1030770000
| 22>  H        4.2397790000    -0.9910770000     0.9076960000
| 23>  H        2.6823760000    -1.4385770000     1.5930670000
| 24>  H        4.4349850000    -0.1780440000    -1.0658670000
| 25>  H        2.0783610000     0.9736960000    -2.2821080000
| 26> *
| 27>
| 28>                          ****END OF INPUT****
 Total Charge           Charge          ....    0
 Multiplicity           Mult            ....    1
 Number of Electrons    NEL             ....   52
 Basis Dimension        Dim             ....  133

MULLIKEN ATOMIC CHARGES
-----------------------
   0 C :    0.069861
   1 N :   -0.260789
   2 C :    0.179436
   3 C :   -0.274046
   4 N :    0.051854
   5 C :    0.014922
   6 N :   -0.127322
   7 H :    0.033840
   8 H :    0.048464
   9 H :    0.051870
  10 H :    0.061527
  11 H :    0.063884
  12 H :    0.010695
  13 H :    0.075803
Sum of atomic charges:    0.0000000

LOEWDIN ATOMIC CHARGES
----------------------
   0 C :    0.011922
   1 N :   -0.045396
   2 C :    0.014084
   3 C :   -0.063739
   4 N :   -0.047868
   5 C :    0.018581
   6 N :   -0.147647
   7 H :    0.034097
   8 H :    0.031838
   9 H :    0.026929
  10 H :    0.058625
  11 H :    0.052344
  12 H :    0.015532
  13 H :    0.040700

  Mayer bond orders larger than 0.1
B(  0-C ,  1-N ) :   0.9964 B(  0-C ,  7-H ) :   0.9579 B(  0-C ,  8-H ) :   0.9579
B(  0-C ,  9-H ) :   0.9586 B(  1-N ,  2-C ) :   1.0760 B(  1-N ,  5-C ) :   1.1007
B(  2-C ,  3-C ) :   1.0518 B(  2-C , 10-H ) :   0.8904 B(  2-C , 11-H ) :   0.9130
B(  3-C ,  4-N ) :   3.0711 B(  5-C ,  6-N ) :   2.0174 B(  5-C , 12-H ) :   0.9339
B(  6-N , 13-H ) :   0.9478

FINAL SINGLE POINT ENERGY      -320.217894085976

DIPOLE MOMENT
-------------
                                X             Y             Z
Electronic contribution:      3.01230       1.47622       3.00754
Nuclear contribution   :     -3.72584      -2.71225      -2.86000
                        -----------------------------------------
Total Dipole Moment    :     -0.71354      -1.23603       0.14754
                        -----------------------------------------
Magnitude (a.u.)       :      1.43481
Magnitude (Debye)      :      3.64699

                             ****ORCA TERMINATED NORMALLY****
TOTAL RUN TIME: 0 days 0 hours 0 minutes 6 seconds 497 msec
