                         Program Version 3.0.3 - RELEASE   -
|  1> ! RI PBE def2-SVP def2-SVP/J NBO PAL2
|  2> % maxcore 2000
|  3> % output
|  4>     # printlevel mini
|  5>     print[ P_Basis ] 0
|  6>     print[ P_SCFInfo ] 1
|  7>     print[ P_SCFIterInfo ] 1
|  8>     print[ P_OrbEn ] 0
|  9>     print[ P_Cartesian ] 0
| 10> end
| 11> *xyz 0 1
| 12>  C        0.9642860000    -0.0065990000     0.1507760000
| 13>  N        2.4101540000    -0.1360680000     0.1358650000
| 14>  C        2.8715150000    -1.4653990000    -0.1802580000
| 15>  C        4.3338130000    -1.4877970000    -0.2956790000
| 16>  N        5.4778910000    -1.4943940000    -0.3858830000
| 17>  C        2.4280940000    -2.5084380000     0.7750940000
| 18>  N        2.0180010000    -3.2604250000     1.5409690000
| 19>  H        0.7117450000     1.0238990000     0.3996780000
| 20>  H        0.4625600000    -0.6741240000     0.8643310000
| 21>  H        0.5727600000    -0.2120640000    -0.8486320000
| 22>  H        2.8169610000     0.1724230000     1.0101920000
| 23>  H        2.4650200000    -1.7443240000    -1.1613830000
| 24> *
| 25>
| 26>                          ****END OF INPUT****
 Total Charge           Charge          ....    0
 Multiplicity           Mult            ....    1
 Number of Electrons    NEL             ....   50
 Basis Dimension        Dim             ....  123

MULLIKEN ATOMIC CHARGES
-----------------------
   0 C :    0.067567
   1 N :   -0.240106
   2 C :    0.143940
   3 C :   -0.209186
   4 N :    0.098399
   5 C :   -0.228970
   6 N :    0.058123
   7 H :    0.044181
   8 H :    0.034856
   9 H :    0.029790
  10 H :    0.129374
  11 H :    0.072033
Sum of atomic charges:   -0.0000000

LOEWDIN ATOMIC CHARGES
----------------------
   0 C :    0.000378
   1 N :   -0.059987
   2 C :   -0.023597
   3 C :   -0.031522
   4 N :   -0.023407
   5 C :   -0.056699
   6 N :   -0.033871
   7 H :    0.036096
   8 H :    0.015221
   9 H :    0.029497
  10 H :    0.070851
  11 H :    0.077039

  Mayer bond orders larger than 0.1
B(  0-C ,  1-N ) :   1.0458 B(  0-C ,  7-H ) :   0.9708 B(  0-C ,  8-H ) :   0.9483
B(  0-C ,  9-H ) :   0.9633 B(  1-N ,  2-C ) :   1.1248 B(  1-N , 10-H ) :   0.9305
B(  2-C ,  3-C ) :   1.0537 B(  2-C ,  5-C ) :   0.9410 B(  2-C , 11-H ) :   0.8451
B(  3-C ,  4-N ) :   3.0786 B(  5-C ,  6-N ) :   3.0660

FINAL SINGLE POINT ENERGY      -318.997660209366

DIPOLE MOMENT
-------------
                                X             Y             Z
Electronic contribution:      5.76052      -4.41504       0.55096
Nuclear contribution   :     -6.86997       5.34087      -0.92073
                        -----------------------------------------
Total Dipole Moment    :     -1.10945       0.92583      -0.36976
                        -----------------------------------------
Magnitude (a.u.)       :      1.49157
Magnitude (Debye)      :      3.79126

                             ****ORCA TERMINATED NORMALLY****
TOTAL RUN TIME: 0 days 0 hours 0 minutes 6 seconds 49 msec
