                         Program Version 3.0.3 - RELEASE   -
|  1> ! RI PBE def2-SVP def2-SVP/J NBO PAL2
|  2> % maxcore 2000
|  3> % output
|  4>     # printlevel mini
|  5>     print[ P_Basis ] 0
|  6>     print[ P_SCFInfo ] 1
|  7>     print[ P_SCFIterInfo ] 1
|  8>     print[ P_OrbEn ] 0
|  9>     print[ P_Cartesian ] 0
| 10> end
| 11> *xyz 0 1
| 12>  C        1.0585630000    -0.7469680000    -0.1190840000
| 13>  N        2.2679410000    -0.0306620000     0.2265480000
| 14>  C        2.8000460000    -0.2103530000     1.5589430000
| 15>  C        2.7576920000    -1.5980220000     1.9936840000
| 16>  N        2.7349710000    -2.6859170000     2.3620640000
| 17>  N        2.3211680000     1.1966390000    -0.3124140000
| 18>  C        3.0160580000     2.1358680000     0.1938770000
| 19>  H        1.2081400000    -1.8176750000     0.0183620000
| 20>  H        0.8467430000    -0.5433370000    -1.1665140000
| 21>  H        0.1974020000    -0.4268150000     0.4834480000
| 22>  H        2.2695840000     0.4078320000     2.3040200000
| 23>  H        3.8497030000     0.1019470000     1.5722140000
| 24>  H        3.0319500000     3.0721140000    -0.3511630000
| 25>  H        3.6012310000     2.0717490000     1.1110160000
| 26> *
| 27>
| 28>                          ****END OF INPUT****
 Total Charge           Charge          ....    0
 Multiplicity           Mult            ....    1
 Number of Electrons    NEL             ....   52
 Basis Dimension        Dim             ....  133

MULLIKEN ATOMIC CHARGES
-----------------------
   0 C :    0.107568
   1 N :   -0.258326
   2 C :    0.193826
   3 C :   -0.287983
   4 N :    0.071339
   5 N :   -0.062338
   6 C :   -0.056271
   7 H :    0.057746
   8 H :    0.046722
   9 H :    0.019711
  10 H :    0.049273
  11 H :    0.062545
  12 H :    0.039039
  13 H :    0.017149
Sum of atomic charges:    0.0000000

LOEWDIN ATOMIC CHARGES
----------------------
   0 C :    0.010302
   1 N :   -0.012353
   2 C :   -0.005352
   3 C :   -0.048243
   4 N :   -0.047821
   5 N :   -0.019896
   6 C :   -0.082485
   7 H :    0.033439
   8 H :    0.037175
   9 H :    0.015797
  10 H :    0.043747
  11 H :    0.058591
  12 H :    0.023151
  13 H :   -0.006051

  Mayer bond orders larger than 0.1
B(  0-C ,  1-N ) :   0.9972 B(  0-C ,  7-H ) :   0.9564 B(  0-C ,  8-H ) :   0.9605
B(  0-C ,  9-H ) :   0.9567 B(  1-N ,  2-C ) :   0.9859 B(  1-N ,  5-N ) :   1.1127
B(  1-N ,  6-C ) :   0.1389 B(  2-C ,  3-C ) :   1.1008 B(  2-C , 10-H ) :   0.8848
B(  2-C , 11-H ) :   0.8779 B(  3-C ,  4-N ) :   3.0376 B(  5-N ,  6-C ) :   1.8749
B(  6-C , 12-H ) :   0.9498 B(  6-C , 13-H ) :   0.9094

FINAL SINGLE POINT ENERGY      -320.180842927495

DIPOLE MOMENT
-------------
                                X             Y             Z
Electronic contribution:      1.68188      -3.34570       1.70145
Nuclear contribution   :     -1.70507       4.26921      -1.64779
                        -----------------------------------------
Total Dipole Moment    :     -0.02319       0.92350       0.05367
                        -----------------------------------------
Magnitude (a.u.)       :      0.92535
Magnitude (Debye)      :      2.35206

                             ****ORCA TERMINATED NORMALLY****
TOTAL RUN TIME: 0 days 0 hours 0 minutes 6 seconds 66 msec
