                         Program Version 3.0.3 - RELEASE   -
|  1> ! RI PBE def2-SVP def2-SVP/J NBO PAL2
|  2> % maxcore 2000
|  3> % output
|  4>     # printlevel mini
|  5>     print[ P_Basis ] 0
|  6>     print[ P_SCFInfo ] 1
|  7>     print[ P_SCFIterInfo ] 1
|  8>     print[ P_OrbEn ] 0
|  9>     print[ P_Cartesian ] 0
| 10> end
| 11> *xyz 0 1
| 12>  C        1.3965060000    -0.0921740000    -0.7002780000
| 13>  N        2.7506380000    -0.2328690000    -1.1609920000
| 14>  C        3.4722950000    -1.0949870000    -0.5877540000
| 15>  N        4.7499260000    -1.4124660000    -0.9974900000
| 16>  C        5.8938080000    -1.4127890000    -0.1199200000
| 17>  C        5.8010930000    -0.4612050000    -1.2654960000
| 18>  C        5.6123520000     1.0059650000    -1.0229300000
| 19>  H        0.7034300000    -0.2947780000    -1.5225970000
| 20>  H        1.2174230000     0.9405320000    -0.3860970000
| 21>  H        1.1418620000    -0.7588840000     0.1380540000
| 22>  H        3.1134330000    -1.7274800000     0.2383150000
| 23>  H        6.5355850000    -2.2864560000    -0.1742090000
| 24>  H        5.7725890000    -0.9871430000     0.8735070000
| 25>  H        6.3762350000    -0.7081350000    -2.1551060000
| 26>  H        5.0986590000     1.1916720000    -0.0787540000
| 27>  H        5.0162260000     1.4583750000    -1.8168300000
| 28>  H        6.5870280000     1.4996100000    -0.9902130000
| 29> *
| 30>
| 31>                          ****END OF INPUT****
 Total Charge           Charge          ....    0
 Multiplicity           Mult            ....    1
 Number of Electrons    NEL             ....   54
 Basis Dimension        Dim             ....  148

MULLIKEN ATOMIC CHARGES
-----------------------
   0 C :    0.076007
   1 N :   -0.199560
   2 C :    0.037561
   3 N :   -0.182574
   4 C :    0.075144
   5 C :   -0.102366
   6 C :    0.085730
   7 H :    0.031734
   8 H :    0.023947
   9 H :   -0.008571
  10 H :   -0.020649
  11 H :    0.041037
  12 H :    0.032115
  13 H :    0.028681
  14 H :    0.009348
  15 H :    0.046235
  16 H :    0.026180
Sum of atomic charges:   -0.0000000

LOEWDIN ATOMIC CHARGES
----------------------
   0 C :   -0.008848
   1 N :   -0.134772
   2 C :    0.014065
   3 N :   -0.053387
   4 C :    0.020732
   5 C :    0.018940
   6 C :   -0.063008
   7 H :    0.026394
   8 H :    0.023852
   9 H :    0.000286
  10 H :   -0.012401
  11 H :    0.022291
  12 H :    0.017268
  13 H :    0.025629
  14 H :    0.029671
  15 H :    0.039216
  16 H :    0.034070

  Mayer bond orders larger than 0.1
B(  0-C ,  1-N ) :   1.0543 B(  0-C ,  7-H ) :   0.9608 B(  0-C ,  8-H ) :   0.9622
B(  0-C ,  9-H ) :   0.9395 B(  1-N ,  2-C ) :   1.8509 B(  2-C ,  3-N ) :   1.1285
B(  2-C , 10-H ) :   0.9275 B(  3-N ,  4-C ) :   0.9500 B(  3-N ,  5-C ) :   0.9416
B(  4-C ,  5-C ) :   1.0284 B(  4-C , 11-H ) :   0.9426 B(  4-C , 12-H ) :   0.9390
B(  5-C ,  6-C ) :   1.1038 B(  5-C , 13-H ) :   0.9336 B(  6-C , 14-H ) :   0.9399
B(  6-C , 15-H ) :   0.9508 B(  6-C , 16-H ) :   0.9501

FINAL SINGLE POINT ENERGY      -305.376966802106

DIPOLE MOMENT
-------------
                                X             Y             Z
Electronic contribution:      0.91347      -3.10133      -1.61590
Nuclear contribution   :     -0.51938       3.15085       2.18609
                        -----------------------------------------
Total Dipole Moment    :      0.39410       0.04951       0.57019
                        -----------------------------------------
Magnitude (a.u.)       :      0.69489
Magnitude (Debye)      :      1.76628

                             ****ORCA TERMINATED NORMALLY****
TOTAL RUN TIME: 0 days 0 hours 0 minutes 7 seconds 729 msec
