                         Program Version 3.0.3 - RELEASE   -
|  1> ! RI PBE def2-SVP def2-SVP/J NBO PAL2
|  2> % maxcore 2000
|  3> % output
|  4>     # printlevel mini
|  5>     print[ P_Basis ] 0
|  6>     print[ P_SCFInfo ] 1
|  7>     print[ P_SCFIterInfo ] 1
|  8>     print[ P_OrbEn ] 0
|  9>     print[ P_Cartesian ] 0
| 10> end
| 11> *xyz 0 1
| 12>  C        1.5213180000     1.4553010000    -0.7895180000
| 13>  N        2.8265930000     1.5415990000    -0.1923520000
| 14>  C        3.1899470000     0.5969230000     0.5589190000
| 15>  N        4.3770100000     0.6072280000     1.2730990000
| 16>  C        5.4584080000    -0.2896760000     0.9088910000
| 17>  C        5.5706920000     1.1806800000     0.7062880000
| 18>  C        6.4168640000     2.0434830000     1.5910680000
| 19>  H        0.9085960000     2.2989910000    -0.4579790000
| 20>  H        0.9852270000     0.5241970000    -0.5519270000
| 21>  H        1.6089530000     1.5383690000    -1.8765230000
| 22>  H        2.5720840000    -0.2902240000     0.7580050000
| 23>  H        5.3236450000    -0.9104130000     0.0273530000
| 24>  H        5.9752920000    -0.7630980000     1.7376600000
| 25>  H        5.4609940000     1.5209230000    -0.3205920000
| 26>  H        7.4388760000     2.1027470000     1.2083700000
| 27>  H        6.0121420000     3.0569990000     1.6381130000
| 28>  H        6.4487600000     1.6418710000     2.6057160000
| 29> *
| 30>
| 31>                          ****END OF INPUT****
 Total Charge           Charge          ....    0
 Multiplicity           Mult            ....    1
 Number of Electrons    NEL             ....   54
 Basis Dimension        Dim             ....  148

MULLIKEN ATOMIC CHARGES
-----------------------
   0 C :    0.065467
   1 N :   -0.188775
   2 C :    0.038892
   3 N :   -0.204777
   4 C :    0.086485
   5 C :   -0.093689
   6 C :    0.075532
   7 H :    0.033555
   8 H :   -0.002751
   9 H :    0.033697
  10 H :   -0.015927
  11 H :    0.036628
  12 H :    0.030958
  13 H :    0.026689
  14 H :    0.026379
  15 H :    0.038473
  16 H :    0.013164
Sum of atomic charges:    0.0000000

LOEWDIN ATOMIC CHARGES
----------------------
   0 C :   -0.010365
   1 N :   -0.126825
   2 C :    0.017921
   3 N :   -0.065838
   4 C :    0.022646
   5 C :    0.015424
   6 C :   -0.061053
   7 H :    0.027873
   8 H :    0.002493
   9 H :    0.026931
  10 H :   -0.009866
  11 H :    0.019530
  12 H :    0.020212
  13 H :    0.018813
  14 H :    0.032854
  15 H :    0.037419
  16 H :    0.031830

  Mayer bond orders larger than 0.1
B(  0-C ,  1-N ) :   1.0478 B(  0-C ,  7-H ) :   0.9599 B(  0-C ,  8-H ) :   0.9401
B(  0-C ,  9-H ) :   0.9631 B(  1-N ,  2-C ) :   1.8763 B(  2-C ,  3-N ) :   1.1240
B(  2-C , 10-H ) :   0.9294 B(  3-N ,  4-C ) :   0.9409 B(  3-N ,  5-C ) :   0.9151
B(  4-C ,  5-C ) :   1.0412 B(  4-C , 11-H ) :   0.9376 B(  4-C , 12-H ) :   0.9391
B(  5-C ,  6-C ) :   1.1048 B(  5-C , 13-H ) :   0.9258 B(  6-C , 14-H ) :   0.9545
B(  6-C , 15-H ) :   0.9559 B(  6-C , 16-H ) :   0.9455

FINAL SINGLE POINT ENERGY      -305.379609511268

DIPOLE MOMENT
-------------
                                X             Y             Z
Electronic contribution:     -0.66093      -0.87219       0.70777
Nuclear contribution   :      0.88526       0.42294      -0.84964
                        -----------------------------------------
Total Dipole Moment    :      0.22433      -0.44926      -0.14186
                        -----------------------------------------
Magnitude (a.u.)       :      0.52181
Magnitude (Debye)      :      1.32633

                             ****ORCA TERMINATED NORMALLY****
TOTAL RUN TIME: 0 days 0 hours 0 minutes 7 seconds 814 msec
