                         Program Version 3.0.3 - RELEASE   -
|  1> ! RI PBE def2-SVP def2-SVP/J NBO PAL2
|  2> % maxcore 2000
|  3> % output
|  4>     # printlevel mini
|  5>     print[ P_Basis ] 0
|  6>     print[ P_SCFInfo ] 1
|  7>     print[ P_SCFIterInfo ] 1
|  8>     print[ P_OrbEn ] 0
|  9>     print[ P_Cartesian ] 0
| 10> end
| 11> *xyz 0 1
| 12>  C        0.5918910000    -0.6257600000     0.8821330000
| 13>  N        1.9691000000    -0.4504910000     0.5132400000
| 14>  C        2.8471440000    -0.9489080000     1.2736830000
| 15>  N        4.1887120000    -0.7812020000     1.0683210000
| 16>  C        5.1408980000    -1.6798850000     1.6245660000
| 17>  C        6.4306230000    -1.1093870000     2.1222180000
| 18>  C        5.4094650000    -1.6064580000     3.0970630000
| 19>  H        0.0450200000    -1.1083330000     0.0661580000
| 20>  H        0.1188200000     0.3483370000     1.0438050000
| 21>  H        0.4515600000    -1.2280260000     1.7935570000
| 22>  H        2.6114970000    -1.5280330000     2.1779160000
| 23>  H        4.4187790000    -0.3591260000     0.1805780000
| 24>  H        5.1953870000    -2.6713080000     1.1766700000
| 25>  H        6.5526070000    -0.0371860000     2.0355510000
| 26>  H        7.3323920000    -1.6890810000     1.9733060000
| 27>  H        4.8567770000    -0.8646870000     3.6590010000
| 28>  H        5.6017170000    -2.5326550000     3.6231530000
| 29> *
| 30>
| 31>                          ****END OF INPUT****
 Total Charge           Charge          ....    0
 Multiplicity           Mult            ....    1
 Number of Electrons    NEL             ....   54
 Basis Dimension        Dim             ....  148

MULLIKEN ATOMIC CHARGES
-----------------------
   0 C :    0.073550
   1 N :   -0.206956
   2 C :    0.022909
   3 N :   -0.090452
   4 C :   -0.053865
   5 C :   -0.026291
   6 C :   -0.038278
   7 H :    0.025962
   8 H :    0.024188
   9 H :   -0.011281
  10 H :   -0.022252
  11 H :    0.110920
  12 H :    0.028126
  13 H :    0.040198
  14 H :    0.035494
  15 H :    0.046471
  16 H :    0.041558
Sum of atomic charges:    0.0000000

LOEWDIN ATOMIC CHARGES
----------------------
   0 C :   -0.010195
   1 N :   -0.158344
   2 C :    0.019665
   3 N :   -0.002186
   4 C :    0.001130
   5 C :   -0.045752
   6 C :   -0.046399
   7 H :    0.022287
   8 H :    0.022367
   9 H :   -0.000841
  10 H :   -0.010718
  11 H :    0.072486
  12 H :    0.014701
  13 H :    0.030888
  14 H :    0.029062
  15 H :    0.032087
  16 H :    0.029760

  Mayer bond orders larger than 0.1
B(  0-C ,  1-N ) :   1.0567 B(  0-C ,  7-H ) :   0.9639 B(  0-C ,  8-H ) :   0.9609
B(  0-C ,  9-H ) :   0.9391 B(  1-N ,  2-C ) :   1.8551 B(  2-C ,  3-N ) :   1.1719
B(  2-C , 10-H ) :   0.9203 B(  3-N ,  4-C ) :   1.0579 B(  3-N , 11-H ) :   0.9244
B(  4-C ,  5-C ) :   0.9982 B(  4-C ,  6-C ) :   0.9910 B(  4-C , 12-H ) :   0.9365
B(  5-C ,  6-C ) :   1.0447 B(  5-C , 13-H ) :   0.9492 B(  5-C , 14-H ) :   0.9454
B(  6-C , 15-H ) :   0.9472 B(  6-C , 16-H ) :   0.9496

FINAL SINGLE POINT ENERGY      -305.389604239604

DIPOLE MOMENT
-------------
                                X             Y             Z
Electronic contribution:      0.94618       0.91074      -2.12341
Nuclear contribution   :     -0.39335      -1.31598       2.46739
                        -----------------------------------------
Total Dipole Moment    :      0.55283      -0.40523       0.34397
                        -----------------------------------------
Magnitude (a.u.)       :      0.76691
Magnitude (Debye)      :      1.94933

                             ****ORCA TERMINATED NORMALLY****
TOTAL RUN TIME: 0 days 0 hours 0 minutes 7 seconds 15 msec
