                         Program Version 3.0.3 - RELEASE   -
|  1> ! RI PBE def2-SVP def2-SVP/J NBO PAL2
|  2> % maxcore 2000
|  3> % output
|  4>     # printlevel mini
|  5>     print[ P_Basis ] 0
|  6>     print[ P_SCFInfo ] 1
|  7>     print[ P_SCFIterInfo ] 1
|  8>     print[ P_OrbEn ] 0
|  9>     print[ P_Cartesian ] 0
| 10> end
| 11> *xyz 0 1
| 12>  C        0.7913570000     0.0470280000    -0.1932440000
| 13>  N        2.2272020000    -0.1059160000    -0.2033480000
| 14>  C        2.7576340000    -1.3492770000    -0.4568720000
| 15>  N        3.9147560000    -1.8020170000    -0.1978320000
| 16>  C        2.9802890000     0.8294600000     0.5602980000
| 17>  C        4.2077210000     1.4372420000    -0.0489680000
| 18>  C        2.9745320000     2.2634610000     0.1312440000
| 19>  H        0.3433550000    -0.6844040000    -0.8672780000
| 20>  H        0.5128720000     1.0448740000    -0.5374870000
| 21>  H        0.3629930000    -0.1011240000     0.8069580000
| 22>  H        2.0534910000    -1.9987940000    -0.9823900000
| 23>  H        4.4770370000    -1.1168630000     0.3043690000
| 24>  H        3.0104460000     0.6431190000     1.6345350000
| 25>  H        4.4556960000     1.1257240000    -1.0552320000
| 26>  H        5.0569800000     1.6208510000     0.5971150000
| 27>  H        2.4105220000     2.5105980000    -0.7593260000
| 28>  H        2.9630150000     3.0222260000     0.9030680000
| 29> *
| 30>
| 31>                          ****END OF INPUT****
 Total Charge           Charge          ....    0
 Multiplicity           Mult            ....    1
 Number of Electrons    NEL             ....   54
 Basis Dimension        Dim             ....  148

MULLIKEN ATOMIC CHARGES
-----------------------
   0 C :    0.110192
   1 N :   -0.212860
   2 C :    0.001739
   3 N :   -0.141913
   4 C :   -0.085330
   5 C :   -0.025578
   6 C :   -0.027074
   7 H :    0.035729
   8 H :    0.021765
   9 H :    0.022186
  10 H :    0.003053
  11 H :    0.077604
  12 H :    0.037121
  13 H :    0.054088
  14 H :    0.041551
  15 H :    0.045213
  16 H :    0.042517
Sum of atomic charges:   -0.0000000

LOEWDIN ATOMIC CHARGES
----------------------
   0 C :    0.020923
   1 N :   -0.047743
   2 C :    0.013042
   3 N :   -0.162230
   4 C :   -0.001228
   5 C :   -0.042718
   6 C :   -0.042860
   7 H :    0.029437
   8 H :    0.021574
   9 H :    0.016403
  10 H :    0.010828
  11 H :    0.037828
  12 H :    0.017117
  13 H :    0.036191
  14 H :    0.030415
  15 H :    0.031601
  16 H :    0.031419

  Mayer bond orders larger than 0.1
B(  0-C ,  1-N ) :   1.0024 B(  0-C ,  7-H ) :   0.9604 B(  0-C ,  8-H ) :   0.9638
B(  0-C ,  9-H ) :   0.9586 B(  1-N ,  2-C ) :   1.1139 B(  1-N ,  3-N ) :   0.1002
B(  1-N ,  4-C ) :   1.0223 B(  2-C ,  3-N ) :   2.0051 B(  2-C , 10-H ) :   0.9386
B(  3-N , 11-H ) :   0.9509 B(  4-C ,  5-C ) :   0.9931 B(  4-C ,  6-C ) :   1.0004
B(  4-C , 12-H ) :   0.9328 B(  5-C ,  6-C ) :   1.0365 B(  5-C , 13-H ) :   0.9495
B(  5-C , 14-H ) :   0.9458 B(  6-C , 15-H ) :   0.9439 B(  6-C , 16-H ) :   0.9425

FINAL SINGLE POINT ENERGY      -305.385336979220

DIPOLE MOMENT
-------------
                                X             Y             Z
Electronic contribution:      1.66284      -2.81593      -0.32154
Nuclear contribution   :     -2.37296       3.94269       0.58154
                        -----------------------------------------
Total Dipole Moment    :     -0.71012       1.12677       0.26000
                        -----------------------------------------
Magnitude (a.u.)       :      1.35701
Magnitude (Debye)      :      3.44924

                             ****ORCA TERMINATED NORMALLY****
TOTAL RUN TIME: 0 days 0 hours 0 minutes 7 seconds 785 msec
