                         Program Version 3.0.3 - RELEASE   -
|  1> ! RI PBE def2-SVP def2-SVP/J NBO PAL2
|  2> % maxcore 2000
|  3> % output
|  4>     # printlevel mini
|  5>     print[ P_Basis ] 0
|  6>     print[ P_SCFInfo ] 1
|  7>     print[ P_SCFIterInfo ] 1
|  8>     print[ P_OrbEn ] 0
|  9>     print[ P_Cartesian ] 0
| 10> end
| 11> *xyz 0 1
| 12>  C        0.6567760000    -0.1742220000     0.3732870000
| 13>  N        2.0604990000    -0.1516940000     0.0755510000
| 14>  C        3.0157530000    -0.2125540000     1.0516320000
| 15>  N        2.8103700000    -0.4076560000     2.2970650000
| 16>  C        4.4053390000    -0.0463310000     0.5498700000
| 17>  C        5.3894670000     0.7070260000     1.4039440000
| 18>  C        5.5162060000    -0.7670450000     1.2606350000
| 19>  H        0.0933370000    -0.0909060000    -0.5555380000
| 20>  H        0.3562340000     0.6484250000     1.0344420000
| 21>  H        0.3721710000    -1.1165800000     0.8520690000
| 22>  H        2.3447880000     0.1764580000    -0.8292160000
| 23>  H        1.8224080000    -0.4892200000     2.5175120000
| 24>  H        4.5052290000     0.0633310000    -0.5248140000
| 25>  H        4.9986990000     1.0777880000     2.3428970000
| 26>  H        6.1047790000     1.3448040000     0.8995720000
| 27>  H        5.2068800000    -1.3708670000     2.1040020000
| 28>  H        6.3208550000    -1.1652460000     0.6551990000
| 29> *
| 30>
| 31>                          ****END OF INPUT****
 Total Charge           Charge          ....    0
 Multiplicity           Mult            ....    1
 Number of Electrons    NEL             ....   54
 Basis Dimension        Dim             ....  148

MULLIKEN ATOMIC CHARGES
-----------------------
   0 C :    0.061607
   1 N :   -0.124258
   2 C :   -0.096565
   3 N :   -0.123565
   4 C :   -0.100994
   5 C :   -0.006889
   6 C :   -0.013794
   7 H :    0.024762
   8 H :    0.033250
   9 H :    0.038352
  10 H :    0.101356
  11 H :    0.063018
  12 H :   -0.012990
  13 H :    0.045272
  14 H :    0.030101
  15 H :    0.051192
  16 H :    0.030146
Sum of atomic charges:   -0.0000000

LOEWDIN ATOMIC CHARGES
----------------------
   0 C :    0.000782
   1 N :   -0.019014
   2 C :    0.012465
   3 N :   -0.190326
   4 C :   -0.063041
   5 C :   -0.026753
   6 C :   -0.027070
   7 H :    0.031397
   8 H :    0.018414
   9 H :    0.024822
  10 H :    0.067888
  11 H :    0.034543
  12 H :    0.021031
  13 H :    0.031916
  14 H :    0.024457
  15 H :    0.033635
  16 H :    0.024853

  Mayer bond orders larger than 0.1
B(  0-C ,  1-N ) :   1.0349 B(  0-C ,  7-H ) :   0.9649 B(  0-C ,  8-H ) :   0.9580
B(  0-C ,  9-H ) :   0.9596 B(  1-N ,  2-C ) :   1.2025 B(  1-N , 10-H ) :   0.9199
B(  2-C ,  3-N ) :   1.9718 B(  2-C ,  4-C ) :   1.0070 B(  3-N , 11-H ) :   0.9337
B(  4-C ,  5-C ) :   0.9751 B(  4-C ,  6-C ) :   0.9863 B(  4-C , 12-H ) :   0.9241
B(  5-C ,  6-C ) :   1.0592 B(  5-C , 13-H ) :   0.9386 B(  5-C , 14-H ) :   0.9485
B(  6-C , 15-H ) :   0.9356 B(  6-C , 16-H ) :   0.9476

FINAL SINGLE POINT ENERGY      -305.401110683025

DIPOLE MOMENT
-------------
                                X             Y             Z
Electronic contribution:      0.64579      -0.28511       0.20713
Nuclear contribution   :     -1.28256       0.53746      -1.34873
                        -----------------------------------------
Total Dipole Moment    :     -0.63677       0.25234      -1.14160
                        -----------------------------------------
Magnitude (a.u.)       :      1.33131
Magnitude (Debye)      :      3.38393

                             ****ORCA TERMINATED NORMALLY****
TOTAL RUN TIME: 0 days 0 hours 0 minutes 7 seconds 457 msec
