                         Program Version 3.0.3 - RELEASE   -
|  1> ! RI PBE def2-SVP def2-SVP/J NBO PAL2
|  2> % maxcore 2000
|  3> % output
|  4>     # printlevel mini
|  5>     print[ P_Basis ] 0
|  6>     print[ P_SCFInfo ] 1
|  7>     print[ P_SCFIterInfo ] 1
|  8>     print[ P_OrbEn ] 0
|  9>     print[ P_Cartesian ] 0
| 10> end
| 11> *xyz 0 1
| 12>  C        1.0144420000    -0.0467320000     0.1074320000
| 13>  N        2.4435620000     0.0905420000     0.1586600000
| 14>  C        3.1395070000    -0.8888540000    -0.2294010000
| 15>  N        4.5127190000    -0.8968240000    -0.2354240000
| 16>  C        5.2480340000     0.2561710000     0.2186070000
| 17>  C        5.1918060000    -2.0110640000    -0.6763530000
| 18>  C        6.5160190000    -2.1591030000    -0.7373410000
| 19>  H        0.5874810000     0.7365360000    -0.5263040000
| 20>  H        0.5909130000     0.0913880000     1.1069250000
| 21>  H        0.6769870000    -1.0214640000    -0.2768830000
| 22>  H        2.7067170000    -1.8277710000    -0.5992170000
| 23>  H        4.5317030000     1.0160810000     0.5207200000
| 24>  H        5.8816500000     0.6440460000    -0.5844710000
| 25>  H        5.8855820000    -0.0090040000     1.0671720000
| 26>  H        4.5377650000    -2.8175800000    -0.9934120000
| 27>  H        7.2107090000    -1.3874280000    -0.4342860000
| 28>  H        6.9272010000    -3.0883300000    -1.1048140000
| 29> *
| 30>
| 31>                          ****END OF INPUT****
 Total Charge           Charge          ....    0
 Multiplicity           Mult            ....    1
 Number of Electrons    NEL             ....   54
 Basis Dimension        Dim             ....  148

MULLIKEN ATOMIC CHARGES
-----------------------
   0 C :    0.080404
   1 N :   -0.205058
   2 C :    0.058487
   3 N :   -0.186485
   4 C :    0.080912
   5 C :    0.061571
   6 C :   -0.102298
   7 H :    0.031417
   8 H :    0.028796
   9 H :   -0.008547
  10 H :   -0.013852
  11 H :    0.049172
  12 H :    0.038661
  13 H :    0.038695
  14 H :    0.007319
  15 H :    0.021777
  16 H :    0.019028
Sum of atomic charges:   -0.0000000

LOEWDIN ATOMIC CHARGES
----------------------
   0 C :   -0.004924
   1 N :   -0.142366
   2 C :    0.028523
   3 N :    0.017577
   4 C :    0.020881
   5 C :    0.005607
   6 C :   -0.139063
   7 H :    0.025774
   8 H :    0.025233
   9 H :    0.001836
  10 H :   -0.004914
  11 H :    0.033086
  12 H :    0.028226
  13 H :    0.028170
  14 H :    0.025855
  15 H :    0.021694
  16 H :    0.028805

  Mayer bond orders larger than 0.1
B(  0-C ,  1-N ) :   1.0514 B(  0-C ,  7-H ) :   0.9629 B(  0-C ,  8-H ) :   0.9625
B(  0-C ,  9-H ) :   0.9400 B(  1-N ,  2-C ) :   1.8219 B(  2-C ,  3-N ) :   1.1252
B(  2-C , 10-H ) :   0.9232 B(  3-N ,  4-C ) :   1.0023 B(  3-N ,  5-C ) :   1.1214
B(  4-C , 11-H ) :   0.9418 B(  4-C , 12-H ) :   0.9610 B(  4-C , 13-H ) :   0.9607
B(  5-C ,  6-C ) :   1.8704 B(  5-C , 14-H ) :   0.9463 B(  6-C , 15-H ) :   0.9490
B(  6-C , 16-H ) :   0.9324

FINAL SINGLE POINT ENERGY      -305.400345355012

DIPOLE MOMENT
-------------
                                X             Y             Z
Electronic contribution:      0.18045      -0.42927      -0.17116
Nuclear contribution   :     -0.27230       0.20018       0.08059
                        -----------------------------------------
Total Dipole Moment    :     -0.09186      -0.22909      -0.09057
                        -----------------------------------------
Magnitude (a.u.)       :      0.26291
Magnitude (Debye)      :      0.66827

                             ****ORCA TERMINATED NORMALLY****
TOTAL RUN TIME: 0 days 0 hours 0 minutes 7 seconds 601 msec
