                         Program Version 3.0.3 - RELEASE   -
|  1> ! RI PBE def2-SVP def2-SVP/J NBO PAL2
|  2> % maxcore 2000
|  3> % output
|  4>     # printlevel mini
|  5>     print[ P_Basis ] 0
|  6>     print[ P_SCFInfo ] 1
|  7>     print[ P_SCFIterInfo ] 1
|  8>     print[ P_OrbEn ] 0
|  9>     print[ P_Cartesian ] 0
| 10> end
| 11> *xyz 0 1
| 12>  C        3.2896390000    -2.2582130000     1.0922220000
| 13>  N        3.9397900000    -1.0212750000     0.7626750000
| 14>  C        4.2978560000    -0.8511080000    -0.4400300000
| 15>  N        4.9203470000     0.2689620000    -0.8831580000
| 16>  C        5.3442110000     0.4994770000    -2.2437960000
| 17>  C        4.6230740000     1.6954360000    -2.8528840000
| 18>  C        6.8570160000     0.6570720000    -2.3330350000
| 19>  H        3.8531970000    -2.7877550000     1.8676530000
| 20>  H        3.1733130000    -2.9390010000     0.2332700000
| 21>  H        2.2942070000    -2.0647330000     1.5057230000
| 22>  H        4.1328360000    -1.6017890000    -1.2283420000
| 23>  H        5.0912900000     0.9828460000    -0.1922560000
| 24>  H        5.0575620000    -0.3974150000    -2.8034570000
| 25>  H        4.8653280000     2.6096700000    -2.3025050000
| 26>  H        3.5411110000     1.5565540000    -2.8174640000
| 27>  H        4.9217530000     1.8451140000    -3.8932180000
| 28>  H        7.1852570000     1.5313780000    -1.7627090000
| 29>  H        7.1761600000     0.7971470000    -3.3686210000
| 30>  H        7.3640320000    -0.2203580000    -1.9277680000
| 31> *
| 32>
| 33>                          ****END OF INPUT****
 Total Charge           Charge          ....    0
 Multiplicity           Mult            ....    1
 Number of Electrons    NEL             ....   56
 Basis Dimension        Dim             ....  158

MULLIKEN ATOMIC CHARGES
-----------------------
   0 C :    0.073581
   1 N :   -0.218863
   2 C :    0.010546
   3 N :   -0.106449
   4 C :   -0.044127
   5 C :    0.014228
   6 C :    0.027484
   7 H :    0.021327
   8 H :   -0.013419
   9 H :    0.020193
  10 H :   -0.028817
  11 H :    0.104993
  12 H :    0.013401
  13 H :    0.015186
  14 H :    0.030955
  15 H :    0.020865
  16 H :    0.014305
  17 H :    0.019497
  18 H :    0.025115
Sum of atomic charges:   -0.0000000

LOEWDIN ATOMIC CHARGES
----------------------
   0 C :   -0.011070
   1 N :   -0.173681
   2 C :    0.013521
   3 N :    0.009512
   4 C :    0.010911
   5 C :   -0.067774
   6 C :   -0.065120
   7 H :    0.019711
   8 H :   -0.002588
   9 H :    0.020001
  10 H :   -0.014044
  11 H :    0.070492
  12 H :    0.026144
  13 H :    0.024812
  14 H :    0.029397
  15 H :    0.028638
  16 H :    0.024522
  17 H :    0.028175
  18 H :    0.028441

  Mayer bond orders larger than 0.1
B(  0-C ,  1-N ) :   1.0621 B(  0-C ,  7-H ) :   0.9624 B(  0-C ,  8-H ) :   0.9385
B(  0-C ,  9-H ) :   0.9615 B(  1-N ,  2-C ) :   1.8285 B(  2-C ,  3-N ) :   1.2069
B(  2-C , 10-H ) :   0.9136 B(  3-N ,  4-C ) :   1.0001 B(  3-N , 11-H ) :   0.9272
B(  4-C ,  5-C ) :   1.0857 B(  4-C ,  6-C ) :   1.0828 B(  4-C , 12-H ) :   0.9089
B(  5-C , 13-H ) :   0.9577 B(  5-C , 14-H ) :   0.9597 B(  5-C , 15-H ) :   0.9557
B(  6-C , 16-H ) :   0.9588 B(  6-C , 17-H ) :   0.9580 B(  6-C , 18-H ) :   0.9591

FINAL SINGLE POINT ENERGY      -306.618514357767

DIPOLE MOMENT
-------------
                                X             Y             Z
Electronic contribution:     -1.15997      -0.71051       3.55988
Nuclear contribution   :      1.47639       0.96142      -4.41746
                        -----------------------------------------
Total Dipole Moment    :      0.31642       0.25090      -0.85758
                        -----------------------------------------
Magnitude (a.u.)       :      0.94790
Magnitude (Debye)      :      2.40938

                             ****ORCA TERMINATED NORMALLY****
TOTAL RUN TIME: 0 days 0 hours 0 minutes 7 seconds 761 msec
