                         Program Version 3.0.3 - RELEASE   -
|  1> ! RI PBE def2-SVP def2-SVP/J NBO PAL2
|  2> % maxcore 2000
|  3> % output
|  4>     # printlevel mini
|  5>     print[ P_Basis ] 0
|  6>     print[ P_SCFInfo ] 1
|  7>     print[ P_SCFIterInfo ] 1
|  8>     print[ P_OrbEn ] 0
|  9>     print[ P_Cartesian ] 0
| 10> end
| 11> *xyz 0 1
| 12>  C        0.5641690000    -1.5516130000     0.2891850000
| 13>  N        1.9571710000    -1.2797090000     0.0704570000
| 14>  C        2.6864590000    -2.2364930000    -0.3208550000
| 15>  N        4.0211590000    -2.0656470000    -0.5530110000
| 16>  C        4.9415920000    -3.0083840000    -0.9802450000
| 17>  C        4.4321710000    -4.3918820000    -1.2235390000
| 18>  C        6.2252900000    -2.6819600000    -1.1627970000
| 19>  H        0.2969630000    -1.3219350000     1.3254450000
| 20>  H        0.2786110000    -2.5953540000     0.0850760000
| 21>  H       -0.0473090000    -0.9012480000    -0.3441430000
| 22>  H        2.3109910000    -3.2495040000    -0.4985870000
| 23>  H        4.3575020000    -1.1289810000    -0.3864620000
| 24>  H        3.6564790000    -4.4046010000    -1.9947780000
| 25>  H        4.0024630000    -4.8271160000    -0.3165710000
| 26>  H        5.2507220000    -5.0292630000    -1.5527730000
| 27>  H        6.5905220000    -1.6770060000    -0.9850840000
| 28>  H        6.9362440000    -3.4235830000    -1.4961270000
| 29> *
| 30>
| 31>                          ****END OF INPUT****
 Total Charge           Charge          ....    0
 Multiplicity           Mult            ....    1
 Number of Electrons    NEL             ....   54
 Basis Dimension        Dim             ....  148

MULLIKEN ATOMIC CHARGES
-----------------------
   0 C :    0.083486
   1 N :   -0.209410
   2 C :    0.010284
   3 N :   -0.017004
   4 C :   -0.107765
   5 C :    0.055559
   6 C :   -0.065521
   7 H :    0.025455
   8 H :   -0.013145
   9 H :    0.028105
  10 H :   -0.016822
  11 H :    0.107242
  12 H :    0.045339
  13 H :    0.044289
  14 H :    0.021221
  15 H :    0.000991
  16 H :    0.007696
Sum of atomic charges:   -0.0000000

LOEWDIN ATOMIC CHARGES
----------------------
   0 C :   -0.007111
   1 N :   -0.151540
   2 C :    0.018187
   3 N :    0.051056
   4 C :    0.003141
   5 C :   -0.061170
   6 C :   -0.138682
   7 H :    0.024032
   8 H :   -0.000811
   9 H :    0.024731
  10 H :   -0.005228
  11 H :    0.083696
  12 H :    0.038336
  13 H :    0.038179
  14 H :    0.040508
  15 H :    0.018297
  16 H :    0.024381

  Mayer bond orders larger than 0.1
B(  0-C ,  1-N ) :   1.0591 B(  0-C ,  7-H ) :   0.9614 B(  0-C ,  8-H ) :   0.9413
B(  0-C ,  9-H ) :   0.9616 B(  1-N ,  2-C ) :   1.8364 B(  2-C ,  3-N ) :   1.1575
B(  2-C , 10-H ) :   0.9187 B(  3-N ,  4-C ) :   1.1593 B(  3-N , 11-H ) :   0.9107
B(  4-C ,  5-C ) :   1.0894 B(  4-C ,  6-C ) :   1.8632 B(  5-C , 12-H ) :   0.9349
B(  5-C , 13-H ) :   0.9343 B(  5-C , 14-H ) :   0.9356 B(  6-C , 15-H ) :   0.9370
B(  6-C , 16-H ) :   0.9239

FINAL SINGLE POINT ENERGY      -305.408418912454

DIPOLE MOMENT
-------------
                                X             Y             Z
Electronic contribution:      1.30855       3.06946       0.50163
Nuclear contribution   :     -1.33796      -3.62906      -0.63803
                        -----------------------------------------
Total Dipole Moment    :     -0.02941      -0.55960      -0.13641
                        -----------------------------------------
Magnitude (a.u.)       :      0.57674
Magnitude (Debye)      :      1.46595

                             ****ORCA TERMINATED NORMALLY****
TOTAL RUN TIME: 0 days 0 hours 0 minutes 7 seconds 500 msec
