                         Program Version 3.0.3 - RELEASE   -
|  1> ! RI PBE def2-SVP def2-SVP/J NBO PAL2
|  2> % maxcore 2000
|  3> % output
|  4>     # printlevel mini
|  5>     print[ P_Basis ] 0
|  6>     print[ P_SCFInfo ] 1
|  7>     print[ P_SCFIterInfo ] 1
|  8>     print[ P_OrbEn ] 0
|  9>     print[ P_Cartesian ] 0
| 10> end
| 11> *xyz 0 1
| 12>  C        0.9436260000    -1.9009170000    -0.6504570000
| 13>  N        2.3403310000    -1.8968550000    -0.9861000000
| 14>  C        3.0924200000    -1.1034010000    -0.3489080000
| 15>  N        4.4439020000    -1.0498570000    -0.5133440000
| 16>  C        5.0950610000    -1.7668980000    -1.5752550000
| 17>  C        6.5520340000    -1.9833150000    -1.3368010000
| 18>  C        7.2099040000    -1.7522900000    -0.2094640000
| 19>  H        0.6455900000    -2.8904690000    -0.2891200000
| 20>  H        0.3433700000    -1.6983080000    -1.5428400000
| 21>  H        0.6719390000    -1.1623640000     0.1205440000
| 22>  H        2.7201980000    -0.4077080000     0.4169970000
| 23>  H        4.9032800000    -0.2199380000    -0.1792470000
| 24>  H        4.9583260000    -1.2625200000    -2.5441640000
| 25>  H        4.5826870000    -2.7283450000    -1.6821180000
| 26>  H        7.0935480000    -2.3707070000    -2.1966160000
| 27>  H        6.7115390000    -1.3850080000     0.6809750000
| 28>  H        8.2732640000    -1.9446100000    -0.1338030000
| 29> *
| 30>
| 31>                          ****END OF INPUT****
 Total Charge           Charge          ....    0
 Multiplicity           Mult            ....    1
 Number of Electrons    NEL             ....   54
 Basis Dimension        Dim             ....  148

MULLIKEN ATOMIC CHARGES
-----------------------
   0 C :    0.077496
   1 N :   -0.239972
   2 C :    0.034370
   3 N :   -0.150714
   4 C :    0.205376
   5 C :   -0.134385
   6 C :   -0.038215
   7 H :    0.023185
   8 H :    0.025075
   9 H :   -0.010840
  10 H :   -0.022891
  11 H :    0.119161
  12 H :    0.016287
  13 H :    0.046324
  14 H :    0.011220
  15 H :    0.009313
  16 H :    0.029210
Sum of atomic charges:   -0.0000000

LOEWDIN ATOMIC CHARGES
----------------------
   0 C :   -0.008822
   1 N :   -0.164430
   2 C :    0.017224
   3 N :   -0.004090
   4 C :    0.023389
   5 C :   -0.037803
   6 C :   -0.076124
   7 H :    0.022308
   8 H :    0.022209
   9 H :   -0.000321
  10 H :   -0.012003
  11 H :    0.071186
  12 H :    0.026295
  13 H :    0.046424
  14 H :    0.030488
  15 H :    0.016763
  16 H :    0.027308

  Mayer bond orders larger than 0.1
B(  0-C ,  1-N ) :   1.0562 B(  0-C ,  7-H ) :   0.9619 B(  0-C ,  8-H ) :   0.9644
B(  0-C ,  9-H ) :   0.9391 B(  1-N ,  2-C ) :   1.8089 B(  2-C ,  3-N ) :   1.2125
B(  2-C , 10-H ) :   0.9259 B(  3-N ,  4-C ) :   1.0168 B(  3-N , 11-H ) :   0.9225
B(  4-C ,  5-C ) :   1.0508 B(  4-C , 12-H ) :   0.9160 B(  4-C , 13-H ) :   0.8986
B(  5-C ,  6-C ) :   2.0142 B(  5-C , 14-H ) :   0.9485 B(  6-C , 15-H ) :   0.9379
B(  6-C , 16-H ) :   0.9437

FINAL SINGLE POINT ENERGY      -305.392533797904

DIPOLE MOMENT
-------------
                                X             Y             Z
Electronic contribution:      1.25703       0.36625      -0.38528
Nuclear contribution   :     -0.94171       0.18553       0.55234
                        -----------------------------------------
Total Dipole Moment    :      0.31532       0.55178       0.16706
                        -----------------------------------------
Magnitude (a.u.)       :      0.65712
Magnitude (Debye)      :      1.67026

                             ****ORCA TERMINATED NORMALLY****
TOTAL RUN TIME: 0 days 0 hours 0 minutes 7 seconds 439 msec
