                         Program Version 3.0.3 - RELEASE   -
|  1> ! RI PBE def2-SVP def2-SVP/J NBO PAL2
|  2> % maxcore 2000
|  3> % output
|  4>     # printlevel mini
|  5>     print[ P_Basis ] 0
|  6>     print[ P_SCFInfo ] 1
|  7>     print[ P_SCFIterInfo ] 1
|  8>     print[ P_OrbEn ] 0
|  9>     print[ P_Cartesian ] 0
| 10> end
| 11> *xyz 0 1
| 12>  C        0.9164380000     2.9093080000     0.2536910000
| 13>  N        2.3487140000     2.8091910000     0.3160700000
| 14>  C        2.8516820000     1.6516810000     0.4096650000
| 15>  N        4.1944540000     1.4325070000     0.4147520000
| 16>  C        5.1007110000     2.5561650000     0.4945250000
| 17>  C        6.4835010000     2.1116310000     0.5262950000
| 18>  C        7.6236950000     1.7405530000     0.5649060000
| 19>  H        0.5510640000     3.5521510000     1.0602450000
| 20>  H        0.4028620000     1.9381210000     0.3293310000
| 21>  H        0.6129590000     3.3805360000    -0.6864800000
| 22>  H        2.2545460000     0.7307680000     0.4659750000
| 23>  H        4.5274430000     0.5483380000     0.7554080000
| 24>  H        4.8863380000     3.1733080000     1.3776110000
| 25>  H        4.9326750000     3.2067530000    -0.3695550000
| 26>  H        8.6379270000     1.4189790000     0.5945490000
| 27> *
| 28>
| 29>                          ****END OF INPUT****
 Total Charge           Charge          ....    0
 Multiplicity           Mult            ....    1
 Number of Electrons    NEL             ....   52
 Basis Dimension        Dim             ....  138

MULLIKEN ATOMIC CHARGES
-----------------------
   0 C :    0.081351
   1 N :   -0.245758
   2 C :    0.045196
   3 N :   -0.163228
   4 C :    0.236955
   5 C :    0.273041
   6 C :   -0.463374
   7 H :    0.027310
   8 H :   -0.014257
   9 H :    0.025341
  10 H :   -0.018111
  11 H :    0.123361
  12 H :    0.040384
  13 H :    0.046905
  14 H :    0.004884
Sum of atomic charges:    0.0000000

LOEWDIN ATOMIC CHARGES
----------------------
   0 C :   -0.007694
   1 N :   -0.166389
   2 C :    0.018295
   3 N :   -0.005820
   4 C :    0.025015
   5 C :   -0.032149
   6 C :   -0.074748
   7 H :    0.023072
   8 H :   -0.000300
   9 H :    0.023096
  10 H :   -0.009699
  11 H :    0.076060
  12 H :    0.042304
  13 H :    0.052212
  14 H :    0.036746

  Mayer bond orders larger than 0.1
B(  0-C ,  1-N ) :   1.0537 B(  0-C ,  7-H ) :   0.9650 B(  0-C ,  8-H ) :   0.9380
B(  0-C ,  9-H ) :   0.9630 B(  1-N ,  2-C ) :   1.7982 B(  2-C ,  3-N ) :   1.2132
B(  2-C , 10-H ) :   0.9269 B(  3-N ,  4-C ) :   0.9882 B(  3-N , 11-H ) :   0.9329
B(  4-C ,  5-C ) :   1.0231 B(  4-C , 12-H ) :   0.9055 B(  4-C , 13-H ) :   0.8996
B(  5-C ,  6-C ) :   2.3742 B(  5-C , 14-H ) :  -0.1049 B(  6-C , 14-H ) :   1.0960

FINAL SINGLE POINT ENERGY      -304.146142611094

DIPOLE MOMENT
-------------
                                X             Y             Z
Electronic contribution:      5.78915      -1.14140       0.09679
Nuclear contribution   :     -5.67105       0.50117       0.12255
                        -----------------------------------------
Total Dipole Moment    :      0.11810      -0.64023       0.21934
                        -----------------------------------------
Magnitude (a.u.)       :      0.68698
Magnitude (Debye)      :      1.74617

                             ****ORCA TERMINATED NORMALLY****
TOTAL RUN TIME: 0 days 0 hours 0 minutes 6 seconds 686 msec
