                         Program Version 3.0.3 - RELEASE   -
|  1> ! RI PBE def2-SVP def2-SVP/J NBO PAL2
|  2> % maxcore 2000
|  3> % output
|  4>     # printlevel mini
|  5>     print[ P_Basis ] 0
|  6>     print[ P_SCFInfo ] 1
|  7>     print[ P_SCFIterInfo ] 1
|  8>     print[ P_OrbEn ] 0
|  9>     print[ P_Cartesian ] 0
| 10> end
| 11> *xyz 0 1
| 12>  C        1.2823600000     0.1494920000     0.3527640000
| 13>  N        2.7064290000     0.0804100000     0.1135410000
| 14>  C        3.1470250000    -0.9389170000    -0.7122890000
| 15>  N        4.2747770000    -1.5074830000    -0.8110640000
| 16>  C        3.5380790000     0.9207110000     0.8616040000
| 17>  C        4.9137650000     1.2072260000     0.3277930000
| 18>  C        3.0951400000     1.5463710000     1.9585170000
| 19>  H        0.7607930000    -0.3702290000    -0.4508110000
| 20>  H        0.9568920000     1.1915880000     0.3746060000
| 21>  H        0.9996160000    -0.3227860000     1.3002470000
| 22>  H        2.3497940000    -1.2818820000    -1.3752960000
| 23>  H        4.9427350000    -1.1727590000    -0.1237150000
| 24>  H        4.9376500000     1.1859630000    -0.7623130000
| 25>  H        5.6651840000     0.5025080000     0.6926090000
| 26>  H        5.2188850000     2.1977910000     0.6647810000
| 27>  H        2.1176350000     1.3743270000     2.3860690000
| 28>  H        3.7349420000     2.2600790000     2.4592550000
| 29> *
| 30>
| 31>                          ****END OF INPUT****
 Total Charge           Charge          ....    0
 Multiplicity           Mult            ....    1
 Number of Electrons    NEL             ....   54
 Basis Dimension        Dim             ....  148

MULLIKEN ATOMIC CHARGES
-----------------------
   0 C :    0.096987
   1 N :   -0.207833
   2 C :   -0.003783
   3 N :   -0.119384
   4 C :   -0.045882
   5 C :    0.024693
   6 C :   -0.081981
   7 H :    0.033384
   8 H :    0.037592
   9 H :    0.039349
  10 H :    0.011419
  11 H :    0.074402
  12 H :    0.049773
  13 H :    0.049759
  14 H :    0.022243
  15 H :    0.010652
  16 H :    0.008608
Sum of atomic charges:   -0.0000000

LOEWDIN ATOMIC CHARGES
----------------------
   0 C :    0.025949
   1 N :   -0.014641
   2 C :    0.019040
   3 N :   -0.140911
   4 C :    0.003790
   5 C :   -0.061615
   6 C :   -0.124741
   7 H :    0.030116
   8 H :    0.027731
   9 H :    0.023560
  10 H :    0.013026
  11 H :    0.038581
  12 H :    0.039041
  13 H :    0.036870
  14 H :    0.039357
  15 H :    0.019670
  16 H :    0.025177

  Mayer bond orders larger than 0.1
B(  0-C ,  1-N ) :   1.0046 B(  0-C ,  7-H ) :   0.9539 B(  0-C ,  8-H ) :   0.9577
B(  0-C ,  9-H ) :   0.9590 B(  1-N ,  2-C ) :   1.0886 B(  1-N ,  4-C ) :   1.0754
B(  2-C ,  3-N ) :   2.0087 B(  2-C , 10-H ) :   0.9346 B(  3-N , 11-H ) :   0.9524
B(  4-C ,  5-C ) :   1.0815 B(  4-C ,  6-C ) :   1.8757 B(  5-C , 12-H ) :   0.9497
B(  5-C , 13-H ) :   0.9389 B(  5-C , 14-H ) :   0.9372 B(  6-C , 15-H ) :   0.9362
B(  6-C , 16-H ) :   0.9287

FINAL SINGLE POINT ENERGY      -305.394672224830

DIPOLE MOMENT
-------------
                                X             Y             Z
Electronic contribution:      0.49320      -2.62271      -1.66419
Nuclear contribution   :     -1.01459       3.27285       2.07387
                        -----------------------------------------
Total Dipole Moment    :     -0.52140       0.65014       0.40968
                        -----------------------------------------
Magnitude (a.u.)       :      0.92865
Magnitude (Debye)      :      2.36043

                             ****ORCA TERMINATED NORMALLY****
TOTAL RUN TIME: 0 days 0 hours 0 minutes 7 seconds 923 msec
