                         Program Version 3.0.3 - RELEASE   -
|  1> ! RI PBE def2-SVP def2-SVP/J NBO PAL2
|  2> % maxcore 2000
|  3> % output
|  4>     # printlevel mini
|  5>     print[ P_Basis ] 0
|  6>     print[ P_SCFInfo ] 1
|  7>     print[ P_SCFIterInfo ] 1
|  8>     print[ P_OrbEn ] 0
|  9>     print[ P_Cartesian ] 0
| 10> end
| 11> *xyz 0 1
| 12>  C        1.7345840000    -0.7257920000    -0.4949980000
| 13>  N        3.1714500000    -0.5832000000    -0.3706720000
| 14>  C        3.8306850000    -1.0175670000    -1.5889860000
| 15>  N        3.4439650000     0.7773700000    -0.1105790000
| 16>  C        4.5683400000     1.0433750000     0.4267500000
| 17>  C        5.5964680000     0.0372150000     0.8360190000
| 18>  C        4.8706350000     2.4827720000     0.6900810000
| 19>  H        1.4954400000    -1.7809040000    -0.6423070000
| 20>  H        1.3272570000    -0.1430250000    -1.3353850000
| 21>  H        1.2569870000    -0.3865190000     0.4237240000
| 22>  H        3.5447370000    -2.0510810000    -1.7934210000
| 23>  H        4.9145330000    -0.9831240000    -1.4778100000
| 24>  H        3.5480370000    -0.3964930000    -2.4540130000
| 25>  H        5.1387020000    -0.9459000000     0.9511730000
| 26>  H        6.0694900000     0.3429680000     1.7721040000
| 27>  H        6.3935450000    -0.0362960000     0.0887270000
| 28>  H        4.0398740000     3.1084290000     0.3673060000
| 29>  H        5.7773910000     2.7907420000     0.1593560000
| 30>  H        5.0578900000     2.6459380000     1.7562230000
| 31> *
| 32>
| 33>                          ****END OF INPUT****
 Total Charge           Charge          ....    0
 Multiplicity           Mult            ....    1
 Number of Electrons    NEL             ....   56
 Basis Dimension        Dim             ....  158

MULLIKEN ATOMIC CHARGES
-----------------------
   0 C :    0.130120
   1 N :   -0.274447
   2 C :    0.098568
   3 N :   -0.074227
   4 C :   -0.249047
   5 C :    0.051493
   6 C :    0.064935
   7 H :    0.011800
   8 H :   -0.006490
   9 H :    0.022483
  10 H :    0.020376
  11 H :    0.021720
  12 H :   -0.001144
  13 H :    0.040339
  14 H :    0.017517
  15 H :    0.044431
  16 H :    0.025533
  17 H :    0.028311
  18 H :    0.027729
Sum of atomic charges:   -0.0000000

LOEWDIN ATOMIC CHARGES
----------------------
   0 C :   -0.004763
   1 N :   -0.067201
   2 C :   -0.002920
   3 N :   -0.061916
   4 C :   -0.026163
   5 C :   -0.079223
   6 C :   -0.063877
   7 H :    0.019719
   8 H :    0.002387
   9 H :    0.022193
  10 H :    0.025251
  11 H :    0.018992
  12 H :    0.002028
  13 H :    0.034251
  14 H :    0.034393
  15 H :    0.040887
  16 H :    0.033841
  17 H :    0.036408
  18 H :    0.035714

  Mayer bond orders larger than 0.1
B(  0-C ,  1-N ) :   1.0118 B(  0-C ,  7-H ) :   0.9657 B(  0-C ,  8-H ) :   0.9417
B(  0-C ,  9-H ) :   0.9718 B(  1-N ,  2-C ) :   1.0012 B(  1-N ,  3-N ) :   0.9491
B(  2-C , 10-H ) :   0.9650 B(  2-C , 11-H ) :   0.9648 B(  2-C , 12-H ) :   0.9417
B(  3-N ,  4-C ) :   1.9411 B(  4-C ,  5-C ) :   1.0589 B(  4-C ,  6-C ) :   1.0808
B(  5-C , 13-H ) :   0.9262 B(  5-C , 14-H ) :   0.9402 B(  5-C , 15-H ) :   0.9372
B(  6-C , 16-H ) :   0.9466 B(  6-C , 17-H ) :   0.9478 B(  6-C , 18-H ) :   0.9411

FINAL SINGLE POINT ENERGY      -306.578602282989

DIPOLE MOMENT
-------------
                                X             Y             Z
Electronic contribution:     -1.34282       0.76919       0.84259
Nuclear contribution   :      1.82763      -0.97889      -0.86863
                        -----------------------------------------
Total Dipole Moment    :      0.48481      -0.20970      -0.02604
                        -----------------------------------------
Magnitude (a.u.)       :      0.52886
Magnitude (Debye)      :      1.34425

                             ****ORCA TERMINATED NORMALLY****
TOTAL RUN TIME: 0 days 0 hours 0 minutes 8 seconds 819 msec
