                         Program Version 3.0.3 - RELEASE   -
|  1> ! RI PBE def2-SVP def2-SVP/J NBO PAL2
|  2> % maxcore 2000
|  3> % output
|  4>     # printlevel mini
|  5>     print[ P_Basis ] 0
|  6>     print[ P_SCFInfo ] 1
|  7>     print[ P_SCFIterInfo ] 1
|  8>     print[ P_OrbEn ] 0
|  9>     print[ P_Cartesian ] 0
| 10> end
| 11> *xyz 0 1
| 12>  C        0.6970370000     1.2438610000     0.4812350000
| 13>  N        1.8862390000     1.3381440000    -0.3184480000
| 14>  C        2.9360840000     2.2398660000     0.0523600000
| 15>  N        1.9556330000     0.5673940000    -1.3864440000
| 16>  C        2.9874740000     0.5891280000    -2.1592620000
| 17>  C        3.0170870000    -0.2720320000    -3.3150420000
| 18>  C        4.0276330000    -0.3366360000    -4.1848870000
| 19>  H        0.9232110000     0.9221640000     1.5049220000
| 20>  H        0.0445150000     0.5067710000     0.0183170000
| 21>  H        0.1672180000     2.2026780000     0.5316450000
| 22>  H        2.6481090000     2.7625290000     0.9633200000
| 23>  H        3.1233070000     2.9853090000    -0.7319830000
| 24>  H        3.8778990000     1.7071780000     0.2398850000
| 25>  H        3.8494490000     1.2338800000    -1.9804020000
| 26>  H        2.1370670000    -0.8950750000    -3.4511720000
| 27>  H        4.9160480000     0.2762220000    -4.0687090000
| 28>  H        3.9976020000    -1.0026710000    -5.0377360000
| 29> *
| 30>
| 31>                          ****END OF INPUT****
 Total Charge           Charge          ....    0
 Multiplicity           Mult            ....    1
 Number of Electrons    NEL             ....   54
 Basis Dimension        Dim             ....  148

MULLIKEN ATOMIC CHARGES
-----------------------
   0 C :    0.106054
   1 N :   -0.241135
   2 C :    0.113331
   3 N :   -0.047260
   4 C :   -0.080201
   5 C :    0.023621
   6 C :   -0.054548
   7 H :    0.025426
   8 H :    0.042005
   9 H :    0.029707
  10 H :    0.024991
  11 H :    0.036846
  12 H :    0.035634
  13 H :   -0.032510
  14 H :   -0.008824
  15 H :    0.007488
  16 H :    0.019375
Sum of atomic charges:   -0.0000000

LOEWDIN ATOMIC CHARGES
----------------------
   0 C :    0.008551
   1 N :    0.006469
   2 C :   -0.000198
   3 N :   -0.034316
   4 C :   -0.084584
   5 C :   -0.039860
   6 C :   -0.082359
   7 H :    0.019823
   8 H :    0.035244
   9 H :    0.020436
  10 H :    0.032571
  11 H :    0.026531
  12 H :    0.026337
  13 H :   -0.003601
  14 H :    0.029507
  15 H :    0.017206
  16 H :    0.022242

  Mayer bond orders larger than 0.1
B(  0-C ,  1-N ) :   1.0139 B(  0-C ,  7-H ) :   0.9604 B(  0-C ,  8-H ) :   0.9600
B(  0-C ,  9-H ) :   0.9619 B(  1-N ,  2-C ) :   1.0096 B(  1-N ,  3-N ) :   1.1596
B(  1-N ,  4-C ) :   0.1270 B(  2-C , 10-H ) :   0.9565 B(  2-C , 11-H ) :   0.9453
B(  2-C , 12-H ) :   0.9454 B(  3-N ,  4-C ) :   1.6923 B(  4-C ,  5-C ) :   1.1438
B(  4-C , 13-H ) :   0.9293 B(  5-C ,  6-C ) :   1.8582 B(  5-C , 14-H ) :   0.9607
B(  6-C , 15-H ) :   0.9467 B(  6-C , 16-H ) :   0.9434

FINAL SINGLE POINT ENERGY      -305.368580048753

DIPOLE MOMENT
-------------
                                X             Y             Z
Electronic contribution:     -0.81009      -1.78611      -1.72246
Nuclear contribution   :      0.78267       2.47978       2.65473
                        -----------------------------------------
Total Dipole Moment    :     -0.02742       0.69366       0.93227
                        -----------------------------------------
Magnitude (a.u.)       :      1.16235
Magnitude (Debye)      :      2.95446

                             ****ORCA TERMINATED NORMALLY****
TOTAL RUN TIME: 0 days 0 hours 0 minutes 8 seconds 19 msec
