                         Program Version 3.0.3 - RELEASE   -
|  1> ! RI PBE def2-SVP def2-SVP/J NBO PAL2
|  2> % maxcore 2000
|  3> % output
|  4>     # printlevel mini
|  5>     print[ P_Basis ] 0
|  6>     print[ P_SCFInfo ] 1
|  7>     print[ P_SCFIterInfo ] 1
|  8>     print[ P_OrbEn ] 0
|  9>     print[ P_Cartesian ] 0
| 10> end
| 11> *xyz 0 1
| 12>  C        1.0190180000     0.0169960000     0.1315430000
| 13>  N        2.4058010000     0.2378650000    -0.1931520000
| 14>  C        3.0630630000    -0.7036950000    -1.0578510000
| 15>  N        3.0783170000     0.9413380000     0.7016770000
| 16>  C        4.3670970000     0.9461420000     0.7041780000
| 17>  C        5.0690850000     1.7508590000     1.6337700000
| 18>  C        5.7281220000     2.4097870000     2.3961700000
| 19>  H        0.4305440000    -0.0678190000    -0.7844950000
| 20>  H        0.6668710000     0.8703620000     0.7076770000
| 21>  H        0.8712830000    -0.8937010000     0.7286670000
| 22>  H        2.3162680000    -1.1752950000    -1.6947000000
| 23>  H        3.5900750000    -1.4857580000    -0.4907510000
| 24>  H        3.7909040000    -0.1984470000    -1.6996880000
| 25>  H        4.9699930000     0.3613720000     0.0103540000
| 26>  H        6.2934590000     2.9983030000     3.0786910000
| 27> *
| 28>
| 29>                          ****END OF INPUT****
 Total Charge           Charge          ....    0
 Multiplicity           Mult            ....    1
 Number of Electrons    NEL             ....   52
 Basis Dimension        Dim             ....  138

MULLIKEN ATOMIC CHARGES
-----------------------
   0 C :    0.107334
   1 N :   -0.240887
   2 C :    0.116740
   3 N :   -0.042330
   4 C :   -0.146566
   5 C :    0.430356
   6 C :   -0.433546
   7 H :    0.027132
   8 H :    0.047917
   9 H :    0.025715
  10 H :    0.030214
  11 H :    0.026264
  12 H :    0.042459
  13 H :    0.009353
  14 H :   -0.000156
Sum of atomic charges:   -0.0000000

LOEWDIN ATOMIC CHARGES
----------------------
   0 C :    0.010722
   1 N :    0.006357
   2 C :   -0.000816
   3 N :   -0.016977
   4 C :   -0.097528
   5 C :   -0.026279
   6 C :   -0.080477
   7 H :    0.023442
   8 H :    0.036121
   9 H :    0.017020
  10 H :    0.033180
  11 H :    0.021796
  12 H :    0.030889
  13 H :    0.009923
  14 H :    0.032629

  Mayer bond orders larger than 0.1
B(  0-C ,  1-N ) :   1.0062 B(  0-C ,  7-H ) :   0.9627 B(  0-C ,  8-H ) :   0.9627
B(  0-C ,  9-H ) :   0.9588 B(  1-N ,  2-C ) :   0.9997 B(  1-N ,  3-N ) :   1.1570
B(  1-N ,  4-C ) :   0.1371 B(  2-C , 10-H ) :   0.9567 B(  2-C , 11-H ) :   0.9416
B(  2-C , 12-H ) :   0.9492 B(  3-N ,  4-C ) :   1.7132 B(  4-C ,  5-C ) :   1.0231
B(  4-C , 13-H ) :   0.9203 B(  5-C ,  6-C ) :   2.2658 B(  6-C , 14-H ) :   1.0865

FINAL SINGLE POINT ENERGY      -304.119101517152

DIPOLE MOMENT
-------------
                                X             Y             Z
Electronic contribution:      3.88635       4.26304       3.48484
Nuclear contribution   :     -4.34573      -5.08441      -4.25405
                        -----------------------------------------
Total Dipole Moment    :     -0.45938      -0.82137      -0.76921
                        -----------------------------------------
Magnitude (a.u.)       :      1.21547
Magnitude (Debye)      :      3.08947

                             ****ORCA TERMINATED NORMALLY****
TOTAL RUN TIME: 0 days 0 hours 0 minutes 6 seconds 770 msec
