                         Program Version 3.0.3 - RELEASE   -
|  1> ! RI PBE def2-SVP def2-SVP/J NBO PAL2
|  2> % maxcore 2000
|  3> % output
|  4>     # printlevel mini
|  5>     print[ P_Basis ] 0
|  6>     print[ P_SCFInfo ] 1
|  7>     print[ P_SCFIterInfo ] 1
|  8>     print[ P_OrbEn ] 0
|  9>     print[ P_Cartesian ] 0
| 10> end
| 11> *xyz 0 1
| 12>  C        0.8162340000     0.0912390000     0.1260190000
| 13>  N        2.2475420000     0.0131570000     0.0262550000
| 14>  C        3.0576570000     0.6094430000     0.9607070000
| 15>  N        2.6727290000     1.1626330000     2.0495160000
| 16>  C        4.5059800000     0.5762310000     0.6945780000
| 17>  C        5.1291740000    -0.1923070000    -0.1949120000
| 18>  C        6.6010230000    -0.2046170000    -0.4161840000
| 19>  H        0.3720720000    -0.4146250000    -0.7309870000
| 20>  H        0.4442820000     1.1245270000     0.1496640000
| 21>  H        0.4647090000    -0.4170630000     1.0283080000
| 22>  H        2.6287960000    -0.0518040000    -0.9012460000
| 23>  H        1.6597430000     1.1440580000     2.1449910000
| 24>  H        5.0722730000     1.2397290000     1.3402620000
| 25>  H        4.5523220000    -0.8911510000    -0.7988150000
| 26>  H        7.1091150000     0.5085270000     0.2347130000
| 27>  H        6.8445520000     0.0431520000    -1.4544790000
| 28>  H        7.0165090000    -1.1998180000    -0.2281710000
| 29> *
| 30>
| 31>                          ****END OF INPUT****
 Total Charge           Charge          ....    0
 Multiplicity           Mult            ....    1
 Number of Electrons    NEL             ....   54
 Basis Dimension        Dim             ....  148

MULLIKEN ATOMIC CHARGES
-----------------------
   0 C :    0.059869
   1 N :   -0.138542
   2 C :   -0.152139
   3 N :   -0.096955
   4 C :    0.069578
   5 C :   -0.123313
   6 C :    0.043061
   7 H :    0.024614
   8 H :    0.027262
   9 H :    0.038839
  10 H :    0.110357
  11 H :    0.059857
  12 H :   -0.009380
  13 H :   -0.008794
  14 H :    0.026967
  15 H :    0.033169
  16 H :    0.035550
Sum of atomic charges:   -0.0000000

LOEWDIN ATOMIC CHARGES
----------------------
   0 C :    0.000917
   1 N :   -0.027002
   2 C :   -0.004910
   3 N :   -0.162602
   4 C :   -0.043488
   5 C :   -0.035522
   6 C :   -0.061493
   7 H :    0.030686
   8 H :    0.014737
   9 H :    0.025856
  10 H :    0.065907
  11 H :    0.032994
  12 H :    0.035832
  13 H :    0.017155
  14 H :    0.034157
  15 H :    0.037710
  16 H :    0.039066

  Mayer bond orders larger than 0.1
B(  0-C ,  1-N ) :   1.0413 B(  0-C ,  7-H ) :   0.9648 B(  0-C ,  8-H ) :   0.9553
B(  0-C ,  9-H ) :   0.9616 B(  1-N ,  2-C ) :   1.1930 B(  1-N , 10-H ) :   0.9091
B(  2-C ,  3-N ) :   1.9566 B(  2-C ,  4-C ) :   1.0286 B(  3-N , 11-H ) :   0.9360
B(  4-C ,  5-C ) :   1.8078 B(  4-C , 12-H ) :   0.9531 B(  5-C ,  6-C ) :   1.0941
B(  5-C , 13-H ) :   0.9441 B(  6-C , 14-H ) :   0.9624 B(  6-C , 15-H ) :   0.9460
B(  6-C , 16-H ) :   0.9449

FINAL SINGLE POINT ENERGY      -305.408023900380

DIPOLE MOMENT
-------------
                                X             Y             Z
Electronic contribution:     -1.07071       1.18251       2.26439
Nuclear contribution   :      0.75628      -1.66741      -3.45604
                        -----------------------------------------
Total Dipole Moment    :     -0.31443      -0.48490      -1.19164
                        -----------------------------------------
Magnitude (a.u.)       :      1.32439
Magnitude (Debye)      :      3.36634

                             ****ORCA TERMINATED NORMALLY****
TOTAL RUN TIME: 0 days 0 hours 0 minutes 8 seconds 11 msec
