                         Program Version 3.0.3 - RELEASE   -
|  1> ! RI PBE def2-SVP def2-SVP/J NBO PAL2
|  2> % maxcore 2000
|  3> % output
|  4>     # printlevel mini
|  5>     print[ P_Basis ] 0
|  6>     print[ P_SCFInfo ] 1
|  7>     print[ P_SCFIterInfo ] 1
|  8>     print[ P_OrbEn ] 0
|  9>     print[ P_Cartesian ] 0
| 10> end
| 11> *xyz 0 1
| 12>  C        0.9224450000     0.6535120000    -0.8793420000
| 13>  N        2.3454840000     0.7211100000    -0.7133700000
| 14>  C        3.2209670000     0.1297940000    -1.5759890000
| 15>  N        2.9134310000    -0.5434660000    -2.6156160000
| 16>  C        4.6846900000     0.3171320000    -1.2260790000
| 17>  C        5.3402580000    -1.0333960000    -0.9629020000
| 18>  C        5.4006320000     1.0695840000    -2.3415260000
| 19>  H        0.4400430000     1.1991710000    -0.0690910000
| 20>  H        0.5605890000    -0.3808710000    -0.8545280000
| 21>  H        0.6036220000     1.1018430000    -1.8274220000
| 22>  H        2.7179400000     1.2242140000     0.0697620000
| 23>  H        1.9076900000    -0.6038220000    -2.7518910000
| 24>  H        4.7449430000     0.9167310000    -0.3088090000
| 25>  H        5.2669490000    -1.6580490000    -1.8546120000
| 26>  H        4.8527550000    -1.5618140000    -0.1399660000
| 27>  H        6.3952150000    -0.9040800000    -0.7085040000
| 28>  H        5.3290130000     0.5039110000    -3.2719020000
| 29>  H        6.4558760000     1.2089180000    -2.0937010000
| 30>  H        4.9565580000     2.0536970000    -2.5101330000
| 31> *
| 32>
| 33>                          ****END OF INPUT****
 Total Charge           Charge          ....    0
 Multiplicity           Mult            ....    1
 Number of Electrons    NEL             ....   56
 Basis Dimension        Dim             ....  158

MULLIKEN ATOMIC CHARGES
-----------------------
   0 C :    0.064256
   1 N :   -0.108418
   2 C :   -0.182692
   3 N :   -0.113979
   4 C :   -0.066172
   5 C :    0.034548
   6 C :    0.036867
   7 H :    0.025411
   8 H :    0.033725
   9 H :    0.034978
  10 H :    0.101765
  11 H :    0.059302
  12 H :   -0.030856
  13 H :    0.039139
  14 H :    0.006076
  15 H :    0.010564
  16 H :    0.038044
  17 H :    0.009909
  18 H :    0.007534
Sum of atomic charges:   -0.0000000

LOEWDIN ATOMIC CHARGES
----------------------
   0 C :    0.001063
   1 N :   -0.016833
   2 C :    0.008395
   3 N :   -0.183596
   4 C :   -0.052571
   5 C :   -0.050581
   6 C :   -0.049850
   7 H :    0.031416
   8 H :    0.021135
   9 H :    0.021584
  10 H :    0.066847
  11 H :    0.032951
  12 H :    0.014941
  13 H :    0.032191
  14 H :    0.023133
  15 H :    0.022107
  16 H :    0.031980
  17 H :    0.022037
  18 H :    0.023649

  Mayer bond orders larger than 0.1
B(  0-C ,  1-N ) :   1.0337 B(  0-C ,  7-H ) :   0.9652 B(  0-C ,  8-H ) :   0.9585
B(  0-C ,  9-H ) :   0.9583 B(  1-N ,  2-C ) :   1.2100 B(  1-N ,  3-N ) :   0.1035
B(  1-N , 10-H ) :   0.9179 B(  2-C ,  3-N ) :   1.9565 B(  2-C ,  4-C ) :   0.9659
B(  3-N , 11-H ) :   0.9327 B(  4-C ,  5-C ) :   1.0866 B(  4-C ,  6-C ) :   1.0886
B(  4-C , 12-H ) :   0.8915 B(  5-C , 13-H ) :   0.9598 B(  5-C , 14-H ) :   0.9568
B(  5-C , 15-H ) :   0.9574 B(  6-C , 16-H ) :   0.9599 B(  6-C , 17-H ) :   0.9581
B(  6-C , 18-H ) :   0.9561

FINAL SINGLE POINT ENERGY      -306.624608758383

DIPOLE MOMENT
-------------
                                X             Y             Z
Electronic contribution:     -2.36461      -0.06159      -0.20522
Nuclear contribution   :      1.77851       0.74177       1.20679
                        -----------------------------------------
Total Dipole Moment    :     -0.58610       0.68018       1.00158
                        -----------------------------------------
Magnitude (a.u.)       :      1.34510
Magnitude (Debye)      :      3.41898

                             ****ORCA TERMINATED NORMALLY****
TOTAL RUN TIME: 0 days 0 hours 0 minutes 8 seconds 701 msec
