                         Program Version 3.0.3 - RELEASE   -
|  1> ! RI PBE def2-SVP def2-SVP/J NBO PAL2
|  2> % maxcore 2000
|  3> % output
|  4>     # printlevel mini
|  5>     print[ P_Basis ] 0
|  6>     print[ P_SCFInfo ] 1
|  7>     print[ P_SCFIterInfo ] 1
|  8>     print[ P_OrbEn ] 0
|  9>     print[ P_Cartesian ] 0
| 10> end
| 11> *xyz 0 1
| 12>  C        2.1502640000     2.4586810000    -1.6052510000
| 13>  N        3.2688640000     1.6451040000    -1.2195370000
| 14>  C        3.6320560000     1.5065940000     0.0945140000
| 15>  N        3.1214450000     2.1316630000     1.0865640000
| 16>  C        4.7470050000     0.5528630000     0.3577270000
| 17>  C        4.7954500000    -0.0231290000     1.7339540000
| 18>  C        5.6575760000     0.2720450000    -0.5735730000
| 19>  H        2.0237900000     2.4001570000    -2.6859350000
| 20>  H        2.3270710000     3.5070690000    -1.3479690000
| 21>  H        1.2112910000     2.1443350000    -1.1298320000
| 22>  H        3.5119440000     0.8804380000    -1.8241240000
| 23>  H        2.3667310000     2.7489360000     0.7967030000
| 24>  H        3.8900960000    -0.5975860000     1.9475480000
| 25>  H        4.8264220000     0.7809280000     2.4714070000
| 26>  H        5.6654050000    -0.6690860000     1.8565430000
| 27>  H        5.6520030000     0.7423220000    -1.5500390000
| 28>  H        6.4691990000    -0.4160960000    -0.3668110000
| 29> *
| 30>
| 31>                          ****END OF INPUT****
 Total Charge           Charge          ....    0
 Multiplicity           Mult            ....    1
 Number of Electrons    NEL             ....   54
 Basis Dimension        Dim             ....  148

MULLIKEN ATOMIC CHARGES
-----------------------
   0 C :    0.049410
   1 N :   -0.136230
   2 C :   -0.114731
   3 N :   -0.099437
   4 C :   -0.126725
   5 C :    0.088392
   6 C :   -0.047830
   7 H :    0.030641
   8 H :    0.043567
   9 H :    0.030518
  10 H :    0.113788
  11 H :    0.064362
  12 H :    0.028528
  13 H :    0.049963
  14 H :    0.003551
  15 H :    0.006339
  16 H :    0.015894
Sum of atomic charges:   -0.0000000

LOEWDIN ATOMIC CHARGES
----------------------
   0 C :   -0.001354
   1 N :   -0.019522
   2 C :    0.003806
   3 N :   -0.162965
   4 C :   -0.033131
   5 C :   -0.050641
   6 C :   -0.068159
   7 H :    0.032558
   8 H :    0.027073
   9 H :    0.016462
  10 H :    0.069235
  11 H :    0.035081
  12 H :    0.039277
  13 H :    0.046587
  14 H :    0.026126
  15 H :    0.016212
  16 H :    0.023356

  Mayer bond orders larger than 0.1
B(  0-C ,  1-N ) :   1.0409 B(  0-C ,  7-H ) :   0.9652 B(  0-C ,  8-H ) :   0.9615
B(  0-C ,  9-H ) :   0.9538 B(  1-N ,  2-C ) :   1.2026 B(  1-N , 10-H ) :   0.9111
B(  2-C ,  3-N ) :   1.9881 B(  2-C ,  4-C ) :   0.9625 B(  3-N , 11-H ) :   0.9319
B(  4-C ,  5-C ) :   1.1068 B(  4-C ,  6-C ) :   1.9536 B(  5-C , 12-H ) :   0.9425
B(  5-C , 13-H ) :   0.9256 B(  5-C , 14-H ) :   0.9437 B(  6-C , 15-H ) :   0.9272
B(  6-C , 16-H ) :   0.9290

FINAL SINGLE POINT ENERGY      -305.407793584257

DIPOLE MOMENT
-------------
                                X             Y             Z
Electronic contribution:      0.35674       0.64168       0.27034
Nuclear contribution   :     -0.71090      -0.82355      -1.37340
                        -----------------------------------------
Total Dipole Moment    :     -0.35416      -0.18187      -1.10306
                        -----------------------------------------
Magnitude (a.u.)       :      1.17271
Magnitude (Debye)      :      2.98080

                             ****ORCA TERMINATED NORMALLY****
TOTAL RUN TIME: 0 days 0 hours 0 minutes 8 seconds 256 msec
