                         Program Version 3.0.3 - RELEASE   -
|  1> ! RI PBE def2-SVP def2-SVP/J NBO PAL2
|  2> % maxcore 2000
|  3> % output
|  4>     # printlevel mini
|  5>     print[ P_Basis ] 0
|  6>     print[ P_SCFInfo ] 1
|  7>     print[ P_SCFIterInfo ] 1
|  8>     print[ P_OrbEn ] 0
|  9>     print[ P_Cartesian ] 0
| 10> end
| 11> *xyz 0 1
| 12>  C        2.9102310000    -0.2517290000     1.2174270000
| 13>  N        2.3016820000     0.1572010000    -0.0244800000
| 14>  C        2.9536360000     0.8393940000    -1.0243130000
| 15>  N        2.4069280000     1.4592410000    -2.0009390000
| 16>  C        4.3921620000     0.7991410000    -0.9630990000
| 17>  C        5.5941400000     0.7816060000    -0.9258400000
| 18>  C        7.0421310000     0.7753790000    -0.9081310000
| 19>  H        2.2987800000    -1.0313230000     1.6746100000
| 20>  H        3.0228190000     0.5701190000     1.9353840000
| 21>  H        3.8971140000    -0.6691500000     1.0207190000
| 22>  H        1.3066200000     0.3090830000    -0.0028540000
| 23>  H        1.3897030000     1.4227830000    -1.9318130000
| 24>  H        7.4263560000     0.4069460000     0.0460050000
| 25>  H        7.4339210000     1.7830660000    -1.0671810000
| 26>  H        7.4342170000     0.1346230000    -1.7020640000
| 27> *
| 28>
| 29>                          ****END OF INPUT****
 Total Charge           Charge          ....    0
 Multiplicity           Mult            ....    1
 Number of Electrons    NEL             ....   52
 Basis Dimension        Dim             ....  138

MULLIKEN ATOMIC CHARGES
-----------------------
   0 C :    0.073218
   1 N :   -0.150621
   2 C :   -0.118813
   3 N :   -0.096637
   4 C :   -0.005591
   5 C :   -0.195621
   6 C :    0.058723
   7 H :    0.029092
   8 H :    0.031086
   9 H :    0.046022
  10 H :    0.105714
  11 H :    0.068237
  12 H :    0.045409
  13 H :    0.053932
  14 H :    0.055849
Sum of atomic charges:    0.0000000

LOEWDIN ATOMIC CHARGES
----------------------
   0 C :    0.006668
   1 N :   -0.022248
   2 C :   -0.015998
   3 N :   -0.154781
   4 C :   -0.057116
   5 C :   -0.033276
   6 C :   -0.065711
   7 H :    0.026957
   8 H :    0.017325
   9 H :    0.035110
  10 H :    0.066331
  11 H :    0.035201
  12 H :    0.050319
  13 H :    0.055395
  14 H :    0.055826

  Mayer bond orders larger than 0.1
B(  0-C ,  1-N ) :   1.0290 B(  0-C ,  7-H ) :   0.9681 B(  0-C ,  8-H ) :   0.9611
B(  0-C ,  9-H ) :   0.9538 B(  1-N ,  2-C ) :   1.1760 B(  1-N ,  3-N ) :   0.1075
B(  1-N , 10-H ) :   0.9245 B(  2-C ,  3-N ) :   1.9669 B(  2-C ,  4-C ) :   0.9109
B(  3-N , 11-H ) :   0.9191 B(  4-C ,  5-C ) :   2.5649 B(  5-C ,  6-C ) :   1.1380
B(  6-C , 12-H ) :   0.9324 B(  6-C , 13-H ) :   0.9281 B(  6-C , 14-H ) :   0.9284

FINAL SINGLE POINT ENERGY      -304.162921736983

DIPOLE MOMENT
-------------
                                X             Y             Z
Electronic contribution:     -2.68970       1.47777      -3.47097
Nuclear contribution   :      2.76912      -2.01132       4.62908
                        -----------------------------------------
Total Dipole Moment    :      0.07942      -0.53354       1.15811
                        -----------------------------------------
Magnitude (a.u.)       :      1.27757
Magnitude (Debye)      :      3.24734

                             ****ORCA TERMINATED NORMALLY****
TOTAL RUN TIME: 0 days 0 hours 0 minutes 6 seconds 995 msec
