                         Program Version 3.0.3 - RELEASE   -
|  1> ! RI PBE def2-SVP def2-SVP/J NBO PAL2
|  2> % maxcore 2000
|  3> % output
|  4>     # printlevel mini
|  5>     print[ P_Basis ] 0
|  6>     print[ P_SCFInfo ] 1
|  7>     print[ P_SCFIterInfo ] 1
|  8>     print[ P_OrbEn ] 0
|  9>     print[ P_Cartesian ] 0
| 10> end
| 11> *xyz 0 1
| 12>  C        0.6058980000    -0.4588280000    -1.0108200000
| 13>  N        2.0065890000    -0.3568420000    -0.7151920000
| 14>  C        2.8535450000    -1.4221580000    -0.8157170000
| 15>  N        2.5357950000    -2.6341500000    -1.0576700000
| 16>  C        4.3047080000    -1.0793890000    -0.5556930000
| 17>  C        4.7863850000     0.0957060000    -1.3429580000
| 18>  C        5.2043920000     1.2408500000    -0.8184290000
| 19>  H        0.1433110000     0.5204210000    -0.8919870000
| 20>  H        0.1084670000    -1.1483790000    -0.3214670000
| 21>  H        0.4185040000    -0.8075890000    -2.0344800000
| 22>  H        2.4308240000     0.5553420000    -0.7297090000
| 23>  H        1.5323460000    -2.7402410000    -1.1954200000
| 24>  H        4.8765980000    -1.9753160000    -0.8033750000
| 25>  H        4.4310660000    -0.8839810000     0.5144720000
| 26>  H        4.7748970000    -0.0192380000    -2.4254660000
| 27>  H        5.2378110000     1.3908540000     0.2568410000
| 28>  H        5.5447740000     2.0606470000    -1.4406100000
| 29> *
| 30>
| 31>                          ****END OF INPUT****
 Total Charge           Charge          ....    0
 Multiplicity           Mult            ....    1
 Number of Electrons    NEL             ....   54
 Basis Dimension        Dim             ....  148

MULLIKEN ATOMIC CHARGES
-----------------------
   0 C :    0.067924
   1 N :   -0.118743
   2 C :   -0.232883
   3 N :   -0.100928
   4 C :    0.177856
   5 C :   -0.126117
   6 C :   -0.037925
   7 H :    0.024960
   8 H :    0.038635
   9 H :    0.028764
  10 H :    0.104710
  11 H :    0.060297
  12 H :    0.021360
  13 H :    0.026393
  14 H :    0.014208
  15 H :    0.023479
  16 H :    0.028007
Sum of atomic charges:    0.0000000

LOEWDIN ATOMIC CHARGES
----------------------
   0 C :    0.001825
   1 N :   -0.020881
   2 C :    0.000721
   3 N :   -0.178546
   4 C :   -0.043620
   5 C :   -0.031887
   6 C :   -0.069566
   7 H :    0.031400
   8 H :    0.024427
   9 H :    0.017767
  10 H :    0.066318
  11 H :    0.033510
  12 H :    0.049172
  13 H :    0.040312
  14 H :    0.030637
  15 H :    0.022510
  16 H :    0.025902

  Mayer bond orders larger than 0.1
B(  0-C ,  1-N ) :   1.0371 B(  0-C ,  7-H ) :   0.9652 B(  0-C ,  8-H ) :   0.9606
B(  0-C ,  9-H ) :   0.9559 B(  1-N ,  2-C ) :   1.1987 B(  1-N , 10-H ) :   0.9112
B(  2-C ,  3-N ) :   2.0206 B(  2-C ,  4-C ) :   0.9764 B(  3-N , 11-H ) :   0.9371
B(  4-C ,  5-C ) :   1.0626 B(  4-C , 12-H ) :   0.8857 B(  4-C , 13-H ) :   0.9173
B(  5-C ,  6-C ) :   1.9609 B(  5-C , 14-H ) :   0.9622 B(  6-C , 15-H ) :   0.9516
B(  6-C , 16-H ) :   0.9438

FINAL SINGLE POINT ENERGY      -305.401986736050

DIPOLE MOMENT
-------------
                                X             Y             Z
Electronic contribution:      1.14092      -2.13393       0.05655
Nuclear contribution   :     -1.64282       3.29422      -0.04602
                        -----------------------------------------
Total Dipole Moment    :     -0.50190       1.16029       0.01053
                        -----------------------------------------
Magnitude (a.u.)       :      1.26423
Magnitude (Debye)      :      3.21342

                             ****ORCA TERMINATED NORMALLY****
TOTAL RUN TIME: 0 days 0 hours 0 minutes 8 seconds 180 msec
