                         Program Version 3.0.3 - RELEASE   -
|  1> ! RI PBE def2-SVP def2-SVP/J NBO PAL2
|  2> % maxcore 2000
|  3> % output
|  4>     # printlevel mini
|  5>     print[ P_Basis ] 0
|  6>     print[ P_SCFInfo ] 1
|  7>     print[ P_SCFIterInfo ] 1
|  8>     print[ P_OrbEn ] 0
|  9>     print[ P_Cartesian ] 0
| 10> end
| 11> *xyz 0 1
| 12>  C        1.0929830000    -0.1762330000     0.1240350000
| 13>  N        2.5115460000    -0.2105440000    -0.0924330000
| 14>  C        3.0693940000     0.1791640000    -1.2688170000
| 15>  N        2.4879050000     0.7193180000    -2.2661900000
| 16>  C        4.5773630000     0.0062290000    -1.3557570000
| 17>  C        5.1357830000    -1.0346010000    -0.5117900000
| 18>  C        5.5788520000    -1.8934710000     0.2015530000
| 19>  H        0.8750370000    -0.5604410000     1.1197640000
| 20>  H        0.5453890000    -0.7822010000    -0.6086040000
| 21>  H        0.7129970000     0.8487830000     0.0704300000
| 22>  H        3.0748690000    -0.7970470000     0.5010470000
| 23>  H        1.4892560000     0.8316550000    -2.1077180000
| 24>  H        5.0351120000     0.9663900000    -1.0939590000
| 25>  H        4.8183440000    -0.1772100000    -2.4041870000
| 26>  H        5.9891730000    -2.6568110000     0.8197360000
| 27> *
| 28>
| 29>                          ****END OF INPUT****
 Total Charge           Charge          ....    0
 Multiplicity           Mult            ....    1
 Number of Electrons    NEL             ....   52
 Basis Dimension        Dim             ....  138

MULLIKEN ATOMIC CHARGES
-----------------------
   0 C :    0.068458
   1 N :   -0.112072
   2 C :   -0.222548
   3 N :   -0.120429
   4 C :    0.215044
   5 C :    0.258844
   6 C :   -0.480362
   7 H :    0.024786
   8 H :    0.034380
   9 H :    0.035332
  10 H :    0.115429
  11 H :    0.065421
  12 H :    0.062837
  13 H :    0.052341
  14 H :    0.002540
Sum of atomic charges:    0.0000000

LOEWDIN ATOMIC CHARGES
----------------------
   0 C :    0.004270
   1 N :   -0.015058
   2 C :    0.004182
   3 N :   -0.181379
   4 C :   -0.047486
   5 C :   -0.026192
   6 C :   -0.091289
   7 H :    0.032078
   8 H :    0.019854
   9 H :    0.023890
  10 H :    0.071976
  11 H :    0.036078
  12 H :    0.067650
  13 H :    0.065394
  14 H :    0.036033

  Mayer bond orders larger than 0.1
B(  0-C ,  1-N ) :   1.0365 B(  0-C ,  7-H ) :   0.9650 B(  0-C ,  8-H ) :   0.9580
B(  0-C ,  9-H ) :   0.9602 B(  1-N ,  2-C ) :   1.2349 B(  1-N ,  3-N ) :   0.1095
B(  1-N , 10-H ) :   0.8984 B(  2-C ,  3-N ) :   1.9886 B(  2-C ,  4-C ) :   0.9373
B(  3-N , 11-H ) :   0.9349 B(  4-C ,  5-C ) :   1.0233 B(  4-C , 12-H ) :   0.8823
B(  4-C , 13-H ) :   0.8888 B(  5-C ,  6-C ) :   2.3518 B(  5-C , 14-H ) :  -0.1109
B(  6-C , 14-H ) :   1.1021

FINAL SINGLE POINT ENERGY      -304.158362992279

DIPOLE MOMENT
-------------
                                X             Y             Z
Electronic contribution:      4.02372      -0.61221      -0.96327
Nuclear contribution   :     -4.34741       0.18716       2.02711
                        -----------------------------------------
Total Dipole Moment    :     -0.32369      -0.42505       1.06384
                        -----------------------------------------
Magnitude (a.u.)       :      1.19046
Magnitude (Debye)      :      3.02592

                             ****ORCA TERMINATED NORMALLY****
TOTAL RUN TIME: 0 days 0 hours 0 minutes 6 seconds 864 msec
