                         Program Version 3.0.3 - RELEASE   -
|  1> ! RI PBE def2-SVP def2-SVP/J NBO PAL2
|  2> % maxcore 2000
|  3> % output
|  4>     # printlevel mini
|  5>     print[ P_Basis ] 0
|  6>     print[ P_SCFInfo ] 1
|  7>     print[ P_SCFIterInfo ] 1
|  8>     print[ P_OrbEn ] 0
|  9>     print[ P_Cartesian ] 0
| 10> end
| 11> *xyz 0 1
| 12>  C        2.9872730000     0.5314970000     1.0870100000
| 13>  N        2.4252350000     0.0501850000    -0.1511470000
| 14>  C        3.1377460000    -0.1400930000    -1.3066650000
| 15>  N        2.6465220000    -0.3649160000    -2.4656860000
| 16>  C        1.2132010000    -0.3941700000    -2.5753850000
| 17>  C        4.5720290000    -0.1163540000    -1.1771880000
| 18>  C        5.7676430000    -0.0921540000    -1.0719510000
| 19>  H        2.2995290000     0.3006580000     1.9017620000
| 20>  H        3.1737810000     1.6118630000     1.0829500000
| 21>  H        3.9304780000     0.0245810000     1.2876880000
| 22>  H        1.4386790000     0.1941540000    -0.2820410000
| 23>  H        0.9323840000    -0.5793590000    -3.6122530000
| 24>  H        0.7439090000     0.5571810000    -2.2750600000
| 25>  H        0.7636540000    -1.1893570000    -1.9610710000
| 26>  H        6.8297370000    -0.0748150000    -1.0013630000
| 27> *
| 28>
| 29>                          ****END OF INPUT****
 Total Charge           Charge          ....    0
 Multiplicity           Mult            ....    1
 Number of Electrons    NEL             ....   52
 Basis Dimension        Dim             ....  138

MULLIKEN ATOMIC CHARGES
-----------------------
   0 C :    0.082567
   1 N :   -0.164625
   2 C :   -0.036746
   3 N :   -0.182402
   4 C :    0.063072
   5 C :    0.421330
   6 C :   -0.458532
   7 H :    0.030333
   8 H :    0.034098
   9 H :    0.047738
  10 H :    0.109427
  11 H :    0.027963
  12 H :    0.005710
  13 H :    0.013612
  14 H :    0.006454
Sum of atomic charges:    0.0000000

LOEWDIN ATOMIC CHARGES
----------------------
   0 C :    0.011065
   1 N :   -0.009450
   2 C :   -0.017408
   3 N :   -0.140828
   4 C :   -0.023259
   5 C :   -0.011426
   6 C :   -0.051599
   7 H :    0.028683
   8 H :    0.020477
   9 H :    0.035865
  10 H :    0.070855
  11 H :    0.025738
  12 H :    0.009631
  13 H :    0.014398
  14 H :    0.037258

  Mayer bond orders larger than 0.1
B(  0-C ,  1-N ) :   1.0258 B(  0-C ,  7-H ) :   0.9678 B(  0-C ,  8-H ) :   0.9624
B(  0-C ,  9-H ) :   0.9548 B(  1-N ,  2-C ) :   1.1997 B(  1-N ,  3-N ) :   0.1147
B(  1-N , 10-H ) :   0.9206 B(  2-C ,  3-N ) :   1.8695 B(  2-C ,  5-C ) :   0.9055
B(  3-N ,  4-C ) :   1.0502 B(  4-C , 11-H ) :   0.9691 B(  4-C , 12-H ) :   0.9365
B(  4-C , 13-H ) :   0.9433 B(  5-C ,  6-C ) :   2.2947 B(  5-C , 14-H ) :  -0.1075
B(  6-C , 14-H ) :   1.0971

FINAL SINGLE POINT ENERGY      -304.143866784669

DIPOLE MOMENT
-------------
                                X             Y             Z
Electronic contribution:      4.41252      -0.90279      -2.29083
Nuclear contribution   :     -4.84444       1.26744       3.41256
                        -----------------------------------------
Total Dipole Moment    :     -0.43192       0.36466       1.12172
                        -----------------------------------------
Magnitude (a.u.)       :      1.25610
Magnitude (Debye)      :      3.19276

                             ****ORCA TERMINATED NORMALLY****
TOTAL RUN TIME: 0 days 0 hours 0 minutes 6 seconds 867 msec
