                         Program Version 3.0.3 - RELEASE   -
|  1> ! RI PBE def2-SVP def2-SVP/J NBO PAL2
|  2> % maxcore 2000
|  3> % output
|  4>     # printlevel mini
|  5>     print[ P_Basis ] 0
|  6>     print[ P_SCFInfo ] 1
|  7>     print[ P_SCFIterInfo ] 1
|  8>     print[ P_OrbEn ] 0
|  9>     print[ P_Cartesian ] 0
| 10> end
| 11> *xyz 0 1
| 12>  C        0.9927760000     0.1648850000    -0.0765450000
| 13>  N        2.3909960000    -0.0632950000     0.1698320000
| 14>  C        2.7039950000    -0.9162850000     1.0473340000
| 15>  N        4.0010080000    -1.1514580000     1.4077560000
| 16>  C        5.0503560000    -0.5379970000     0.6334920000
| 17>  C        6.3497890000    -0.7746300000     1.2463580000
| 18>  N        7.3761630000    -0.9793200000     1.7203300000
| 19>  H        0.7708870000    -0.0002670000    -1.1346340000
| 20>  H        0.7410090000     1.2072890000     0.1401630000
| 21>  H        0.3298820000    -0.4789290000     0.5207690000
| 22>  H        1.9762600000    -1.5124700000     1.6134320000
| 23>  H        4.2073240000    -2.0279160000     1.8548700000
| 24>  H        4.8632830000     0.5377400000     0.5772860000
| 25>  H        5.0755630000    -0.8977460000    -0.4040320000
| 26> *
| 27>
| 28>                          ****END OF INPUT****
 Total Charge           Charge          ....    0
 Multiplicity           Mult            ....    1
 Number of Electrons    NEL             ....   52
 Basis Dimension        Dim             ....  133

MULLIKEN ATOMIC CHARGES
-----------------------
   0 C :    0.087780
   1 N :   -0.247271
   2 C :    0.055437
   3 N :   -0.173602
   4 C :    0.228088
   5 C :   -0.295421
   6 N :    0.053066
   7 H :    0.029758
   8 H :    0.029644
   9 H :   -0.009209
  10 H :   -0.008827
  11 H :    0.132756
  12 H :    0.065114
  13 H :    0.052687
Sum of atomic charges:    0.0000000

LOEWDIN ATOMIC CHARGES
----------------------
   0 C :   -0.004435
   1 N :   -0.159342
   2 C :    0.023426
   3 N :   -0.008236
   4 C :    0.013453
   5 C :   -0.052388
   6 N :   -0.052999
   7 H :    0.025495
   8 H :    0.026144
   9 H :    0.002627
  10 H :   -0.004890
  11 H :    0.079903
  12 H :    0.062378
  13 H :    0.048864

  Mayer bond orders larger than 0.1
B(  0-C ,  1-N ) :   1.0489 B(  0-C ,  7-H ) :   0.9647 B(  0-C ,  8-H ) :   0.9622
B(  0-C ,  9-H ) :   0.9405 B(  1-N ,  2-C ) :   1.8109 B(  2-C ,  3-N ) :   1.1957
B(  2-C , 10-H ) :   0.9289 B(  3-N ,  4-C ) :   1.0024 B(  3-N , 11-H ) :   0.9304
B(  4-C ,  5-C ) :   1.0771 B(  4-C , 12-H ) :   0.8906 B(  4-C , 13-H ) :   0.9008
B(  5-C ,  6-N ) :   3.0545

FINAL SINGLE POINT ENERGY      -320.223652774037

DIPOLE MOMENT
-------------
                                X             Y             Z
Electronic contribution:      8.45366      -1.39656       2.49654
Nuclear contribution   :     -9.66346       0.99240      -2.67878
                        -----------------------------------------
Total Dipole Moment    :     -1.20980      -0.40416      -0.18224
                        -----------------------------------------
Magnitude (a.u.)       :      1.28847
Magnitude (Debye)      :      3.27504

                             ****ORCA TERMINATED NORMALLY****
TOTAL RUN TIME: 0 days 0 hours 0 minutes 6 seconds 390 msec
