                         Program Version 3.0.3 - RELEASE   -
|  1> ! RI PBE def2-SVP def2-SVP/J NBO PAL2
|  2> % maxcore 2000
|  3> % output
|  4>     # printlevel mini
|  5>     print[ P_Basis ] 0
|  6>     print[ P_SCFInfo ] 1
|  7>     print[ P_SCFIterInfo ] 1
|  8>     print[ P_OrbEn ] 0
|  9>     print[ P_Cartesian ] 0
| 10> end
| 11> *xyz 0 1
| 12>  C        0.9901890000    -0.0397900000     0.1046160000
| 13>  N        2.4103090000     0.1513430000    -0.0522260000
| 14>  C        3.0815370000    -0.3795340000    -1.2072780000
| 15>  N        3.0581910000     0.6096270000     0.9825580000
| 16>  C        4.3481210000     0.6802600000     0.9817880000
| 17>  C        4.9973000000     1.2142560000     2.1245280000
| 18>  N        5.5809300000     1.6369910000     3.0251980000
| 19>  H        0.4527680000     0.3620460000    -0.7582780000
| 20>  H        0.6789500000     0.4912040000     1.0011890000
| 21>  H        0.7352630000    -1.1007060000     0.2130390000
| 22>  H        2.3364050000    -0.6974430000    -1.9339330000
| 23>  H        3.7100270000    -1.2409220000    -0.9450490000
| 24>  H        3.7187260000     0.3809950000    -1.6714470000
| 25>  H        4.9862930000     0.3622620000     0.1611970000
| 26> *
| 27>
| 28>                          ****END OF INPUT****
 Total Charge           Charge          ....    0
 Multiplicity           Mult            ....    1
 Number of Electrons    NEL             ....   52
 Basis Dimension        Dim             ....  133

MULLIKEN ATOMIC CHARGES
-----------------------
   0 C :    0.110366
   1 N :   -0.236218
   2 C :    0.113782
   3 N :   -0.022116
   4 C :   -0.229300
   5 C :   -0.048033
   6 N :    0.030558
   7 H :    0.035770
   8 H :    0.052590
   9 H :    0.036066
  10 H :    0.038387
  11 H :    0.041785
  12 H :    0.048907
  13 H :    0.027454
Sum of atomic charges:   -0.0000000

LOEWDIN ATOMIC CHARGES
----------------------
   0 C :    0.015420
   1 N :    0.027079
   2 C :    0.000944
   3 N :    0.000392
   4 C :   -0.127548
   5 C :   -0.054952
   6 N :   -0.072378
   7 H :    0.026878
   8 H :    0.040030
   9 H :    0.024186
  10 H :    0.037434
  11 H :    0.030888
  12 H :    0.034978
  13 H :    0.016649

  Mayer bond orders larger than 0.1
B(  0-C ,  1-N ) :   0.9957 B(  0-C ,  7-H ) :   0.9628 B(  0-C ,  8-H ) :   0.9613
B(  0-C ,  9-H ) :   0.9621 B(  1-N ,  2-C ) :   0.9889 B(  1-N ,  3-N ) :   1.2223
B(  1-N ,  4-C ) :   0.1559 B(  2-C , 10-H ) :   0.9558 B(  2-C , 11-H ) :   0.9437
B(  2-C , 12-H ) :   0.9460 B(  3-N ,  4-C ) :   1.7222 B(  4-C ,  5-C ) :   1.1307
B(  4-C , 13-H ) :   0.9288 B(  5-C ,  6-N ) :   2.9668

FINAL SINGLE POINT ENERGY      -320.197906015125

DIPOLE MOMENT
-------------
                                X             Y             Z
Electronic contribution:      5.56791       3.66205       6.66033
Nuclear contribution   :     -6.89984      -4.71965      -8.78684
                        -----------------------------------------
Total Dipole Moment    :     -1.33193      -1.05760      -2.12651
                        -----------------------------------------
Magnitude (a.u.)       :      2.72298
Magnitude (Debye)      :      6.92126

                             ****ORCA TERMINATED NORMALLY****
TOTAL RUN TIME: 0 days 0 hours 0 minutes 6 seconds 125 msec
