                         Program Version 3.0.3 - RELEASE   -
|  1> ! RI PBE def2-SVP def2-SVP/J NBO PAL2
|  2> % maxcore 2000
|  3> % output
|  4>     # printlevel mini
|  5>     print[ P_Basis ] 0
|  6>     print[ P_SCFInfo ] 1
|  7>     print[ P_SCFIterInfo ] 1
|  8>     print[ P_OrbEn ] 0
|  9>     print[ P_Cartesian ] 0
| 10> end
| 11> *xyz 0 1
| 12>  C        0.9991350000     0.2274690000    -0.1092300000
| 13>  N        2.4321230000     0.2500650000    -0.0025680000
| 14>  C        3.0875280000     1.2715110000     0.6062260000
| 15>  N        2.6012290000     2.3541810000     1.0659910000
| 16>  C        4.6007080000     1.1285340000     0.6824540000
| 17>  C        5.0801140000    -0.2404390000     0.6298660000
| 18>  N        5.4168410000    -1.3382470000     0.5655250000
| 19>  H        0.6953220000    -0.6914760000    -0.6081020000
| 20>  H        0.6376140000     1.0703130000    -0.7061220000
| 21>  H        0.5123330000     0.2658970000     0.8724400000
| 22>  H        2.9326130000    -0.6100120000    -0.1515570000
| 23>  H        1.5921390000     2.4010460000     0.9486190000
| 24>  H        4.9348190000     1.6072880000     1.6034660000
| 25>  H        5.0429820000     1.6844700000    -0.1496190000
| 26> *
| 27>
| 28>                          ****END OF INPUT****
 Total Charge           Charge          ....    0
 Multiplicity           Mult            ....    1
 Number of Electrons    NEL             ....   52
 Basis Dimension        Dim             ....  133

MULLIKEN ATOMIC CHARGES
-----------------------
   0 C :    0.062268
   1 N :   -0.107202
   2 C :   -0.220571
   3 N :   -0.113915
   4 C :    0.214173
   5 C :   -0.319887
   6 N :    0.031389
   7 H :    0.034480
   8 H :    0.041970
   9 H :    0.038525
  10 H :    0.120122
  11 H :    0.070444
  12 H :    0.066182
  13 H :    0.082023
Sum of atomic charges:   -0.0000000

LOEWDIN ATOMIC CHARGES
----------------------
   0 C :    0.006554
   1 N :   -0.011412
   2 C :    0.004117
   3 N :   -0.173599
   4 C :   -0.057182
   5 C :   -0.050310
   6 N :   -0.069049
   7 H :    0.035743
   8 H :    0.026222
   9 H :    0.022694
  10 H :    0.075745
  11 H :    0.039966
  12 H :    0.074049
  13 H :    0.076463

  Mayer bond orders larger than 0.1
B(  0-C ,  1-N ) :   1.0284 B(  0-C ,  7-H ) :   0.9653 B(  0-C ,  8-H ) :   0.9615
B(  0-C ,  9-H ) :   0.9590 B(  1-N ,  2-C ) :   1.2412 B(  1-N ,  3-N ) :   0.1161
B(  1-N , 10-H ) :   0.9024 B(  2-C ,  3-N ) :   1.9974 B(  2-C ,  4-C ) :   0.9422
B(  3-N , 11-H ) :   0.9340 B(  4-C ,  5-C ) :   1.0515 B(  4-C , 12-H ) :   0.8781
B(  4-C , 13-H ) :   0.8810 B(  5-C ,  6-N ) :   3.0095

FINAL SINGLE POINT ENERGY      -320.236995842876

DIPOLE MOMENT
-------------
                                X             Y             Z
Electronic contribution:      5.91532      -1.72353       0.93677
Nuclear contribution   :     -6.85479       1.84334      -1.43727
                        -----------------------------------------
Total Dipole Moment    :     -0.93947       0.11981      -0.50050
                        -----------------------------------------
Magnitude (a.u.)       :      1.07120
Magnitude (Debye)      :      2.72276

                             ****ORCA TERMINATED NORMALLY****
TOTAL RUN TIME: 0 days 0 hours 0 minutes 6 seconds 983 msec
