                         Program Version 3.0.3 - RELEASE   -
|  1> ! RI PBE def2-SVP def2-SVP/J NBO PAL2
|  2> % maxcore 2000
|  3> % output
|  4>     # printlevel mini
|  5>     print[ P_Basis ] 0
|  6>     print[ P_SCFInfo ] 1
|  7>     print[ P_SCFIterInfo ] 1
|  8>     print[ P_OrbEn ] 0
|  9>     print[ P_Cartesian ] 0
| 10> end
| 11> *xyz 0 1
| 12>  C        2.8586360000     1.2204990000     0.3418560000
| 13>  N        2.3079220000    -0.0449760000    -0.0846140000
| 14>  C        3.0241100000    -1.0644940000    -0.6409470000
| 15>  N        2.5824100000    -2.1192370000    -1.2021500000
| 16>  C        1.1543120000    -2.2618020000    -1.3008730000
| 17>  C        4.4656290000    -0.9373260000    -0.5415230000
| 18>  N        5.6067200000    -0.8233580000    -0.4598590000
| 19>  H        2.2288720000     1.6397010000     1.1274180000
| 20>  H        2.9322970000     1.9458840000    -0.4754970000
| 21>  H        3.8551040000     1.0696880000     0.7560770000
| 22>  H        1.3182010000    -0.0747540000    -0.2607040000
| 23>  H        0.9179570000    -3.1932820000    -1.8138390000
| 24>  H        0.6891290000    -1.4424320000    -1.8707760000
| 25>  H        0.6739020000    -2.2919110000    -0.3117880000
| 26> *
| 27>
| 28>                          ****END OF INPUT****
 Total Charge           Charge          ....    0
 Multiplicity           Mult            ....    1
 Number of Electrons    NEL             ....   52
 Basis Dimension        Dim             ....  133

MULLIKEN ATOMIC CHARGES
-----------------------
   0 C :    0.068817
   1 N :   -0.147287
   2 C :   -0.102822
   3 N :   -0.153777
   4 C :    0.072024
   5 C :   -0.132151
   6 N :    0.061638
   7 H :    0.040257
   8 H :    0.047826
   9 H :    0.061403
  10 H :    0.115214
  11 H :    0.036357
  12 H :    0.014164
  13 H :    0.018336
Sum of atomic charges:   -0.0000000

LOEWDIN ATOMIC CHARGES
----------------------
   0 C :    0.012870
   1 N :    0.000357
   2 C :   -0.035149
   3 N :   -0.122593
   4 C :   -0.018766
   5 C :   -0.035805
   6 N :   -0.041246
   7 H :    0.032800
   8 H :    0.026103
   9 H :    0.042057
  10 H :    0.076102
  11 H :    0.029795
  12 H :    0.014869
  13 H :    0.018606

  Mayer bond orders larger than 0.1
B(  0-C ,  1-N ) :   1.0152 B(  0-C ,  7-H ) :   0.9657 B(  0-C ,  8-H ) :   0.9644
B(  0-C ,  9-H ) :   0.9517 B(  1-N ,  2-C ) :   1.2151 B(  1-N ,  3-N ) :   0.1293
B(  1-N , 10-H ) :   0.9181 B(  2-C ,  3-N ) :   1.9437 B(  2-C ,  5-C ) :   1.0059
B(  3-N ,  4-C ) :   1.0415 B(  4-C , 11-H ) :   0.9696 B(  4-C , 12-H ) :   0.9399
B(  4-C , 13-H ) :   0.9440 B(  5-C ,  6-N ) :   3.0182

FINAL SINGLE POINT ENERGY      -320.220314385049

DIPOLE MOMENT
-------------
                                X             Y             Z
Electronic contribution:      6.50124      -2.22939      -0.55714
Nuclear contribution   :     -8.30157       3.25646       0.91419
                        -----------------------------------------
Total Dipole Moment    :     -1.80033       1.02707       0.35705
                        -----------------------------------------
Magnitude (a.u.)       :      2.10323
Magnitude (Debye)      :      5.34597

                             ****ORCA TERMINATED NORMALLY****
TOTAL RUN TIME: 0 days 0 hours 0 minutes 6 seconds 752 msec
