                         Program Version 3.0.3 - RELEASE   -
|  1> ! RI PBE def2-SVP def2-SVP/J NBO PAL2
|  2> % maxcore 2000
|  3> % output
|  4>     # printlevel mini
|  5>     print[ P_Basis ] 0
|  6>     print[ P_SCFInfo ] 1
|  7>     print[ P_SCFIterInfo ] 1
|  8>     print[ P_OrbEn ] 0
|  9>     print[ P_Cartesian ] 0
| 10> end
| 11> *xyz 0 1
| 12>  C        1.2130320000    -0.4252030000     0.2755890000
| 13>  N        2.5766280000     0.0506790000     0.2685660000
| 14>  C        3.1856640000     0.5367740000    -0.8487830000
| 15>  N        2.3555870000     1.0247580000    -1.8158650000
| 16>  C        4.5469030000     0.5145760000    -0.9962520000
| 17>  C        5.1455230000     1.1564790000    -2.0881530000
| 18>  N        5.5903700000     1.6986460000    -3.0103940000
| 19>  H        1.0269120000    -0.9184110000     1.2287310000
| 20>  H        1.0103750000    -1.1359950000    -0.5324500000
| 21>  H        0.4964840000     0.3976540000     0.2009200000
| 22>  H        3.2027900000    -0.3852730000     0.9221180000
| 23>  H        1.5023540000     1.4639040000    -1.5134160000
| 24>  H        2.8204530000     1.4965620000    -2.5767370000
| 25>  H        5.1709240000    -0.0037390000    -0.2816950000
| 26> *
| 27>
| 28>                          ****END OF INPUT****
 Total Charge           Charge          ....    0
 Multiplicity           Mult            ....    1
 Number of Electrons    NEL             ....   52
 Basis Dimension        Dim             ....  133

MULLIKEN ATOMIC CHARGES
-----------------------
   0 C :    0.060090
   1 N :   -0.140076
   2 C :   -0.030380
   3 N :   -0.042303
   4 C :   -0.139458
   5 C :   -0.175913
   6 N :   -0.005033
   7 H :    0.034349
   8 H :    0.044853
   9 H :    0.033895
  10 H :    0.120431
  11 H :    0.115276
  12 H :    0.129125
  13 H :   -0.004858
Sum of atomic charges:   -0.0000000

LOEWDIN ATOMIC CHARGES
----------------------
   0 C :    0.007241
   1 N :   -0.010538
   2 C :    0.058379
   3 N :    0.008306
   4 C :   -0.229674
   5 C :   -0.068835
   6 N :   -0.123613
   7 H :    0.035553
   8 H :    0.024917
   9 H :    0.022822
  10 H :    0.081375
  11 H :    0.072680
  12 H :    0.084587
  13 H :    0.036800

  Mayer bond orders larger than 0.1
B(  0-C ,  1-N ) :   1.0331 B(  0-C ,  7-H ) :   0.9693 B(  0-C ,  8-H ) :   0.9617
B(  0-C ,  9-H ) :   0.9633 B(  1-N ,  2-C ) :   1.2439 B(  1-N , 10-H ) :   0.9279
B(  2-C ,  3-N ) :   1.3091 B(  2-C ,  4-C ) :   1.4976 B(  3-N , 11-H ) :   0.9361
B(  3-N , 12-H ) :   0.9246 B(  4-C ,  5-C ) :   1.1884 B(  4-C , 13-H ) :   0.9226
B(  5-C ,  6-N ) :   2.8927

FINAL SINGLE POINT ENERGY      -320.241033795940

DIPOLE MOMENT
-------------
                                X             Y             Z
Electronic contribution:      6.12707       2.53871      -3.45602
Nuclear contribution   :     -8.15872      -3.27457       5.06031
                        -----------------------------------------
Total Dipole Moment    :     -2.03165      -0.73586       1.60429
                        -----------------------------------------
Magnitude (a.u.)       :      2.69125
Magnitude (Debye)      :      6.84061

                             ****ORCA TERMINATED NORMALLY****
TOTAL RUN TIME: 0 days 0 hours 0 minutes 6 seconds 599 msec
