                         Program Version 3.0.3 - RELEASE   -
|  1> ! RI PBE def2-SVP def2-SVP/J NBO PAL2
|  2> % maxcore 2000
|  3> % output
|  4>     # printlevel mini
|  5>     print[ P_Basis ] 0
|  6>     print[ P_SCFInfo ] 1
|  7>     print[ P_SCFIterInfo ] 1
|  8>     print[ P_OrbEn ] 0
|  9>     print[ P_Cartesian ] 0
| 10> end
| 11> *xyz 0 1
| 12>  C        2.0330690000     1.2318340000    -0.5323300000
| 13>  N        2.2457800000     0.2328350000    -1.2732850000
| 14>  N        3.3245980000    -0.5599260000    -0.7994300000
| 15>  C        3.1256780000    -1.9532350000    -1.1836270000
| 16>  C        4.0604120000    -1.1146010000    -1.9603460000
| 17>  C        5.4822810000    -1.2225820000    -1.8368540000
| 18>  C        6.6754030000    -1.3284080000    -1.7566600000
| 19>  H        1.2253700000     1.9026590000    -0.8108450000
| 20>  H        2.6269120000     1.4347310000     0.3601790000
| 21>  H        2.1799570000    -2.1945500000    -1.6552120000
| 22>  H        3.5166820000    -2.6697280000    -0.4723020000
| 23>  H        3.6915960000    -0.7765230000    -2.9237820000
| 24>  H        7.7329440000    -1.4182070000    -1.6789040000
| 25> *
| 26>
| 27>                          ****END OF INPUT****
 Total Charge           Charge          ....    0
 Multiplicity           Mult            ....    1
 Number of Electrons    NEL             ....   50
 Basis Dimension        Dim             ....  128

MULLIKEN ATOMIC CHARGES
-----------------------
   0 C :    0.030919
   1 N :   -0.102625
   2 N :   -0.224733
   3 C :    0.133205
   4 C :   -0.085855
   5 C :    0.482616
   6 C :   -0.456485
   7 H :    0.051296
   8 H :    0.033779
   9 H :    0.035717
  10 H :    0.046413
  11 H :    0.050896
  12 H :    0.004859
Sum of atomic charges:    0.0000000

LOEWDIN ATOMIC CHARGES
----------------------
   0 C :    0.008433
   1 N :   -0.035367
   2 N :   -0.059689
   3 C :    0.025989
   4 C :   -0.010359
   5 C :   -0.018916
   6 C :   -0.066217
   7 H :    0.023468
   8 H :    0.006087
   9 H :    0.022777
  10 H :    0.031580
  11 H :    0.036305
  12 H :    0.035907

  Mayer bond orders larger than 0.1
B(  0-C ,  1-N ) :   1.9812 B(  0-C ,  7-H ) :   0.9492 B(  0-C ,  8-H ) :   0.9274
B(  1-N ,  2-N ) :   0.9432 B(  2-N ,  3-C ) :   0.9331 B(  2-N ,  4-C ) :   0.8701
B(  3-C ,  4-C ) :   1.0483 B(  3-C ,  9-H ) :   0.9240 B(  3-C , 10-H ) :   0.9401
B(  4-C ,  5-C ) :   0.9767 B(  4-C , 11-H ) :   0.9117 B(  5-C ,  6-C ) :   2.3024
B(  5-C , 12-H ) :  -0.1030 B(  6-C , 12-H ) :   1.0936

FINAL SINGLE POINT ENERGY      -302.874035718497

DIPOLE MOMENT
-------------
                                X             Y             Z
Electronic contribution:      1.43018      -0.13316      -0.57757
Nuclear contribution   :     -1.62161       0.16367       0.65786
                        -----------------------------------------
Total Dipole Moment    :     -0.19143       0.03051       0.08029
                        -----------------------------------------
Magnitude (a.u.)       :      0.20982
Magnitude (Debye)      :      0.53331

                             ****ORCA TERMINATED NORMALLY****
TOTAL RUN TIME: 0 days 0 hours 0 minutes 6 seconds 124 msec
