                         Program Version 3.0.3 - RELEASE   -
|  1> ! RI PBE def2-SVP def2-SVP/J NBO PAL2
|  2> % maxcore 2000
|  3> % output
|  4>     # printlevel mini
|  5>     print[ P_Basis ] 0
|  6>     print[ P_SCFInfo ] 1
|  7>     print[ P_SCFIterInfo ] 1
|  8>     print[ P_OrbEn ] 0
|  9>     print[ P_Cartesian ] 0
| 10> end
| 11> *xyz 0 1
| 12>  C        2.0486570000     0.7433610000    -0.0776940000
| 13>  N        2.2434750000    -0.1412010000     0.7997770000
| 14>  N        3.4190380000    -0.8949150000     0.5394830000
| 15>  C        3.2614640000    -2.2496280000     1.0538520000
| 16>  C        4.0880740000    -1.2804000000     1.8009030000
| 17>  C        3.6311660000    -0.7628360000     3.0601420000
| 18>  N        3.3406150000    -0.3509050000     4.0938450000
| 19>  H        1.1677870000     1.3693170000     0.0298250000
| 20>  H        2.7248510000     0.8929480000    -0.9208430000
| 21>  H        3.7480090000    -3.0208490000     0.4696960000
| 22>  H        2.2926300000    -2.4893330000     1.4763370000
| 23>  H        5.1679440000    -1.3171580000     1.7112080000
| 24> *
| 25>
| 26>                          ****END OF INPUT****
 Total Charge           Charge          ....    0
 Multiplicity           Mult            ....    1
 Number of Electrons    NEL             ....   50
 Basis Dimension        Dim             ....  123

MULLIKEN ATOMIC CHARGES
-----------------------
   0 C :    0.038444
   1 N :   -0.091063
   2 N :   -0.206346
   3 C :    0.130069
   4 C :   -0.152233
   5 C :   -0.086712
   6 N :    0.072230
   7 H :    0.060975
   8 H :    0.035881
   9 H :    0.058085
  10 H :    0.055803
  11 H :    0.084867
Sum of atomic charges:    0.0000000

LOEWDIN ATOMIC CHARGES
----------------------
   0 C :    0.020204
   1 N :   -0.027223
   2 N :   -0.053836
   3 C :    0.034678
   4 C :   -0.028245
   5 C :   -0.051763
   6 N :   -0.049528
   7 H :    0.028634
   8 H :    0.007237
   9 H :    0.033995
  10 H :    0.031471
  11 H :    0.054378

  Mayer bond orders larger than 0.1
B(  0-C ,  1-N ) :   1.9854 B(  0-C ,  7-H ) :   0.9486 B(  0-C ,  8-H ) :   0.9265
B(  1-N ,  2-N ) :   0.9582 B(  2-N ,  3-C ) :   0.9386 B(  2-N ,  4-C ) :   0.9071
B(  3-C ,  4-C ) :   1.0444 B(  3-C ,  9-H ) :   0.9413 B(  3-C , 10-H ) :   0.9240
B(  4-C ,  5-C ) :   1.1100 B(  4-C , 11-H ) :   0.9168 B(  5-C ,  6-N ) :   3.0170

FINAL SINGLE POINT ENERGY      -318.948418807465

DIPOLE MOMENT
-------------
                                X             Y             Z
Electronic contribution:      0.73444       0.55522       3.34423
Nuclear contribution   :     -0.52420      -0.99089      -4.74994
                        -----------------------------------------
Total Dipole Moment    :      0.21024      -0.43566      -1.40571
                        -----------------------------------------
Magnitude (a.u.)       :      1.48661
Magnitude (Debye)      :      3.77867

                             ****ORCA TERMINATED NORMALLY****
TOTAL RUN TIME: 0 days 0 hours 0 minutes 5 seconds 495 msec
