                         Program Version 3.0.3 - RELEASE   -
|  1> ! RI PBE def2-SVP def2-SVP/J NBO PAL2
|  2> % maxcore 2000
|  3> % output
|  4>     # printlevel mini
|  5>     print[ P_Basis ] 0
|  6>     print[ P_SCFInfo ] 1
|  7>     print[ P_SCFIterInfo ] 1
|  8>     print[ P_OrbEn ] 0
|  9>     print[ P_Cartesian ] 0
| 10> end
| 11> *xyz 0 1
| 12>  C        1.5851970000    -1.1329580000     0.5930870000
| 13>  N        2.8492980000    -0.4476800000     0.3849150000
| 14>  N        3.0457470000     0.6117260000     1.2590100000
| 15>  C        2.3323530000     1.7778990000     1.3164190000
| 16>  C        2.8599210000     2.5368920000     2.3291960000
| 17>  C        3.9221010000     1.7965380000     2.9045450000
| 18>  C        4.0126050000     0.6123500000     2.2190980000
| 19>  H        1.5108350000    -1.9343050000    -0.1442960000
| 20>  H        0.7035560000    -0.4854760000     0.5022260000
| 21>  H        1.5833120000    -1.5819280000     1.5871990000
| 22>  H        2.9217870000    -0.0970080000    -0.5623770000
| 23>  H        1.5186450000     1.9683470000     0.6346970000
| 24>  H        2.5217900000     3.5188010000     2.6221150000
| 25>  H        4.5532420000     2.1008240000     3.7245970000
| 26>  H        4.6765020000    -0.2308230000     2.3151800000
| 27> *
| 28>
| 29>                          ****END OF INPUT****
 Total Charge           Charge          ....    0
 Multiplicity           Mult            ....    1
 Number of Electrons    NEL             ....   52
 Basis Dimension        Dim             ....  138

MULLIKEN ATOMIC CHARGES
-----------------------
   0 C :    0.066589
   1 N :   -0.138632
   2 N :   -0.133534
   3 C :    0.042671
   4 C :   -0.021865
   5 C :   -0.027091
   6 C :    0.071635
   7 H :    0.033202
   8 H :    0.015974
   9 H :    0.039357
  10 H :    0.115614
  11 H :   -0.009303
  12 H :   -0.024478
  13 H :   -0.021630
  14 H :   -0.008509
Sum of atomic charges:    0.0000000

LOEWDIN ATOMIC CHARGES
----------------------
   0 C :   -0.007234
   1 N :   -0.031472
   2 N :    0.100365
   3 C :   -0.057785
   4 C :   -0.081639
   5 C :   -0.090505
   6 C :   -0.034587
   7 H :    0.029564
   8 H :    0.005259
   9 H :    0.029902
  10 H :    0.059049
  11 H :    0.015083
  12 H :    0.022268
  13 H :    0.022494
  14 H :    0.019236

  Mayer bond orders larger than 0.1
B(  0-C ,  1-N ) :   1.0449 B(  0-C ,  7-H ) :   0.9677 B(  0-C ,  8-H ) :   0.9538
B(  0-C ,  9-H ) :   0.9712 B(  1-N ,  2-N ) :   0.9911 B(  1-N , 10-H ) :   0.9482
B(  2-N ,  3-C ) :   1.1856 B(  2-N ,  6-C ) :   1.2030 B(  3-C ,  4-C ) :   1.4692
B(  3-C , 11-H ) :   0.9819 B(  4-C ,  5-C ) :   1.3052 B(  4-C , 12-H ) :   1.0003
B(  5-C ,  6-C ) :   1.4546 B(  5-C , 13-H ) :   1.0050 B(  6-C , 14-H ) :   0.9908

FINAL SINGLE POINT ENERGY      -304.192580627781

DIPOLE MOMENT
-------------
                                X             Y             Z
Electronic contribution:      2.59514       2.23642       0.75983
Nuclear contribution   :     -3.06167      -2.62890      -1.40621
                        -----------------------------------------
Total Dipole Moment    :     -0.46652      -0.39248      -0.64638
                        -----------------------------------------
Magnitude (a.u.)       :      0.88853
Magnitude (Debye)      :      2.25847

                             ****ORCA TERMINATED NORMALLY****
TOTAL RUN TIME: 0 days 0 hours 0 minutes 7 seconds 96 msec
