                         Program Version 3.0.3 - RELEASE   -
|  1> ! RI PBE def2-SVP def2-SVP/J NBO PAL2
|  2> % maxcore 2000
|  3> % output
|  4>     # printlevel mini
|  5>     print[ P_Basis ] 0
|  6>     print[ P_SCFInfo ] 1
|  7>     print[ P_SCFIterInfo ] 1
|  8>     print[ P_OrbEn ] 0
|  9>     print[ P_Cartesian ] 0
| 10> end
| 11> *xyz 0 1
| 12>  C        2.4920480000    -1.4561060000     0.6228410000
| 13>  N        2.4847000000    -0.3451070000     0.0138740000
| 14>  N        3.1432630000    -0.2236390000    -1.1649980000
| 15>  C        3.1383250000     0.9771380000    -1.8271290000
| 16>  C        3.8648730000     0.8324450000    -2.9722080000
| 17>  C        4.3296890000    -0.5109120000    -3.0060570000
| 18>  C        3.8732380000    -1.1419670000    -1.8834690000
| 19>  H        1.9506060000    -1.4974060000     1.5608110000
| 20>  H        2.9974420000    -2.3559810000     0.2741190000
| 21>  H        2.6089240000     1.8125700000    -1.4004880000
| 22>  H        4.0468130000     1.5996190000    -3.7077000000
| 23>  H        4.9356550000    -0.9659080000    -3.7744090000
| 24>  H        4.0119150000    -2.1559370000    -1.5513680000
| 25> *
| 26>
| 27>                          ****END OF INPUT****
 Total Charge           Charge          ....    0
 Multiplicity           Mult            ....    1
 Number of Electrons    NEL             ....   50
 Basis Dimension        Dim             ....  128

MULLIKEN ATOMIC CHARGES
-----------------------
   0 C :   -0.017475
   1 N :   -0.046670
   2 N :   -0.115615
   3 C :    0.093245
   4 C :   -0.021281
   5 C :   -0.024451
   6 C :    0.073849
   7 H :    0.053348
   8 H :    0.026114
   9 H :    0.001684
  10 H :   -0.010196
  11 H :   -0.011944
  12 H :   -0.000607
Sum of atomic charges:   -0.0000000

LOEWDIN ATOMIC CHARGES
----------------------
   0 C :   -0.017744
   1 N :   -0.013902
   2 N :    0.106311
   3 C :   -0.012914
   4 C :   -0.080522
   5 C :   -0.060534
   6 C :   -0.047359
   7 H :    0.027095
   8 H :    0.001185
   9 H :    0.024589
  10 H :    0.027187
  11 H :    0.026651
  12 H :    0.019958

  Mayer bond orders larger than 0.1
B(  0-C ,  1-N ) :   1.9276 B(  0-C ,  7-H ) :   0.9507 B(  0-C ,  8-H ) :   0.9258
B(  1-N ,  2-N ) :   1.0194 B(  2-N ,  3-C ) :   1.1552 B(  2-N ,  6-C ) :   1.1427
B(  3-C ,  4-C ) :   1.4924 B(  3-C ,  9-H ) :   0.9924 B(  4-C ,  5-C ) :   1.2653
B(  4-C , 10-H ) :   1.0054 B(  5-C ,  6-C ) :   1.5013 B(  5-C , 11-H ) :   0.9963
B(  6-C , 12-H ) :   0.9769

FINAL SINGLE POINT ENERGY      -302.987507220840

DIPOLE MOMENT
-------------
                                X             Y             Z
Electronic contribution:     -0.54055       1.19145       0.25409
Nuclear contribution   :      0.60767      -1.71799      -0.06260
                        -----------------------------------------
Total Dipole Moment    :      0.06711      -0.52654       0.19149
                        -----------------------------------------
Magnitude (a.u.)       :      0.56428
Magnitude (Debye)      :      1.43430

                             ****ORCA TERMINATED NORMALLY****
TOTAL RUN TIME: 0 days 0 hours 0 minutes 6 seconds 808 msec
