                         Program Version 3.0.3 - RELEASE   -
|  1> ! RI PBE def2-SVP def2-SVP/J NBO PAL2
|  2> % maxcore 2000
|  3> % output
|  4>     # printlevel mini
|  5>     print[ P_Basis ] 0
|  6>     print[ P_SCFInfo ] 1
|  7>     print[ P_SCFIterInfo ] 1
|  8>     print[ P_OrbEn ] 0
|  9>     print[ P_Cartesian ] 0
| 10> end
| 11> *xyz 0 1
| 12>  C        2.9183700000    -1.1856930000     0.5706780000
| 13>  N        2.3477220000    -0.0449010000     0.6646340000
| 14>  N        3.0594100000     1.0666020000     0.6835400000
| 15>  C        2.4069080000     2.3111530000     1.0279510000
| 16>  C        3.5147230000     3.3243620000     0.8008920000
| 17>  C        4.7630840000     2.5689260000     1.2605290000
| 18>  C        4.4966540000     1.1182170000     0.8566750000
| 19>  H        2.2734960000    -2.0548860000     0.5372430000
| 20>  H        3.9961980000    -1.3310290000     0.5032000000
| 21>  H        2.0733640000     2.3165460000     2.0768210000
| 22>  H        1.5309440000     2.4644070000     0.3954870000
| 23>  H        3.3567330000     4.2552920000     1.3465850000
| 24>  H        3.5850790000     3.5623550000    -0.2640430000
| 25>  H        4.8558270000     2.6373280000     2.3475790000
| 26>  H        5.6840710000     2.9613980000     0.8279100000
| 27>  H        4.8196230000     0.4063460000     1.6296500000
| 28>  H        5.0094020000     0.8376870000    -0.0726390000
| 29> *
| 30>
| 31>                          ****END OF INPUT****
 Total Charge           Charge          ....    0
 Multiplicity           Mult            ....    1
 Number of Electrons    NEL             ....   54
 Basis Dimension        Dim             ....  148

MULLIKEN ATOMIC CHARGES
-----------------------
   0 C :   -0.082981
   1 N :   -0.060742
   2 N :   -0.294000
   3 C :    0.187276
   4 C :   -0.025114
   5 C :   -0.056612
   6 C :    0.151092
   7 H :    0.026216
   8 H :    0.006678
   9 H :    0.005343
  10 H :    0.018894
  11 H :    0.019291
  12 H :    0.025412
  13 H :    0.024115
  14 H :    0.015868
  15 H :    0.015096
  16 H :    0.024168
Sum of atomic charges:   -0.0000000

LOEWDIN ATOMIC CHARGES
----------------------
   0 C :   -0.106934
   1 N :   -0.031927
   2 N :   -0.014048
   3 C :    0.031176
   4 C :   -0.042280
   5 C :   -0.041847
   6 C :    0.015132
   7 H :    0.013760
   8 H :   -0.010693
   9 H :    0.010778
  10 H :    0.024837
  11 H :    0.028203
  12 H :    0.028878
  13 H :    0.029516
  14 H :    0.028364
  15 H :    0.017744
  16 H :    0.019341

  Mayer bond orders larger than 0.1
B(  0-C ,  1-N ) :   1.8346 B(  0-C ,  2-N ) :   0.1502 B(  0-C ,  7-H ) :   0.9565
B(  0-C ,  8-H ) :   0.9232 B(  1-N ,  2-N ) :   1.1556 B(  2-N ,  3-C ) :   0.9757
B(  2-N ,  6-C ) :   0.9779 B(  3-C ,  4-C ) :   1.0778 B(  3-C ,  9-H ) :   0.9322
B(  3-C , 10-H ) :   0.9376 B(  4-C ,  5-C ) :   1.1110 B(  4-C , 11-H ) :   0.9403
B(  4-C , 12-H ) :   0.9358 B(  5-C ,  6-C ) :   1.0890 B(  5-C , 13-H ) :   0.9310
B(  5-C , 14-H ) :   0.9342 B(  6-C , 15-H ) :   0.9152 B(  6-C , 16-H ) :   0.9336

FINAL SINGLE POINT ENERGY      -305.387631086517

DIPOLE MOMENT
-------------
                                X             Y             Z
Electronic contribution:     -2.60816      -2.17468      -0.73793
Nuclear contribution   :      3.27595       2.79716       0.85985
                        -----------------------------------------
Total Dipole Moment    :      0.66780       0.62248       0.12191
                        -----------------------------------------
Magnitude (a.u.)       :      0.92103
Magnitude (Debye)      :      2.34107

                             ****ORCA TERMINATED NORMALLY****
TOTAL RUN TIME: 0 days 0 hours 0 minutes 7 seconds 705 msec
