                         Program Version 3.0.3 - RELEASE   -
|  1> ! RI PBE def2-SVP def2-SVP/J NBO PAL2
|  2> % maxcore 2000
|  3> % output
|  4>     # printlevel mini
|  5>     print[ P_Basis ] 0
|  6>     print[ P_SCFInfo ] 1
|  7>     print[ P_SCFIterInfo ] 1
|  8>     print[ P_OrbEn ] 0
|  9>     print[ P_Cartesian ] 0
| 10> end
| 11> *xyz 0 1
| 12>  C        3.0221250000     0.9575470000     0.0742920000
| 13>  N        2.4844250000    -0.1968460000     0.1972170000
| 14>  N        3.1822820000    -1.2186010000     0.6410120000
| 15>  C        2.5675160000    -2.5195820000     0.7769970000
| 16>  C        3.7016030000    -3.3390140000     1.2969260000
| 17>  C        4.8018190000    -2.6110650000     1.4367120000
| 18>  C        4.5723490000    -1.1910980000     1.0312530000
| 19>  H        2.3921760000     1.7557890000    -0.2964840000
| 20>  H        4.0611800000     1.1784780000     0.3179140000
| 21>  H        2.1889120000    -2.8927240000    -0.1845920000
| 22>  H        1.7162240000    -2.4962830000     1.4712490000
| 23>  H        3.6058660000    -4.3928700000     1.5219060000
| 24>  H        5.7586210000    -2.9675640000     1.7951940000
| 25>  H        5.2231710000    -0.8759410000     0.1990270000
| 26>  H        4.7506200000    -0.4796360000     1.8543780000
| 27> *
| 28>
| 29>                          ****END OF INPUT****
 Total Charge           Charge          ....    0
 Multiplicity           Mult            ....    1
 Number of Electrons    NEL             ....   52
 Basis Dimension        Dim             ....  138

MULLIKEN ATOMIC CHARGES
-----------------------
   0 C :   -0.088419
   1 N :   -0.054355
   2 N :   -0.303092
   3 C :    0.260079
   4 C :   -0.096287
   5 C :   -0.083023
   6 C :    0.209858
   7 H :    0.027783
   8 H :    0.003740
   9 H :    0.026200
  10 H :    0.031065
  11 H :    0.004540
  12 H :   -0.000024
  13 H :    0.032577
  14 H :    0.029359
Sum of atomic charges:   -0.0000000

LOEWDIN ATOMIC CHARGES
----------------------
   0 C :   -0.111279
   1 N :   -0.028799
   2 N :   -0.008637
   3 C :    0.036801
   4 C :   -0.034475
   5 C :   -0.035786
   6 C :    0.019227
   7 H :    0.014217
   8 H :   -0.011176
   9 H :    0.027072
  10 H :    0.027892
  11 H :    0.028966
  12 H :    0.027572
  13 H :    0.024617
  14 H :    0.023788

  Mayer bond orders larger than 0.1
B(  0-C ,  1-N ) :   1.8361 B(  0-C ,  2-N ) :   0.1563 B(  0-C ,  7-H ) :   0.9555
B(  0-C ,  8-H ) :   0.9216 B(  1-N ,  2-N ) :   1.1572 B(  2-N ,  3-C ) :   0.9789
B(  2-N ,  6-C ) :   0.9750 B(  3-C ,  4-C ) :   1.0243 B(  3-C ,  9-H ) :   0.9140
B(  3-C , 10-H ) :   0.9148 B(  4-C ,  5-C ) :   1.8812 B(  4-C , 11-H ) :   0.9846
B(  5-C ,  6-C ) :   1.0220 B(  5-C , 12-H ) :   0.9853 B(  6-C , 13-H ) :   0.9044
B(  6-C , 14-H ) :   0.9022

FINAL SINGLE POINT ENERGY      -304.167742028543

DIPOLE MOMENT
-------------
                                X             Y             Z
Electronic contribution:     -1.22031      -0.66240      -0.18688
Nuclear contribution   :      1.81654       0.11594       0.49083
                        -----------------------------------------
Total Dipole Moment    :      0.59623      -0.54646       0.30395
                        -----------------------------------------
Magnitude (a.u.)       :      0.86400
Magnitude (Debye)      :      2.19610

                             ****ORCA TERMINATED NORMALLY****
TOTAL RUN TIME: 0 days 0 hours 0 minutes 6 seconds 175 msec
