                         Program Version 3.0.3 - RELEASE   -
|  1> ! RI PBE def2-SVP def2-SVP/J NBO PAL2
|  2> % maxcore 2000
|  3> % output
|  4>     # printlevel mini
|  5>     print[ P_Basis ] 0
|  6>     print[ P_SCFInfo ] 1
|  7>     print[ P_SCFIterInfo ] 1
|  8>     print[ P_OrbEn ] 0
|  9>     print[ P_Cartesian ] 0
| 10> end
| 11> *xyz 0 1
| 12>  C        1.3494380000     1.1350260000     0.2352780000
| 13>  N        2.5608920000     1.3747490000     0.5318730000
| 14>  N        3.5295130000     1.0471190000    -0.3369430000
| 15>  C        4.8394140000     0.8607150000     0.2114640000
| 16>  C        5.2870470000    -0.4928740000     0.8141810000
| 17>  C        6.6731420000    -0.2364120000     0.1933290000
| 18>  C        6.0072560000     0.7578040000    -0.7781880000
| 19>  H        0.5827230000     1.4583980000     0.9283870000
| 20>  H        1.0475170000     0.6331430000    -0.6901310000
| 21>  H        3.2686500000     0.3770790000    -1.0575610000
| 22>  H        5.0014040000     1.6660300000     0.9304870000
| 23>  H        4.7776560000    -1.3218590000     0.3140140000
| 24>  H        5.2086570000    -0.6280320000     1.8936070000
| 25>  H        7.2047490000    -1.0857860000    -0.2356450000
| 26>  H        7.3383810000     0.2739070000     0.8927440000
| 27>  H        5.6906300000     0.2515240000    -1.6953530000
| 28>  H        6.5345300000     1.6734690000    -1.0485330000
| 29> *
| 30>
| 31>                          ****END OF INPUT****
 Total Charge           Charge          ....    0
 Multiplicity           Mult            ....    1
 Number of Electrons    NEL             ....   54
 Basis Dimension        Dim             ....  148

MULLIKEN ATOMIC CHARGES
-----------------------
   0 C :   -0.062689
   1 N :   -0.078020
   2 N :   -0.064747
   3 C :   -0.090043
   4 C :    0.067003
   5 C :   -0.040848
   6 C :    0.060388
   7 H :    0.040290
   8 H :   -0.002100
   9 H :    0.079358
  10 H :    0.019818
  11 H :   -0.011588
  12 H :    0.025703
  13 H :    0.013773
  14 H :    0.025970
  15 H :   -0.002149
  16 H :    0.019881
Sum of atomic charges:   -0.0000000

LOEWDIN ATOMIC CHARGES
----------------------
   0 C :   -0.084575
   1 N :   -0.023666
   2 N :    0.018040
   3 C :    0.003216
   4 C :   -0.045293
   5 C :   -0.035004
   6 C :   -0.034262
   7 H :    0.017759
   8 H :   -0.011641
   9 H :    0.038843
  10 H :    0.030609
  11 H :    0.020116
  12 H :    0.019984
  13 H :    0.018308
  14 H :    0.026766
  15 H :    0.021682
  16 H :    0.019117

  Mayer bond orders larger than 0.1
B(  0-C ,  1-N ) :   1.8809 B(  0-C ,  2-N ) :   0.1498 B(  0-C ,  7-H ) :   0.9568
B(  0-C ,  8-H ) :   0.9269 B(  1-N ,  2-N ) :   1.1031 B(  2-N ,  3-C ) :   1.0492
B(  2-N ,  9-H ) :   0.9024 B(  3-C ,  4-C ) :   1.0594 B(  3-C ,  6-C ) :   1.0595
B(  3-C , 10-H ) :   0.9058 B(  4-C ,  5-C ) :   1.1224 B(  4-C , 11-H ) :   0.9007
B(  4-C , 12-H ) :   0.9347 B(  5-C ,  6-C ) :   1.1056 B(  5-C , 13-H ) :   0.9343
B(  5-C , 14-H ) :   0.9397 B(  6-C , 15-H ) :   0.9148 B(  6-C , 16-H ) :   0.9327

FINAL SINGLE POINT ENERGY      -305.361908737447

DIPOLE MOMENT
-------------
                                X             Y             Z
Electronic contribution:     -3.15159       2.29599       0.43774
Nuclear contribution   :      3.37330      -2.78399      -0.84203
                        -----------------------------------------
Total Dipole Moment    :      0.22171      -0.48800      -0.40429
                        -----------------------------------------
Magnitude (a.u.)       :      0.67138
Magnitude (Debye)      :      1.70651

                             ****ORCA TERMINATED NORMALLY****
TOTAL RUN TIME: 0 days 0 hours 0 minutes 7 seconds 837 msec
