                         Program Version 3.0.3 - RELEASE   -
|  1> ! RI PBE def2-SVP def2-SVP/J NBO PAL2
|  2> % maxcore 2000
|  3> % output
|  4>     # printlevel mini
|  5>     print[ P_Basis ] 0
|  6>     print[ P_SCFInfo ] 1
|  7>     print[ P_SCFIterInfo ] 1
|  8>     print[ P_OrbEn ] 0
|  9>     print[ P_Cartesian ] 0
| 10> end
| 11> *xyz 0 1
| 12>  C        1.6759720000     1.2690210000     1.3612790000
| 13>  N        2.4067850000     0.2711760000     1.0740870000
| 14>  N        3.6915580000     0.4706190000     0.7315350000
| 15>  C        4.5652040000    -0.6613250000     0.9493640000
| 16>  C        4.9191320000    -0.9146800000     2.3903130000
| 17>  C        6.2046180000    -1.6016090000     2.7252970000
| 18>  C        6.0359300000    -0.1427140000     3.0266060000
| 19>  H        0.6297240000     1.0881120000     1.5751690000
| 20>  H        2.0506100000     2.2977120000     1.3870970000
| 21>  H        4.0822190000     1.3610560000     1.0324490000
| 22>  H        5.4799580000    -0.4919720000     0.3709650000
| 23>  H        4.0636800000    -1.5319750000     0.5202810000
| 24>  H        4.0679020000    -1.1411600000     3.0242380000
| 25>  H        6.8577310000    -1.8732340000     1.9036030000
| 26>  H        6.2161790000    -2.2995020000     3.5529000000
| 27>  H        6.5813220000     0.5627360000     2.4089200000
| 28>  H        5.9317940000     0.1585290000     4.0613870000
| 29> *
| 30>
| 31>                          ****END OF INPUT****
 Total Charge           Charge          ....    0
 Multiplicity           Mult            ....    1
 Number of Electrons    NEL             ....   54
 Basis Dimension        Dim             ....  148

MULLIKEN ATOMIC CHARGES
-----------------------
   0 C :   -0.064316
   1 N :   -0.087601
   2 N :   -0.115413
   3 C :    0.208145
   4 C :   -0.169301
   5 C :   -0.036836
   6 C :   -0.043677
   7 H :    0.041487
   8 H :    0.000362
   9 H :    0.083413
  10 H :   -0.008905
  11 H :    0.022233
  12 H :    0.032304
  13 H :    0.031544
  14 H :    0.040090
  15 H :    0.030378
  16 H :    0.036091
Sum of atomic charges:   -0.0000000

LOEWDIN ATOMIC CHARGES
----------------------
   0 C :   -0.083921
   1 N :   -0.026677
   2 N :    0.013213
   3 C :    0.014068
   4 C :   -0.059323
   5 C :   -0.043973
   6 C :   -0.051778
   7 H :    0.017833
   8 H :   -0.010788
   9 H :    0.040903
  10 H :    0.022364
  11 H :    0.032791
  12 H :    0.029673
  13 H :    0.025625
  14 H :    0.029571
  15 H :    0.022185
  16 H :    0.028235

  Mayer bond orders larger than 0.1
B(  0-C ,  1-N ) :   1.8815 B(  0-C ,  2-N ) :   0.1489 B(  0-C ,  7-H ) :   0.9573
B(  0-C ,  8-H ) :   0.9289 B(  1-N ,  2-N ) :   1.1009 B(  2-N ,  3-C ) :   1.0529
B(  2-N ,  9-H ) :   0.9176 B(  3-C ,  4-C ) :   1.0760 B(  3-C , 10-H ) :   0.9195
B(  3-C , 11-H ) :   0.9199 B(  4-C ,  5-C ) :   0.9838 B(  4-C ,  6-C ) :   0.9839
B(  4-C , 12-H ) :   0.9417 B(  5-C ,  6-C ) :   1.0431 B(  5-C , 13-H ) :   0.9474
B(  5-C , 14-H ) :   0.9464 B(  6-C , 15-H ) :   0.9502 B(  6-C , 16-H ) :   0.9479

FINAL SINGLE POINT ENERGY      -305.356126161154

DIPOLE MOMENT
-------------
                                X             Y             Z
Electronic contribution:     -3.10770       0.51448      -1.99436
Nuclear contribution   :      3.64707      -0.20615       2.27166
                        -----------------------------------------
Total Dipole Moment    :      0.53937       0.30833       0.27730
                        -----------------------------------------
Magnitude (a.u.)       :      0.68036
Magnitude (Debye)      :      1.72933

                             ****ORCA TERMINATED NORMALLY****
TOTAL RUN TIME: 0 days 0 hours 0 minutes 7 seconds 624 msec
