                         Program Version 3.0.3 - RELEASE   -
|  1> ! RI PBE def2-SVP def2-SVP/J NBO PAL2
|  2> % maxcore 2000
|  3> % output
|  4>     # printlevel mini
|  5>     print[ P_Basis ] 0
|  6>     print[ P_SCFInfo ] 1
|  7>     print[ P_SCFIterInfo ] 1
|  8>     print[ P_OrbEn ] 0
|  9>     print[ P_Cartesian ] 0
| 10> end
| 11> *xyz 0 1
| 12>  C        4.4486900000     1.9860520000     0.2213910000
| 13>  N        3.9652530000     1.1751120000     1.0661570000
| 14>  N        4.7868790000     0.0765470000     1.2883570000
| 15>  C        4.2890100000    -0.7296200000     2.1389640000
| 16>  C        4.9749670000    -1.9616030000     2.5352460000
| 17>  C        5.8036860000    -2.7109470000     1.5154800000
| 18>  C        6.4858040000    -1.9797810000     2.6075430000
| 19>  H        3.8736730000     2.8760340000    -0.0150850000
| 20>  H        5.4109680000     1.8145240000    -0.2646430000
| 21>  H        3.3201860000    -0.5036650000     2.5927680000
| 22>  H        4.4458340000    -2.5597190000     3.2661940000
| 23>  H        5.8296330000    -2.2721520000     0.5262950000
| 24>  H        5.7689200000    -3.7925010000     1.5524070000
| 25>  H        6.9729830000    -1.0461560000     2.3571340000
| 26>  H        6.9329140000    -2.5448270000     3.4157040000
| 27> *
| 28>
| 29>                          ****END OF INPUT****
 Total Charge           Charge          ....    0
 Multiplicity           Mult            ....    1
 Number of Electrons    NEL             ....   52
 Basis Dimension        Dim             ....  138

MULLIKEN ATOMIC CHARGES
-----------------------
   0 C :    0.019819
   1 N :   -0.105367
   2 N :   -0.118900
   3 C :    0.069162
   4 C :   -0.105450
   5 C :   -0.021304
   6 C :   -0.011356
   7 H :    0.044158
   8 H :    0.019265
   9 H :   -0.010969
  10 H :    0.025380
  11 H :    0.051408
  12 H :    0.048576
  13 H :    0.052672
  14 H :    0.042906
Sum of atomic charges:   -0.0000000

LOEWDIN ATOMIC CHARGES
----------------------
   0 C :    0.000350
   1 N :   -0.040514
   2 N :   -0.073695
   3 C :    0.032352
   4 C :   -0.062398
   5 C :   -0.020485
   6 C :   -0.018336
   7 H :    0.019643
   8 H :   -0.002225
   9 H :    0.005019
  10 H :    0.032703
  11 H :    0.032678
  12 H :    0.031508
  13 H :    0.032845
  14 H :    0.030553

  Mayer bond orders larger than 0.1
B(  0-C ,  1-N ) :   1.9245 B(  0-C ,  3-C ) :   0.1082 B(  0-C ,  7-H ) :   0.9511
B(  0-C ,  8-H ) :   0.9247 B(  1-N ,  2-N ) :   0.9916 B(  2-N ,  3-C ) :   1.8282
B(  3-C ,  4-C ) :   1.0652 B(  3-C ,  9-H ) :   0.9469 B(  4-C ,  5-C ) :   0.9527
B(  4-C ,  6-C ) :   0.9524 B(  4-C , 10-H ) :   0.9451 B(  5-C ,  6-C ) :   1.0563
B(  5-C , 11-H ) :   0.9435 B(  5-C , 12-H ) :   0.9481 B(  6-C , 13-H ) :   0.9444
B(  6-C , 14-H ) :   0.9486

FINAL SINGLE POINT ENERGY      -304.149068149458

DIPOLE MOMENT
-------------
                                X             Y             Z
Electronic contribution:     -2.43145       2.81838      -0.36434
Nuclear contribution   :      2.61439      -3.19590       0.50676
                        -----------------------------------------
Total Dipole Moment    :      0.18294      -0.37752       0.14242
                        -----------------------------------------
Magnitude (a.u.)       :      0.44302
Magnitude (Debye)      :      1.12607

                             ****ORCA TERMINATED NORMALLY****
TOTAL RUN TIME: 0 days 0 hours 0 minutes 7 seconds 37 msec
