                         Program Version 3.0.3 - RELEASE   -
|  1> ! RI PBE def2-SVP def2-SVP/J NBO PAL2
|  2> % maxcore 2000
|  3> % output
|  4>     # printlevel mini
|  5>     print[ P_Basis ] 0
|  6>     print[ P_SCFInfo ] 1
|  7>     print[ P_SCFIterInfo ] 1
|  8>     print[ P_OrbEn ] 0
|  9>     print[ P_Cartesian ] 0
| 10> end
| 11> *xyz 0 1
| 12>  C        2.0950430000    -0.0408740000    -0.3912440000
| 13>  N        2.4641110000    -0.5389140000     0.9145130000
| 14>  N        1.7527090000     0.0439390000     1.9026980000
| 15>  C        1.5762160000    -0.5409820000     3.0201160000
| 16>  C        2.7904060000    -1.9212680000     1.0033170000
| 17>  C        4.0363780000    -2.3898000000     0.3244230000
| 18>  C        3.9834570000    -2.3230180000     1.8177420000
| 19>  H        1.9719860000     1.0389290000    -0.3233440000
| 20>  H        1.1531870000    -0.4771440000    -0.7537070000
| 21>  H        2.8821960000    -0.2711070000    -1.1097450000
| 22>  H        1.0322000000     0.0146430000     3.7753920000
| 23>  H        1.9456780000    -1.5355420000     3.2642430000
| 24>  H        1.9387050000    -2.6061410000     1.0104830000
| 25>  H        4.6322690000    -1.6434410000    -0.1853830000
| 26>  H        4.0155830000    -3.3607990000    -0.1535760000
| 27>  H        4.5315350000    -1.5231330000     2.2988050000
| 28>  H        3.9294400000    -3.2481290000     2.3783960000
| 29> *
| 30>
| 31>                          ****END OF INPUT****
 Total Charge           Charge          ....    0
 Multiplicity           Mult            ....    1
 Number of Electrons    NEL             ....   54
 Basis Dimension        Dim             ....  148

MULLIKEN ATOMIC CHARGES
-----------------------
   0 C :    0.129745
   1 N :   -0.199306
   2 N :   -0.070961
   3 C :   -0.058631
   4 C :   -0.072489
   5 C :   -0.016459
   6 C :   -0.014526
   7 H :    0.038613
   8 H :    0.005741
   9 H :    0.020570
  10 H :    0.029843
  11 H :    0.015365
  12 H :    0.023853
  13 H :    0.044477
  14 H :    0.035689
  15 H :    0.049623
  16 H :    0.038853
Sum of atomic charges:    0.0000000

LOEWDIN ATOMIC CHARGES
----------------------
   0 C :    0.009255
   1 N :   -0.012406
   2 N :   -0.029908
   3 C :   -0.082886
   4 C :   -0.011907
   5 C :   -0.041611
   6 C :   -0.043667
   7 H :    0.030274
   8 H :    0.010352
   9 H :    0.021069
  10 H :    0.016016
  11 H :   -0.004671
  12 H :    0.013682
  13 H :    0.031785
  14 H :    0.030593
  15 H :    0.034915
  16 H :    0.029115

  Mayer bond orders larger than 0.1
B(  0-C ,  1-N ) :   1.0035 B(  0-C ,  7-H ) :   0.9629 B(  0-C ,  8-H ) :   0.9542
B(  0-C ,  9-H ) :   0.9650 B(  1-N ,  2-N ) :   1.0908 B(  1-N ,  3-C ) :   0.1308
B(  1-N ,  4-C ) :   1.0320 B(  2-N ,  3-C ) :   1.8853 B(  3-C , 10-H ) :   0.9519
B(  3-C , 11-H ) :   0.9121 B(  4-C ,  5-C ) :   0.9967 B(  4-C ,  6-C ) :   0.9866
B(  4-C , 12-H ) :   0.9209 B(  5-C ,  6-C ) :   1.0451 B(  5-C , 13-H ) :   0.9424
B(  5-C , 14-H ) :   0.9394 B(  6-C , 15-H ) :   0.9444 B(  6-C , 16-H ) :   0.9432

FINAL SINGLE POINT ENERGY      -305.350132544386

DIPOLE MOMENT
-------------
                                X             Y             Z
Electronic contribution:     -1.05179       1.87532       1.49986
Nuclear contribution   :      1.32061      -2.50219      -1.81135
                        -----------------------------------------
Total Dipole Moment    :      0.26882      -0.62686      -0.31150
                        -----------------------------------------
Magnitude (a.u.)       :      0.74984
Magnitude (Debye)      :      1.90593

                             ****ORCA TERMINATED NORMALLY****
TOTAL RUN TIME: 0 days 0 hours 0 minutes 7 seconds 884 msec
