                         Program Version 3.0.3 - RELEASE   -
|  1> ! RI PBE def2-SVP def2-SVP/J NBO PAL2
|  2> % maxcore 2000
|  3> % output
|  4>     # printlevel mini
|  5>     print[ P_Basis ] 0
|  6>     print[ P_SCFInfo ] 1
|  7>     print[ P_SCFIterInfo ] 1
|  8>     print[ P_OrbEn ] 0
|  9>     print[ P_Cartesian ] 0
| 10> end
| 11> *xyz 0 1
| 12>  C        2.4512420000    -0.2790470000    -1.0706830000
| 13>  N        3.2405620000    -0.4706510000     0.1212500000
| 14>  N        3.6897790000     0.6816700000     0.6773890000
| 15>  C        4.7380130000     0.6531630000     1.3933190000
| 16>  C        5.2776920000     1.8582520000     2.0488820000
| 17>  C        5.8720320000     2.9675850000     1.2087520000
| 18>  C        4.5780880000     3.1733650000     1.9237460000
| 19>  H        2.0444400000    -1.2436870000    -1.3795680000
| 20>  H        3.0157380000     0.1521370000    -1.9092690000
| 21>  H        1.6197800000     0.3875460000    -0.8396470000
| 22>  H        3.9553230000    -1.1866810000     0.0221490000
| 23>  H        5.2971120000    -0.2815920000     1.5364460000
| 24>  H        5.7897510000     1.6610600000     2.9848910000
| 25>  H        5.8348630000     2.8312860000     0.1349520000
| 26>  H        6.7589030000     3.4669950000     1.5796560000
| 27>  H        3.6716480000     3.1757440000     1.3328120000
| 28>  H        4.5685240000     3.8210540000     2.7913340000
| 29> *
| 30>
| 31>                          ****END OF INPUT****
 Total Charge           Charge          ....    0
 Multiplicity           Mult            ....    1
 Number of Electrons    NEL             ....   54
 Basis Dimension        Dim             ....  148

MULLIKEN ATOMIC CHARGES
-----------------------
   0 C :    0.088967
   1 N :   -0.131657
   2 N :   -0.075757
   3 C :   -0.031217
   4 C :   -0.084885
   5 C :   -0.037722
   6 C :   -0.010246
   7 H :    0.017348
   8 H :    0.011172
   9 H :    0.035719
  10 H :    0.087749
  11 H :   -0.033377
  12 H :    0.017829
  13 H :    0.040156
  14 H :    0.030122
  15 H :    0.042537
  16 H :    0.033261
Sum of atomic charges:    0.0000000

LOEWDIN ATOMIC CHARGES
----------------------
   0 C :   -0.006074
   1 N :   -0.007090
   2 N :   -0.041828
   3 C :   -0.047604
   4 C :   -0.057915
   5 C :   -0.034244
   6 C :   -0.034983
   7 H :    0.023425
   8 H :    0.006484
   9 H :    0.029661
  10 H :    0.040702
  11 H :   -0.007321
  12 H :    0.029676
  13 H :    0.026677
  14 H :    0.024040
  15 H :    0.028937
  16 H :    0.027457

  Mayer bond orders larger than 0.1
B(  0-C ,  1-N ) :   1.0407 B(  0-C ,  7-H ) :   0.9668 B(  0-C ,  8-H ) :   0.9579
B(  0-C ,  9-H ) :   0.9674 B(  1-N ,  2-N ) :   1.0687 B(  1-N ,  3-C ) :   0.1281
B(  1-N , 10-H ) :   0.9228 B(  2-N ,  3-C ) :   1.8608 B(  3-C ,  4-C ) :   1.0644
B(  3-C , 11-H ) :   0.9336 B(  4-C ,  5-C ) :   0.9622 B(  4-C ,  6-C ) :   0.9987
B(  4-C , 12-H ) :   0.9347 B(  5-C ,  6-C ) :   1.0610 B(  5-C , 13-H ) :   0.9483
B(  5-C , 14-H ) :   0.9475 B(  6-C , 15-H ) :   0.9328 B(  6-C , 16-H ) :   0.9441

FINAL SINGLE POINT ENERGY      -305.360738323260

DIPOLE MOMENT
-------------
                                X             Y             Z
Electronic contribution:      0.12255      -1.28430       1.85869
Nuclear contribution   :      0.22643       0.85398      -2.12884
                        -----------------------------------------
Total Dipole Moment    :      0.34898      -0.43032      -0.27014
                        -----------------------------------------
Magnitude (a.u.)       :      0.61639
Magnitude (Debye)      :      1.56674

                             ****ORCA TERMINATED NORMALLY****
TOTAL RUN TIME: 0 days 0 hours 0 minutes 7 seconds 508 msec
