                         Program Version 3.0.3 - RELEASE   -
|  1> ! RI PBE def2-SVP def2-SVP/J NBO PAL2
|  2> % maxcore 2000
|  3> % output
|  4>     # printlevel mini
|  5>     print[ P_Basis ] 0
|  6>     print[ P_SCFInfo ] 1
|  7>     print[ P_SCFIterInfo ] 1
|  8>     print[ P_OrbEn ] 0
|  9>     print[ P_Cartesian ] 0
| 10> end
| 11> *xyz 0 1
| 12>  C        1.6685950000     0.9116140000     0.1781490000
| 13>  N        2.8462200000     0.4472970000     0.1514660000
| 14>  N        3.1168140000    -0.2302440000    -1.0388440000
| 15>  C        4.3013950000    -0.6802840000    -1.0691020000
| 16>  C        4.7949720000    -1.4163570000    -2.2744860000
| 17>  C        5.4233560000    -2.6817250000    -1.9281870000
| 18>  C        5.9389420000    -3.7210230000    -1.6233690000
| 19>  H        1.3578070000     1.4566520000     1.0643420000
| 20>  H        0.9726480000     0.7789400000    -0.6520860000
| 21>  H        4.9817310000    -0.5344100000    -0.2267050000
| 22>  H        5.5294590000    -0.7856120000    -2.7926060000
| 23>  H        3.9592130000    -1.5707050000    -2.9612750000
| 24>  H        6.3941360000    -4.6460310000    -1.3588060000
| 25> *
| 26>
| 27>                          ****END OF INPUT****
 Total Charge           Charge          ....    0
 Multiplicity           Mult            ....    1
 Number of Electrons    NEL             ....   50
 Basis Dimension        Dim             ....  128

MULLIKEN ATOMIC CHARGES
-----------------------
   0 C :    0.027758
   1 N :   -0.107489
   2 N :   -0.091022
   3 C :   -0.033339
   4 C :    0.161093
   5 C :    0.283517
   6 C :   -0.454632
   7 H :    0.049667
   8 H :    0.029879
   9 H :    0.015829
  10 H :    0.065573
  11 H :    0.049390
  12 H :    0.003776
Sum of atomic charges:   -0.0000000

LOEWDIN ATOMIC CHARGES
----------------------
   0 C :    0.014309
   1 N :   -0.041272
   2 N :   -0.054169
   3 C :    0.037873
   4 C :   -0.054904
   5 C :   -0.024115
   6 C :   -0.074091
   7 H :    0.022380
   8 H :    0.002076
   9 H :    0.008554
  10 H :    0.067515
  11 H :    0.058812
  12 H :    0.037031

  Mayer bond orders larger than 0.1
B(  0-C ,  1-N ) :   1.9296 B(  0-C ,  3-C ) :   0.1127 B(  0-C ,  7-H ) :   0.9508
B(  0-C ,  8-H ) :   0.9256 B(  1-N ,  2-N ) :   0.9766 B(  2-N ,  3-C ) :   1.8900
B(  3-C ,  4-C ) :   0.9986 B(  3-C ,  9-H ) :   0.9414 B(  4-C ,  5-C ) :   1.0422
B(  4-C , 10-H ) :   0.8834 B(  4-C , 11-H ) :   0.8831 B(  5-C ,  6-C ) :   2.3937
B(  5-C , 12-H ) :  -0.1061 B(  6-C , 12-H ) :   1.0973

FINAL SINGLE POINT ENERGY      -302.901594912960

DIPOLE MOMENT
-------------
                                X             Y             Z
Electronic contribution:      0.54450      -0.50967       0.35783
Nuclear contribution   :     -0.53917       0.62727      -0.50576
                        -----------------------------------------
Total Dipole Moment    :      0.00533       0.11760      -0.14793
                        -----------------------------------------
Magnitude (a.u.)       :      0.18906
Magnitude (Debye)      :      0.48054

                             ****ORCA TERMINATED NORMALLY****
TOTAL RUN TIME: 0 days 0 hours 0 minutes 5 seconds 748 msec
