                         Program Version 3.0.3 - RELEASE   -
|  1> ! RI PBE def2-SVP def2-SVP/J NBO PAL2
|  2> % maxcore 2000
|  3> % output
|  4>     # printlevel mini
|  5>     print[ P_Basis ] 0
|  6>     print[ P_SCFInfo ] 1
|  7>     print[ P_SCFIterInfo ] 1
|  8>     print[ P_OrbEn ] 0
|  9>     print[ P_Cartesian ] 0
| 10> end
| 11> *xyz 0 1
| 12>  C        1.3980040000     0.2367270000    -2.4807730000
| 13>  N        2.5616760000     0.7086170000    -2.2987090000
| 14>  N        2.9334650000     1.0874980000    -1.0626210000
| 15>  C        4.3608140000     1.1335650000    -0.8377690000
| 16>  C        5.0038670000     2.2620980000    -1.6413030000
| 17>  C        6.4392720000     2.3307050000    -1.4359490000
| 18>  C        7.6242450000     2.3686580000    -1.2460340000
| 19>  H        1.1050210000    -0.0191720000    -3.4915160000
| 20>  H        0.6788260000     0.0891460000    -1.6681970000
| 21>  H        2.3991730000     0.6745500000    -0.3039210000
| 22>  H        4.8493830000     0.1837340000    -1.0900490000
| 23>  H        4.5141910000     1.3110080000     0.2287750000
| 24>  H        4.5396960000     3.2121770000    -1.3589980000
| 25>  H        4.7858840000     2.1055160000    -2.7014130000
| 26>  H        8.6756030000     2.4091720000    -1.0868220000
| 27> *
| 28>
| 29>                          ****END OF INPUT****
 Total Charge           Charge          ....    0
 Multiplicity           Mult            ....    1
 Number of Electrons    NEL             ....   52
 Basis Dimension        Dim             ....  138

MULLIKEN ATOMIC CHARGES
-----------------------
   0 C :   -0.049184
   1 N :   -0.087235
   2 N :   -0.118537
   3 C :    0.078942
   4 C :    0.087835
   5 C :    0.322412
   6 C :   -0.494537
   7 H :    0.042093
   8 H :    0.001556
   9 H :    0.092917
  10 H :    0.021069
  11 H :    0.021930
  12 H :    0.032136
  13 H :    0.052295
  14 H :   -0.003692
Sum of atomic charges:   -0.0000000

LOEWDIN ATOMIC CHARGES
----------------------
   0 C :   -0.072137
   1 N :   -0.025830
   2 N :    0.005675
   3 C :    0.021531
   4 C :   -0.050871
   5 C :   -0.021552
   6 C :   -0.092306
   7 H :    0.019457
   8 H :   -0.009142
   9 H :    0.045905
  10 H :    0.016536
  11 H :    0.028862
  12 H :    0.048559
  13 H :    0.052051
  14 H :    0.033261

  Mayer bond orders larger than 0.1
B(  0-C ,  1-N ) :   1.8871 B(  0-C ,  2-N ) :   0.1438 B(  0-C ,  7-H ) :   0.9579
B(  0-C ,  8-H ) :   0.9279 B(  1-N ,  2-N ) :   1.0967 B(  2-N ,  3-C ) :   1.0457
B(  2-N ,  9-H ) :   0.9178 B(  3-C ,  4-C ) :   1.0700 B(  3-C , 10-H ) :   0.9370
B(  3-C , 11-H ) :   0.9367 B(  4-C ,  5-C ) :   1.0595 B(  4-C , 12-H ) :   0.8891
B(  4-C , 13-H ) :   0.8926 B(  5-C ,  6-C ) :   2.3484 B(  5-C , 14-H ) :  -0.1118
B(  6-C , 14-H ) :   1.1029

FINAL SINGLE POINT ENERGY      -304.114998433798

DIPOLE MOMENT
-------------
                                X             Y             Z
Electronic contribution:      1.77779       0.92221      -0.37963
Nuclear contribution   :     -2.19151      -1.21711       0.98055
                        -----------------------------------------
Total Dipole Moment    :     -0.41372      -0.29490       0.60091
                        -----------------------------------------
Magnitude (a.u.)       :      0.78691
Magnitude (Debye)      :      2.00016

                             ****ORCA TERMINATED NORMALLY****
TOTAL RUN TIME: 0 days 0 hours 0 minutes 6 seconds 512 msec
