                         Program Version 3.0.3 - RELEASE   -
|  1> ! RI PBE def2-SVP def2-SVP/J NBO PAL2
|  2> % maxcore 2000
|  3> % output
|  4>     # printlevel mini
|  5>     print[ P_Basis ] 0
|  6>     print[ P_SCFInfo ] 1
|  7>     print[ P_SCFIterInfo ] 1
|  8>     print[ P_OrbEn ] 0
|  9>     print[ P_Cartesian ] 0
| 10> end
| 11> *xyz 0 1
| 12>  C        1.9467450000    -0.7582330000     0.6759920000
| 13>  N        3.3310750000    -0.4546270000     0.4637480000
| 14>  N        3.7253810000    -0.1050520000    -0.7473950000
| 15>  C        4.9687680000     0.1735120000    -0.9646200000
| 16>  C        5.9997700000     0.1155340000     0.1169990000
| 17>  C        5.2922750000     0.5451000000    -2.3275540000
| 18>  C        6.4882950000     0.8774030000    -2.8182240000
| 19>  H        1.8066120000    -1.0239300000     1.7244340000
| 20>  H        1.6211670000    -1.6020720000     0.0593690000
| 21>  H        1.3074060000     0.1008420000     0.4489920000
| 22>  H        3.9835470000    -0.5096190000     1.2299660000
| 23>  H        5.7547100000     0.8048580000     0.9340690000
| 24>  H        6.9885300000     0.3815370000    -0.2495600000
| 25>  H        6.0671020000    -0.8918190000     0.5454120000
| 26>  H        4.4296090000     0.5377190000    -2.9883530000
| 27>  H        7.3874160000     0.9042410000    -2.2132790000
| 28>  H        6.6024910000     1.1375980000    -3.8629940000
| 29> *
| 30>
| 31>                          ****END OF INPUT****
 Total Charge           Charge          ....    0
 Multiplicity           Mult            ....    1
 Number of Electrons    NEL             ....   54
 Basis Dimension        Dim             ....  148

MULLIKEN ATOMIC CHARGES
-----------------------
   0 C :    0.107335
   1 N :   -0.141605
   2 N :   -0.060374
   3 C :   -0.197111
   4 C :    0.049133
   5 C :    0.050231
   6 C :   -0.072753
   7 H :    0.015260
   8 H :    0.033275
   9 H :    0.035510
  10 H :    0.092694
  11 H :    0.032824
  12 H :    0.014703
  13 H :    0.029289
  14 H :   -0.014501
  15 H :    0.005369
  16 H :    0.020720
Sum of atomic charges:   -0.0000000

LOEWDIN ATOMIC CHARGES
----------------------
   0 C :    0.003278
   1 N :    0.028749
   2 N :   -0.037650
   3 C :   -0.079698
   4 C :   -0.079177
   5 C :   -0.035934
   6 C :   -0.089329
   7 H :    0.026563
   8 H :    0.023754
   9 H :    0.024093
  10 H :    0.042901
  11 H :    0.033702
  12 H :    0.037063
  13 H :    0.032819
  14 H :    0.031373
  15 H :    0.013786
  16 H :    0.023707

  Mayer bond orders larger than 0.1
B(  0-C ,  1-N ) :   1.0302 B(  0-C ,  7-H ) :   0.9653 B(  0-C ,  8-H ) :   0.9628
B(  0-C ,  9-H ) :   0.9635 B(  1-N ,  2-N ) :   1.1157 B(  1-N ,  3-C ) :   0.1182
B(  1-N , 10-H ) :   0.9230 B(  2-N ,  3-C ) :   1.7213 B(  3-C ,  4-C ) :   1.0930
B(  3-C ,  5-C ) :   1.1496 B(  4-C , 11-H ) :   0.9324 B(  4-C , 12-H ) :   0.9292
B(  4-C , 13-H ) :   0.9331 B(  5-C ,  6-C ) :   1.8515 B(  5-C , 14-H ) :   0.9465
B(  6-C , 15-H ) :   0.9431 B(  6-C , 16-H ) :   0.9397

FINAL SINGLE POINT ENERGY      -305.376831923869

DIPOLE MOMENT
-------------
                                X             Y             Z
Electronic contribution:     -0.99242       0.22255      -1.74602
Nuclear contribution   :      0.86897      -0.48385       2.81079
                        -----------------------------------------
Total Dipole Moment    :     -0.12345      -0.26130       1.06478
                        -----------------------------------------
Magnitude (a.u.)       :      1.10330
Magnitude (Debye)      :      2.80437

                             ****ORCA TERMINATED NORMALLY****
TOTAL RUN TIME: 0 days 0 hours 0 minutes 7 seconds 982 msec
