                         Program Version 3.0.3 - RELEASE   -
|  1> ! RI PBE def2-SVP def2-SVP/J NBO PAL2
|  2> % maxcore 2000
|  3> % output
|  4>     # printlevel mini
|  5>     print[ P_Basis ] 0
|  6>     print[ P_SCFInfo ] 1
|  7>     print[ P_SCFIterInfo ] 1
|  8>     print[ P_OrbEn ] 0
|  9>     print[ P_Cartesian ] 0
| 10> end
| 11> *xyz 0 1
| 12>  C        1.3843150000    -0.4301790000     0.2137630000
| 13>  N        2.8207680000    -0.4621460000     0.0953750000
| 14>  N        3.3226260000     0.1804310000    -0.9613860000
| 15>  C        4.5766220000     0.4732270000    -0.9676750000
| 16>  C        5.5104480000     0.1612410000     0.1649330000
| 17>  C        5.0992380000     1.1107900000    -2.1259250000
| 18>  C        5.6089570000     1.6544350000    -3.0713620000
| 19>  H        1.0783760000    -1.1371750000     0.9865720000
| 20>  H        0.9478490000    -0.7396300000    -0.7355710000
| 21>  H        0.9952410000     0.5642130000     0.4661900000
| 22>  H        3.3308820000    -0.3821070000     0.9677860000
| 23>  H        5.5181730000    -0.9146030000     0.3726940000
| 24>  H        5.2066100000     0.6738170000     1.0863240000
| 25>  H        6.5247420000     0.4754080000    -0.0708720000
| 26>  H        6.0375630000     2.1342700000    -3.9187460000
| 27> *
| 28>
| 29>                          ****END OF INPUT****
 Total Charge           Charge          ....    0
 Multiplicity           Mult            ....    1
 Number of Electrons    NEL             ....   52
 Basis Dimension        Dim             ....  138

MULLIKEN ATOMIC CHARGES
-----------------------
   0 C :    0.092651
   1 N :   -0.127927
   2 N :   -0.059517
   3 C :   -0.240839
   4 C :    0.057593
   5 C :    0.451170
   6 C :   -0.462608
   7 H :    0.024202
   8 H :    0.042294
   9 H :    0.025618
  10 H :    0.092812
  11 H :    0.041421
  12 H :    0.032343
  13 H :    0.030875
  14 H :   -0.000089
Sum of atomic charges:   -0.0000000

LOEWDIN ATOMIC CHARGES
----------------------
   0 C :    0.000301
   1 N :    0.021667
   2 N :   -0.024646
   3 C :   -0.093350
   4 C :   -0.071161
   5 C :   -0.019949
   6 C :   -0.080796
   7 H :    0.025421
   8 H :    0.034014
   9 H :    0.015326
  10 H :    0.044393
  11 H :    0.037443
  12 H :    0.033719
  13 H :    0.044253
  14 H :    0.033364

  Mayer bond orders larger than 0.1
B(  0-C ,  1-N ) :   1.0287 B(  0-C ,  7-H ) :   0.9676 B(  0-C ,  8-H ) :   0.9654
B(  0-C ,  9-H ) :   0.9613 B(  1-N ,  2-N ) :   1.1158 B(  1-N ,  3-C ) :   0.1182
B(  1-N , 10-H ) :   0.9117 B(  2-N ,  3-C ) :   1.7648 B(  3-C ,  4-C ) :   1.0745
B(  3-C ,  5-C ) :   1.0296 B(  4-C , 11-H ) :   0.9403 B(  4-C , 12-H ) :   0.9318
B(  4-C , 13-H ) :   0.9412 B(  5-C ,  6-C ) :   2.2553 B(  6-C , 14-H ) :   1.0898

FINAL SINGLE POINT ENERGY      -304.128192243084

DIPOLE MOMENT
-------------
                                X             Y             Z
Electronic contribution:      1.95736       1.69844      -4.61714
Nuclear contribution   :     -2.05237      -1.90236       5.65093
                        -----------------------------------------
Total Dipole Moment    :     -0.09501      -0.20392       1.03379
                        -----------------------------------------
Magnitude (a.u.)       :      1.05799
Magnitude (Debye)      :      2.68919

                             ****ORCA TERMINATED NORMALLY****
TOTAL RUN TIME: 0 days 0 hours 0 minutes 6 seconds 807 msec
