                         Program Version 3.0.3 - RELEASE   -
|  1> ! RI PBE def2-SVP def2-SVP/J NBO PAL2
|  2> % maxcore 2000
|  3> % output
|  4>     # printlevel mini
|  5>     print[ P_Basis ] 0
|  6>     print[ P_SCFInfo ] 1
|  7>     print[ P_SCFIterInfo ] 1
|  8>     print[ P_OrbEn ] 0
|  9>     print[ P_Cartesian ] 0
| 10> end
| 11> *xyz 0 1
| 12>  C        2.1387580000    -1.1836310000    -0.6976160000
| 13>  N        3.4453710000    -0.6034050000    -0.6348440000
| 14>  N        3.5664800000     0.7064010000    -0.4994000000
| 15>  C        4.7348480000     1.2320860000    -0.4420560000
| 16>  C        4.8972730000     2.6547190000    -0.2950200000
| 17>  C        6.0793130000     3.2749730000    -0.2279710000
| 18>  C        6.2631700000     4.7436040000    -0.0761060000
| 19>  H        2.2457330000    -2.2633910000    -0.8085670000
| 20>  H        1.5679060000    -0.8058930000    -1.5526480000
| 21>  H        1.5637500000    -0.9878060000     0.2137940000
| 22>  H        4.2693730000    -1.1852200000    -0.6921460000
| 23>  H        5.6383410000     0.6109480000    -0.5037320000
| 24>  H        3.9752070000     3.2289540000    -0.2382800000
| 25>  H        6.9856440000     2.6735010000    -0.2875740000
| 26>  H        5.3036760000     5.2620790000    -0.0252810000
| 27>  H        6.8321000000     5.1628200000    -0.9132420000
| 28>  H        6.8273470000     4.9829510000     0.8319910000
| 29> *
| 30>
| 31>                          ****END OF INPUT****
 Total Charge           Charge          ....    0
 Multiplicity           Mult            ....    1
 Number of Electrons    NEL             ....   54
 Basis Dimension        Dim             ....  148

MULLIKEN ATOMIC CHARGES
-----------------------
   0 C :    0.097037
   1 N :   -0.134901
   2 N :   -0.060124
   3 C :   -0.041422
   4 C :    0.042162
   5 C :   -0.128199
   6 C :    0.043731
   7 H :    0.022201
   8 H :    0.032088
   9 H :    0.034418
  10 H :    0.091509
  11 H :   -0.049250
  12 H :   -0.014557
  13 H :   -0.012504
  14 H :    0.015683
  15 H :    0.031710
  16 H :    0.030421
Sum of atomic charges:   -0.0000000

LOEWDIN ATOMIC CHARGES
----------------------
   0 C :   -0.000328
   1 N :    0.023797
   2 N :   -0.035420
   3 C :   -0.067215
   4 C :   -0.054005
   5 C :   -0.054421
   6 C :   -0.066091
   7 H :    0.028458
   8 H :    0.022622
   9 H :    0.022849
  10 H :    0.042770
  11 H :   -0.009600
  12 H :    0.028449
  13 H :    0.017920
  14 H :    0.030290
  15 H :    0.035058
  16 H :    0.034867

  Mayer bond orders larger than 0.1
B(  0-C ,  1-N ) :   1.0348 B(  0-C ,  7-H ) :   0.9653 B(  0-C ,  8-H ) :   0.9617
B(  0-C ,  9-H ) :   0.9624 B(  1-N ,  2-N ) :   1.1171 B(  1-N ,  3-C ) :   0.1306
B(  1-N , 10-H ) :   0.9264 B(  2-N ,  3-C ) :   1.7096 B(  3-C ,  4-C ) :   1.1527
B(  3-C , 11-H ) :   0.9344 B(  4-C ,  5-C ) :   1.7551 B(  4-C , 12-H ) :   0.9618
B(  5-C ,  6-C ) :   1.0914 B(  5-C , 13-H ) :   0.9570 B(  6-C , 14-H ) :   0.9591
B(  6-C , 15-H ) :   0.9464 B(  6-C , 16-H ) :   0.9458

FINAL SINGLE POINT ENERGY      -305.378022793029

DIPOLE MOMENT
-------------
                                X             Y             Z
Electronic contribution:     -0.82825      -2.36635      -0.24851
Nuclear contribution   :      0.97560       1.57733       0.16640
                        -----------------------------------------
Total Dipole Moment    :      0.14735      -0.78902      -0.08212
                        -----------------------------------------
Magnitude (a.u.)       :      0.80685
Magnitude (Debye)      :      2.05085

                             ****ORCA TERMINATED NORMALLY****
TOTAL RUN TIME: 0 days 0 hours 0 minutes 7 seconds 437 msec
