                         Program Version 3.0.3 - RELEASE   -
|  1> ! RI PBE def2-SVP def2-SVP/J NBO PAL2
|  2> % maxcore 2000
|  3> % output
|  4>     # printlevel mini
|  5>     print[ P_Basis ] 0
|  6>     print[ P_SCFInfo ] 1
|  7>     print[ P_SCFIterInfo ] 1
|  8>     print[ P_OrbEn ] 0
|  9>     print[ P_Cartesian ] 0
| 10> end
| 11> *xyz 0 1
| 12>  C        2.2556590000     0.9371660000     1.5647820000
| 13>  N        3.1721440000     0.5061940000     0.5551350000
| 14>  N        3.7178240000    -0.7023180000     0.6476870000
| 15>  C        4.5364440000    -1.1050210000    -0.2392870000
| 16>  C        5.1687710000    -2.4578170000    -0.1670380000
| 17>  C        4.7798010000    -3.3053780000    -1.3762630000
| 18>  C        6.6871510000    -2.3430830000    -0.0519030000
| 19>  H        1.9194510000     1.9449770000     1.3168480000
| 20>  H        2.7227740000     0.9682970000     2.5554690000
| 21>  H        1.3742850000     0.2886460000     1.6213440000
| 22>  H        3.4072940000     1.1083910000    -0.2201830000
| 23>  H        4.8065520000    -0.4655830000    -1.0936350000
| 24>  H        4.7799610000    -2.9335710000     0.7386360000
| 25>  H        5.1149310000    -2.8348960000    -2.3062910000
| 26>  H        3.6970330000    -3.4342330000    -1.4364320000
| 27>  H        5.2402840000    -4.2956490000    -1.3232400000
| 28>  H        7.1066610000    -1.8300390000    -0.9233470000
| 29>  H        7.1502780000    -3.3320180000     0.0029750000
| 30>  H        6.9743020000    -1.7807750000     0.8391410000
| 31> *
| 32>
| 33>                          ****END OF INPUT****
 Total Charge           Charge          ....    0
 Multiplicity           Mult            ....    1
 Number of Electrons    NEL             ....   56
 Basis Dimension        Dim             ....  158

MULLIKEN ATOMIC CHARGES
-----------------------
   0 C :    0.108982
   1 N :   -0.153403
   2 N :   -0.045285
   3 C :   -0.077619
   4 C :   -0.067168
   5 C :    0.010554
   6 C :    0.016575
   7 H :    0.011542
   8 H :    0.025790
   9 H :    0.026989
  10 H :    0.090542
  11 H :   -0.041708
  12 H :    0.003059
  13 H :    0.007991
  14 H :    0.025486
  15 H :    0.013210
  16 H :    0.009114
  17 H :    0.012853
  18 H :    0.022496
Sum of atomic charges:    0.0000000

LOEWDIN ATOMIC CHARGES
----------------------
   0 C :    0.000333
   1 N :    0.003556
   2 N :   -0.033837
   3 C :   -0.059933
   4 C :   -0.056546
   5 C :   -0.057687
   6 C :   -0.056587
   7 H :    0.026258
   8 H :    0.018793
   9 H :    0.019164
  10 H :    0.041013
  11 H :   -0.015539
  12 H :    0.029640
  13 H :    0.020928
  14 H :    0.026381
  15 H :    0.023824
  16 H :    0.020941
  17 H :    0.023352
  18 H :    0.025945

  Mayer bond orders larger than 0.1
B(  0-C ,  1-N ) :   1.0418 B(  0-C ,  7-H ) :   0.9642 B(  0-C ,  8-H ) :   0.9627
B(  0-C ,  9-H ) :   0.9627 B(  1-N ,  2-N ) :   1.0910 B(  1-N ,  3-C ) :   0.1526
B(  1-N , 10-H ) :   0.9292 B(  2-N ,  3-C ) :   1.8455 B(  3-C ,  4-C ) :   1.0108
B(  3-C , 11-H ) :   0.9264 B(  4-C ,  5-C ) :   1.0675 B(  4-C ,  6-C ) :   1.0666
B(  4-C , 12-H ) :   0.9066 B(  5-C , 13-H ) :   0.9631 B(  5-C , 14-H ) :   0.9632
B(  5-C , 15-H ) :   0.9574 B(  6-C , 16-H ) :   0.9638 B(  6-C , 17-H ) :   0.9585
B(  6-C , 18-H ) :   0.9632

FINAL SINGLE POINT ENERGY      -306.585344909730

DIPOLE MOMENT
-------------
                                X             Y             Z
Electronic contribution:     -2.42468       2.80331       1.44852
Nuclear contribution   :      2.30206      -2.19940      -1.71304
                        -----------------------------------------
Total Dipole Moment    :     -0.12263       0.60391      -0.26452
                        -----------------------------------------
Magnitude (a.u.)       :      0.67061
Magnitude (Debye)      :      1.70456

                             ****ORCA TERMINATED NORMALLY****
TOTAL RUN TIME: 0 days 0 hours 0 minutes 8 seconds 205 msec
