                         Program Version 3.0.3 - RELEASE   -
|  1> ! RI PBE def2-SVP def2-SVP/J NBO PAL2
|  2> % maxcore 2000
|  3> % output
|  4>     # printlevel mini
|  5>     print[ P_Basis ] 0
|  6>     print[ P_SCFInfo ] 1
|  7>     print[ P_SCFIterInfo ] 1
|  8>     print[ P_OrbEn ] 0
|  9>     print[ P_Cartesian ] 0
| 10> end
| 11> *xyz 0 1
| 12>  C        3.0155480000    -0.9024440000    -0.7390310000
| 13>  N        4.1869730000    -0.1835520000    -0.3389640000
| 14>  N        4.0585890000     1.0072720000     0.2176050000
| 15>  C        5.1028300000     1.6563360000     0.5783530000
| 16>  C        5.0035940000     2.9657620000     1.1923950000
| 17>  C        3.6373670000     3.5400000000     1.3936200000
| 18>  C        6.1148280000     3.6167270000     1.5573920000
| 19>  H        3.3261730000    -1.8536420000    -1.1728800000
| 20>  H        2.4407240000    -0.3533010000    -1.4922370000
| 21>  H        2.3583460000    -1.1117260000     0.1116140000
| 22>  H        5.1059210000    -0.5798580000    -0.4786430000
| 23>  H        6.1072720000     1.2390830000     0.4326940000
| 24>  H        3.0300310000     2.8818650000     2.0198450000
| 25>  H        3.1113630000     3.6290020000     0.4399130000
| 26>  H        3.6943840000     4.5231870000     1.8614940000
| 27>  H        7.0978960000     3.1844990000     1.4035940000
| 28>  H        6.0710700000     4.5960900000     2.0182460000
| 29> *
| 30>
| 31>                          ****END OF INPUT****
 Total Charge           Charge          ....    0
 Multiplicity           Mult            ....    1
 Number of Electrons    NEL             ....   54
 Basis Dimension        Dim             ....  148

MULLIKEN ATOMIC CHARGES
-----------------------
   0 C :    0.105717
   1 N :   -0.132982
   2 N :   -0.049519
   3 C :   -0.035650
   4 C :   -0.127823
   5 C :    0.104260
   6 C :   -0.050079
   7 H :    0.017946
   8 H :    0.032342
   9 H :    0.033115
  10 H :    0.092911
  11 H :   -0.053789
  12 H :    0.027315
  13 H :    0.025633
  14 H :    0.001955
  15 H :    0.002884
  16 H :    0.005764
Sum of atomic charges:   -0.0000000

LOEWDIN ATOMIC CHARGES
----------------------
   0 C :    0.002132
   1 N :    0.025313
   2 N :   -0.030450
   3 C :   -0.065198
   4 C :   -0.044121
   5 C :   -0.052324
   6 C :   -0.081105
   7 H :    0.028148
   8 H :    0.022590
   9 H :    0.022980
  10 H :    0.043972
  11 H :   -0.007887
  12 H :    0.037557
  13 H :    0.037288
  14 H :    0.026656
  15 H :    0.016047
  16 H :    0.018401

  Mayer bond orders larger than 0.1
B(  0-C ,  1-N ) :   1.0338 B(  0-C ,  7-H ) :   0.9644 B(  0-C ,  8-H ) :   0.9629
B(  0-C ,  9-H ) :   0.9625 B(  1-N ,  2-N ) :   1.1204 B(  1-N ,  3-C ) :   0.1344
B(  1-N , 10-H ) :   0.9270 B(  2-N ,  3-C ) :   1.7543 B(  3-C ,  4-C ) :   1.1278
B(  3-C , 11-H ) :   0.9353 B(  4-C ,  5-C ) :   1.1064 B(  4-C ,  6-C ) :   1.8530
B(  5-C , 12-H ) :   0.9353 B(  5-C , 13-H ) :   0.9354 B(  5-C , 14-H ) :   0.9419
B(  6-C , 15-H ) :   0.9399 B(  6-C , 16-H ) :   0.9299

FINAL SINGLE POINT ENERGY      -305.377549480546

DIPOLE MOMENT
-------------
                                X             Y             Z
Electronic contribution:      1.73022      -0.86392      -0.32189
Nuclear contribution   :     -1.65922      -0.00338      -0.08645
                        -----------------------------------------
Total Dipole Moment    :      0.07100      -0.86731      -0.40834
                        -----------------------------------------
Magnitude (a.u.)       :      0.96125
Magnitude (Debye)      :      2.44330

                             ****ORCA TERMINATED NORMALLY****
TOTAL RUN TIME: 0 days 0 hours 0 minutes 7 seconds 474 msec
