                         Program Version 3.0.3 - RELEASE   -
|  1> ! RI PBE def2-SVP def2-SVP/J NBO PAL2
|  2> % maxcore 2000
|  3> % output
|  4>     # printlevel mini
|  5>     print[ P_Basis ] 0
|  6>     print[ P_SCFInfo ] 1
|  7>     print[ P_SCFIterInfo ] 1
|  8>     print[ P_OrbEn ] 0
|  9>     print[ P_Cartesian ] 0
| 10> end
| 11> *xyz 0 1
| 12>  C        1.0263050000     0.3563300000    -0.3267920000
| 13>  N        2.4587560000     0.2339510000    -0.2345030000
| 14>  N        3.0905170000     1.2529100000     0.3547260000
| 15>  C        4.2555200000     1.0470520000     0.8474860000
| 16>  C        5.0162170000     2.0908000000     1.4232200000
| 17>  C        5.7169290000     2.9312360000     1.9300080000
| 18>  C        6.5395880000     3.9595510000     2.5332350000
| 19>  H        0.6479510000    -0.4239860000    -0.9891310000
| 20>  H        0.7862080000     1.3273520000    -0.7596530000
| 21>  H        0.5201890000     0.2749920000     0.6441430000
| 22>  H        2.8029500000    -0.6943690000    -0.0047650000
| 23>  H        4.7085370000     0.0480910000     0.8296410000
| 24>  H        7.5062690000     4.0379910000     2.0282950000
| 25>  H        6.7294960000     3.7450770000     3.5885210000
| 26>  H        6.0487580000     4.9340210000     2.4717490000
| 27> *
| 28>
| 29>                          ****END OF INPUT****
 Total Charge           Charge          ....    0
 Multiplicity           Mult            ....    1
 Number of Electrons    NEL             ....   52
 Basis Dimension        Dim             ....  138

MULLIKEN ATOMIC CHARGES
-----------------------
   0 C :    0.090808
   1 N :   -0.121472
   2 N :   -0.067728
   3 C :   -0.121921
   4 C :    0.034622
   5 C :   -0.185227
   6 C :    0.050737
   7 H :    0.024831
   8 H :    0.039741
   9 H :    0.022918
  10 H :    0.090603
  11 H :   -0.005145
  12 H :    0.047317
  13 H :    0.048684
  14 H :    0.051231
Sum of atomic charges:   -0.0000000

LOEWDIN ATOMIC CHARGES
----------------------
   0 C :   -0.001697
   1 N :    0.018039
   2 N :   -0.020306
   3 C :   -0.079030
   4 C :   -0.070096
   5 C :   -0.051161
   6 C :   -0.068538
   7 H :    0.025684
   8 H :    0.033621
   9 H :    0.013323
  10 H :    0.043080
  11 H :    0.003328
  12 H :    0.050485
  13 H :    0.050558
  14 H :    0.052709

  Mayer bond orders larger than 0.1
B(  0-C ,  1-N ) :   1.0317 B(  0-C ,  7-H ) :   0.9677 B(  0-C ,  8-H ) :   0.9650
B(  0-C ,  9-H ) :   0.9597 B(  1-N ,  2-N ) :   1.1185 B(  1-N ,  3-C ) :   0.1327
B(  1-N , 10-H ) :   0.9158 B(  2-N ,  3-C ) :   1.7494 B(  3-C ,  4-C ) :   1.0384
B(  3-C , 11-H ) :   0.9255 B(  4-C ,  5-C ) :   2.4539 B(  5-C ,  6-C ) :   1.1382
B(  6-C , 12-H ) :   0.9294 B(  6-C , 13-H ) :   0.9294 B(  6-C , 14-H ) :   0.9321

FINAL SINGLE POINT ENERGY      -304.135583129186

DIPOLE MOMENT
-------------
                                X             Y             Z
Electronic contribution:      1.53949      -0.58694      -0.45555
Nuclear contribution   :     -1.66180       0.01300       0.56255
                        -----------------------------------------
Total Dipole Moment    :     -0.12231      -0.57394       0.10699
                        -----------------------------------------
Magnitude (a.u.)       :      0.59650
Magnitude (Debye)      :      1.51618

                             ****ORCA TERMINATED NORMALLY****
TOTAL RUN TIME: 0 days 0 hours 0 minutes 6 seconds 624 msec
