                         Program Version 3.0.3 - RELEASE   -
|  1> ! RI PBE def2-SVP def2-SVP/J NBO PAL2
|  2> % maxcore 2000
|  3> % output
|  4>     # printlevel mini
|  5>     print[ P_Basis ] 0
|  6>     print[ P_SCFInfo ] 1
|  7>     print[ P_SCFIterInfo ] 1
|  8>     print[ P_OrbEn ] 0
|  9>     print[ P_Cartesian ] 0
| 10> end
| 11> *xyz 0 1
| 12>  C        3.7967370000    -1.3667640000     0.9610140000
| 13>  N        4.4416020000    -0.6578820000    -0.1169050000
| 14>  N        4.3131050000     0.6868300000    -0.0539160000
| 15>  C        4.3906420000     1.3663640000    -1.1236420000
| 16>  C        4.3291010000     2.8598800000    -1.0984190000
| 17>  C        3.1572250000     3.3871300000    -1.8680090000
| 18>  C        3.2384980000     4.1540930000    -2.9460830000
| 19>  H        4.0660990000    -2.4225060000     0.8970250000
| 20>  H        2.7016020000    -1.2792980000     0.9519660000
| 21>  H        4.1637930000    -0.9731790000     1.9091830000
| 22>  H        4.2594050000    -1.0521610000    -1.0361310000
| 23>  H        4.5039820000     0.8806290000    -2.1024640000
| 24>  H        5.2520630000     3.2780100000    -1.5171970000
| 25>  H        4.2676380000     3.1693140000    -0.0508180000
| 26>  H        2.1782750000     3.0893250000    -1.4972070000
| 27>  H        4.1980130000     4.4685250000    -3.3460150000
| 28>  H        2.3522300000     4.5014910000    -3.4643830000
| 29> *
| 30>
| 31>                          ****END OF INPUT****
 Total Charge           Charge          ....    0
 Multiplicity           Mult            ....    1
 Number of Electrons    NEL             ....   54
 Basis Dimension        Dim             ....  148

MULLIKEN ATOMIC CHARGES
-----------------------
   0 C :    0.081973
   1 N :   -0.131329
   2 N :   -0.075394
   3 C :   -0.110276
   4 C :    0.155418
   5 C :   -0.108189
   6 C :   -0.028995
   7 H :    0.024071
   8 H :    0.020196
   9 H :    0.032739
  10 H :    0.086601
  11 H :   -0.022212
  12 H :    0.009038
  13 H :    0.020980
  14 H :    0.005588
  15 H :    0.014922
  16 H :    0.024870
Sum of atomic charges:    0.0000000

LOEWDIN ATOMIC CHARGES
----------------------
   0 C :   -0.006737
   1 N :   -0.003881
   2 N :   -0.038779
   3 C :   -0.050640
   4 C :   -0.047069
   5 C :   -0.028723
   6 C :   -0.067003
   7 H :    0.024893
   8 H :    0.009266
   9 H :    0.030157
  10 H :    0.040855
  11 H :   -0.009236
  12 H :    0.034417
  13 H :    0.041995
  14 H :    0.025414
  15 H :    0.020503
  16 H :    0.024568

  Mayer bond orders larger than 0.1
B(  0-C ,  1-N ) :   1.0357 B(  0-C ,  7-H ) :   0.9680 B(  0-C ,  8-H ) :   0.9604
B(  0-C ,  9-H ) :   0.9656 B(  1-N ,  2-N ) :   1.0789 B(  1-N ,  3-C ) :   0.1343
B(  1-N , 10-H ) :   0.9218 B(  2-N ,  3-C ) :   1.8564 B(  3-C ,  4-C ) :   1.0274
B(  3-C , 11-H ) :   0.9288 B(  4-C ,  5-C ) :   1.0451 B(  4-C , 12-H ) :   0.9102
B(  4-C , 13-H ) :   0.9037 B(  5-C ,  6-C ) :   2.0058 B(  5-C , 14-H ) :   0.9576
B(  6-C , 15-H ) :   0.9466 B(  6-C , 16-H ) :   0.9444

FINAL SINGLE POINT ENERGY      -305.362013786871

DIPOLE MOMENT
-------------
                                X             Y             Z
Electronic contribution:      1.28376      -0.02286       0.27887
Nuclear contribution   :     -1.48845      -0.49575      -0.57986
                        -----------------------------------------
Total Dipole Moment    :     -0.20469      -0.51860      -0.30098
                        -----------------------------------------
Magnitude (a.u.)       :      0.63359
Magnitude (Debye)      :      1.61047

                             ****ORCA TERMINATED NORMALLY****
TOTAL RUN TIME: 0 days 0 hours 0 minutes 7 seconds 552 msec
