                         Program Version 3.0.3 - RELEASE   -
|  1> ! RI PBE def2-SVP def2-SVP/J NBO PAL2
|  2> % maxcore 2000
|  3> % output
|  4>     # printlevel mini
|  5>     print[ P_Basis ] 0
|  6>     print[ P_SCFInfo ] 1
|  7>     print[ P_SCFIterInfo ] 1
|  8>     print[ P_OrbEn ] 0
|  9>     print[ P_Cartesian ] 0
| 10> end
| 11> *xyz 0 1
| 12>  C        1.7736610000     0.8597820000     0.4744400000
| 13>  N        3.0549040000     0.1977490000     0.5191250000
| 14>  N        3.2585500000    -0.6899090000    -0.4773270000
| 15>  C        4.4441500000    -0.9632760000    -0.8335950000
| 16>  C        4.6940640000    -2.0177830000    -1.8688590000
| 17>  C        5.5384610000    -1.5452760000    -2.9567980000
| 18>  C        6.2431810000    -1.1413760000    -3.8405020000
| 19>  H        1.6504990000     1.4453650000     1.3870600000
| 20>  H        0.9893380000     0.1033980000     0.4401210000
| 21>  H        1.6528760000     1.5232210000    -0.3923040000
| 22>  H        3.8379370000     0.8226300000     0.6916230000
| 23>  H        5.3162340000    -0.4608380000    -0.3982660000
| 24>  H        3.7284520000    -2.3549460000    -2.2546130000
| 25>  H        5.1760750000    -2.8890010000    -1.4060010000
| 26>  H        6.8627080000    -0.7876400000    -4.6301140000
| 27> *
| 28>
| 29>                          ****END OF INPUT****
 Total Charge           Charge          ....    0
 Multiplicity           Mult            ....    1
 Number of Electrons    NEL             ....   52
 Basis Dimension        Dim             ....  138

MULLIKEN ATOMIC CHARGES
-----------------------
   0 C :    0.083500
   1 N :   -0.136489
   2 N :   -0.073673
   3 C :   -0.093703
   4 C :    0.166393
   5 C :    0.286730
   6 C :   -0.473404
   7 H :    0.023890
   8 H :    0.036761
   9 H :    0.020742
  10 H :    0.092664
  11 H :   -0.015957
  12 H :    0.038140
  13 H :    0.047424
  14 H :   -0.003018
Sum of atomic charges:   -0.0000000

LOEWDIN ATOMIC CHARGES
----------------------
   0 C :   -0.005389
   1 N :   -0.002424
   2 N :   -0.034490
   3 C :   -0.043998
   4 C :   -0.052188
   5 C :   -0.021651
   6 C :   -0.090984
   7 H :    0.025166
   8 H :    0.031385
   9 H :    0.010491
  10 H :    0.043625
  11 H :   -0.005566
  12 H :    0.056523
  13 H :    0.055906
  14 H :    0.033593

  Mayer bond orders larger than 0.1
B(  0-C ,  1-N ) :   1.0357 B(  0-C ,  7-H ) :   0.9683 B(  0-C ,  8-H ) :   0.9660
B(  0-C ,  9-H ) :   0.9604 B(  1-N ,  2-N ) :   1.0902 B(  1-N ,  3-C ) :   0.1370
B(  1-N , 10-H ) :   0.9219 B(  2-N ,  3-C ) :   1.8664 B(  3-C ,  4-C ) :   1.0263
B(  3-C , 11-H ) :   0.9310 B(  4-C ,  5-C ) :   1.0431 B(  4-C , 12-H ) :   0.8868
B(  4-C , 13-H ) :   0.8883 B(  5-C ,  6-C ) :   2.3880 B(  5-C , 14-H ) :  -0.1089
B(  6-C , 14-H ) :   1.1002

FINAL SINGLE POINT ENERGY      -304.117666443496

DIPOLE MOMENT
-------------
                                X             Y             Z
Electronic contribution:      3.15369      -2.29058      -2.40124
Nuclear contribution   :     -3.08582       2.81902       2.79068
                        -----------------------------------------
Total Dipole Moment    :      0.06786       0.52844       0.38944
                        -----------------------------------------
Magnitude (a.u.)       :      0.65994
Magnitude (Debye)      :      1.67742

                             ****ORCA TERMINATED NORMALLY****
TOTAL RUN TIME: 0 days 0 hours 0 minutes 6 seconds 791 msec
