                         Program Version 3.0.3 - RELEASE   -
|  1> ! RI PBE def2-SVP def2-SVP/J NBO PAL2
|  2> % maxcore 2000
|  3> % output
|  4>     # printlevel mini
|  5>     print[ P_Basis ] 0
|  6>     print[ P_SCFInfo ] 1
|  7>     print[ P_SCFIterInfo ] 1
|  8>     print[ P_OrbEn ] 0
|  9>     print[ P_Cartesian ] 0
| 10> end
| 11> *xyz 0 1
| 12>  C        1.4510260000    -0.2140090000    -0.5044380000
| 13>  N        2.6936080000    -0.0806020000    -0.2996630000
| 14>  N        2.9617940000     0.8876990000     0.6689850000
| 15>  C        4.2047820000     1.0339440000     0.8612790000
| 16>  C        4.6781180000     2.0083590000     1.8954620000
| 17>  C        5.6971610000     2.9104030000     1.3782450000
| 18>  N        6.5043040000     3.6146920000     0.9627980000
| 19>  H        1.1351940000    -0.9435000000    -1.2438720000
| 20>  H        0.7063400000     0.3755040000     0.0328330000
| 21>  H        4.9411560000     0.4545120000     0.3003730000
| 22>  H        5.1114190000     1.4608840000     2.7412950000
| 23>  H        3.8278780000     2.5823030000     2.2693840000
| 24> *
| 25>
| 26>                          ****END OF INPUT****
 Total Charge           Charge          ....    0
 Multiplicity           Mult            ....    1
 Number of Electrons    NEL             ....   50
 Basis Dimension        Dim             ....  123

MULLIKEN ATOMIC CHARGES
-----------------------
   0 C :    0.040133
   1 N :   -0.109485
   2 N :   -0.088234
   3 C :   -0.028385
   4 C :    0.163320
   5 C :   -0.283518
   6 N :    0.050633
   7 H :    0.055939
   8 H :    0.031179
   9 H :    0.025829
  10 H :    0.080172
  11 H :    0.062418
Sum of atomic charges:   -0.0000000

LOEWDIN ATOMIC CHARGES
----------------------
   0 C :    0.026665
   1 N :   -0.041717
   2 N :   -0.047110
   3 C :    0.036127
   4 C :   -0.062065
   5 C :   -0.043251
   6 N :   -0.053660
   7 H :    0.025253
   8 H :    0.004183
   9 H :    0.013009
  10 H :    0.075380
  11 H :    0.067185

  Mayer bond orders larger than 0.1
B(  0-C ,  1-N ) :   1.9259 B(  0-C ,  3-C ) :   0.1134 B(  0-C ,  7-H ) :   0.9518
B(  0-C ,  8-H ) :   0.9259 B(  1-N ,  2-N ) :   0.9826 B(  2-N ,  3-C ) :   1.8988
B(  3-C ,  4-C ) :   1.0005 B(  3-C ,  9-H ) :   0.9416 B(  4-C ,  5-C ) :   1.0713
B(  4-C , 10-H ) :   0.8868 B(  4-C , 11-H ) :   0.8790 B(  5-C ,  6-N ) :   3.0615

FINAL SINGLE POINT ENERGY      -318.979175524415

DIPOLE MOMENT
-------------
                                X             Y             Z
Electronic contribution:      2.92155       2.09432      -0.07714
Nuclear contribution   :     -3.92842      -2.96230       0.56736
                        -----------------------------------------
Total Dipole Moment    :     -1.00686      -0.86797       0.49022
                        -----------------------------------------
Magnitude (a.u.)       :      1.41685
Magnitude (Debye)      :      3.60135

                             ****ORCA TERMINATED NORMALLY****
TOTAL RUN TIME: 0 days 0 hours 0 minutes 5 seconds 325 msec
