                         Program Version 3.0.3 - RELEASE   -
|  1> ! RI PBE def2-SVP def2-SVP/J NBO PAL2
|  2> % maxcore 2000
|  3> % output
|  4>     # printlevel mini
|  5>     print[ P_Basis ] 0
|  6>     print[ P_SCFInfo ] 1
|  7>     print[ P_SCFIterInfo ] 1
|  8>     print[ P_OrbEn ] 0
|  9>     print[ P_Cartesian ] 0
| 10> end
| 11> *xyz 0 1
| 12>  C        0.9180480000    -1.7628980000    -1.3685350000
| 13>  N        2.1809940000    -1.8505490000    -1.4514920000
| 14>  N        2.9236580000    -1.0597360000    -0.6673830000
| 15>  C        4.2832770000    -1.1000880000    -0.7036250000
| 16>  C        5.0310380000    -1.8951790000    -1.4878600000
| 17>  C        6.4403750000    -1.8401420000    -1.4295630000
| 18>  N        7.5940390000    -1.8076920000    -1.3942990000
| 19>  H        0.3259630000    -2.4062860000    -2.0067160000
| 20>  H        0.4065370000    -1.0741130000    -0.6891860000
| 21>  H        2.4681740000    -0.4161470000    -0.0325160000
| 22>  H        4.7515960000    -0.4057480000    -0.0156970000
| 23>  H        4.5722620000    -2.5914120000    -2.1776390000
| 24> *
| 25>
| 26>                          ****END OF INPUT****
 Total Charge           Charge          ....    0
 Multiplicity           Mult            ....    1
 Number of Electrons    NEL             ....   50
 Basis Dimension        Dim             ....  123

MULLIKEN ATOMIC CHARGES
-----------------------
   0 C :   -0.033065
   1 N :   -0.041512
   2 N :   -0.033514
   3 C :    0.077891
   4 C :   -0.140488
   5 C :   -0.111194
   6 N :    0.017389
   7 H :    0.062451
   8 H :    0.019672
   9 H :    0.108429
  10 H :    0.023535
  11 H :    0.050407
Sum of atomic charges:   -0.0000000

LOEWDIN ATOMIC CHARGES
----------------------
   0 C :   -0.032714
   1 N :   -0.009571
   2 N :    0.089313
   3 C :    0.032464
   4 C :   -0.127200
   5 C :   -0.051743
   6 N :   -0.084800
   7 H :    0.029439
   8 H :   -0.000665
   9 H :    0.064834
  10 H :    0.040371
  11 H :    0.050272

  Mayer bond orders larger than 0.1
B(  0-C ,  1-N ) :   1.8842 B(  0-C ,  7-H ) :   0.9565 B(  0-C ,  8-H ) :   0.9310
B(  1-N ,  2-N ) :   1.0798 B(  2-N ,  3-C ) :   1.1966 B(  2-N ,  9-H ) :   0.9142
B(  3-C ,  4-C ) :   1.6953 B(  3-C , 10-H ) :   0.9554 B(  4-C ,  5-C ) :   1.1496
B(  4-C , 11-H ) :   0.9406 B(  5-C ,  6-N ) :   2.9437

FINAL SINGLE POINT ENERGY      -318.993287224513

DIPOLE MOMENT
-------------
                                X             Y             Z
Electronic contribution:      5.01595      -0.37092      -0.35223
Nuclear contribution   :     -7.52084       1.04418       1.01078
                        -----------------------------------------
Total Dipole Moment    :     -2.50489       0.67326       0.65855
                        -----------------------------------------
Magnitude (a.u.)       :      2.67609
Magnitude (Debye)      :      6.80208

                             ****ORCA TERMINATED NORMALLY****
TOTAL RUN TIME: 0 days 0 hours 0 minutes 6 seconds 107 msec
