                         Program Version 3.0.3 - RELEASE   -
|  1> ! RI PBE def2-SVP def2-SVP/J NBO PAL2
|  2> % maxcore 2000
|  3> % output
|  4>     # printlevel mini
|  5>     print[ P_Basis ] 0
|  6>     print[ P_SCFInfo ] 1
|  7>     print[ P_SCFIterInfo ] 1
|  8>     print[ P_OrbEn ] 0
|  9>     print[ P_Cartesian ] 0
| 10> end
| 11> *xyz 0 1
| 12>  C        1.1270040000     1.7198400000    -0.8228890000
| 13>  N        2.3469810000     1.9876580000    -0.6040390000
| 14>  N        2.9811340000     1.3809070000     0.4197450000
| 15>  C        4.4187790000     1.3366230000     0.2959590000
| 16>  C        4.9985140000     2.7464420000     0.4016920000
| 17>  C        6.4452490000     2.7467740000     0.2757340000
| 18>  N        7.5905620000     2.7226120000     0.1788130000
| 19>  H        0.6253020000     2.2522300000    -1.6214880000
| 20>  H        0.5608880000     0.9879020000    -0.2378320000
| 21>  H        2.5610800000     0.5121700000     0.7366310000
| 22>  H        4.7433530000     0.8794670000    -0.6474310000
| 23>  H        4.7984840000     0.7196580000     1.1125780000
| 24>  H        4.7217010000     3.1911810000     1.3611600000
| 25>  H        4.5692690000     3.3718250000    -0.3847230000
| 26> *
| 27>
| 28>                          ****END OF INPUT****
 Total Charge           Charge          ....    0
 Multiplicity           Mult            ....    1
 Number of Electrons    NEL             ....   52
 Basis Dimension        Dim             ....  133

MULLIKEN ATOMIC CHARGES
-----------------------
   0 C :   -0.046537
   1 N :   -0.090531
   2 N :   -0.116865
   3 C :    0.077269
   4 C :    0.069459
   5 C :   -0.279501
   6 N :    0.049659
   7 H :    0.048983
   8 H :    0.008101
   9 H :    0.096431
  10 H :    0.031488
  11 H :    0.032830
  12 H :    0.050080
  13 H :    0.069135
Sum of atomic charges:   -0.0000000

LOEWDIN ATOMIC CHARGES
----------------------
   0 C :   -0.063163
   1 N :   -0.027863
   2 N :    0.004575
   3 C :    0.024994
   4 C :   -0.062023
   5 C :   -0.045193
   6 N :   -0.068175
   7 H :    0.022169
   8 H :   -0.006077
   9 H :    0.048820
  10 H :    0.020066
  11 H :    0.032838
  12 H :    0.058021
  13 H :    0.061011

  Mayer bond orders larger than 0.1
B(  0-C ,  1-N ) :   1.8931 B(  0-C ,  2-N ) :   0.1390 B(  0-C ,  7-H ) :   0.9577
B(  0-C ,  8-H ) :   0.9296 B(  1-N ,  2-N ) :   1.0829 B(  2-N ,  3-C ) :   1.0614
B(  2-N ,  9-H ) :   0.9181 B(  3-C ,  4-C ) :   1.0844 B(  3-C , 10-H ) :   0.9359
B(  3-C , 11-H ) :   0.9368 B(  4-C ,  5-C ) :   1.1153 B(  4-C , 12-H ) :   0.8840
B(  4-C , 13-H ) :   0.8826 B(  5-C ,  6-N ) :   3.0529

FINAL SINGLE POINT ENERGY      -320.194295706384

DIPOLE MOMENT
-------------
                                X             Y             Z
Electronic contribution:      4.80024       1.62625       0.17839
Nuclear contribution   :     -6.38744      -2.34775       0.16003
                        -----------------------------------------
Total Dipole Moment    :     -1.58720      -0.72150       0.33842
                        -----------------------------------------
Magnitude (a.u.)       :      1.77604
Magnitude (Debye)      :      4.51432

                             ****ORCA TERMINATED NORMALLY****
TOTAL RUN TIME: 0 days 0 hours 0 minutes 6 seconds 11 msec
