                         Program Version 3.0.3 - RELEASE   -
|  1> ! RI PBE def2-SVP def2-SVP/J NBO PAL2
|  2> % maxcore 2000
|  3> % output
|  4>     # printlevel mini
|  5>     print[ P_Basis ] 0
|  6>     print[ P_SCFInfo ] 1
|  7>     print[ P_SCFIterInfo ] 1
|  8>     print[ P_OrbEn ] 0
|  9>     print[ P_Cartesian ] 0
| 10> end
| 11> *xyz 0 1
| 12>  C        1.2142270000    -0.1547440000     0.5037740000
| 13>  N        2.6488220000    -0.2470040000     0.4023540000
| 14>  N        3.1382700000    -0.7549010000    -0.7123430000
| 15>  C        4.3930960000    -0.6139440000    -0.9674420000
| 16>  C        5.3672390000     0.1194920000    -0.0983180000
| 17>  C        4.8687820000    -1.2287500000    -2.1623640000
| 18>  N        5.3180360000    -1.6976290000    -3.1153450000
| 19>  H        0.9425970000     0.0017610000     1.5484890000
| 20>  H        0.7801210000    -1.0943960000     0.1645110000
| 21>  H        0.7984120000     0.6608690000    -0.0991480000
| 22>  H        3.1909840000     0.4554450000     0.8910190000
| 23>  H        5.4105520000    -0.3306400000     0.8997540000
| 24>  H        5.0803110000     1.1713750000     0.0209180000
| 25>  H        6.3669400000     0.0950870000    -0.5270510000
| 26> *
| 27>
| 28>                          ****END OF INPUT****
 Total Charge           Charge          ....    0
 Multiplicity           Mult            ....    1
 Number of Electrons    NEL             ....   52
 Basis Dimension        Dim             ....  133

MULLIKEN ATOMIC CHARGES
-----------------------
   0 C :    0.095722
   1 N :   -0.118419
   2 N :   -0.032262
   3 C :   -0.314983
   4 C :    0.054918
   5 C :   -0.080136
   6 N :    0.043112
   7 H :    0.029181
   8 H :    0.048980
   9 H :    0.038038
  10 H :    0.099393
  11 H :    0.046070
  12 H :    0.045114
  13 H :    0.045272
Sum of atomic charges:   -0.0000000

LOEWDIN ATOMIC CHARGES
----------------------
   0 C :    0.005531
   1 N :    0.040827
   2 N :   -0.005190
   3 C :   -0.117752
   4 C :   -0.070675
   5 C :   -0.049359
   6 N :   -0.071157
   7 H :    0.028785
   8 H :    0.038052
   9 H :    0.021653
  10 H :    0.049335
  11 H :    0.040714
  12 H :    0.038496
  13 H :    0.050740

  Mayer bond orders larger than 0.1
B(  0-C ,  1-N ) :   1.0166 B(  0-C ,  7-H ) :   0.9668 B(  0-C ,  8-H ) :   0.9644
B(  0-C ,  9-H ) :   0.9639 B(  1-N ,  2-N ) :   1.1597 B(  1-N ,  3-C ) :   0.1373
B(  1-N , 10-H ) :   0.9125 B(  2-N ,  3-C ) :   1.7916 B(  3-C ,  4-C ) :   1.0853
B(  3-C ,  5-C ) :   1.1498 B(  4-C , 11-H ) :   0.9383 B(  4-C , 12-H ) :   0.9323
B(  4-C , 13-H ) :   0.9386 B(  5-C ,  6-N ) :   2.9842

FINAL SINGLE POINT ENERGY      -320.206819301650

DIPOLE MOMENT
-------------
                                X             Y             Z
Electronic contribution:      3.03512      -3.65073      -6.01158
Nuclear contribution   :     -3.75100       4.91208       7.97302
                        -----------------------------------------
Total Dipole Moment    :     -0.71588       1.26134       1.96144
                        -----------------------------------------
Magnitude (a.u.)       :      2.43941
Magnitude (Debye)      :      6.20048

                             ****ORCA TERMINATED NORMALLY****
TOTAL RUN TIME: 0 days 0 hours 0 minutes 5 seconds 820 msec
