                         Program Version 3.0.3 - RELEASE   -
|  1> ! RI PBE def2-SVP def2-SVP/J NBO PAL2
|  2> % maxcore 2000
|  3> % output
|  4>     # printlevel mini
|  5>     print[ P_Basis ] 0
|  6>     print[ P_SCFInfo ] 1
|  7>     print[ P_SCFIterInfo ] 1
|  8>     print[ P_OrbEn ] 0
|  9>     print[ P_Cartesian ] 0
| 10> end
| 11> *xyz 0 1
| 12>  C        2.1361050000    -1.0506620000    -0.2808680000
| 13>  N        2.8941390000     0.1180330000    -0.6642240000
| 14>  N        3.4535410000     0.0508420000    -1.8789600000
| 15>  C        4.3548080000     0.8819910000    -2.2210700000
| 16>  C        4.8789160000     2.0088750000    -1.3631470000
| 17>  C        5.5667690000     1.5553360000    -0.1603270000
| 18>  N        6.0778120000     1.1735380000     0.7969200000
| 19>  H        2.7650200000    -1.9338970000    -0.1187360000
| 20>  H        1.4147610000    -1.2752790000    -1.0659970000
| 21>  H        1.5935350000    -0.8283050000     0.6389450000
| 22>  H        3.4715640000     0.4958550000     0.0796460000
| 23>  H        4.7369340000     0.7904090000    -3.2309100000
| 24>  H        4.0464120000     2.6514140000    -1.0461460000
| 25>  H        5.5666740000     2.6296300000    -1.9402260000
| 26> *
| 27>
| 28>                          ****END OF INPUT****
 Total Charge           Charge          ....    0
 Multiplicity           Mult            ....    1
 Number of Electrons    NEL             ....   52
 Basis Dimension        Dim             ....  133

MULLIKEN ATOMIC CHARGES
-----------------------
   0 C :    0.093070
   1 N :   -0.149309
   2 N :   -0.054883
   3 C :   -0.091246
   4 C :    0.064244
   5 C :   -0.283018
   6 N :    0.043487
   7 H :    0.029526
   8 H :    0.039762
   9 H :    0.027251
  10 H :    0.116478
  11 H :    0.027212
  12 H :    0.076352
  13 H :    0.061073
Sum of atomic charges:    0.0000000

LOEWDIN ATOMIC CHARGES
----------------------
   0 C :    0.001449
   1 N :    0.009575
   2 N :   -0.020882
   3 C :   -0.068450
   4 C :   -0.084601
   5 C :   -0.054617
   6 N :   -0.067592
   7 H :    0.017541
   8 H :    0.031719
   9 H :    0.027288
  10 H :    0.051533
  11 H :    0.023484
  12 H :    0.065597
  13 H :    0.067957

  Mayer bond orders larger than 0.1
B(  0-C ,  1-N ) :   1.0239 B(  0-C ,  7-H ) :   0.9629 B(  0-C ,  8-H ) :   0.9685
B(  0-C ,  9-H ) :   0.9679 B(  1-N ,  2-N ) :   1.1264 B(  1-N ,  3-C ) :   0.1273
B(  1-N , 10-H ) :   0.9128 B(  2-N ,  3-C ) :   1.8949 B(  3-C ,  4-C ) :   0.9995
B(  3-C , 11-H ) :   0.9682 B(  4-C ,  5-C ) :   1.1035 B(  4-C , 12-H ) :   0.8888
B(  4-C , 13-H ) :   0.8766 B(  5-C ,  6-N ) :   3.0143

FINAL SINGLE POINT ENERGY      -320.196275171516

DIPOLE MOMENT
-------------
                                X             Y             Z
Electronic contribution:      4.40156       2.24977       0.47095
Nuclear contribution   :     -4.99602      -1.83141      -0.88748
                        -----------------------------------------
Total Dipole Moment    :     -0.59446       0.41836      -0.41654
                        -----------------------------------------
Magnitude (a.u.)       :      0.83780
Magnitude (Debye)      :      2.12952

                             ****ORCA TERMINATED NORMALLY****
TOTAL RUN TIME: 0 days 0 hours 0 minutes 6 seconds 72 msec
