                         Program Version 3.0.3 - RELEASE   -
|  1> ! RI PBE def2-SVP def2-SVP/J NBO PAL2
|  2> % maxcore 2000
|  3> % output
|  4>     # printlevel mini
|  5>     print[ P_Basis ] 0
|  6>     print[ P_SCFInfo ] 1
|  7>     print[ P_SCFIterInfo ] 1
|  8>     print[ P_OrbEn ] 0
|  9>     print[ P_Cartesian ] 0
| 10> end
| 11> *xyz 0 1
| 12>  N        0.0327700000     0.0270450000    -1.3404210000
| 13>  C        0.0197050000    -1.0718350000    -0.3479810000
| 14>  C        1.2480570000    -0.6419650000     0.4638480000
| 15>  C        1.2143070000     0.6814120000     0.4914180000
| 16>  C       -0.0352260000     1.0815490000    -0.3030960000
| 17>  C       -1.2521930000     0.6191820000     0.5254730000
| 18>  C       -1.2183730000    -0.7069990000     0.4978150000
| 19>  H       -0.8580470000     0.0146100000    -1.8341280000
| 20>  H        0.0454720000    -2.0712800000    -0.7778590000
| 21>  H        1.9448040000    -1.3174810000     0.9382570000
| 22>  H        1.8762320000     1.3712190000     0.9942730000
| 23>  H       -0.0608920000     2.0980410000    -0.6909540000
| 24>  H       -1.9206930000     1.2668280000     1.0757430000
| 25>  H       -1.8524220000    -1.4102270000     1.0199130000
| 26> *
| 27>
| 28>                          ****END OF INPUT****
 Total Charge           Charge          ....    0
 Multiplicity           Mult            ....    1
 Number of Electrons    NEL             ....   50
 Basis Dimension        Dim             ....  133

MULLIKEN ATOMIC CHARGES
-----------------------
   0 N :   -0.152582
   1 C :    0.005315
   2 C :    0.032556
   3 C :    0.034235
   4 C :    0.004821
   5 C :    0.003878
   6 C :    0.007763
   7 H :    0.088846
   8 H :   -0.001900
   9 H :   -0.003960
  10 H :   -0.003968
  11 H :   -0.001724
  12 H :   -0.006170
  13 H :   -0.007110
Sum of atomic charges:   -0.0000000

LOEWDIN ATOMIC CHARGES
----------------------
   0 N :   -0.077742
   1 C :    0.014672
   2 C :   -0.020928
   3 C :   -0.020863
   4 C :    0.014659
   5 C :   -0.039398
   6 C :   -0.038585
   7 H :    0.045002
   8 H :    0.016825
   9 H :    0.023148
  10 H :    0.023165
  11 H :    0.016872
  12 H :    0.021639
  13 H :    0.021535

  Mayer bond orders larger than 0.1
B(  0-N ,  1-C ) :   1.0112 B(  0-N ,  4-C ) :   1.0111 B(  0-N ,  7-H ) :   0.9403
B(  1-C ,  2-C ) :   0.9271 B(  1-C ,  6-C ) :   0.9174 B(  1-C ,  8-H ) :   0.9588
B(  2-C ,  3-C ) :   1.8431 B(  2-C ,  9-H ) :   1.0100 B(  3-C ,  4-C ) :   0.9269
B(  3-C , 10-H ) :   1.0100 B(  4-C ,  5-C ) :   0.9178 B(  4-C , 11-H ) :   0.9591
B(  5-C ,  6-C ) :   1.8306 B(  5-C , 12-H ) :   1.0071 B(  6-C , 13-H ) :   1.0071

FINAL SINGLE POINT ENERGY      -286.926628890855

DIPOLE MOMENT
-------------
                                X             Y             Z
Electronic contribution:      0.36698       0.01875      -0.47857
Nuclear contribution   :     -0.72788      -0.03569       0.82123
                        -----------------------------------------
Total Dipole Moment    :     -0.36090      -0.01694       0.34266
                        -----------------------------------------
Magnitude (a.u.)       :      0.49795
Magnitude (Debye)      :      1.26568

                             ****ORCA TERMINATED NORMALLY****
TOTAL RUN TIME: 0 days 0 hours 0 minutes 6 seconds 507 msec
