                         Program Version 3.0.3 - RELEASE   -
|  1> ! RI PBE def2-SVP def2-SVP/J NBO PAL2
|  2> % maxcore 2000
|  3> % output
|  4>     # printlevel mini
|  5>     print[ P_Basis ] 0
|  6>     print[ P_SCFInfo ] 1
|  7>     print[ P_SCFIterInfo ] 1
|  8>     print[ P_OrbEn ] 0
|  9>     print[ P_Cartesian ] 0
| 10> end
| 11> *xyz 0 1
| 12>  N       -1.3464690000     0.8084380000     0.6528000000
| 13>  C       -1.1578040000    -0.3857010000    -0.1555320000
| 14>  C       -0.2348130000    -1.4251930000     0.2810440000
| 15>  C        1.0577760000    -1.1550650000     0.5498590000
| 16>  C        1.6436010000     0.1088770000     0.1875630000
| 17>  C        0.9172200000     1.0603180000    -0.4314290000
| 18>  C       -0.5324140000     0.9636190000    -0.5423060000
| 19>  H       -0.7365780000     0.7584710000     1.4655180000
| 20>  H       -2.0607350000    -0.7000850000    -0.6694400000
| 21>  H       -0.6149170000    -2.4370330000     0.3714540000
| 22>  H        1.7063770000    -1.9369430000     0.9287810000
| 23>  H        2.7137950000     0.2365970000     0.3057600000
| 24>  H        1.4047560000     1.9203830000    -0.8776030000
| 25>  H       -1.0167940000     1.5520970000    -1.3151670000
| 26> *
| 27>
| 28>                          ****END OF INPUT****
 Total Charge           Charge          ....    0
 Multiplicity           Mult            ....    1
 Number of Electrons    NEL             ....   50
 Basis Dimension        Dim             ....  133

MULLIKEN ATOMIC CHARGES
-----------------------
   0 N :   -0.124885
   1 C :   -0.024815
   2 C :    0.057291
   3 C :   -0.031470
   4 C :   -0.030498
   5 C :    0.057570
   6 C :   -0.021741
   7 H :    0.111487
   8 H :    0.021698
   9 H :   -0.010661
  10 H :   -0.008666
  11 H :   -0.007477
  12 H :   -0.010481
  13 H :    0.022648
Sum of atomic charges:   -0.0000000

LOEWDIN ATOMIC CHARGES
----------------------
   0 N :   -0.063928
   1 C :    0.011563
   2 C :   -0.042739
   3 C :   -0.049680
   4 C :   -0.050548
   5 C :   -0.042755
   6 C :    0.010775
   7 H :    0.058173
   8 H :    0.024636
   9 H :    0.030247
  10 H :    0.029457
  11 H :    0.029703
  12 H :    0.030477
  13 H :    0.024620

  Mayer bond orders larger than 0.1
B(  0-N ,  1-C ) :   0.9813 B(  0-N ,  6-C ) :   0.9767 B(  0-N ,  7-H ) :   0.9450
B(  1-C ,  2-C ) :   1.0908 B(  1-C ,  6-C ) :   0.8541 B(  1-C ,  8-H ) :   0.9349
B(  2-C ,  3-C ) :   1.6408 B(  2-C ,  5-C ) :   0.1100 B(  2-C ,  9-H ) :   0.9848
B(  3-C ,  4-C ) :   1.1541 B(  3-C , 10-H ) :   0.9725 B(  4-C ,  5-C ) :   1.6431
B(  4-C , 11-H ) :   0.9741 B(  5-C ,  6-C ) :   1.0880 B(  5-C , 12-H ) :   0.9823
B(  6-C , 13-H ) :   0.9376

FINAL SINGLE POINT ENERGY      -286.959820817933

DIPOLE MOMENT
-------------
                                X             Y             Z
Electronic contribution:     -0.74422       0.41725       0.27057
Nuclear contribution   :      1.09833      -0.61436      -0.36634
                        -----------------------------------------
Total Dipole Moment    :      0.35411      -0.19711      -0.09577
                        -----------------------------------------
Magnitude (a.u.)       :      0.41643
Magnitude (Debye)      :      1.05849

                             ****ORCA TERMINATED NORMALLY****
TOTAL RUN TIME: 0 days 0 hours 0 minutes 6 seconds 637 msec
