                         Program Version 3.0.3 - RELEASE   -
|  1> ! RI PBE def2-SVP def2-SVP/J NBO PAL2
|  2> % maxcore 2000
|  3> % output
|  4>     # printlevel mini
|  5>     print[ P_Basis ] 0
|  6>     print[ P_SCFInfo ] 1
|  7>     print[ P_SCFIterInfo ] 1
|  8>     print[ P_OrbEn ] 0
|  9>     print[ P_Cartesian ] 0
| 10> end
| 11> *xyz 0 1
| 12>  N        0.6930170000     0.0781440000    -0.5466700000
| 13>  C        1.9650940000    -0.0149640000     0.0934850000
| 14>  C        2.4007210000    -1.3069520000     0.8372080000
| 15>  C        3.7807770000    -0.5907270000     0.8011860000
| 16>  C        3.3675450000    -0.0951420000    -0.6101970000
| 17>  C        3.4662770000     0.6501290000     1.6306600000
| 18>  C        2.2764960000     1.0248930000     1.1689080000
| 19>  H        0.5946330000    -0.6191160000    -1.2730890000
| 20>  H        0.5601380000     0.9874790000    -0.9717620000
| 21>  H        2.3636810000    -2.1969900000     0.2010420000
| 22>  H        1.9498620000    -1.4961420000     1.8124010000
| 23>  H        4.7123030000    -1.1229790000     0.9790070000
| 24>  H        3.4115540000    -0.8787970000    -1.3731270000
| 25>  H        3.8105110000     0.8364520000    -0.9678110000
| 26>  H        4.0814240000     1.0875860000     2.4039390000
| 27>  H        1.6342860000     1.8453260000     1.4583100000
| 28> *
| 29>
| 30>                          ****END OF INPUT****
 Total Charge           Charge          ....    0
 Multiplicity           Mult            ....    1
 Number of Electrons    NEL             ....   52
 Basis Dimension        Dim             ....  143

MULLIKEN ATOMIC CHARGES
-----------------------
   0 N :   -0.097328
   1 C :   -0.221217
   2 C :    0.130593
   3 C :   -0.096301
   4 C :    0.118350
   5 C :    0.029375
   6 C :    0.022704
   7 H :    0.088811
   8 H :    0.090546
   9 H :    0.006119
  10 H :    0.004775
  11 H :   -0.029026
  12 H :    0.001066
  13 H :   -0.000663
  14 H :   -0.020049
  15 H :   -0.027752
Sum of atomic charges:   -0.0000000

LOEWDIN ATOMIC CHARGES
----------------------
   0 N :   -0.084174
   1 C :   -0.023944
   2 C :   -0.004356
   3 C :   -0.024325
   4 C :   -0.025252
   5 C :   -0.023000
   6 C :   -0.022912
   7 H :    0.054827
   8 H :    0.055607
   9 H :    0.014901
  10 H :    0.013638
  11 H :    0.009560
  12 H :    0.012060
  13 H :    0.008968
  14 H :    0.019204
  15 H :    0.019199

  Mayer bond orders larger than 0.1
B(  0-N ,  1-C ) :   1.1543 B(  0-N ,  7-H ) :   0.9534 B(  0-N ,  8-H ) :   0.9580
B(  1-C ,  2-C ) :   0.9696 B(  1-C ,  4-C ) :   0.9304 B(  1-C ,  6-C ) :   0.9405
B(  2-C ,  3-C ) :   0.9744 B(  2-C ,  9-H ) :   0.9332 B(  2-C , 10-H ) :   0.9247
B(  3-C ,  4-C ) :   0.9810 B(  3-C ,  5-C ) :   0.9219 B(  3-C , 11-H ) :   0.9693
B(  4-C , 12-H ) :   0.9292 B(  4-C , 13-H ) :   0.9272 B(  5-C ,  6-C ) :   1.7795
B(  5-C , 14-H ) :   1.0193 B(  6-C , 15-H ) :   1.0219

FINAL SINGLE POINT ENERGY      -288.135036514634

DIPOLE MOMENT
-------------
                                X             Y             Z
Electronic contribution:     -0.23918       1.09465       1.12187
Nuclear contribution   :      0.35525      -1.06337      -1.57991
                        -----------------------------------------
Total Dipole Moment    :      0.11607       0.03129      -0.45805
                        -----------------------------------------
Magnitude (a.u.)       :      0.47356
Magnitude (Debye)      :      1.20369

                             ****ORCA TERMINATED NORMALLY****
TOTAL RUN TIME: 0 days 0 hours 0 minutes 7 seconds 758 msec
