                         Program Version 3.0.3 - RELEASE   -
|  1> ! RI PBE def2-SVP def2-SVP/J NBO PAL2
|  2> % maxcore 2000
|  3> % output
|  4>     # printlevel mini
|  5>     print[ P_Basis ] 0
|  6>     print[ P_SCFInfo ] 1
|  7>     print[ P_SCFIterInfo ] 1
|  8>     print[ P_OrbEn ] 0
|  9>     print[ P_Cartesian ] 0
| 10> end
| 11> *xyz 0 1
| 12>  N        1.6054990000    -0.4254130000    -0.6382470000
| 13>  C        2.8314290000     0.0208180000    -0.0508370000
| 14>  C        3.6603690000    -1.0203140000     0.6316820000
| 15>  C        4.1465930000    -0.4074480000    -0.6500100000
| 16>  C        5.1314870000     0.7415770000    -0.5404150000
| 17>  C        4.2634610000     1.9795100000    -0.2678700000
| 18>  C        3.0147620000     1.4563990000     0.4526210000
| 19>  H        0.8645110000    -0.4644810000     0.0515330000
| 20>  H        1.3044720000     0.2002640000    -1.3761340000
| 21>  H        3.2916730000    -2.0376020000     0.5819890000
| 22>  H        4.1713800000    -0.7548620000     1.5517450000
| 23>  H        4.1457550000    -1.0361330000    -1.5319830000
| 24>  H        5.7213410000     0.8557650000    -1.4524900000
| 25>  H        5.8419750000     0.5724940000     0.2755310000
| 26>  H        3.9628300000     2.4172040000    -1.2250230000
| 27>  H        4.7898830000     2.7585450000     0.2889870000
| 28>  H        2.1302380000     2.0561780000     0.2245840000
| 29>  H        3.1430430000     1.4809190000     1.5402340000
| 30> *
| 31>
| 32>                          ****END OF INPUT****
 Total Charge           Charge          ....    0
 Multiplicity           Mult            ....    1
 Number of Electrons    NEL             ....   54
 Basis Dimension        Dim             ....  153

MULLIKEN ATOMIC CHARGES
-----------------------
   0 N :   -0.116082
   1 C :   -0.266384
   2 C :    0.087579
   3 C :   -0.127066
   4 C :    0.087387
   5 C :   -0.009732
   6 C :    0.103272
   7 H :    0.091766
   8 H :    0.086148
   9 H :    0.018812
  10 H :    0.012627
  11 H :    0.007798
  12 H :    0.009005
  13 H :    0.007720
  14 H :    0.008467
  15 H :    0.005478
  16 H :   -0.013611
  17 H :    0.006817
Sum of atomic charges:    0.0000000

LOEWDIN ATOMIC CHARGES
----------------------
   0 N :   -0.078363
   1 C :   -0.035044
   2 C :   -0.034211
   3 C :   -0.040855
   4 C :   -0.035191
   5 C :   -0.035647
   6 C :   -0.046635
   7 H :    0.053292
   8 H :    0.050871
   9 H :    0.028578
  10 H :    0.017901
  11 H :    0.022418
  12 H :    0.026911
  13 H :    0.022413
  14 H :    0.023304
  15 H :    0.019803
  16 H :    0.018159
  17 H :    0.022295

  Mayer bond orders larger than 0.1
B(  0-N ,  1-C ) :   1.1763 B(  0-N ,  7-H ) :   0.9655 B(  0-N ,  8-H ) :   0.9645
B(  1-C ,  2-C ) :   0.9748 B(  1-C ,  3-C ) :   0.9304 B(  1-C ,  6-C ) :   1.0187
B(  2-C ,  3-C ) :   0.9960 B(  2-C ,  9-H ) :   0.9239 B(  2-C , 10-H ) :   0.9329
B(  3-C ,  4-C ) :   1.0645 B(  3-C , 11-H ) :   0.9410 B(  4-C ,  5-C ) :   1.1075
B(  4-C , 12-H ) :   0.9363 B(  4-C , 13-H ) :   0.9172 B(  5-C ,  6-C ) :   1.1005
B(  5-C , 14-H ) :   0.9332 B(  5-C , 15-H ) :   0.9330 B(  6-C , 16-H ) :   0.9319
B(  6-C , 17-H ) :   0.9100

FINAL SINGLE POINT ENERGY      -289.379646692719

DIPOLE MOMENT
-------------
                                X             Y             Z
Electronic contribution:     -1.15193      -1.73011      -0.54053
Nuclear contribution   :      0.91597       2.12097       0.59873
                        -----------------------------------------
Total Dipole Moment    :     -0.23595       0.39086       0.05819
                        -----------------------------------------
Magnitude (a.u.)       :      0.46025
Magnitude (Debye)      :      1.16986

                             ****ORCA TERMINATED NORMALLY****
TOTAL RUN TIME: 0 days 0 hours 0 minutes 7 seconds 993 msec
