                         Program Version 3.0.3 - RELEASE   -
|  1> ! RI PBE def2-SVP def2-SVP/J NBO PAL2
|  2> % maxcore 2000
|  3> % output
|  4>     # printlevel mini
|  5>     print[ P_Basis ] 0
|  6>     print[ P_SCFInfo ] 1
|  7>     print[ P_SCFIterInfo ] 1
|  8>     print[ P_OrbEn ] 0
|  9>     print[ P_Cartesian ] 0
| 10> end
| 11> *xyz 0 1
| 12>  N        1.6170050000     0.2115820000     0.9549400000
| 13>  C        2.7275690000    -0.1295390000     0.1139090000
| 14>  C        3.3505170000     0.8715500000    -0.8181740000
| 15>  C        4.1190840000     0.3818040000     0.3882560000
| 16>  C        5.0283270000    -0.7592240000     0.1263890000
| 17>  C        4.3522730000    -1.8340870000    -0.2743310000
| 18>  C        2.8692010000    -1.5968420000    -0.2703840000
| 19>  H        1.8583190000     0.9388190000     1.6138880000
| 20>  H        0.8265530000     0.5364840000     0.4121810000
| 21>  H        2.9493640000     1.8779910000    -0.7703030000
| 22>  H        3.6998870000     0.5539390000    -1.7947590000
| 23>  H        4.3196240000     1.0806240000     1.1936000000
| 24>  H        6.1060050000    -0.6935540000     0.2185600000
| 25>  H        4.7992770000    -2.7748600000    -0.5734920000
| 26>  H        2.3630230000    -2.2193380000     0.4760360000
| 27>  H        2.4085720000    -1.8232600000    -1.2386070000
| 28> *
| 29>
| 30>                          ****END OF INPUT****
 Total Charge           Charge          ....    0
 Multiplicity           Mult            ....    1
 Number of Electrons    NEL             ....   52
 Basis Dimension        Dim             ....  143

MULLIKEN ATOMIC CHARGES
-----------------------
   0 N :   -0.092570
   1 C :   -0.303126
   2 C :    0.087092
   3 C :   -0.072553
   4 C :    0.057903
   5 C :   -0.132096
   6 C :    0.236406
   7 H :    0.080734
   8 H :    0.091716
   9 H :    0.007196
  10 H :    0.019923
  11 H :    0.011283
  12 H :   -0.013731
  13 H :   -0.013357
  14 H :    0.019970
  15 H :    0.015211
Sum of atomic charges:    0.0000000

LOEWDIN ATOMIC CHARGES
----------------------
   0 N :   -0.077219
   1 C :   -0.023868
   2 C :   -0.041726
   3 C :   -0.041757
   4 C :   -0.033387
   5 C :   -0.036222
   6 C :   -0.029096
   7 H :    0.053502
   8 H :    0.054280
   9 H :    0.021373
  10 H :    0.023124
  11 H :    0.021668
  12 H :    0.023076
  13 H :    0.019173
  14 H :    0.035806
  15 H :    0.031272

  Mayer bond orders larger than 0.1
B(  0-N ,  1-C ) :   1.1685 B(  0-N ,  7-H ) :   0.9590 B(  0-N ,  8-H ) :   0.9669
B(  1-C ,  2-C ) :   0.9492 B(  1-C ,  3-C ) :   0.9181 B(  1-C ,  6-C ) :   1.0383
B(  2-C ,  3-C ) :   0.9590 B(  2-C ,  9-H ) :   0.9282 B(  2-C , 10-H ) :   0.9305
B(  3-C ,  4-C ) :   1.0148 B(  3-C , 11-H ) :   0.9476 B(  4-C ,  5-C ) :   1.8175
B(  4-C , 12-H ) :   0.9991 B(  5-C ,  6-C ) :   1.0212 B(  5-C , 13-H ) :   0.9792
B(  6-C , 14-H ) :   0.8968 B(  6-C , 15-H ) :   0.9084

FINAL SINGLE POINT ENERGY      -288.161189584845

DIPOLE MOMENT
-------------
                                X             Y             Z
Electronic contribution:      0.92437      -0.41888       0.69200
Nuclear contribution   :     -1.05261       0.86725      -0.79215
                        -----------------------------------------
Total Dipole Moment    :     -0.12825       0.44837      -0.10014
                        -----------------------------------------
Magnitude (a.u.)       :      0.47698
Magnitude (Debye)      :      1.21238

                             ****ORCA TERMINATED NORMALLY****
TOTAL RUN TIME: 0 days 0 hours 0 minutes 7 seconds 409 msec
