                         Program Version 3.0.3 - RELEASE   -
|  1> ! RI PBE def2-SVP def2-SVP/J NBO PAL2
|  2> % maxcore 2000
|  3> % output
|  4>     # printlevel mini
|  5>     print[ P_Basis ] 0
|  6>     print[ P_SCFInfo ] 1
|  7>     print[ P_SCFIterInfo ] 1
|  8>     print[ P_OrbEn ] 0
|  9>     print[ P_Cartesian ] 0
| 10> end
| 11> *xyz 0 1
| 12>  N        1.0117980000    -0.0762620000    -0.0776250000
| 13>  C        2.4326010000     0.0618080000    -0.1128960000
| 14>  C        3.3939410000    -0.5491630000    -1.1784290000
| 15>  C        4.4394250000    -0.3096660000    -0.0730840000
| 16>  C        3.3182440000    -0.6505720000     0.9304660000
| 17>  C        4.4736650000     1.2191860000     0.0008900000
| 18>  C        2.9508940000     1.4985670000    -0.0273520000
| 19>  H        0.7285170000    -1.0362210000    -0.2269910000
| 20>  H        0.5685020000     0.4924180000    -0.7887160000
| 21>  H        3.5166690000    -0.0262900000    -2.1316910000
| 22>  H        3.1933950000    -1.6100630000    -1.3443060000
| 23>  H        5.3916500000    -0.8374180000    -0.0626590000
| 24>  H        3.3662050000    -0.2253000000     1.9363430000
| 25>  H        3.1143440000    -1.7227730000     0.9773920000
| 26>  H        5.0005050000     1.6614360000    -0.8478980000
| 27>  H        4.9492510000     1.5785630000     0.9162530000
| 28>  H        2.6428350000     2.0915210000    -0.8935490000
| 29>  H        2.5848580000     1.9972380000     0.8726450000
| 30> *
| 31>
| 32>                          ****END OF INPUT****
 Total Charge           Charge          ....    0
 Multiplicity           Mult            ....    1
 Number of Electrons    NEL             ....   54
 Basis Dimension        Dim             ....  153

MULLIKEN ATOMIC CHARGES
-----------------------
   0 N :   -0.087453
   1 C :   -0.336906
   2 C :    0.117867
   3 C :   -0.187524
   4 C :    0.123092
   5 C :    0.118650
   6 C :    0.093822
   7 H :    0.085097
   8 H :    0.088679
   9 H :   -0.004081
  10 H :   -0.002509
  11 H :   -0.023957
  12 H :    0.001553
  13 H :    0.004571
  14 H :    0.000701
  15 H :    0.002938
  16 H :   -0.001442
  17 H :    0.006899
Sum of atomic charges:   -0.0000000

LOEWDIN ATOMIC CHARGES
----------------------
   0 N :   -0.081340
   1 C :   -0.024171
   2 C :   -0.041160
   3 C :   -0.024321
   4 C :   -0.021971
   5 C :   -0.026984
   6 C :   -0.027980
   7 H :    0.052929
   8 H :    0.054737
   9 H :    0.007074
  10 H :    0.015529
  11 H :    0.008914
  12 H :    0.011788
  13 H :    0.018692
  14 H :    0.019706
  15 H :    0.020774
  16 H :    0.016557
  17 H :    0.021228

  Mayer bond orders larger than 0.1
B(  0-N ,  1-C ) :   1.1662 B(  0-N ,  7-H ) :   0.9520 B(  0-N ,  8-H ) :   0.9559
B(  1-C ,  2-C ) :   0.9378 B(  1-C ,  4-C ) :   0.9670 B(  1-C ,  6-C ) :   1.0792
B(  2-C ,  3-C ) :   0.9867 B(  2-C ,  9-H ) :   0.9305 B(  2-C , 10-H ) :   0.9258
B(  3-C ,  4-C ) :   0.9812 B(  3-C ,  5-C ) :   1.0603 B(  3-C , 11-H ) :   0.9608
B(  4-C , 12-H ) :   0.9274 B(  4-C , 13-H ) :   0.9312 B(  5-C ,  6-C ) :   1.1095
B(  5-C , 14-H ) :   0.9152 B(  5-C , 15-H ) :   0.9179 B(  6-C , 16-H ) :   0.9135
B(  6-C , 17-H ) :   0.9130

FINAL SINGLE POINT ENERGY      -289.377328155707

DIPOLE MOMENT
-------------
                                X             Y             Z
Electronic contribution:     -0.89816      -0.60852       0.22107
Nuclear contribution   :      0.81736       0.45571      -0.62122
                        -----------------------------------------
Total Dipole Moment    :     -0.08080      -0.15281      -0.40015
                        -----------------------------------------
Magnitude (a.u.)       :      0.43589
Magnitude (Debye)      :      1.10795

                             ****ORCA TERMINATED NORMALLY****
TOTAL RUN TIME: 0 days 0 hours 0 minutes 8 seconds 373 msec
