                         Program Version 3.0.3 - RELEASE   -
|  1> ! RI PBE def2-SVP def2-SVP/J NBO PAL2
|  2> % maxcore 2000
|  3> % output
|  4>     # printlevel mini
|  5>     print[ P_Basis ] 0
|  6>     print[ P_SCFInfo ] 1
|  7>     print[ P_SCFIterInfo ] 1
|  8>     print[ P_OrbEn ] 0
|  9>     print[ P_Cartesian ] 0
| 10> end
| 11> *xyz 0 1
| 12>  N        1.4970370000    -0.0288170000    -0.7357820000
| 13>  C        2.7732960000     0.1857860000    -0.1147630000
| 14>  C        3.5364110000    -0.9094520000     0.5942050000
| 15>  C        4.0374280000    -0.3361930000    -0.7054980000
| 16>  N        5.0445140000     0.6957930000    -0.6019420000
| 17>  C        4.3289420000     1.9697170000    -0.5100210000
| 18>  C        3.0914620000     1.6164250000     0.3142770000
| 19>  H        1.5219010000    -0.8351180000    -1.3463050000
| 20>  H        0.7834820000    -0.2060880000    -0.0374310000
| 21>  H        3.1012220000    -1.9033850000     0.5687830000
| 22>  H        4.1035130000    -0.6651760000     1.4855630000
| 23>  H        4.0254760000    -0.9580800000    -1.5963780000
| 24>  H        5.6949160000     0.6677400000    -1.3734960000
| 25>  H        4.0120500000     2.3453380000    -1.4952790000
| 26>  H        4.9543900000     2.7330080000    -0.0397180000
| 27>  H        2.2497340000     2.2720990000     0.0906170000
| 28>  H        3.3052270000     1.6761030000     1.3847790000
| 29> *
| 30>
| 31>                          ****END OF INPUT****
 Total Charge           Charge          ....    0
 Multiplicity           Mult            ....    1
 Number of Electrons    NEL             ....   54
 Basis Dimension        Dim             ....  148

MULLIKEN ATOMIC CHARGES
-----------------------
   0 N :   -0.092367
   1 C :   -0.297405
   2 C :    0.110905
   3 C :   -0.019040
   4 N :   -0.205528
   5 C :    0.112904
   6 C :    0.104452
   7 H :    0.077064
   8 H :    0.091243
   9 H :   -0.000625
  10 H :    0.003847
  11 H :    0.003900
  12 H :    0.096025
  13 H :   -0.003385
  14 H :    0.004550
  15 H :    0.005485
  16 H :    0.007977
Sum of atomic charges:   -0.0000000

LOEWDIN ATOMIC CHARGES
----------------------
   0 N :   -0.080871
   1 C :   -0.037815
   2 C :   -0.061769
   3 C :    0.002552
   4 N :   -0.094246
   5 C :    0.024560
   6 C :   -0.032796
   7 H :    0.050620
   8 H :    0.053912
   9 H :    0.018323
  10 H :    0.020906
  11 H :    0.010816
  12 H :    0.055870
  13 H :    0.002856
  14 H :    0.014364
  15 H :    0.028498
  16 H :    0.024219

  Mayer bond orders larger than 0.1
B(  0-N ,  1-C ) :   1.1482 B(  0-N ,  7-H ) :   0.9550 B(  0-N ,  8-H ) :   0.9628
B(  1-C ,  2-C ) :   0.9375 B(  1-C ,  3-C ) :   0.9451 B(  1-C ,  6-C ) :   1.0720
B(  2-C ,  3-C ) :   0.9593 B(  2-C ,  9-H ) :   0.9261 B(  2-C , 10-H ) :   0.9030
B(  3-C ,  4-N ) :   1.1111 B(  3-C , 11-H ) :   0.9343 B(  4-N ,  5-C ) :   1.0262
B(  4-N , 12-H ) :   0.9483 B(  5-C ,  6-C ) :   1.1149 B(  5-C , 13-H ) :   0.9253
B(  5-C , 14-H ) :   0.9370 B(  6-C , 15-H ) :   0.9249 B(  6-C , 16-H ) :   0.9069

FINAL SINGLE POINT ENERGY      -305.384135527150

DIPOLE MOMENT
-------------
                                X             Y             Z
Electronic contribution:      0.59365      -0.80346      -0.55144
Nuclear contribution   :     -0.74604       0.52079       0.28515
                        -----------------------------------------
Total Dipole Moment    :     -0.15239      -0.28268      -0.26629
                        -----------------------------------------
Magnitude (a.u.)       :      0.41718
Magnitude (Debye)      :      1.06039

                             ****ORCA TERMINATED NORMALLY****
TOTAL RUN TIME: 0 days 0 hours 0 minutes 7 seconds 269 msec
