                         Program Version 3.0.3 - RELEASE   -
|  1> ! RI PBE def2-SVP def2-SVP/J NBO PAL2
|  2> % maxcore 2000
|  3> % output
|  4>     # printlevel mini
|  5>     print[ P_Basis ] 0
|  6>     print[ P_SCFInfo ] 1
|  7>     print[ P_SCFIterInfo ] 1
|  8>     print[ P_OrbEn ] 0
|  9>     print[ P_Cartesian ] 0
| 10> end
| 11> *xyz 0 1
| 12>  N        1.0672940000    -0.1464810000     0.0811360000
| 13>  C        2.4835730000     0.0007150000     0.0427150000
| 14>  C        3.4824590000    -0.6069470000    -0.9825640000
| 15>  N        4.5174650000    -0.4127030000     0.0821900000
| 16>  C        3.4094820000    -0.7037030000     1.0508200000
| 17>  C        4.5264030000     1.0695550000     0.1526300000
| 18>  C        3.0187160000     1.4276600000     0.1271550000
| 19>  H        0.7816280000    -1.0997350000    -0.1010840000
| 20>  H        0.6061290000     0.4559180000    -0.5883210000
| 21>  H        3.6775130000    -0.0836090000    -1.9234070000
| 22>  H        3.3213270000    -1.6722400000    -1.1624750000
| 23>  H        3.5304910000    -0.2744380000     2.0489580000
| 24>  H        3.2428480000    -1.7811000000     1.1161810000
| 25>  H        5.0807880000     1.4709840000    -0.6974150000
| 26>  H        5.0270130000     1.3877920000     1.0684460000
| 27>  H        2.7301880000     2.0276860000    -0.7405930000
| 28>  H        2.6721050000     1.9360250000     1.0293280000
| 29> *
| 30>
| 31>                          ****END OF INPUT****
 Total Charge           Charge          ....    0
 Multiplicity           Mult            ....    1
 Number of Electrons    NEL             ....   54
 Basis Dimension        Dim             ....  148

MULLIKEN ATOMIC CHARGES
-----------------------
   0 N :   -0.092410
   1 C :   -0.405931
   2 C :    0.176641
   3 N :   -0.303435
   4 C :    0.181457
   5 C :    0.108923
   6 C :    0.090929
   7 H :    0.089296
   8 H :    0.092838
   9 H :    0.002392
  10 H :    0.004530
  11 H :    0.007493
  12 H :    0.011792
  13 H :    0.007325
  14 H :    0.009031
  15 H :    0.005854
  16 H :    0.013277
Sum of atomic charges:   -0.0000000

LOEWDIN ATOMIC CHARGES
----------------------
   0 N :   -0.079337
   1 C :   -0.042136
   2 C :    0.011383
   3 N :   -0.125373
   4 C :    0.030194
   5 C :    0.017394
   6 C :   -0.046506
   7 H :    0.055074
   8 H :    0.056758
   9 H :    0.006125
  10 H :    0.013677
  11 H :    0.010552
  12 H :    0.016799
  13 H :    0.017650
  14 H :    0.018817
  15 H :    0.017199
  16 H :    0.021732

  Mayer bond orders larger than 0.1
B(  0-N ,  1-C ) :   1.1593 B(  0-N ,  7-H ) :   0.9553 B(  0-N ,  8-H ) :   0.9552
B(  1-C ,  2-C ) :   0.9442 B(  1-C ,  4-C ) :   0.9751 B(  1-C ,  6-C ) :   1.0624
B(  2-C ,  3-N ) :   0.9789 B(  2-C ,  9-H ) :   0.9342 B(  2-C , 10-H ) :   0.9338
B(  3-N ,  4-C ) :   0.9708 B(  3-N ,  5-C ) :   1.0192 B(  4-C , 11-H ) :   0.9314
B(  4-C , 12-H ) :   0.9383 B(  5-C ,  6-C ) :   1.0458 B(  5-C , 13-H ) :   0.9309
B(  5-C , 14-H ) :   0.9319 B(  6-C , 15-H ) :   0.9232 B(  6-C , 16-H ) :   0.9224

FINAL SINGLE POINT ENERGY      -305.372435255953

DIPOLE MOMENT
-------------
                                X             Y             Z
Electronic contribution:      0.45677      -1.24558       0.21314
Nuclear contribution   :     -1.08936       1.37434      -0.62542
                        -----------------------------------------
Total Dipole Moment    :     -0.63259       0.12876      -0.41228
                        -----------------------------------------
Magnitude (a.u.)       :      0.76598
Magnitude (Debye)      :      1.94697

                             ****ORCA TERMINATED NORMALLY****
TOTAL RUN TIME: 0 days 0 hours 0 minutes 7 seconds 648 msec
