                         Program Version 3.0.3 - RELEASE   -
|  1> ! RI PBE def2-SVP def2-SVP/J NBO PAL2
|  2> % maxcore 2000
|  3> % output
|  4>     # printlevel mini
|  5>     print[ P_Basis ] 0
|  6>     print[ P_SCFInfo ] 1
|  7>     print[ P_SCFIterInfo ] 1
|  8>     print[ P_OrbEn ] 0
|  9>     print[ P_Cartesian ] 0
| 10> end
| 11> *xyz 0 1
| 12>  N        1.5299760000    -0.3751760000    -0.6772100000
| 13>  C        2.7629290000     0.0090070000    -0.0639350000
| 14>  C        3.5692760000    -1.0719540000     0.5812520000
| 15>  C        4.0759850000    -0.4054450000    -0.6646970000
| 16>  C        5.0308140000     0.7662280000    -0.4849570000
| 17>  N        4.2177540000     1.9456940000    -0.1634150000
| 18>  C        3.0059840000     1.4287900000     0.4750010000
| 19>  H        0.7849720000    -0.4377260000     0.0059640000
| 20>  H        1.2452850000     0.2915600000    -1.3848510000
| 21>  H        3.1935650000    -2.0834660000     0.4850950000
| 22>  H        4.0720350000    -0.8494950000     1.5175350000
| 23>  H        4.0890020000    -0.9832500000    -1.5805990000
| 24>  H        5.6282830000     0.9539930000    -1.3791560000
| 25>  H        5.7309560000     0.5766370000     0.3368150000
| 26>  H        3.9488140000     2.3846580000    -1.0356710000
| 27>  H        2.1546310000     2.0801760000     0.2645870000
| 28>  H        3.1448300000     1.4154590000     1.5627340000
| 29> *
| 30>
| 31>                          ****END OF INPUT****
 Total Charge           Charge          ....    0
 Multiplicity           Mult            ....    1
 Number of Electrons    NEL             ....   54
 Basis Dimension        Dim             ....  148

MULLIKEN ATOMIC CHARGES
-----------------------
   0 N :   -0.114321
   1 C :   -0.292771
   2 C :    0.094487
   3 C :   -0.154396
   4 C :    0.184062
   5 N :   -0.247534
   6 C :    0.204719
   7 H :    0.094778
   8 H :    0.084944
   9 H :    0.019340
  10 H :    0.016012
  11 H :    0.009809
  12 H :    0.009719
  13 H :    0.007367
  14 H :    0.090849
  15 H :   -0.013794
  16 H :    0.006732
Sum of atomic charges:   -0.0000000

LOEWDIN ATOMIC CHARGES
----------------------
   0 N :   -0.077287
   1 C :   -0.050221
   2 C :   -0.032036
   3 C :   -0.056073
   4 C :    0.017368
   5 N :   -0.103032
   6 C :    0.004409
   7 H :    0.054817
   8 H :    0.050224
   9 H :    0.028166
  10 H :    0.019178
  11 H :    0.022953
  12 H :    0.022813
  13 H :    0.017649
  14 H :    0.049226
  15 H :    0.014621
  16 H :    0.017225

  Mayer bond orders larger than 0.1
B(  0-N ,  1-C ) :   1.1715 B(  0-N ,  7-H ) :   0.9652 B(  0-N ,  8-H ) :   0.9637
B(  1-C ,  2-C ) :   0.9785 B(  1-C ,  3-C ) :   0.9481 B(  1-C ,  6-C ) :   0.9871
B(  2-C ,  3-C ) :   0.9995 B(  2-C ,  9-H ) :   0.9240 B(  2-C , 10-H ) :   0.9295
B(  3-C ,  4-C ) :   1.0343 B(  3-C , 11-H ) :   0.9368 B(  4-C ,  5-N ) :   1.0798
B(  4-C , 12-H ) :   0.9466 B(  4-C , 13-H ) :   0.9115 B(  5-N ,  6-C ) :   1.0891
B(  5-N , 14-H ) :   0.9492 B(  6-C , 15-H ) :   0.9390 B(  6-C , 16-H ) :   0.9055

FINAL SINGLE POINT ENERGY      -305.386437674315

DIPOLE MOMENT
-------------
                                X             Y             Z
Electronic contribution:     -0.22744       0.23016      -0.55572
Nuclear contribution   :     -0.26262      -0.11327       0.28664
                        -----------------------------------------
Total Dipole Moment    :     -0.49006       0.11689      -0.26908
                        -----------------------------------------
Magnitude (a.u.)       :      0.57116
Magnitude (Debye)      :      1.45177

                             ****ORCA TERMINATED NORMALLY****
TOTAL RUN TIME: 0 days 0 hours 0 minutes 7 seconds 705 msec
