                         Program Version 3.0.3 - RELEASE   -
|  1> ! RI PBE def2-SVP def2-SVP/J NBO PAL2
|  2> % maxcore 2000
|  3> % output
|  4>     # printlevel mini
|  5>     print[ P_Basis ] 0
|  6>     print[ P_SCFInfo ] 1
|  7>     print[ P_SCFIterInfo ] 1
|  8>     print[ P_OrbEn ] 0
|  9>     print[ P_Cartesian ] 0
| 10> end
| 11> *xyz 0 1
| 12>  N        1.0900180000     0.0276750000    -0.0140680000
| 13>  C        2.5133290000     0.1080670000    -0.0124120000
| 14>  C        3.4955510000    -0.5207670000    -1.0530870000
| 15>  C        4.4943160000    -0.2630910000     0.0921510000
| 16>  C        3.3548630000    -0.6232740000     1.0575190000
| 17>  N        4.5342390000     1.2013480000     0.2296580000
| 18>  C        3.0922000000     1.5179420000     0.1083740000
| 19>  H        0.7728340000    -0.9265960000    -0.1248990000
| 20>  H        0.6870980000     0.5781080000    -0.7626040000
| 21>  H        3.6576650000     0.0012230000    -2.0011160000
| 22>  H        3.2880170000    -1.5794470000    -1.2214750000
| 23>  H        5.4728320000    -0.7359500000     0.1453680000
| 24>  H        3.3887770000    -0.2008280000     2.0629060000
| 25>  H        3.1493670000    -1.6945700000     1.0821430000
| 26>  H        5.0491900000     1.6057580000    -0.5431650000
| 27>  H        2.8640090000     2.1304190000    -0.7711160000
| 28>  H        2.7135960000     2.0325830000     0.9959430000
| 29> *
| 30>
| 31>                          ****END OF INPUT****
 Total Charge           Charge          ....    0
 Multiplicity           Mult            ....    1
 Number of Electrons    NEL             ....   54
 Basis Dimension        Dim             ....  148

MULLIKEN ATOMIC CHARGES
-----------------------
   0 N :   -0.087751
   1 C :   -0.363353
   2 C :    0.118730
   3 C :   -0.084559
   4 C :    0.136946
   5 N :   -0.185377
   6 C :    0.191711
   7 H :    0.088804
   8 H :    0.090724
   9 H :   -0.010118
  10 H :    0.000308
  11 H :   -0.020499
  12 H :    0.010816
  13 H :    0.010943
  14 H :    0.093919
  15 H :   -0.001670
  16 H :    0.010427
Sum of atomic charges:   -0.0000000

LOEWDIN ATOMIC CHARGES
----------------------
   0 N :   -0.078594
   1 C :   -0.034202
   2 C :   -0.059235
   3 C :    0.022532
   4 C :   -0.024650
   5 N :   -0.101213
   6 C :    0.026771
   7 H :    0.054830
   8 H :    0.055750
   9 H :    0.005276
  10 H :    0.015954
  11 H :    0.007197
  12 H :    0.018170
  13 H :    0.020681
  14 H :    0.047817
  15 H :    0.007949
  16 H :    0.014968

  Mayer bond orders larger than 0.1
B(  0-N ,  1-C ) :   1.1735 B(  0-N ,  7-H ) :   0.9527 B(  0-N ,  8-H ) :   0.9555
B(  1-C ,  2-C ) :   0.9131 B(  1-C ,  4-C ) :   0.9633 B(  1-C ,  6-C ) :   1.0177
B(  2-C ,  3-C ) :   0.9781 B(  2-C ,  9-H ) :   0.9178 B(  2-C , 10-H ) :   0.9249
B(  3-C ,  4-C ) :   0.9797 B(  3-C ,  5-N ) :   1.0622 B(  3-C , 11-H ) :   0.9617
B(  4-C , 12-H ) :   0.9115 B(  4-C , 13-H ) :   0.9385 B(  5-N ,  6-C ) :   1.0355
B(  5-N , 14-H ) :   0.9428 B(  6-C , 15-H ) :   0.9322 B(  6-C , 16-H ) :   0.9251

FINAL SINGLE POINT ENERGY      -305.382683192338

DIPOLE MOMENT
-------------
                                X             Y             Z
Electronic contribution:      0.62461       0.58208       0.65714
Nuclear contribution   :     -0.86188      -0.87321      -1.46700
                        -----------------------------------------
Total Dipole Moment    :     -0.23727      -0.29113      -0.80986
                        -----------------------------------------
Magnitude (a.u.)       :      0.89271
Magnitude (Debye)      :      2.26909

                             ****ORCA TERMINATED NORMALLY****
TOTAL RUN TIME: 0 days 0 hours 0 minutes 7 seconds 646 msec
