                         Program Version 3.0.3 - RELEASE   -
|  1> ! RI PBE def2-SVP def2-SVP/J NBO PAL2
|  2> % maxcore 2000
|  3> % output
|  4>     # printlevel mini
|  5>     print[ P_Basis ] 0
|  6>     print[ P_SCFInfo ] 1
|  7>     print[ P_SCFIterInfo ] 1
|  8>     print[ P_OrbEn ] 0
|  9>     print[ P_Cartesian ] 0
| 10> end
| 11> *xyz 0 1
| 12>  N        0.8672310000    -0.1547010000    -0.3015990000
| 13>  C        2.2166540000     0.2184580000    -0.0309170000
| 14>  C        3.4908900000    -0.5434270000    -0.5794340000
| 15>  C        4.2156430000     0.8106440000    -0.3583130000
| 16>  C        2.8556300000     1.3761980000    -0.8531600000
| 17>  C        2.8185930000     0.7837410000    -2.2580870000
| 18>  C        3.2360890000    -0.4700210000    -2.0764930000
| 19>  H        0.5772270000    -0.9402070000     0.2656750000
| 20>  H        0.7584490000    -0.4058570000    -1.2779800000
| 21>  H        2.3226740000     0.4021500000     1.0424190000
| 22>  H        3.8490870000    -1.4780770000    -0.1490330000
| 23>  H        5.0857540000     1.0091070000    -0.9845070000
| 24>  H        4.4227470000     1.0316670000     0.6924100000
| 25>  H        2.5597810000     2.4147310000    -0.7136240000
| 26>  H        2.5182790000     1.2885810000    -3.1652740000
| 27>  H        3.3628620000    -1.2652860000    -2.7974950000
| 28> *
| 29>
| 30>                          ****END OF INPUT****
 Total Charge           Charge          ....    0
 Multiplicity           Mult            ....    1
 Number of Electrons    NEL             ....   52
 Basis Dimension        Dim             ....  143

MULLIKEN ATOMIC CHARGES
-----------------------
   0 N :   -0.092530
   1 C :   -0.051895
   2 C :   -0.057457
   3 C :    0.130713
   4 C :   -0.055972
   5 C :    0.014207
   6 C :   -0.004997
   7 H :    0.094077
   8 H :    0.079283
   9 H :    0.007678
  10 H :   -0.027872
  11 H :    0.004592
  12 H :    0.012481
  13 H :   -0.019943
  14 H :   -0.016280
  15 H :   -0.016084
Sum of atomic charges:   -0.0000000

LOEWDIN ATOMIC CHARGES
----------------------
   0 N :   -0.084189
   1 C :    0.016882
   2 C :   -0.048318
   3 C :   -0.001975
   4 C :   -0.026715
   5 C :   -0.028556
   6 C :   -0.033804
   7 H :    0.056214
   8 H :    0.047430
   9 H :    0.018727
  10 H :    0.004420
  11 H :    0.015109
  12 H :    0.017498
  13 H :    0.009554
  14 H :    0.019245
  15 H :    0.018479

  Mayer bond orders larger than 0.1
B(  0-N ,  1-C ) :   1.2048 B(  0-N ,  7-H ) :   0.9597 B(  0-N ,  8-H ) :   0.9419
B(  1-C ,  2-C ) :   0.8706 B(  1-C ,  4-C ) :   0.9304 B(  1-C ,  9-H ) :   0.9320
B(  2-C ,  3-C ) :   0.9811 B(  2-C ,  6-C ) :   0.9293 B(  2-C , 10-H ) :   0.9568
B(  3-C ,  4-C ) :   0.9828 B(  3-C , 11-H ) :   0.9298 B(  3-C , 12-H ) :   0.9368
B(  4-C ,  5-C ) :   0.9381 B(  4-C , 13-H ) :   0.9563 B(  5-C ,  6-C ) :   1.7540
B(  5-C , 14-H ) :   1.0184 B(  6-C , 15-H ) :   1.0177

FINAL SINGLE POINT ENERGY      -288.136007314527

DIPOLE MOMENT
-------------
                                X             Y             Z
Electronic contribution:     -0.37733      -0.01673      -0.90129
Nuclear contribution   :      0.44249      -0.38338       0.92510
                        -----------------------------------------
Total Dipole Moment    :      0.06516      -0.40011       0.02381
                        -----------------------------------------
Magnitude (a.u.)       :      0.40608
Magnitude (Debye)      :      1.03217

                             ****ORCA TERMINATED NORMALLY****
TOTAL RUN TIME: 0 days 0 hours 0 minutes 7 seconds 658 msec
