                         Program Version 3.0.3 - RELEASE   -
|  1> ! RI PBE def2-SVP def2-SVP/J NBO PAL2
|  2> % maxcore 2000
|  3> % output
|  4>     # printlevel mini
|  5>     print[ P_Basis ] 0
|  6>     print[ P_SCFInfo ] 1
|  7>     print[ P_SCFIterInfo ] 1
|  8>     print[ P_OrbEn ] 0
|  9>     print[ P_Cartesian ] 0
| 10> end
| 11> *xyz 0 1
| 12>  N        1.1455000000    -0.0145800000     0.1003240000
| 13>  C        2.5896590000    -0.0042260000     0.0549660000
| 14>  C        3.1742800000     1.0470240000    -0.9217390000
| 15>  C        2.8167310000     0.0607040000    -2.0545950000
| 16>  C        3.1867870000    -0.9875100000    -0.9829740000
| 17>  C        4.6834630000    -0.7436170000    -0.7978450000
| 18>  C        4.6738990000     0.8108320000    -0.7509970000
| 19>  H        0.7989350000     0.7819170000     0.6204170000
| 20>  H        0.8090620000    -0.8462480000     0.5695370000
| 21>  H        3.0679960000    -0.0311080000     1.0471310000
| 22>  H        2.8198540000     2.0787430000    -0.9186940000
| 23>  H        3.4200640000     0.0918290000    -2.9656380000
| 24>  H        1.7542140000     0.0610680000    -2.2829700000
| 25>  H        2.8450880000    -2.0218370000    -1.0421150000
| 26>  H        5.2714590000    -1.1375660000    -1.6294180000
| 27>  H        5.0669980000    -1.1864790000     0.1247160000
| 28>  H        5.2567800000     1.2613480000    -1.5570560000
| 29>  H        5.0522310000     1.2019960000     0.1967410000
| 30> *
| 31>
| 32>                          ****END OF INPUT****
 Total Charge           Charge          ....    0
 Multiplicity           Mult            ....    1
 Number of Electrons    NEL             ....   54
 Basis Dimension        Dim             ....  153

MULLIKEN ATOMIC CHARGES
-----------------------
   0 N :   -0.127974
   1 C :   -0.042012
   2 C :   -0.166206
   3 C :    0.115833
   4 C :   -0.166796
   5 C :    0.104291
   6 C :    0.106433
   7 H :    0.091100
   8 H :    0.090990
   9 H :   -0.011356
  10 H :   -0.017523
  11 H :    0.002799
  12 H :    0.023403
  13 H :   -0.017411
  14 H :    0.004745
  15 H :    0.002924
  16 H :    0.005083
  17 H :    0.001678
Sum of atomic charges:   -0.0000000

LOEWDIN ATOMIC CHARGES
----------------------
   0 N :   -0.090618
   1 C :    0.007441
   2 C :   -0.025071
   3 C :   -0.021687
   4 C :   -0.025113
   5 C :   -0.030859
   6 C :   -0.030635
   7 H :    0.053173
   8 H :    0.053138
   9 H :   -0.011057
  10 H :    0.006921
  11 H :    0.008557
  12 H :    0.021757
  13 H :    0.006921
  14 H :    0.020321
  15 H :    0.018316
  16 H :    0.020432
  17 H :    0.018061

  Mayer bond orders larger than 0.1
B(  0-N ,  1-C ) :   1.1356 B(  0-N ,  7-H ) :   0.9651 B(  0-N ,  8-H ) :   0.9649
B(  1-C ,  2-C ) :   0.9440 B(  1-C ,  4-C ) :   0.9438 B(  1-C ,  9-H ) :   0.9342
B(  2-C ,  3-C ) :   0.9943 B(  2-C ,  6-C ) :   1.0763 B(  2-C , 10-H ) :   0.9537
B(  3-C ,  4-C ) :   0.9946 B(  3-C , 11-H ) :   0.9462 B(  3-C , 12-H ) :   0.9230
B(  4-C ,  5-C ) :   1.0765 B(  4-C , 13-H ) :   0.9537 B(  5-C ,  6-C ) :   1.0764
B(  5-C , 14-H ) :   0.9192 B(  5-C , 15-H ) :   0.9200 B(  6-C , 16-H ) :   0.9191
B(  6-C , 17-H ) :   0.9201

FINAL SINGLE POINT ENERGY      -289.370189694360

DIPOLE MOMENT
-------------
                                X             Y             Z
Electronic contribution:     -1.46856      -0.01409       0.19062
Nuclear contribution   :      1.39005      -0.00142       0.29854
                        -----------------------------------------
Total Dipole Moment    :     -0.07851      -0.01551       0.48916
                        -----------------------------------------
Magnitude (a.u.)       :      0.49566
Magnitude (Debye)      :      1.25987

                             ****ORCA TERMINATED NORMALLY****
TOTAL RUN TIME: 0 days 0 hours 0 minutes 7 seconds 908 msec
