                         Program Version 3.0.3 - RELEASE   -
|  1> ! RI PBE def2-SVP def2-SVP/J NBO PAL2
|  2> % maxcore 2000
|  3> % output
|  4>     # printlevel mini
|  5>     print[ P_Basis ] 0
|  6>     print[ P_SCFInfo ] 1
|  7>     print[ P_SCFIterInfo ] 1
|  8>     print[ P_OrbEn ] 0
|  9>     print[ P_Cartesian ] 0
| 10> end
| 11> *xyz 0 1
| 12>  N        1.0384380000     0.1169300000     0.1329110000
| 13>  C        2.4685170000     0.0451630000     0.0095920000
| 14>  C        3.0858380000    -0.9308080000    -1.0345680000
| 15>  C        4.5882330000    -0.6960660000    -0.8482580000
| 16>  C        4.5649430000     0.8567620000    -0.8299920000
| 17>  C        3.0559110000     1.0523700000    -0.9999680000
| 18>  N        2.6670510000     0.0708960000    -2.0503140000
| 19>  H        0.6831590000    -0.6890570000     0.6327260000
| 20>  H        0.6306850000     0.1058760000    -0.7958060000
| 21>  H        2.9282090000     0.0345320000     1.0012930000
| 22>  H        2.7285380000    -1.9549710000    -1.1541600000
| 23>  H        5.1763540000    -1.1051270000    -1.6731110000
| 24>  H        4.9700640000    -1.1276920000     0.0804090000
| 25>  H        5.1270170000     1.3009700000    -1.6546160000
| 26>  H        4.9446160000     1.2813370000     0.1021690000
| 27>  H        2.6630570000     2.0661050000    -1.0811440000
| 28>  H        3.2642610000     0.0937790000    -2.8744610000
| 29> *
| 30>
| 31>                          ****END OF INPUT****
 Total Charge           Charge          ....    0
 Multiplicity           Mult            ....    1
 Number of Electrons    NEL             ....   54
 Basis Dimension        Dim             ....  148

MULLIKEN ATOMIC CHARGES
-----------------------
   0 N :   -0.102199
   1 C :   -0.045429
   2 C :   -0.076064
   3 C :    0.107896
   4 C :    0.118735
   5 C :   -0.087032
   6 N :   -0.168791
   7 H :    0.088249
   8 H :    0.082697
   9 H :    0.003098
  10 H :   -0.019311
  11 H :    0.005247
  12 H :    0.005649
  13 H :    0.006443
  14 H :    0.008361
  15 H :   -0.008796
  16 H :    0.081247
Sum of atomic charges:   -0.0000000

LOEWDIN ATOMIC CHARGES
----------------------
   0 N :   -0.086486
   1 C :    0.003369
   2 C :    0.001785
   3 C :   -0.046739
   4 C :   -0.044452
   5 C :    0.021901
   6 N :   -0.095618
   7 H :    0.052532
   8 H :    0.050397
   9 H :    0.010827
  10 H :    0.001896
  11 H :    0.018522
  12 H :    0.021720
  13 H :    0.019279
  14 H :    0.023047
  15 H :    0.007954
  16 H :    0.040065

  Mayer bond orders larger than 0.1
B(  0-N ,  1-C ) :   1.1763 B(  0-N ,  7-H ) :   0.9634 B(  0-N ,  8-H ) :   0.9445
B(  1-C ,  2-C ) :   0.9049 B(  1-C ,  5-C ) :   0.9483 B(  1-C ,  9-H ) :   0.9395
B(  2-C ,  3-C ) :   1.0356 B(  2-C ,  6-N ) :   0.9881 B(  2-C , 10-H ) :   0.9574
B(  3-C ,  4-C ) :   1.0861 B(  3-C , 11-H ) :   0.9110 B(  3-C , 12-H ) :   0.9104
B(  4-C ,  5-C ) :   1.0444 B(  4-C , 13-H ) :   0.9139 B(  4-C , 14-H ) :   0.9109
B(  5-C ,  6-N ) :   0.9889 B(  5-C , 15-H ) :   0.9595 B(  6-N , 16-H ) :   0.9386

FINAL SINGLE POINT ENERGY      -305.382463533201

DIPOLE MOMENT
-------------
                                X             Y             Z
Electronic contribution:     -2.06601       0.22815      -0.68372
Nuclear contribution   :      2.50938      -0.62225       0.57353
                        -----------------------------------------
Total Dipole Moment    :      0.44337      -0.39410      -0.11020
                        -----------------------------------------
Magnitude (a.u.)       :      0.60335
Magnitude (Debye)      :      1.53360

                             ****ORCA TERMINATED NORMALLY****
TOTAL RUN TIME: 0 days 0 hours 0 minutes 7 seconds 651 msec
