                         Program Version 3.0.3 - RELEASE   -
|  1> ! RI PBE def2-SVP def2-SVP/J NBO PAL2
|  2> % maxcore 2000
|  3> % output
|  4>     # printlevel mini
|  5>     print[ P_Basis ] 0
|  6>     print[ P_SCFInfo ] 1
|  7>     print[ P_SCFIterInfo ] 1
|  8>     print[ P_OrbEn ] 0
|  9>     print[ P_Cartesian ] 0
| 10> end
| 11> *xyz 0 1
| 12>  N        0.8165570000     0.0448700000    -0.0624470000
| 13>  C        2.2291760000     0.0858510000     0.1523990000
| 14>  C        3.2343700000    -0.8450960000    -0.4873980000
| 15>  C        2.7632250000    -1.6689660000    -1.6697910000
| 16>  C        2.8394280000    -0.7286490000    -2.8824340000
| 17>  C        2.7023320000     0.6970310000    -2.3239740000
| 18>  C        3.1719760000     0.6154460000    -0.8814190000
| 19>  H        0.4068370000    -0.7905470000     0.3369420000
| 20>  H        0.5768900000     0.0637940000    -1.0439580000
| 21>  H        2.4758310000     0.3788940000     1.1689880000
| 22>  H        4.0445900000    -1.2215080000     0.1263840000
| 23>  H        1.7372280000    -2.0231680000    -1.5139210000
| 24>  H        3.3825530000    -2.5573810000    -1.8058090000
| 25>  H        2.0960110000    -0.9597200000    -3.6502270000
| 26>  H        3.8232130000    -0.8314950000    -3.3497630000
| 27>  H        1.6719210000     1.0636990000    -2.3977560000
| 28>  H        3.3096200000     1.4092240000    -2.8859400000
| 29>  H        3.9330320000     1.3132110000    -0.5531970000
| 30> *
| 31>
| 32>                          ****END OF INPUT****
 Total Charge           Charge          ....    0
 Multiplicity           Mult            ....    1
 Number of Electrons    NEL             ....   54
 Basis Dimension        Dim             ....  153

MULLIKEN ATOMIC CHARGES
-----------------------
   0 N :   -0.109254
   1 C :   -0.004919
   2 C :   -0.122494
   3 C :    0.075556
   4 C :    0.010603
   5 C :    0.045032
   6 C :   -0.131919
   7 H :    0.099668
   8 H :    0.075338
   9 H :    0.007545
  10 H :    0.007544
  11 H :   -0.022676
  12 H :    0.009636
  13 H :    0.005159
  14 H :    0.012450
  15 H :    0.013259
  16 H :    0.013441
  17 H :    0.016031
Sum of atomic charges:    0.0000000

LOEWDIN ATOMIC CHARGES
----------------------
   0 N :   -0.076374
   1 C :   -0.000669
   2 C :   -0.062905
   3 C :   -0.038438
   4 C :   -0.037967
   5 C :   -0.037809
   6 C :   -0.044082
   7 H :    0.057459
   8 H :    0.045389
   9 H :    0.021901
  10 H :    0.018285
  11 H :    0.008196
  12 H :    0.028050
  13 H :    0.019980
  14 H :    0.026009
  15 H :    0.019803
  16 H :    0.030786
  17 H :    0.022388

  Mayer bond orders larger than 0.1
B(  0-N ,  1-C ) :   1.1880 B(  0-N ,  7-H ) :   0.9644 B(  0-N ,  8-H ) :   0.9550
B(  1-C ,  2-C ) :   0.8966 B(  1-C ,  6-C ) :   0.9528 B(  1-C ,  9-H ) :   0.9336
B(  2-C ,  3-C ) :   1.0842 B(  2-C ,  6-C ) :   0.9486 B(  2-C , 10-H ) :   0.9428
B(  3-C ,  4-C ) :   1.1006 B(  3-C , 11-H ) :   0.9058 B(  3-C , 12-H ) :   0.9340
B(  4-C ,  5-C ) :   1.0928 B(  4-C , 13-H ) :   0.9350 B(  4-C , 14-H ) :   0.9351
B(  5-C ,  6-C ) :   1.0864 B(  5-C , 15-H ) :   0.9222 B(  5-C , 16-H ) :   0.9306
B(  6-C , 17-H ) :   0.9433

FINAL SINGLE POINT ENERGY      -289.375642900620

DIPOLE MOMENT
-------------
                                X             Y             Z
Electronic contribution:      0.11628       0.83454       2.29114
Nuclear contribution   :     -0.01544      -1.16535      -2.51583
                        -----------------------------------------
Total Dipole Moment    :      0.10085      -0.33081      -0.22469
                        -----------------------------------------
Magnitude (a.u.)       :      0.41242
Magnitude (Debye)      :      1.04828

                             ****ORCA TERMINATED NORMALLY****
TOTAL RUN TIME: 0 days 0 hours 0 minutes 8 seconds 266 msec
