                         Program Version 3.0.3 - RELEASE   -
|  1> ! RI PBE def2-SVP def2-SVP/J NBO PAL2
|  2> % maxcore 2000
|  3> % output
|  4>     # printlevel mini
|  5>     print[ P_Basis ] 0
|  6>     print[ P_SCFInfo ] 1
|  7>     print[ P_SCFIterInfo ] 1
|  8>     print[ P_OrbEn ] 0
|  9>     print[ P_Cartesian ] 0
| 10> end
| 11> *xyz 0 1
| 12>  N        1.1142770000     0.1113560000    -0.5894010000
| 13>  C        2.2754240000     0.0729680000     0.2392800000
| 14>  C        3.5032290000     0.8249590000    -0.1778560000
| 15>  C        3.6081440000     1.2787140000    -1.6238660000
| 16>  C        3.6511630000    -0.0010850000    -2.4079710000
| 17>  C        3.6187420000    -1.0690850000    -1.6171920000
| 18>  C        3.5089240000    -0.6917810000    -0.1890090000
| 19>  H        0.5372710000     0.9114410000    -0.3641710000
| 20>  H        0.5514280000    -0.7221700000    -0.4808300000
| 21>  H        2.1261450000     0.0531110000     1.3200620000
| 22>  H        4.0379530000     1.3776290000     0.5845080000
| 23>  H        4.5071220000     1.8841030000    -1.7849200000
| 24>  H        2.7524750000     1.8939720000    -1.9254120000
| 25>  H        3.6629490000    -0.0261100000    -3.4913630000
| 26>  H        3.6295190000    -2.0982670000    -1.9559950000
| 27>  H        4.0204240000    -1.2744640000     0.5685350000
| 28> *
| 29>
| 30>                          ****END OF INPUT****
 Total Charge           Charge          ....    0
 Multiplicity           Mult            ....    1
 Number of Electrons    NEL             ....   52
 Basis Dimension        Dim             ....  143

MULLIKEN ATOMIC CHARGES
-----------------------
   0 N :   -0.113216
   1 C :   -0.045671
   2 C :   -0.138584
   3 C :    0.191084
   4 C :   -0.103796
   5 C :    0.054302
   6 C :   -0.057643
   7 H :    0.094164
   8 H :    0.095074
   9 H :   -0.001392
  10 H :    0.011663
  11 H :    0.018127
  12 H :    0.016586
  13 H :   -0.012270
  14 H :   -0.020903
  15 H :    0.012474
Sum of atomic charges:    0.0000000

LOEWDIN ATOMIC CHARGES
----------------------
   0 N :   -0.084353
   1 C :   -0.006216
   2 C :   -0.037861
   3 C :   -0.029972
   4 C :   -0.028955
   5 C :   -0.034887
   6 C :   -0.044255
   7 H :    0.056170
   8 H :    0.056770
   9 H :    0.006035
  10 H :    0.021399
  11 H :    0.031588
  12 H :    0.033380
  13 H :    0.019002
  14 H :    0.020313
  15 H :    0.021841

  Mayer bond orders larger than 0.1
B(  0-N ,  1-C ) :   1.2085 B(  0-N ,  7-H ) :   0.9647 B(  0-N ,  8-H ) :   0.9660
B(  1-C ,  2-C ) :   0.9352 B(  1-C ,  6-C ) :   0.9192 B(  1-C ,  9-H ) :   0.9308
B(  2-C ,  3-C ) :   1.0827 B(  2-C ,  6-C ) :   0.9570 B(  2-C , 10-H ) :   0.9410
B(  3-C ,  4-C ) :   1.0278 B(  3-C , 11-H ) :   0.9160 B(  3-C , 12-H ) :   0.8929
B(  4-C ,  5-C ) :   1.8239 B(  4-C , 13-H ) :   0.9817 B(  5-C ,  6-C ) :   1.0285
B(  5-C , 14-H ) :   0.9991 B(  6-C , 15-H ) :   0.9466

FINAL SINGLE POINT ENERGY      -288.160872892708

DIPOLE MOMENT
-------------
                                X             Y             Z
Electronic contribution:      0.58268      -1.04926      -0.09560
Nuclear contribution   :     -0.97162       1.11648       0.50116
                        -----------------------------------------
Total Dipole Moment    :     -0.38895       0.06722       0.40555
                        -----------------------------------------
Magnitude (a.u.)       :      0.56592
Magnitude (Debye)      :      1.43847

                             ****ORCA TERMINATED NORMALLY****
TOTAL RUN TIME: 0 days 0 hours 0 minutes 7 seconds 694 msec
