                         Program Version 3.0.3 - RELEASE   -
|  1> ! RI PBE def2-SVP def2-SVP/J NBO PAL2
|  2> % maxcore 2000
|  3> % output
|  4>     # printlevel mini
|  5>     print[ P_Basis ] 0
|  6>     print[ P_SCFInfo ] 1
|  7>     print[ P_SCFIterInfo ] 1
|  8>     print[ P_OrbEn ] 0
|  9>     print[ P_Cartesian ] 0
| 10> end
| 11> *xyz 0 1
| 12>  N        0.7546180000     0.0996620000    -0.2042710000
| 13>  C        2.1544570000     0.1020480000     0.0813070000
| 14>  C        3.1609320000    -0.8564290000    -0.5200820000
| 15>  C        2.7123920000    -1.6663890000    -1.7191240000
| 16>  C        2.7594190000    -0.6678710000    -2.8887200000
| 17>  N        2.7562770000     0.6764610000    -2.3083160000
| 18>  C        3.1485820000     0.5941230000    -0.9306110000
| 19>  H        0.2948290000    -0.6959110000     0.2216210000
| 20>  H        0.5805880000     0.0473710000    -1.1998760000
| 21>  H        2.3672100000     0.4032190000     1.1027390000
| 22>  H        3.9486920000    -1.2435910000     0.1145780000
| 23>  H        1.7018370000    -2.0647730000    -1.5742010000
| 24>  H        3.3716520000    -2.5197710000    -1.8881380000
| 25>  H        1.9269960000    -0.7887040000    -3.5873960000
| 26>  H        3.6819920000    -0.8137480000    -3.4623900000
| 27>  H        1.8811410000     1.1631660000    -2.4430400000
| 28>  H        3.9290780000     1.2742380000    -0.6053010000
| 29> *
| 30>
| 31>                          ****END OF INPUT****
 Total Charge           Charge          ....    0
 Multiplicity           Mult            ....    1
 Number of Electrons    NEL             ....   54
 Basis Dimension        Dim             ....  148

MULLIKEN ATOMIC CHARGES
-----------------------
   0 N :   -0.101611
   1 C :   -0.026509
   2 C :   -0.130182
   3 C :    0.059122
   4 C :    0.107242
   5 N :   -0.202596
   6 C :   -0.022189
   7 H :    0.101082
   8 H :    0.056253
   9 H :    0.009728
  10 H :    0.013545
  11 H :   -0.015619
  12 H :    0.013050
  13 H :    0.002944
  14 H :    0.013177
  15 H :    0.103043
  16 H :    0.019520
Sum of atomic charges:   -0.0000000

LOEWDIN ATOMIC CHARGES
----------------------
   0 N :   -0.077512
   1 C :   -0.012436
   2 C :   -0.065923
   3 C :   -0.047524
   4 C :    0.017626
   5 N :   -0.083827
   6 C :   -0.005650
   7 H :    0.058849
   8 H :    0.037036
   9 H :    0.023051
  10 H :    0.021259
  11 H :    0.010205
  12 H :    0.029029
  13 H :    0.015249
  14 H :    0.015923
  15 H :    0.049940
  16 H :    0.014705

  Mayer bond orders larger than 0.1
B(  0-N ,  1-C ) :   1.1843 B(  0-N ,  7-H ) :   0.9643 B(  0-N ,  8-H ) :   0.9453
B(  1-C ,  2-C ) :   0.8835 B(  1-C ,  6-C ) :   0.9236 B(  1-C ,  9-H ) :   0.9332
B(  2-C ,  3-C ) :   1.1038 B(  2-C ,  6-C ) :   0.9239 B(  2-C , 10-H ) :   0.9423
B(  3-C ,  4-C ) :   1.0808 B(  3-C , 11-H ) :   0.9038 B(  3-C , 12-H ) :   0.9314
B(  4-C ,  5-N ) :   1.0610 B(  4-C , 13-H ) :   0.9417 B(  4-C , 14-H ) :   0.9362
B(  5-N ,  6-C ) :   1.1315 B(  5-N , 15-H ) :   0.9513 B(  6-C , 16-H ) :   0.9469

FINAL SINGLE POINT ENERGY      -305.385739924658

DIPOLE MOMENT
-------------
                                X             Y             Z
Electronic contribution:      0.52248       2.02133       0.95107
Nuclear contribution   :     -0.77015      -2.57809      -0.98812
                        -----------------------------------------
Total Dipole Moment    :     -0.24767      -0.55676      -0.03704
                        -----------------------------------------
Magnitude (a.u.)       :      0.61049
Magnitude (Debye)      :      1.55173

                             ****ORCA TERMINATED NORMALLY****
TOTAL RUN TIME: 0 days 0 hours 0 minutes 7 seconds 902 msec
