                         Program Version 3.0.3 - RELEASE   -
|  1> ! RI PBE def2-SVP def2-SVP/J NBO PAL2
|  2> % maxcore 2000
|  3> % output
|  4>     # printlevel mini
|  5>     print[ P_Basis ] 0
|  6>     print[ P_SCFInfo ] 1
|  7>     print[ P_SCFIterInfo ] 1
|  8>     print[ P_OrbEn ] 0
|  9>     print[ P_Cartesian ] 0
| 10> end
| 11> *xyz 0 1
| 12>  N        1.0855580000     0.0446930000    -0.0570390000
| 13>  C        2.5283140000     0.0665370000    -0.0865120000
| 14>  C        3.1195520000     1.1181930000    -1.0647660000
| 15>  C        2.7577930000     0.1354230000    -2.2021520000
| 16>  C        3.1556400000    -0.8927610000    -1.1225200000
| 17>  N        4.5829380000    -0.6524690000    -0.8740000000
| 18>  C        4.6070700000     0.8365550000    -0.8811260000
| 19>  H        0.7288930000     0.8509580000     0.4407050000
| 20>  H        0.7529210000    -0.7767640000     0.4326000000
| 21>  H        3.0104760000     0.0264370000     0.9002600000
| 22>  H        2.7949750000     2.1590350000    -1.0567080000
| 23>  H        3.3600450000     0.1649010000    -3.1141150000
| 24>  H        1.6937480000     0.1342820000    -2.4231730000
| 25>  H        2.8902210000    -1.9490390000    -1.1703530000
| 26>  H        5.1305600000    -1.0133180000    -1.6453820000
| 27>  H        5.2118560000     1.2442660000    -1.6964040000
| 28>  H        4.9977510000     1.2244810000     0.0642750000
| 29> *
| 30>
| 31>                          ****END OF INPUT****
 Total Charge           Charge          ....    0
 Multiplicity           Mult            ....    1
 Number of Electrons    NEL             ....   54
 Basis Dimension        Dim             ....  148

MULLIKEN ATOMIC CHARGES
-----------------------
   0 N :   -0.125140
   1 C :   -0.031837
   2 C :   -0.197779
   3 C :    0.126245
   4 C :   -0.068951
   5 N :   -0.188154
   6 C :    0.194325
   7 H :    0.092319
   8 H :    0.093234
   9 H :    0.000887
  10 H :   -0.011016
  11 H :   -0.002919
  12 H :    0.024015
  13 H :   -0.013443
  14 H :    0.095559
  15 H :    0.005472
  16 H :    0.007182
Sum of atomic charges:   -0.0000000

LOEWDIN ATOMIC CHARGES
----------------------
   0 N :   -0.089833
   1 C :    0.003294
   2 C :   -0.034410
   3 C :   -0.039092
   4 C :    0.019012
   5 N :   -0.104281
   6 C :    0.025481
   7 H :    0.053979
   8 H :    0.054702
   9 H :   -0.004822
  10 H :    0.009348
  11 H :    0.006877
  12 H :    0.021922
  13 H :    0.005405
  14 H :    0.048265
  15 H :    0.011752
  16 H :    0.012400

  Mayer bond orders larger than 0.1
B(  0-N ,  1-C ) :   1.1488 B(  0-N ,  7-H ) :   0.9644 B(  0-N ,  8-H ) :   0.9649
B(  1-C ,  2-C ) :   0.9386 B(  1-C ,  4-C ) :   0.9338 B(  1-C ,  9-H ) :   0.9261
B(  2-C ,  3-C ) :   0.9831 B(  2-C ,  6-C ) :   1.0329 B(  2-C , 10-H ) :   0.9422
B(  3-C ,  4-C ) :   0.9883 B(  3-C , 11-H ) :   0.9344 B(  3-C , 12-H ) :   0.9182
B(  4-C ,  5-N ) :   1.0853 B(  4-C , 13-H ) :   0.9472 B(  5-N ,  6-C ) :   1.0067
B(  5-N , 14-H ) :   0.9439 B(  6-C , 15-H ) :   0.9373 B(  6-C , 16-H ) :   0.9318

FINAL SINGLE POINT ENERGY      -305.376139890266

DIPOLE MOMENT
-------------
                                X             Y             Z
Electronic contribution:      0.23692      -0.94867       0.48995
Nuclear contribution   :     -0.41944       1.09685      -0.40069
                        -----------------------------------------
Total Dipole Moment    :     -0.18252       0.14818       0.08926
                        -----------------------------------------
Magnitude (a.u.)       :      0.25147
Magnitude (Debye)      :      0.63919

                             ****ORCA TERMINATED NORMALLY****
TOTAL RUN TIME: 0 days 0 hours 0 minutes 7 seconds 616 msec
