                         Program Version 3.0.3 - RELEASE   -
|  1> ! RI PBE def2-SVP def2-SVP/J NBO PAL2
|  2> % maxcore 2000
|  3> % output
|  4>     # printlevel mini
|  5>     print[ P_Basis ] 0
|  6>     print[ P_SCFInfo ] 1
|  7>     print[ P_SCFIterInfo ] 1
|  8>     print[ P_OrbEn ] 0
|  9>     print[ P_Cartesian ] 0
| 10> end
| 11> *xyz 0 1
| 12>  N        0.6530880000    -0.0529440000    -0.1604510000
| 13>  C        2.0674440000     0.0665510000     0.0283500000
| 14>  C        3.0847520000    -0.8520780000    -0.5907420000
| 15>  C        2.6755320000    -1.6744570000    -1.7929120000
| 16>  N        2.1190110000    -0.7547830000    -2.7844350000
| 17>  C        2.5722310000     0.5966340000    -2.4580350000
| 18>  C        3.0192520000     0.5885120000    -1.0125990000
| 19>  H        0.3564330000    -0.9919850000    -0.3826180000
| 20>  H        0.2847320000     0.5894170000    -0.8466090000
| 21>  H        2.3370820000     0.3741010000     1.0364050000
| 22>  H        3.8879010000    -1.2226340000     0.0352380000
| 23>  H        1.9446160000    -2.4578330000    -1.5624680000
| 24>  H        3.5619850000    -2.1818040000    -2.1913550000
| 25>  H        1.1122700000    -0.7885260000    -2.7431080000
| 26>  H        1.7731010000     1.3166480000    -2.6677720000
| 27>  H        3.4227420000     0.8816360000    -3.0884220000
| 28>  H        3.7730390000     1.3033460000    -0.7043660000
| 29> *
| 30>
| 31>                          ****END OF INPUT****
 Total Charge           Charge          ....    0
 Multiplicity           Mult            ....    1
 Number of Electrons    NEL             ....   54
 Basis Dimension        Dim             ....  148

MULLIKEN ATOMIC CHARGES
-----------------------
   0 N :   -0.129932
   1 C :   -0.026508
   2 C :   -0.151241
   3 C :    0.192361
   4 N :   -0.259075
   5 C :    0.184730
   6 C :   -0.151536
   7 H :    0.094280
   8 H :    0.095137
   9 H :    0.009584
  10 H :    0.019199
  11 H :    0.006278
  12 H :    0.008323
  13 H :    0.070273
  14 H :    0.006254
  15 H :    0.012170
  16 H :    0.019701
Sum of atomic charges:   -0.0000000

LOEWDIN ATOMIC CHARGES
----------------------
   0 N :   -0.079641
   1 C :   -0.007368
   2 C :   -0.060413
   3 C :    0.019886
   4 N :   -0.102125
   5 C :    0.018746
   6 C :   -0.061317
   7 H :    0.050777
   8 H :    0.050983
   9 H :    0.019830
  10 H :    0.023705
  11 H :    0.014489
  12 H :    0.019622
  13 H :    0.033980
  14 H :    0.014673
  15 H :    0.020261
  16 H :    0.023910

  Mayer bond orders larger than 0.1
B(  0-N ,  1-C ) :   1.1934 B(  0-N ,  7-H ) :   0.9692 B(  0-N ,  8-H ) :   0.9694
B(  1-C ,  2-C ) :   0.9191 B(  1-C ,  6-C ) :   0.9171 B(  1-C ,  9-H ) :   0.9322
B(  2-C ,  3-C ) :   1.0362 B(  2-C ,  6-C ) :   0.9719 B(  2-C , 10-H ) :   0.9391
B(  3-C ,  4-N ) :   1.0639 B(  3-C , 11-H ) :   0.9373 B(  3-C , 12-H ) :   0.9241
B(  4-N ,  5-C ) :   1.0648 B(  4-N , 13-H ) :   0.9491 B(  5-C ,  6-C ) :   1.0356
B(  5-C , 14-H ) :   0.9362 B(  5-C , 15-H ) :   0.9243 B(  6-C , 16-H ) :   0.9385

FINAL SINGLE POINT ENERGY      -305.386482859226

DIPOLE MOMENT
-------------
                                X             Y             Z
Electronic contribution:      0.11523       0.12292       0.40484
Nuclear contribution   :     -0.22552      -0.13102      -0.41125
                        -----------------------------------------
Total Dipole Moment    :     -0.11029      -0.00810      -0.00641
                        -----------------------------------------
Magnitude (a.u.)       :      0.11077
Magnitude (Debye)      :      0.28156

                             ****ORCA TERMINATED NORMALLY****
TOTAL RUN TIME: 0 days 0 hours 0 minutes 7 seconds 771 msec
