                         Program Version 3.0.3 - RELEASE   -
|  1> ! RI PBE def2-SVP def2-SVP/J NBO PAL2
|  2> % maxcore 2000
|  3> % output
|  4>     # printlevel mini
|  5>     print[ P_Basis ] 0
|  6>     print[ P_SCFInfo ] 1
|  7>     print[ P_SCFIterInfo ] 1
|  8>     print[ P_OrbEn ] 0
|  9>     print[ P_Cartesian ] 0
| 10> end
| 11> *xyz 0 1
| 12>  N        0.9848710000    -0.1332150000    -0.3948590000
| 13>  C        2.3420850000     0.1455270000    -0.0834660000
| 14>  C        3.5957660000    -0.6195230000    -0.6787770000
| 15>  N        4.3283250000     0.6311760000    -0.3447560000
| 16>  C        3.0854920000     1.2878980000    -0.8377100000
| 17>  C        2.9766900000     0.7982130000    -2.2858880000
| 18>  C        3.3245950000    -0.4851910000    -2.1760260000
| 19>  H        0.6162580000    -0.8891390000     0.1652230000
| 20>  H        0.8675210000    -0.3587240000    -1.3757740000
| 21>  H        2.4612540000     0.2636250000     0.9944840000
| 22>  H        3.9713290000    -1.5621230000    -0.2811120000
| 23>  H        5.1062520000     0.7856900000    -0.9833770000
| 24>  H        2.9266520000     2.3422650000    -0.6152960000
| 25>  H        2.6604240000     1.3650780000    -3.1499860000
| 26>  H        3.3671970000    -1.2610660000    -2.9274690000
| 27> *
| 28>
| 29>                          ****END OF INPUT****
 Total Charge           Charge          ....    0
 Multiplicity           Mult            ....    1
 Number of Electrons    NEL             ....   52
 Basis Dimension        Dim             ....  138

MULLIKEN ATOMIC CHARGES
-----------------------
   0 N :   -0.088664
   1 C :   -0.051515
   2 C :    0.024203
   3 N :   -0.130573
   4 C :    0.023817
   5 C :    0.014613
   6 C :   -0.007696
   7 H :    0.098232
   8 H :    0.078793
   9 H :    0.024570
  10 H :   -0.020793
  11 H :    0.075272
  12 H :   -0.011963
  13 H :   -0.013893
  14 H :   -0.014403
Sum of atomic charges:    0.0000000

LOEWDIN ATOMIC CHARGES
----------------------
   0 N :   -0.079522
   1 C :    0.013403
   2 C :   -0.002059
   3 N :   -0.084752
   4 C :    0.018203
   5 C :   -0.038875
   6 C :   -0.045729
   7 H :    0.058880
   8 H :    0.046712
   9 H :    0.025081
  10 H :    0.003037
  11 H :    0.038007
  12 H :    0.008196
  13 H :    0.020227
  14 H :    0.019190

  Mayer bond orders larger than 0.1
B(  0-N ,  1-C ) :   1.2070 B(  0-N ,  7-H ) :   0.9598 B(  0-N ,  8-H ) :   0.9406
B(  1-C ,  2-C ) :   0.8658 B(  1-C ,  4-C ) :   0.9213 B(  1-C ,  9-H ) :   0.9231
B(  2-C ,  3-N ) :   0.9931 B(  2-C ,  6-C ) :   0.8974 B(  2-C , 10-H ) :   0.9662
B(  3-N ,  4-C ) :   0.9965 B(  3-N , 11-H ) :   0.9321 B(  4-C ,  5-C ) :   0.9075
B(  4-C , 12-H ) :   0.9656 B(  5-C ,  6-C ) :   1.7312 B(  5-C , 13-H ) :   1.0241
B(  6-C , 14-H ) :   1.0243

FINAL SINGLE POINT ENERGY      -304.144781006667

DIPOLE MOMENT
-------------
                                X             Y             Z
Electronic contribution:      1.12729       0.51506       0.04780
Nuclear contribution   :     -1.29506      -1.01174      -0.52512
                        -----------------------------------------
Total Dipole Moment    :     -0.16777      -0.49668      -0.47732
                        -----------------------------------------
Magnitude (a.u.)       :      0.70900
Magnitude (Debye)      :      1.80213

                             ****ORCA TERMINATED NORMALLY****
TOTAL RUN TIME: 0 days 0 hours 0 minutes 7 seconds 353 msec
