                         Program Version 3.0.3 - RELEASE   -
|  1> ! RI PBE def2-SVP def2-SVP/J NBO PAL2
|  2> % maxcore 2000
|  3> % output
|  4>     # printlevel mini
|  5>     print[ P_Basis ] 0
|  6>     print[ P_SCFInfo ] 1
|  7>     print[ P_SCFIterInfo ] 1
|  8>     print[ P_OrbEn ] 0
|  9>     print[ P_Cartesian ] 0
| 10> end
| 11> *xyz 0 1
| 12>  N        0.8527080000     0.3694370000    -0.2152080000
| 13>  C        2.2722210000     0.2890990000    -0.0221940000
| 14>  C        3.1413710000    -0.7650710000    -0.6554730000
| 15>  C        3.1827520000     0.6626290000    -1.1392460000
| 16>  C        4.3943470000     1.5138310000    -0.9681210000
| 17>  C        4.2783100000     2.9208230000    -0.4635330000
| 18>  C        4.9457830000     1.8747200000     0.3767660000
| 19>  H        0.3812570000    -0.3894970000     0.2626190000
| 20>  H        0.6177650000     0.2978160000    -1.1970020000
| 21>  H        2.5698330000     0.6049730000     0.9727170000
| 22>  H        2.6607120000    -1.5029690000    -1.2877020000
| 23>  H        3.9960630000    -1.1269370000    -0.0949220000
| 24>  H        2.6702000000     0.8340070000    -2.0841300000
| 25>  H        5.1439840000     1.3558790000    -1.7387140000
| 26>  H        3.2931610000     3.2498720000    -0.1548330000
| 27>  H        4.8918510000     3.6893560000    -0.9171150000
| 28>  H        4.4250790000     1.5337570000     1.2631990000
| 29>  H        6.0226040000     1.9139660000     0.4848910000
| 30> *
| 31>
| 32>                          ****END OF INPUT****
 Total Charge           Charge          ....    0
 Multiplicity           Mult            ....    1
 Number of Electrons    NEL             ....   54
 Basis Dimension        Dim             ....  153

MULLIKEN ATOMIC CHARGES
-----------------------
   0 N :   -0.117221
   1 C :   -0.111872
   2 C :    0.034775
   3 C :   -0.041092
   4 C :   -0.065581
   5 C :   -0.025852
   6 C :   -0.053978
   7 H :    0.093621
   8 H :    0.073645
   9 H :    0.018740
  10 H :    0.005767
  11 H :    0.020268
  12 H :    0.015426
  13 H :    0.019936
  14 H :    0.038938
  15 H :    0.031401
  16 H :    0.030318
  17 H :    0.032763
Sum of atomic charges:   -0.0000000

LOEWDIN ATOMIC CHARGES
----------------------
   0 N :   -0.085504
   1 C :   -0.006311
   2 C :   -0.064981
   3 C :   -0.040506
   4 C :   -0.039123
   5 C :   -0.042174
   6 C :   -0.047747
   7 H :    0.054780
   8 H :    0.049763
   9 H :    0.018794
  10 H :    0.019383
  11 H :    0.024459
  12 H :    0.026561
  13 H :    0.028571
  14 H :    0.029364
  15 H :    0.025219
  16 H :    0.022116
  17 H :    0.027338

  Mayer bond orders larger than 0.1
B(  0-N ,  1-C ) :   1.1433 B(  0-N ,  7-H ) :   0.9652 B(  0-N ,  8-H ) :   0.9586
B(  1-C ,  2-C ) :   0.9678 B(  1-C ,  3-C ) :   0.9458 B(  1-C ,  9-H ) :   0.9347
B(  2-C ,  3-C ) :   0.9725 B(  2-C , 10-H ) :   0.9295 B(  2-C , 11-H ) :   0.9347
B(  3-C ,  4-C ) :   1.0877 B(  3-C , 12-H ) :   0.9360 B(  4-C ,  5-C ) :   0.9818
B(  4-C ,  6-C ) :   1.0019 B(  4-C , 13-H ) :   0.9388 B(  5-C ,  6-C ) :   1.0483
B(  5-C , 14-H ) :   0.9496 B(  5-C , 15-H ) :   0.9466 B(  6-C , 16-H ) :   0.9409
B(  6-C , 17-H ) :   0.9416

FINAL SINGLE POINT ENERGY      -289.343573211891

DIPOLE MOMENT
-------------
                                X             Y             Z
Electronic contribution:     -0.85500      -0.22377      -0.45536
Nuclear contribution   :      0.85671      -0.14658       0.25255
                        -----------------------------------------
Total Dipole Moment    :      0.00171      -0.37035      -0.20281
                        -----------------------------------------
Magnitude (a.u.)       :      0.42225
Magnitude (Debye)      :      1.07327

                             ****ORCA TERMINATED NORMALLY****
TOTAL RUN TIME: 0 days 0 hours 0 minutes 7 seconds 494 msec
