                         Program Version 3.0.3 - RELEASE   -
|  1> ! RI PBE def2-SVP def2-SVP/J NBO PAL2
|  2> % maxcore 2000
|  3> % output
|  4>     # printlevel mini
|  5>     print[ P_Basis ] 0
|  6>     print[ P_SCFInfo ] 1
|  7>     print[ P_SCFIterInfo ] 1
|  8>     print[ P_OrbEn ] 0
|  9>     print[ P_Cartesian ] 0
| 10> end
| 11> *xyz 0 1
| 12>  N        0.8397500000     0.2780740000    -0.0005850000
| 13>  C        2.2504310000     0.0136160000     0.0857250000
| 14>  C        2.9237200000    -0.8442760000    -0.9526810000
| 15>  C        3.1436090000     0.6434130000    -0.9353210000
| 16>  C        2.7746480000    -0.0734080000     1.4880090000
| 17>  C        2.2911320000     0.8717330000     2.5414530000
| 18>  C        1.9145940000    -0.5782800000     2.6051990000
| 19>  H        0.6161610000     0.8883430000    -0.7724460000
| 20>  H        0.3024670000    -0.5728220000    -0.0994030000
| 21>  H        2.3035120000    -1.2488960000    -1.7439000000
| 22>  H        3.7400830000    -1.4863280000    -0.6428330000
| 23>  H        4.1053270000     1.0174380000    -0.6053290000
| 24>  H        2.6833500000     1.2310310000    -1.7219430000
| 25>  H        3.8234650000    -0.3492640000     1.5401460000
| 26>  H        1.5079720000     1.5600490000     2.2494600000
| 27>  H        3.0072470000     1.2545400000     3.2580320000
| 28>  H        0.8846190000    -0.8207340000     2.3746960000
| 29>  H        2.3723050000    -1.2030290000     3.3623320000
| 30> *
| 31>
| 32>                          ****END OF INPUT****
 Total Charge           Charge          ....    0
 Multiplicity           Mult            ....    1
 Number of Electrons    NEL             ....   54
 Basis Dimension        Dim             ....  153

MULLIKEN ATOMIC CHARGES
-----------------------
   0 N :   -0.115976
   1 C :   -0.167950
   2 C :   -0.009091
   3 C :   -0.008455
   4 C :   -0.013556
   5 C :   -0.017076
   6 C :   -0.032624
   7 H :    0.084266
   8 H :    0.099828
   9 H :    0.014155
  10 H :    0.026306
  11 H :    0.027720
  12 H :    0.024298
  13 H :   -0.013688
  14 H :    0.030363
  15 H :    0.026121
  16 H :    0.018889
  17 H :    0.026473
Sum of atomic charges:    0.0000000

LOEWDIN ATOMIC CHARGES
----------------------
   0 N :   -0.069088
   1 C :   -0.020758
   2 C :   -0.056851
   3 C :   -0.044096
   4 C :   -0.038482
   5 C :   -0.046397
   6 C :   -0.048062
   7 H :    0.054651
   8 H :    0.056138
   9 H :    0.020476
  10 H :    0.024362
  11 H :    0.027012
  12 H :    0.022952
  13 H :    0.023901
  14 H :    0.025964
  15 H :    0.022823
  16 H :    0.022040
  17 H :    0.023415

  Mayer bond orders larger than 0.1
B(  0-N ,  1-C ) :   1.1443 B(  0-N ,  7-H ) :   0.9596 B(  0-N ,  8-H ) :   0.9610
B(  1-C ,  2-C ) :   0.9608 B(  1-C ,  3-C ) :   0.9736 B(  1-C ,  4-C ) :   1.0380
B(  2-C ,  3-C ) :   1.0314 B(  2-C ,  9-H ) :   0.9387 B(  2-C , 10-H ) :   0.9379
B(  3-C , 11-H ) :   0.9417 B(  3-C , 12-H ) :   0.9398 B(  4-C ,  5-C ) :   0.9946
B(  4-C ,  6-C ) :   0.9991 B(  4-C , 13-H ) :   0.9189 B(  5-C ,  6-C ) :   1.0523
B(  5-C , 14-H ) :   0.9311 B(  5-C , 15-H ) :   0.9462 B(  6-C , 16-H ) :   0.9339
B(  6-C , 17-H ) :   0.9450

FINAL SINGLE POINT ENERGY      -289.346361510243

DIPOLE MOMENT
-------------
                                X             Y             Z
Electronic contribution:     -0.35350       0.07755      -0.31710
Nuclear contribution   :      0.29200      -0.22960      -0.18471
                        -----------------------------------------
Total Dipole Moment    :     -0.06150      -0.15205      -0.50181
                        -----------------------------------------
Magnitude (a.u.)       :      0.52793
Magnitude (Debye)      :      1.34190

                             ****ORCA TERMINATED NORMALLY****
TOTAL RUN TIME: 0 days 0 hours 0 minutes 7 seconds 517 msec
