                         Program Version 3.0.3 - RELEASE   -
|  1> ! RI PBE def2-SVP def2-SVP/J NBO PAL2
|  2> % maxcore 2000
|  3> % output
|  4>     # printlevel mini
|  5>     print[ P_Basis ] 0
|  6>     print[ P_SCFInfo ] 1
|  7>     print[ P_SCFIterInfo ] 1
|  8>     print[ P_OrbEn ] 0
|  9>     print[ P_Cartesian ] 0
| 10> end
| 11> *xyz 0 1
| 12>  N        1.1305430000    -0.2387400000     0.2498110000
| 13>  C        2.5322730000    -0.2658650000    -0.0504110000
| 14>  C        3.0818580000    -0.5348030000    -1.4251150000
| 15>  C        3.1408400000     0.8504280000    -0.8304930000
| 16>  C        4.4439510000     1.4389650000    -0.4283270000
| 17>  C        4.9141100000     2.6979780000    -1.0366850000
| 18>  N        4.4885790000     2.6647460000     0.3614130000
| 19>  H        0.7452190000    -1.1759340000     0.2497690000
| 20>  H        0.6225090000     0.2924850000    -0.4462540000
| 21>  H        3.1304210000    -0.6332840000     0.7782740000
| 22>  H        2.3718040000    -0.7064750000    -2.2256890000
| 23>  H        4.0126640000    -1.0834650000    -1.5179790000
| 24>  H        2.4352690000     1.5698390000    -1.2432960000
| 25>  H        5.1926460000     0.7086330000    -0.1281420000
| 26>  H        4.2643590000     3.1687020000    -1.7689930000
| 27>  H        5.9733970000     2.8737440000    -1.1907250000
| 28>  H        3.5530370000     3.0467660000     0.4566620000
| 29> *
| 30>
| 31>                          ****END OF INPUT****
 Total Charge           Charge          ....    0
 Multiplicity           Mult            ....    1
 Number of Electrons    NEL             ....   54
 Basis Dimension        Dim             ....  148

MULLIKEN ATOMIC CHARGES
-----------------------
   0 N :   -0.117265
   1 C :   -0.060705
   2 C :    0.027312
   3 C :   -0.057695
   4 C :   -0.034122
   5 C :    0.046031
   6 N :   -0.181772
   7 H :    0.094470
   8 H :    0.076008
   9 H :    0.024563
  10 H :    0.008151
  11 H :    0.022785
  12 H :   -0.012935
  13 H :    0.006286
  14 H :    0.023051
  15 H :    0.031344
  16 H :    0.104493
Sum of atomic charges:   -0.0000000

LOEWDIN ATOMIC CHARGES
----------------------
   0 N :   -0.084159
   1 C :   -0.002609
   2 C :   -0.063467
   3 C :   -0.055143
   4 C :    0.000068
   5 C :   -0.000439
   6 N :   -0.101718
   7 H :    0.056131
   8 H :    0.050327
   9 H :    0.024024
  10 H :    0.021756
  11 H :    0.025227
  12 H :    0.022769
  13 H :    0.021774
  14 H :    0.013257
  15 H :    0.020238
  16 H :    0.051964

  Mayer bond orders larger than 0.1
B(  0-N ,  1-C ) :   1.1563 B(  0-N ,  7-H ) :   0.9657 B(  0-N ,  8-H ) :   0.9573
B(  1-C ,  2-C ) :   0.9756 B(  1-C ,  3-C ) :   0.9234 B(  1-C ,  9-H ) :   0.9354
B(  2-C ,  3-C ) :   0.9544 B(  2-C , 10-H ) :   0.9261 B(  2-C , 11-H ) :   0.9332
B(  3-C ,  4-C ) :   1.0886 B(  3-C , 12-H ) :   0.9141 B(  4-C ,  5-C ) :   1.0400
B(  4-C ,  6-N ) :   0.9952 B(  4-C , 13-H ) :   0.9196 B(  5-C ,  6-N ) :   1.0111
B(  5-C , 14-H ) :   0.9407 B(  5-C , 15-H ) :   0.9365 B(  6-N , 16-H ) :   0.9491

FINAL SINGLE POINT ENERGY      -305.354358954318

DIPOLE MOMENT
-------------
                                X             Y             Z
Electronic contribution:      0.58424       0.93402       1.61072
Nuclear contribution   :     -1.13275      -1.26593      -2.40397
                        -----------------------------------------
Total Dipole Moment    :     -0.54851      -0.33191      -0.79324
                        -----------------------------------------
Magnitude (a.u.)       :      1.01993
Magnitude (Debye)      :      2.59246

                             ****ORCA TERMINATED NORMALLY****
TOTAL RUN TIME: 0 days 0 hours 0 minutes 6 seconds 988 msec
