                         Program Version 3.0.3 - RELEASE   -
|  1> ! RI PBE def2-SVP def2-SVP/J NBO PAL2
|  2> % maxcore 2000
|  3> % output
|  4>     # printlevel mini
|  5>     print[ P_Basis ] 0
|  6>     print[ P_SCFInfo ] 1
|  7>     print[ P_SCFIterInfo ] 1
|  8>     print[ P_OrbEn ] 0
|  9>     print[ P_Cartesian ] 0
| 10> end
| 11> *xyz 0 1
| 12>  N        0.8351760000     0.3537680000    -0.0615580000
| 13>  C        2.2545200000     0.1848160000     0.0828860000
| 14>  C        2.9594210000    -0.7264350000    -0.8735410000
| 15>  C        3.2085020000     0.7535000000    -0.9308010000
| 16>  C        2.7155690000     0.1524770000     1.5090420000
| 17>  C        2.0094890000     0.9177770000     2.5509810000
| 18>  N        1.9140120000    -0.5411670000     2.5041770000
| 19>  H        0.5783640000     1.3149430000    -0.2398230000
| 20>  H        0.4530580000    -0.2247780000    -0.7942730000
| 21>  H        2.3766580000    -1.1708320000    -1.6724720000
| 22>  H        3.7409330000    -1.3661270000    -0.4819940000
| 23>  H        2.7811410000     1.3024440000    -1.7613670000
| 24>  H        4.1654260000     1.1262400000    -0.5845140000
| 25>  H        3.7871990000     0.0041490000     1.6210330000
| 26>  H        1.1356880000     1.4870060000     2.2503100000
| 27>  H        2.5585860000     1.3209720000     3.3951020000
| 28>  H        1.0262780000    -0.7749530000     2.0632910000
| 29> *
| 30>
| 31>                          ****END OF INPUT****
 Total Charge           Charge          ....    0
 Multiplicity           Mult            ....    1
 Number of Electrons    NEL             ....   54
 Basis Dimension        Dim             ....  148

MULLIKEN ATOMIC CHARGES
-----------------------
   0 N :   -0.128877
   1 C :   -0.163585
   2 C :   -0.019968
   3 C :   -0.000689
   4 C :    0.009084
   5 C :    0.048396
   6 N :   -0.186114
   7 H :    0.101511
   8 H :    0.091544
   9 H :    0.027564
  10 H :    0.040702
  11 H :    0.019295
  12 H :    0.028733
  13 H :   -0.004677
  14 H :    0.011592
  15 H :    0.028281
  16 H :    0.097208
Sum of atomic charges:   -0.0000000

LOEWDIN ATOMIC CHARGES
----------------------
   0 N :   -0.064625
   1 C :   -0.035790
   2 C :   -0.042119
   3 C :   -0.051094
   4 C :   -0.008281
   5 C :   -0.004660
   6 N :   -0.102652
   7 H :    0.057871
   8 H :    0.057469
   9 H :    0.024404
  10 H :    0.030390
  11 H :    0.023168
  12 H :    0.026595
  13 H :    0.019399
  14 H :    0.009346
  15 H :    0.017713
  16 H :    0.042865

  Mayer bond orders larger than 0.1
B(  0-N ,  1-C ) :   1.1250 B(  0-N ,  7-H ) :   0.9620 B(  0-N ,  8-H ) :   0.9611
B(  1-C ,  2-C ) :   0.9694 B(  1-C ,  3-C ) :   0.9544 B(  1-C ,  4-C ) :   1.0007
B(  2-C ,  3-C ) :   1.0253 B(  2-C ,  9-H ) :   0.9403 B(  2-C , 10-H ) :   0.9445
B(  3-C , 11-H ) :   0.9386 B(  3-C , 12-H ) :   0.9411 B(  4-C ,  5-C ) :   1.0548
B(  4-C ,  6-N ) :   1.0053 B(  4-C , 13-H ) :   0.9173 B(  5-C ,  6-N ) :   1.0069
B(  5-C , 14-H ) :   0.9281 B(  5-C , 15-H ) :   0.9393 B(  6-N , 16-H ) :   0.9353

FINAL SINGLE POINT ENERGY      -305.360221323803

DIPOLE MOMENT
-------------
                                X             Y             Z
Electronic contribution:     -0.50035      -0.84956       1.69345
Nuclear contribution   :      0.24316       1.31761      -2.75428
                        -----------------------------------------
Total Dipole Moment    :     -0.25719       0.46805      -1.06084
                        -----------------------------------------
Magnitude (a.u.)       :      1.18768
Magnitude (Debye)      :      3.01885

                             ****ORCA TERMINATED NORMALLY****
TOTAL RUN TIME: 0 days 0 hours 0 minutes 7 seconds 666 msec
