                         Program Version 3.0.3 - RELEASE   -
|  1> ! RI PBE def2-SVP def2-SVP/J NBO PAL2
|  2> % maxcore 2000
|  3> % output
|  4>     # printlevel mini
|  5>     print[ P_Basis ] 0
|  6>     print[ P_SCFInfo ] 1
|  7>     print[ P_SCFIterInfo ] 1
|  8>     print[ P_OrbEn ] 0
|  9>     print[ P_Cartesian ] 0
| 10> end
| 11> *xyz 0 1
| 12>  N        0.7603690000     0.1995950000    -1.3410750000
| 13>  C        1.8608580000    -0.0096830000    -0.4451960000
| 14>  C        2.7825690000    -1.2001210000    -0.5206740000
| 15>  C        3.2565490000     0.1680950000    -0.9295480000
| 16>  C        4.2806220000     0.9043540000    -0.0993000000
| 17>  C        5.6821580000     0.4871450000    -0.4057520000
| 18>  C        6.5388580000    -0.0132100000     0.4731240000
| 19>  H        0.0142140000    -0.4601960000    -1.1551930000
| 20>  H        1.0472150000     0.0640090000    -2.3021510000
| 21>  H        1.6615330000     0.3693530000     0.5532680000
| 22>  H        2.5973080000    -1.9276590000    -1.3026220000
| 23>  H        3.1770030000    -1.6160040000     0.4002430000
| 24>  H        3.3543340000     0.3238150000    -2.0018980000
| 25>  H        4.0757130000     0.7429990000     0.9639280000
| 26>  H        4.1730110000     1.9815620000    -0.2811400000
| 27>  H        5.9986900000     0.6049190000    -1.4413380000
| 28>  H        6.2651490000    -0.1492450000     1.5152410000
| 29>  H        7.5442280000    -0.3010270000     0.1879830000
| 30> *
| 31>
| 32>                          ****END OF INPUT****
 Total Charge           Charge          ....    0
 Multiplicity           Mult            ....    1
 Number of Electrons    NEL             ....   54
 Basis Dimension        Dim             ....  153

MULLIKEN ATOMIC CHARGES
-----------------------
   0 N :   -0.120049
   1 C :   -0.069256
   2 C :    0.031671
   3 C :   -0.164590
   4 C :    0.141403
   5 C :   -0.073075
   6 C :   -0.034065
   7 H :    0.092462
   8 H :    0.075834
   9 H :    0.015134
  10 H :    0.011355
  11 H :    0.017875
  12 H :    0.015824
  13 H :   -0.008162
  14 H :    0.030147
  15 H :    0.000306
  16 H :    0.016045
  17 H :    0.021143
Sum of atomic charges:   -0.0000000

LOEWDIN ATOMIC CHARGES
----------------------
   0 N :   -0.086171
   1 C :   -0.004725
   2 C :   -0.067716
   3 C :   -0.044337
   4 C :   -0.033553
   5 C :   -0.025291
   6 C :   -0.068802
   7 H :    0.054779
   8 H :    0.050255
   9 H :    0.019984
  10 H :    0.021532
  11 H :    0.023471
  12 H :    0.023290
  13 H :    0.028812
  14 H :    0.039743
  15 H :    0.024341
  16 H :    0.020561
  17 H :    0.023827

  Mayer bond orders larger than 0.1
B(  0-N ,  1-C ) :   1.1497 B(  0-N ,  7-H ) :   0.9671 B(  0-N ,  8-H ) :   0.9583
B(  1-C ,  2-C ) :   0.9720 B(  1-C ,  3-C ) :   0.9460 B(  1-C ,  9-H ) :   0.9323
B(  2-C ,  3-C ) :   0.9844 B(  2-C , 10-H ) :   0.9319 B(  2-C , 11-H ) :   0.9320
B(  3-C ,  4-C ) :   1.0669 B(  3-C , 12-H ) :   0.9382 B(  4-C ,  5-C ) :   1.0576
B(  4-C , 13-H ) :   0.9143 B(  4-C , 14-H ) :   0.9056 B(  5-C ,  6-C ) :   2.0237
B(  5-C , 15-H ) :   0.9529 B(  6-C , 16-H ) :   0.9467 B(  6-C , 17-H ) :   0.9406

FINAL SINGLE POINT ENERGY      -289.346074634621

DIPOLE MOMENT
-------------
                                X             Y             Z
Electronic contribution:     -0.97276       0.69341      -0.61248
Nuclear contribution   :      0.89152      -1.03102       0.40700
                        -----------------------------------------
Total Dipole Moment    :     -0.08124      -0.33761      -0.20548
                        -----------------------------------------
Magnitude (a.u.)       :      0.40349
Magnitude (Debye)      :      1.02559

                             ****ORCA TERMINATED NORMALLY****
TOTAL RUN TIME: 0 days 0 hours 0 minutes 7 seconds 801 msec
