                         Program Version 3.0.3 - RELEASE   -
|  1> ! RI PBE def2-SVP def2-SVP/J NBO PAL2
|  2> % maxcore 2000
|  3> % output
|  4>     # printlevel mini
|  5>     print[ P_Basis ] 0
|  6>     print[ P_SCFInfo ] 1
|  7>     print[ P_SCFIterInfo ] 1
|  8>     print[ P_OrbEn ] 0
|  9>     print[ P_Cartesian ] 0
| 10> end
| 11> *xyz 0 1
| 12>  N        0.8984640000     0.1188310000    -0.0507450000
| 13>  C        2.3280970000     0.0757760000     0.0188000000
| 14>  C        3.1718550000    -0.8632890000    -0.8083850000
| 15>  C        3.1433920000     0.6102880000    -1.1046620000
| 16>  C        4.3705860000     1.4518900000    -0.8425910000
| 17>  C        4.0743740000     2.8677280000    -0.6845820000
| 18>  C        3.8167350000     4.0338420000    -0.5634090000
| 19>  H        0.4887580000    -0.7378190000     0.3006870000
| 20>  H        0.5807030000     0.2437230000    -1.0026980000
| 21>  H        2.7086490000     0.2935200000     1.0130200000
| 22>  H        2.6582060000    -1.5250990000    -1.4957980000
| 23>  H        4.0725300000    -1.2770390000    -0.3675770000
| 24>  H        2.5847060000     0.9077370000    -1.9876140000
| 25>  H        5.0865250000     1.3256600000    -1.6630400000
| 26>  H        4.8745820000     1.0875870000     0.0594770000
| 27>  H        3.5867470000     5.0666560000    -0.4506820000
| 28> *
| 29>
| 30>                          ****END OF INPUT****
 Total Charge           Charge          ....    0
 Multiplicity           Mult            ....    1
 Number of Electrons    NEL             ....   52
 Basis Dimension        Dim             ....  143

MULLIKEN ATOMIC CHARGES
-----------------------
   0 N :   -0.117389
   1 C :   -0.065045
   2 C :    0.029174
   3 C :   -0.159911
   4 C :    0.158168
   5 C :    0.342576
   6 C :   -0.496613
   7 H :    0.094995
   8 H :    0.077780
   9 H :    0.020766
  10 H :    0.013692
  11 H :    0.018766
  12 H :    0.026813
  13 H :    0.039632
  14 H :    0.020177
  15 H :   -0.003582
Sum of atomic charges:   -0.0000000

LOEWDIN ATOMIC CHARGES
----------------------
   0 N :   -0.083090
   1 C :   -0.001990
   2 C :   -0.067331
   3 C :   -0.037809
   4 C :   -0.037443
   5 C :   -0.019724
   6 C :   -0.088857
   7 H :    0.055336
   8 H :    0.051651
   9 H :    0.021626
  10 H :    0.022774
  11 H :    0.023731
  12 H :    0.028331
  13 H :    0.050967
  14 H :    0.048469
  15 H :    0.033359

  Mayer bond orders larger than 0.1
B(  0-N ,  1-C ) :   1.1560 B(  0-N ,  7-H ) :   0.9664 B(  0-N ,  8-H ) :   0.9611
B(  1-C ,  2-C ) :   0.9748 B(  1-C ,  3-C ) :   0.9488 B(  1-C ,  9-H ) :   0.9366
B(  2-C ,  3-C ) :   0.9734 B(  2-C , 10-H ) :   0.9319 B(  2-C , 11-H ) :   0.9281
B(  3-C ,  4-C ) :   1.0685 B(  3-C , 12-H ) :   0.9417 B(  4-C ,  5-C ) :   1.0624
B(  4-C , 13-H ) :   0.8899 B(  4-C , 14-H ) :   0.8826 B(  5-C ,  6-C ) :   2.3373
B(  5-C , 15-H ) :  -0.1112 B(  6-C , 15-H ) :   1.1021

FINAL SINGLE POINT ENERGY      -288.102733834459

DIPOLE MOMENT
-------------
                                X             Y             Z
Electronic contribution:      0.78686       3.68347       0.15447
Nuclear contribution   :     -0.80042      -4.29797      -0.43454
                        -----------------------------------------
Total Dipole Moment    :     -0.01356      -0.61450      -0.28007
                        -----------------------------------------
Magnitude (a.u.)       :      0.67545
Magnitude (Debye)      :      1.71687

                             ****ORCA TERMINATED NORMALLY****
TOTAL RUN TIME: 0 days 0 hours 0 minutes 7 seconds 33 msec
