                         Program Version 3.0.3 - RELEASE   -
|  1> ! RI PBE def2-SVP def2-SVP/J NBO PAL2
|  2> % maxcore 2000
|  3> % output
|  4>     # printlevel mini
|  5>     print[ P_Basis ] 0
|  6>     print[ P_SCFInfo ] 1
|  7>     print[ P_SCFIterInfo ] 1
|  8>     print[ P_OrbEn ] 0
|  9>     print[ P_Cartesian ] 0
| 10> end
| 11> *xyz 0 1
| 12>  N        1.1185310000    -0.3556180000     0.3474760000
| 13>  C        2.5304280000    -0.3641460000     0.0969790000
| 14>  C        3.1366190000    -0.5446980000    -1.2740600000
| 15>  C        3.1657690000     0.7911090000    -0.5882040000
| 16>  N        4.4211350000     1.2636490000    -0.0991950000
| 17>  C        4.9959260000     2.3939020000    -0.8004730000
| 18>  C        4.4088530000     2.5593180000     0.5485070000
| 19>  H        0.7332740000    -1.2880970000     0.2545750000
| 20>  H        0.6365030000     0.2322190000    -0.3208680000
| 21>  H        3.1109880000    -0.7726160000     0.9170940000
| 22>  H        2.4621610000    -0.6636370000    -2.1141810000
| 23>  H        4.0781130000    -1.0747590000    -1.3505670000
| 24>  H        2.4828340000     1.5531900000    -0.9783180000
| 25>  H        4.4379110000     2.8042970000    -1.6385040000
| 26>  H        6.0723080000     2.3719850000    -0.9317590000
| 27>  H        3.4569900000     3.0798390000     0.6167640000
| 28>  H        5.0497380000     2.6591610000     1.4176460000
| 29> *
| 30>
| 31>                          ****END OF INPUT****
 Total Charge           Charge          ....    0
 Multiplicity           Mult            ....    1
 Number of Electrons    NEL             ....   54
 Basis Dimension        Dim             ....  148

MULLIKEN ATOMIC CHARGES
-----------------------
   0 N :   -0.116044
   1 C :   -0.064621
   2 C :    0.041714
   3 C :   -0.042066
   4 N :   -0.231834
   5 C :    0.032626
   6 C :    0.042346
   7 H :    0.092977
   8 H :    0.074561
   9 H :    0.023290
  10 H :    0.007048
  11 H :    0.024784
  12 H :   -0.007902
  13 H :    0.022652
  14 H :    0.038267
  15 H :    0.025864
  16 H :    0.036337
Sum of atomic charges:    0.0000000

LOEWDIN ATOMIC CHARGES
----------------------
   0 N :   -0.085143
   1 C :   -0.006829
   2 C :   -0.070009
   3 C :   -0.008451
   4 N :   -0.094635
   5 C :    0.004245
   6 C :    0.006834
   7 H :    0.055372
   8 H :    0.049058
   9 H :    0.025770
  10 H :    0.020271
  11 H :    0.029504
  12 H :    0.002307
  13 H :    0.013779
  14 H :    0.021513
  15 H :    0.014845
  16 H :    0.021568

  Mayer bond orders larger than 0.1
B(  0-N ,  1-C ) :   1.1542 B(  0-N ,  7-H ) :   0.9661 B(  0-N ,  8-H ) :   0.9565
B(  1-C ,  2-C ) :   0.9928 B(  1-C ,  3-C ) :   0.9414 B(  1-C ,  9-H ) :   0.9237
B(  2-C ,  3-C ) :   0.9767 B(  2-C , 10-H ) :   0.9282 B(  2-C , 11-H ) :   0.9182
B(  3-C ,  4-N ) :   1.1001 B(  3-C , 12-H ) :   0.9112 B(  4-N ,  5-C ) :   0.9596
B(  4-N ,  6-C ) :   0.9586 B(  5-C ,  6-C ) :   1.1004 B(  5-C , 13-H ) :   0.9302
B(  5-C , 14-H ) :   0.9494 B(  6-C , 15-H ) :   0.9305 B(  6-C , 16-H ) :   0.9489

FINAL SINGLE POINT ENERGY      -305.347552881104

DIPOLE MOMENT
-------------
                                X             Y             Z
Electronic contribution:      0.70130      -0.54892       0.98686
Nuclear contribution   :     -0.98510       0.72228      -1.48741
                        -----------------------------------------
Total Dipole Moment    :     -0.28380       0.17335      -0.50055
                        -----------------------------------------
Magnitude (a.u.)       :      0.60096
Magnitude (Debye)      :      1.52751

                             ****ORCA TERMINATED NORMALLY****
TOTAL RUN TIME: 0 days 0 hours 0 minutes 7 seconds 500 msec
