                         Program Version 3.0.3 - RELEASE   -
|  1> ! RI PBE def2-SVP def2-SVP/J NBO PAL2
|  2> % maxcore 2000
|  3> % output
|  4>     # printlevel mini
|  5>     print[ P_Basis ] 0
|  6>     print[ P_SCFInfo ] 1
|  7>     print[ P_SCFIterInfo ] 1
|  8>     print[ P_OrbEn ] 0
|  9>     print[ P_Cartesian ] 0
| 10> end
| 11> *xyz 0 1
| 12>  N        1.0399080000     0.1058770000     0.0976590000
| 13>  C        2.4934820000     0.0975610000     0.0854980000
| 14>  C        3.0739010000    -1.0420340000     0.9649030000
| 15>  C        3.8650570000    -0.2045910000     1.9705560000
| 16>  C        4.5464220000     0.8290970000     1.0459120000
| 17>  C        3.0918610000     1.2958120000     0.8314010000
| 18>  C        2.8588510000     0.9164940000     2.3077610000
| 19>  H        0.6788660000    -0.7668940000    -0.2683260000
| 20>  H        0.6843000000     0.8436020000    -0.4992610000
| 21>  H        2.9109220000     0.0504730000    -0.9315450000
| 22>  H        3.7069770000    -1.7305000000     0.4002030000
| 23>  H        2.2731700000    -1.6140370000     1.4404040000
| 24>  H        4.4163110000    -0.7388120000     2.7445750000
| 25>  H        5.1046630000     0.4593420000     0.1805490000
| 26>  H        5.1402710000     1.5598030000     1.5971530000
| 27>  H        2.8533620000     2.2859590000     0.4398590000
| 28>  H        1.8471510000     0.6339030000     2.6017900000
| 29>  H        3.2761140000     1.6558540000     2.9934080000
| 30> *
| 31>
| 32>                          ****END OF INPUT****
 Total Charge           Charge          ....    0
 Multiplicity           Mult            ....    1
 Number of Electrons    NEL             ....   54
 Basis Dimension        Dim             ....  153

MULLIKEN ATOMIC CHARGES
-----------------------
   0 N :   -0.152700
   1 C :   -0.050887
   2 C :    0.198674
   3 C :   -0.205809
   4 C :    0.078936
   5 C :   -0.129744
   6 C :    0.093559
   7 H :    0.088744
   8 H :    0.085975
   9 H :   -0.012436
  10 H :   -0.000015
  11 H :   -0.005099
  12 H :   -0.014549
  13 H :    0.002573
  14 H :    0.015313
  15 H :   -0.020773
  16 H :    0.013077
  17 H :    0.015161
Sum of atomic charges:   -0.0000000

LOEWDIN ATOMIC CHARGES
----------------------
   0 N :   -0.099374
   1 C :    0.005724
   2 C :   -0.031000
   3 C :   -0.020019
   4 C :   -0.023344
   5 C :   -0.027266
   6 C :   -0.020139
   7 H :    0.051223
   8 H :    0.051140
   9 H :   -0.002240
  10 H :    0.018492
  11 H :    0.020682
  12 H :    0.007300
  13 H :    0.008805
  14 H :    0.021792
  15 H :    0.005729
  16 H :    0.012097
  17 H :    0.020399

  Mayer bond orders larger than 0.1
B(  0-N ,  1-C ) :   1.0849 B(  0-N ,  7-H ) :   0.9614 B(  0-N ,  8-H ) :   0.9635
B(  1-C ,  2-C ) :   1.0493 B(  1-C ,  5-C ) :   1.0384 B(  1-C ,  9-H ) :   0.8916
B(  2-C ,  3-C ) :   1.0803 B(  2-C , 10-H ) :   0.9100 B(  2-C , 11-H ) :   0.8957
B(  3-C ,  4-C ) :   0.9873 B(  3-C ,  6-C ) :   0.9841 B(  3-C , 12-H ) :   0.9613
B(  4-C ,  5-C ) :   0.9918 B(  4-C , 13-H ) :   0.9325 B(  4-C , 14-H ) :   0.9407
B(  5-C ,  6-C ) :   0.9834 B(  5-C , 15-H ) :   0.9617 B(  6-C , 16-H ) :   0.9267
B(  6-C , 17-H ) :   0.9456

FINAL SINGLE POINT ENERGY      -289.370960583803

DIPOLE MOMENT
-------------
                                X             Y             Z
Electronic contribution:     -0.38458       0.32420      -0.01498
Nuclear contribution   :      0.35427      -0.37955      -0.45151
                        -----------------------------------------
Total Dipole Moment    :     -0.03032      -0.05535      -0.46649
                        -----------------------------------------
Magnitude (a.u.)       :      0.47074
Magnitude (Debye)      :      1.19651

                             ****ORCA TERMINATED NORMALLY****
TOTAL RUN TIME: 0 days 0 hours 0 minutes 8 seconds 70 msec
