                         Program Version 3.0.3 - RELEASE   -
|  1> ! RI PBE def2-SVP def2-SVP/J NBO PAL2
|  2> % maxcore 2000
|  3> % output
|  4>     # printlevel mini
|  5>     print[ P_Basis ] 0
|  6>     print[ P_SCFInfo ] 1
|  7>     print[ P_SCFIterInfo ] 1
|  8>     print[ P_OrbEn ] 0
|  9>     print[ P_Cartesian ] 0
| 10> end
| 11> *xyz 0 1
| 12>  N        1.0833720000     0.1325730000     0.0595410000
| 13>  C        2.5342250000     0.0953680000    -0.0208210000
| 14>  C        3.1200200000    -1.0446120000     0.8489290000
| 15>  C        3.8755690000    -0.1778310000     1.8660670000
| 16>  C        4.6059790000     0.8217570000     0.9514790000
| 17>  C        3.1547850000     1.2784640000     0.7467310000
| 18>  N        2.9377970000     0.9347330000     2.1712850000
| 19>  H        0.6831310000    -0.7430600000    -0.2538820000
| 20>  H        0.7079790000     0.8615130000    -0.5359390000
| 21>  H        2.9133000000     0.0524840000    -1.0520050000
| 22>  H        3.7717650000    -1.7214370000     0.2916470000
| 23>  H        2.3289770000    -1.6332870000     1.3209590000
| 24>  H        4.3658490000    -0.6760440000     2.7027590000
| 25>  H        5.1584990000     0.4332410000     0.0942460000
| 26>  H        5.1873040000     1.5497990000     1.5140580000
| 27>  H        2.8913410000     2.2843190000     0.4146730000
| 28>  H        1.9815160000     0.6188180000     2.3314530000
| 29> *
| 30>
| 31>                          ****END OF INPUT****
 Total Charge           Charge          ....    0
 Multiplicity           Mult            ....    1
 Number of Electrons    NEL             ....   54
 Basis Dimension        Dim             ....  148

MULLIKEN ATOMIC CHARGES
-----------------------
   0 N :   -0.160631
   1 C :   -0.056159
   2 C :    0.200428
   3 C :   -0.127131
   4 C :    0.100367
   5 C :   -0.042773
   6 N :   -0.175300
   7 H :    0.093441
   8 H :    0.089457
   9 H :   -0.010967
  10 H :    0.002281
  11 H :   -0.003756
  12 H :   -0.009664
  13 H :    0.007642
  14 H :    0.025002
  15 H :   -0.016036
  16 H :    0.083799
Sum of atomic charges:   -0.0000000

LOEWDIN ATOMIC CHARGES
----------------------
   0 N :   -0.097180
   1 C :   -0.009701
   2 C :   -0.046429
   3 C :    0.027696
   4 C :   -0.030052
   5 C :    0.018299
   6 N :   -0.090838
   7 H :    0.052667
   8 H :    0.052919
   9 H :   -0.001914
  10 H :    0.020365
  11 H :    0.019511
  12 H :    0.005975
  13 H :    0.012171
  14 H :    0.027933
  15 H :    0.004522
  16 H :    0.034057

  Mayer bond orders larger than 0.1
B(  0-N ,  1-C ) :   1.0744 B(  0-N ,  7-H ) :   0.9617 B(  0-N ,  8-H ) :   0.9644
B(  1-C ,  2-C ) :   1.0614 B(  1-C ,  5-C ) :   0.9891 B(  1-C ,  9-H ) :   0.8801
B(  2-C ,  3-C ) :   1.0497 B(  2-C , 10-H ) :   0.8993 B(  2-C , 11-H ) :   0.8905
B(  3-C ,  4-C ) :   0.9985 B(  3-C ,  6-N ) :   0.9941 B(  3-C , 12-H ) :   0.9657
B(  4-C ,  5-C ) :   1.0135 B(  4-C , 13-H ) :   0.9387 B(  4-C , 14-H ) :   0.9252
B(  5-C ,  6-N ) :   1.0019 B(  5-C , 15-H ) :   0.9634 B(  6-N , 16-H ) :   0.9279

FINAL SINGLE POINT ENERGY      -305.383460011711

DIPOLE MOMENT
-------------
                                X             Y             Z
Electronic contribution:     -0.23050       1.27407       1.47297
Nuclear contribution   :      0.00005      -1.67949      -2.27966
                        -----------------------------------------
Total Dipole Moment    :     -0.23045      -0.40542      -0.80669
                        -----------------------------------------
Magnitude (a.u.)       :      0.93178
Magnitude (Debye)      :      2.36841

                             ****ORCA TERMINATED NORMALLY****
TOTAL RUN TIME: 0 days 0 hours 0 minutes 7 seconds 939 msec
