                         Program Version 3.0.3 - RELEASE   -
|  1> ! RI PBE def2-SVP def2-SVP/J NBO PAL2
|  2> % maxcore 2000
|  3> % output
|  4>     # printlevel mini
|  5>     print[ P_Basis ] 0
|  6>     print[ P_SCFInfo ] 1
|  7>     print[ P_SCFIterInfo ] 1
|  8>     print[ P_OrbEn ] 0
|  9>     print[ P_Cartesian ] 0
| 10> end
| 11> *xyz 0 1
| 12>  N        1.1732740000     0.1891580000     0.5611780000
| 13>  C        2.5689580000     0.0148740000     0.1762830000
| 14>  C        2.8926160000    -1.3816260000    -0.3948490000
| 15>  C        2.5469670000    -1.2892730000    -1.8722840000
| 16>  C        3.5953170000    -0.7364110000    -2.7868240000
| 17>  C        2.5408980000     0.1761070000    -2.2428400000
| 18>  C        2.8797840000     0.9658670000    -0.9876720000
| 19>  H        0.9110810000    -0.5022120000     1.2546130000
| 20>  H        0.5779540000     0.0279730000    -0.2453370000
| 21>  H        3.1797620000     0.2398250000     1.0560760000
| 22>  H        2.3164050000    -2.1566600000     0.1162240000
| 23>  H        3.9517450000    -1.6251670000    -0.2535280000
| 24>  H        1.8157200000    -1.9703980000    -2.2904660000
| 25>  H        3.5426730000    -1.0024670000    -3.8360890000
| 26>  H        4.6044000000    -0.6341490000    -2.3989600000
| 27>  H        1.8057830000     0.5717680000    -2.9334460000
| 28>  H        2.2888600000     1.8787000000    -0.8968680000
| 29>  H        3.9347030000     1.2560910000    -0.9794030000
| 30> *
| 31>
| 32>                          ****END OF INPUT****
 Total Charge           Charge          ....    0
 Multiplicity           Mult            ....    1
 Number of Electrons    NEL             ....   54
 Basis Dimension        Dim             ....  153

MULLIKEN ATOMIC CHARGES
-----------------------
   0 N :   -0.149664
   1 C :   -0.077928
   2 C :    0.138185
   3 C :   -0.162511
   4 C :    0.058691
   5 C :   -0.172438
   6 C :    0.138797
   7 H :    0.081559
   8 H :    0.081080
   9 H :   -0.005128
  10 H :   -0.010241
  11 H :   -0.005597
  12 H :    0.013165
  13 H :    0.023743
  14 H :    0.018746
  15 H :    0.017635
  16 H :    0.008912
  17 H :    0.002994
Sum of atomic charges:   -0.0000000

LOEWDIN ATOMIC CHARGES
----------------------
   0 N :   -0.095013
   1 C :    0.008253
   2 C :   -0.047140
   3 C :   -0.045998
   4 C :   -0.036124
   5 C :   -0.047560
   6 C :   -0.031867
   7 H :    0.047813
   8 H :    0.048148
   9 H :    0.015126
  10 H :    0.019209
  11 H :    0.022219
  12 H :    0.019806
  13 H :    0.027376
  14 H :    0.020791
  15 H :    0.020964
  16 H :    0.028306
  17 H :    0.025690

  Mayer bond orders larger than 0.1
B(  0-N ,  1-C ) :   1.1224 B(  0-N ,  7-H ) :   0.9682 B(  0-N ,  8-H ) :   0.9659
B(  1-C ,  2-C ) :   1.0245 B(  1-C ,  6-C ) :   1.0632 B(  1-C ,  9-H ) :   0.9156
B(  2-C ,  3-C ) :   1.0588 B(  2-C , 10-H ) :   0.9326 B(  2-C , 11-H ) :   0.9009
B(  3-C ,  4-C ) :   0.9979 B(  3-C ,  5-C ) :   0.9481 B(  3-C , 12-H ) :   0.9514
B(  4-C ,  5-C ) :   0.9978 B(  4-C , 13-H ) :   0.9376 B(  4-C , 14-H ) :   0.9322
B(  5-C ,  6-C ) :   1.0681 B(  5-C , 15-H ) :   0.9511 B(  6-C , 16-H ) :   0.9261
B(  6-C , 17-H ) :   0.9146

FINAL SINGLE POINT ENERGY      -289.376066756019

DIPOLE MOMENT
-------------
                                X             Y             Z
Electronic contribution:     -0.63567       0.23582      -0.16755
Nuclear contribution   :      0.57106      -0.66297       0.03727
                        -----------------------------------------
Total Dipole Moment    :     -0.06462      -0.42714      -0.13029
                        -----------------------------------------
Magnitude (a.u.)       :      0.45122
Magnitude (Debye)      :      1.14692

                             ****ORCA TERMINATED NORMALLY****
TOTAL RUN TIME: 0 days 0 hours 0 minutes 8 seconds 2 msec
