                         Program Version 3.0.3 - RELEASE   -
|  1> ! RI PBE def2-SVP def2-SVP/J NBO PAL2
|  2> % maxcore 2000
|  3> % output
|  4>     # printlevel mini
|  5>     print[ P_Basis ] 0
|  6>     print[ P_SCFInfo ] 1
|  7>     print[ P_SCFIterInfo ] 1
|  8>     print[ P_OrbEn ] 0
|  9>     print[ P_Cartesian ] 0
| 10> end
| 11> *xyz 0 1
| 12>  N        1.6068480000     0.1656010000     1.0617250000
| 13>  C        2.3884160000    -0.0186220000     0.0775120000
| 14>  C        2.9688620000    -1.3084820000    -0.4813580000
| 15>  C        4.1173920000    -0.8590490000    -1.3515800000
| 16>  C        5.1755280000     0.0115370000    -0.7299740000
| 17>  C        4.0172950000     0.6315780000    -1.4574240000
| 18>  N        2.8844580000     1.0154410000    -0.6793750000
| 19>  H        1.3343840000    -0.7226300000     1.4708720000
| 20>  H        2.2066310000    -1.8217870000    -1.0752600000
| 21>  H        3.2621930000    -1.9768560000     0.3310510000
| 22>  H        4.3854750000    -1.4508430000    -2.2167450000
| 23>  H        6.1453300000     0.0254700000    -1.2126100000
| 24>  H        5.1972420000     0.1096470000     0.3500840000
| 25>  H        4.1660910000     1.1547540000    -2.3937840000
| 26>  H        2.8181440000     1.9403510000    -0.2843230000
| 27> *
| 28>
| 29>                          ****END OF INPUT****
 Total Charge           Charge          ....    0
 Multiplicity           Mult            ....    1
 Number of Electrons    NEL             ....   52
 Basis Dimension        Dim             ....  138

MULLIKEN ATOMIC CHARGES
-----------------------
   0 N :   -0.091821
   1 C :   -0.245918
   2 C :    0.196492
   3 C :   -0.194643
   4 C :    0.037225
   5 C :    0.010803
   6 N :   -0.078075
   7 H :    0.080515
   8 H :    0.040884
   9 H :    0.028564
  10 H :    0.019093
  11 H :    0.027513
  12 H :    0.036821
  13 H :    0.019524
  14 H :    0.113025
Sum of atomic charges:   -0.0000000

LOEWDIN ATOMIC CHARGES
----------------------
   0 N :   -0.179816
   1 C :   -0.001900
   2 C :   -0.049001
   3 C :   -0.041838
   4 C :   -0.053339
   5 C :    0.011138
   6 N :    0.005308
   7 H :    0.045819
   8 H :    0.044953
   9 H :    0.037644
  10 H :    0.026922
  11 H :    0.030742
  12 H :    0.029781
  13 H :    0.020136
  14 H :    0.073452

  Mayer bond orders larger than 0.1
B(  0-N ,  1-C ) :   1.9869 B(  0-N ,  7-H ) :   0.9245 B(  1-C ,  2-C ) :   0.9559
B(  1-C ,  6-N ) :   1.1621 B(  2-C ,  3-C ) :   1.0743 B(  2-C ,  8-H ) :   0.9037
B(  2-C ,  9-H ) :   0.9136 B(  3-C ,  4-C ) :   0.9770 B(  3-C ,  5-C ) :   0.9372
B(  3-C , 10-H ) :   0.9371 B(  4-C ,  5-C ) :   0.9779 B(  4-C , 11-H ) :   0.9346
B(  4-C , 12-H ) :   0.9287 B(  5-C ,  6-N ) :   1.0589 B(  5-C , 13-H ) :   0.9566
B(  6-N , 14-H ) :   0.9306

FINAL SINGLE POINT ENERGY      -304.211368903964

DIPOLE MOMENT
-------------
                                X             Y             Z
Electronic contribution:     -2.20817       1.80879       0.45299
Nuclear contribution   :      2.93960      -2.19414      -1.03709
                        -----------------------------------------
Total Dipole Moment    :      0.73142      -0.38535      -0.58409
                        -----------------------------------------
Magnitude (a.u.)       :      1.01225
Magnitude (Debye)      :      2.57292

                             ****ORCA TERMINATED NORMALLY****
TOTAL RUN TIME: 0 days 0 hours 0 minutes 7 seconds 230 msec
