                         Program Version 3.0.3 - RELEASE   -
|  1> ! RI PBE def2-SVP def2-SVP/J NBO PAL2
|  2> % maxcore 2000
|  3> % output
|  4>     # printlevel mini
|  5>     print[ P_Basis ] 0
|  6>     print[ P_SCFInfo ] 1
|  7>     print[ P_SCFIterInfo ] 1
|  8>     print[ P_OrbEn ] 0
|  9>     print[ P_Cartesian ] 0
| 10> end
| 11> *xyz 0 1
| 12>  N        1.1301820000     0.1615900000     0.3772170000
| 13>  C        2.5231730000     0.0201140000    -0.0184350000
| 14>  C        2.9200660000    -1.3891440000    -0.5037020000
| 15>  C        2.5603220000    -1.3638010000    -1.9760980000
| 16>  C        3.5285850000    -0.7760030000    -2.9181590000
| 17>  N        2.4280500000     0.0357850000    -2.4193370000
| 18>  C        2.7809140000     0.8742100000    -1.2597060000
| 19>  H        0.8965150000    -0.4958590000     1.1115240000
| 20>  H        0.5226370000    -0.0406920000    -0.4094820000
| 21>  H        3.1426970000     0.3429030000     0.8236400000
| 22>  H        2.3808380000    -2.1659260000     0.0416340000
| 23>  H        3.9898410000    -1.5671750000    -0.3553500000
| 24>  H        1.8041980000    -2.0496110000    -2.3449340000
| 25>  H        3.4862090000    -1.0144340000    -3.9763110000
| 26>  H        4.5263380000    -0.5649240000    -2.5382020000
| 27>  H        2.1555800000     1.7683710000    -1.2509670000
| 28>  H        3.8279550000     1.1914970000    -1.3078410000
| 29> *
| 30>
| 31>                          ****END OF INPUT****
 Total Charge           Charge          ....    0
 Multiplicity           Mult            ....    1
 Number of Electrons    NEL             ....   54
 Basis Dimension        Dim             ....  148

MULLIKEN ATOMIC CHARGES
-----------------------
   0 N :   -0.145709
   1 C :   -0.102242
   2 C :    0.145671
   3 C :   -0.142648
   4 C :    0.120806
   5 N :   -0.292676
   6 C :    0.164249
   7 H :    0.083407
   8 H :    0.089313
   9 H :    0.004186
  10 H :   -0.005141
  11 H :   -0.002731
  12 H :    0.019079
  13 H :    0.027551
  14 H :    0.014890
  15 H :    0.019518
  16 H :    0.002477
Sum of atomic charges:   -0.0000000

LOEWDIN ATOMIC CHARGES
----------------------
   0 N :   -0.092573
   1 C :   -0.001152
   2 C :   -0.057086
   3 C :   -0.007750
   4 C :    0.010257
   5 N :   -0.124068
   6 C :    0.016131
   7 H :    0.049297
   8 H :    0.052811
   9 H :    0.019876
  10 H :    0.022331
  11 H :    0.025977
  12 H :    0.015472
  13 H :    0.020271
  14 H :    0.010383
  15 H :    0.024129
  16 H :    0.015693

  Mayer bond orders larger than 0.1
B(  0-N ,  1-C ) :   1.1335 B(  0-N ,  7-H ) :   0.9674 B(  0-N ,  8-H ) :   0.9652
B(  1-C ,  2-C ) :   1.0228 B(  1-C ,  6-C ) :   1.0456 B(  1-C ,  9-H ) :   0.9145
B(  2-C ,  3-C ) :   1.0471 B(  2-C , 10-H ) :   0.9308 B(  2-C , 11-H ) :   0.8961
B(  3-C ,  4-C ) :   1.0371 B(  3-C ,  5-N ) :   0.9512 B(  3-C , 12-H ) :   0.9490
B(  4-C ,  5-N ) :   0.9857 B(  4-C , 13-H ) :   0.9442 B(  4-C , 14-H ) :   0.9168
B(  5-N ,  6-C ) :   0.9900 B(  6-C , 15-H ) :   0.9310 B(  6-C , 16-H ) :   0.9247

FINAL SINGLE POINT ENERGY      -305.380573806967

DIPOLE MOMENT
-------------
                                X             Y             Z
Electronic contribution:     -0.97668       0.48077      -1.48772
Nuclear contribution   :      1.29921      -1.10352       1.80917
                        -----------------------------------------
Total Dipole Moment    :      0.32253      -0.62275       0.32146
                        -----------------------------------------
Magnitude (a.u.)       :      0.77148
Magnitude (Debye)      :      1.96094

                             ****ORCA TERMINATED NORMALLY****
TOTAL RUN TIME: 0 days 0 hours 0 minutes 7 seconds 869 msec
