                         Program Version 3.0.3 - RELEASE   -
|  1> ! RI PBE def2-SVP def2-SVP/J NBO PAL2
|  2> % maxcore 2000
|  3> % output
|  4>     # printlevel mini
|  5>     print[ P_Basis ] 0
|  6>     print[ P_SCFInfo ] 1
|  7>     print[ P_SCFIterInfo ] 1
|  8>     print[ P_OrbEn ] 0
|  9>     print[ P_Cartesian ] 0
| 10> end
| 11> *xyz 0 1
| 12>  N        1.1483860000     0.0847620000     0.5455860000
| 13>  C        2.5329240000    -0.0935340000     0.1220800000
| 14>  C        2.8414010000    -1.4980030000    -0.4510900000
| 15>  C        2.5866720000    -1.3758090000    -1.9384120000
| 16>  N        3.7152560000    -0.7836930000    -2.6614440000
| 17>  C        2.5766530000     0.0627690000    -2.2956320000
| 18>  C        2.8197450000     0.8738690000    -1.0400000000
| 19>  H        0.9039330000    -0.6037270000     1.2483430000
| 20>  H        0.5256940000    -0.0726940000    -0.2405900000
| 21>  H        3.1642180000     0.1255660000     0.9874620000
| 22>  H        2.2095800000    -2.2555630000     0.0190200000
| 23>  H        3.8850010000    -1.7779470000    -0.2809190000
| 24>  H        1.9618050000    -2.0957130000    -2.4554780000
| 25>  H        3.6590820000    -1.0286540000    -3.6451160000
| 26>  H        1.9452610000     0.4495740000    -3.0881080000
| 27>  H        2.1675960000     1.7461360000    -0.9684110000
| 28>  H        3.8559030000     1.2189530000    -1.0216010000
| 29> *
| 30>
| 31>                          ****END OF INPUT****
 Total Charge           Charge          ....    0
 Multiplicity           Mult            ....    1
 Number of Electrons    NEL             ....   54
 Basis Dimension        Dim             ....  148

MULLIKEN ATOMIC CHARGES
-----------------------
   0 N :   -0.149889
   1 C :   -0.104485
   2 C :    0.182601
   3 C :   -0.114073
   4 N :   -0.161778
   5 C :   -0.120162
   6 C :    0.171524
   7 H :    0.081839
   8 H :    0.079275
   9 H :   -0.002604
  10 H :   -0.015640
  11 H :    0.002238
  12 H :    0.013116
  13 H :    0.102307
  14 H :    0.016318
  15 H :    0.007384
  16 H :    0.012030
Sum of atomic charges:   -0.0000000

LOEWDIN ATOMIC CHARGES
----------------------
   0 N :   -0.095401
   1 C :    0.011119
   2 C :   -0.054252
   3 C :   -0.006333
   4 N :   -0.103333
   5 C :   -0.008445
   6 C :   -0.039196
   7 H :    0.047652
   8 H :    0.045572
   9 H :    0.017440
  10 H :    0.017269
  11 H :    0.028645
  12 H :    0.011159
  13 H :    0.056578
  14 H :    0.012141
  15 H :    0.027127
  16 H :    0.032257

  Mayer bond orders larger than 0.1
B(  0-N ,  1-C ) :   1.1198 B(  0-N ,  7-H ) :   0.9689 B(  0-N ,  8-H ) :   0.9651
B(  1-C ,  2-C ) :   1.0274 B(  1-C ,  6-C ) :   1.0667 B(  1-C ,  9-H ) :   0.9156
B(  2-C ,  3-C ) :   1.0248 B(  2-C , 10-H ) :   0.9308 B(  2-C , 11-H ) :   0.8862
B(  3-C ,  4-N ) :   0.9691 B(  3-C ,  5-C ) :   1.0147 B(  3-C , 12-H ) :   0.9525
B(  4-N ,  5-C ) :   0.9642 B(  4-N , 13-H ) :   0.9372 B(  5-C ,  6-C ) :   1.0333
B(  5-C , 14-H ) :   0.9533 B(  6-C , 15-H ) :   0.9259 B(  6-C , 16-H ) :   0.9012

FINAL SINGLE POINT ENERGY      -305.388572934167

DIPOLE MOMENT
-------------
                                X             Y             Z
Electronic contribution:      0.89589      -0.14795      -1.71518
Nuclear contribution   :     -1.41115      -0.34715       1.31466
                        -----------------------------------------
Total Dipole Moment    :     -0.51526      -0.49510      -0.40052
                        -----------------------------------------
Magnitude (a.u.)       :      0.81917
Magnitude (Debye)      :      2.08216

                             ****ORCA TERMINATED NORMALLY****
TOTAL RUN TIME: 0 days 0 hours 0 minutes 7 seconds 824 msec
