                         Program Version 3.0.3 - RELEASE   -
|  1> ! RI PBE def2-SVP def2-SVP/J NBO PAL2
|  2> % maxcore 2000
|  3> % output
|  4>     # printlevel mini
|  5>     print[ P_Basis ] 0
|  6>     print[ P_SCFInfo ] 1
|  7>     print[ P_SCFIterInfo ] 1
|  8>     print[ P_OrbEn ] 0
|  9>     print[ P_Cartesian ] 0
| 10> end
| 11> *xyz 0 1
| 12>  N        1.0098710000     0.3674030000     0.0272530000
| 13>  C        2.4263410000     0.1123680000     0.0504000000
| 14>  C        3.2237060000     0.9483990000     1.0889850000
| 15>  C        4.0833620000    -0.2886430000     1.4002720000
| 16>  C        2.9895830000    -1.1619950000     0.7639710000
| 17>  C        3.0193480000     0.2476700000    -1.3164890000
| 18>  C        2.3936830000     0.6933110000    -2.3971460000
| 19>  H        0.6139070000     0.2480560000     0.9509450000
| 20>  H        0.5382310000    -0.2786050000    -0.5955710000
| 21>  H        2.5755340000     1.2079750000     1.9302450000
| 22>  H        3.7120990000     1.8548560000     0.7297490000
| 23>  H        4.3317420000    -0.4763480000     2.4450530000
| 24>  H        5.0086720000    -0.3006850000     0.8217620000
| 25>  H        2.2735250000    -1.5136510000     1.5110830000
| 26>  H        3.2911140000    -2.0047490000     0.1384220000
| 27>  H        4.0610620000    -0.0565520000    -1.3962070000
| 28>  H        1.3636090000     1.0283870000    -2.3577310000
| 29>  H        2.9037120000     0.7546020000    -3.3513860000
| 30> *
| 31>
| 32>                          ****END OF INPUT****
 Total Charge           Charge          ....    0
 Multiplicity           Mult            ....    1
 Number of Electrons    NEL             ....   54
 Basis Dimension        Dim             ....  153

MULLIKEN ATOMIC CHARGES
-----------------------
   0 N :   -0.102650
   1 C :   -0.321708
   2 C :    0.129589
   3 C :   -0.033153
   4 C :    0.125288
   5 C :    0.013420
   6 C :   -0.031914
   7 H :    0.078447
   8 H :    0.094150
   9 H :   -0.003494
  10 H :    0.015146
  11 H :    0.008134
  12 H :    0.021963
  13 H :   -0.017215
  14 H :    0.005528
  15 H :   -0.015426
  16 H :    0.016666
  17 H :    0.017228
Sum of atomic charges:   -0.0000000

LOEWDIN ATOMIC CHARGES
----------------------
   0 N :   -0.076421
   1 C :   -0.023496
   2 C :   -0.018037
   3 C :   -0.037155
   4 C :   -0.039296
   5 C :   -0.024435
   6 C :   -0.068778
   7 H :    0.048598
   8 H :    0.053858
   9 H :    0.023443
  10 H :    0.019582
  11 H :    0.018383
  12 H :    0.023087
  13 H :    0.017627
  14 H :    0.013770
  15 H :    0.025222
  16 H :    0.020842
  17 H :    0.023206

  Mayer bond orders larger than 0.1
B(  0-N ,  1-C ) :   1.1528 B(  0-N ,  7-H ) :   0.9458 B(  0-N ,  8-H ) :   0.9509
B(  1-C ,  2-C ) :   1.0185 B(  1-C ,  4-C ) :   1.0019 B(  1-C ,  5-C ) :   0.9683
B(  2-C ,  3-C ) :   1.1200 B(  2-C ,  9-H ) :   0.9056 B(  2-C , 10-H ) :   0.9278
B(  3-C ,  4-C ) :   1.1250 B(  3-C , 11-H ) :   0.9249 B(  3-C , 12-H ) :   0.9353
B(  4-C , 13-H ) :   0.8957 B(  4-C , 14-H ) :   0.9317 B(  5-C ,  6-C ) :   2.0135
B(  5-C , 15-H ) :   0.9508 B(  6-C , 16-H ) :   0.9262 B(  6-C , 17-H ) :   0.9364

FINAL SINGLE POINT ENERGY      -289.354464397223

DIPOLE MOMENT
-------------
                                X             Y             Z
Electronic contribution:     -0.90930       0.45479      -0.85634
Nuclear contribution   :      0.84412      -0.86331       1.16968
                        -----------------------------------------
Total Dipole Moment    :     -0.06517      -0.40852       0.31334
                        -----------------------------------------
Magnitude (a.u.)       :      0.51895
Magnitude (Debye)      :      1.31908

                             ****ORCA TERMINATED NORMALLY****
TOTAL RUN TIME: 0 days 0 hours 0 minutes 8 seconds 120 msec
