                         Program Version 3.0.3 - RELEASE   -
|  1> ! RI PBE def2-SVP def2-SVP/J NBO PAL2
|  2> % maxcore 2000
|  3> % output
|  4>     # printlevel mini
|  5>     print[ P_Basis ] 0
|  6>     print[ P_SCFInfo ] 1
|  7>     print[ P_SCFIterInfo ] 1
|  8>     print[ P_OrbEn ] 0
|  9>     print[ P_Cartesian ] 0
| 10> end
| 11> *xyz 0 1
| 12>  N        0.9114760000     0.0106150000     0.0896340000
| 13>  C        2.3521230000    -0.0522440000    -0.0047030000
| 14>  C        3.1214940000     1.0245730000     0.8065890000
| 15>  C        4.1919120000    -0.0267490000     1.1440650000
| 16>  C        3.1723950000    -1.1220350000     0.7918750000
| 17>  C        2.7449030000    -0.0505270000    -1.4080580000
| 18>  C        3.0817590000    -0.0725410000    -2.5604620000
| 19>  H        0.6155830000    -0.1569530000     1.0435880000
| 20>  H        0.4766710000    -0.6861430000    -0.5024630000
| 21>  H        2.5314150000     1.2942430000     1.6861130000
| 22>  H        3.4133650000     1.9317780000     0.2787400000
| 23>  H        4.5983500000    -0.0230930000     2.1552410000
| 24>  H        5.0174080000    -0.0032660000     0.4313970000
| 25>  H        2.5983780000    -1.4334410000     1.6688130000
| 26>  H        3.5132180000    -2.0044090000     0.2496830000
| 27>  H        3.3756290000    -0.0824090000    -3.5832730000
| 28> *
| 29>
| 30>                          ****END OF INPUT****
 Total Charge           Charge          ....    0
 Multiplicity           Mult            ....    1
 Number of Electrons    NEL             ....   52
 Basis Dimension        Dim             ....  143

MULLIKEN ATOMIC CHARGES
-----------------------
   0 N :   -0.101034
   1 C :   -0.345244
   2 C :    0.131895
   3 C :   -0.021758
   4 C :    0.131568
   5 C :    0.509652
   6 C :   -0.538190
   7 H :    0.080990
   8 H :    0.095079
   9 H :   -0.001492
  10 H :    0.018405
  11 H :    0.009885
  12 H :    0.031229
  13 H :   -0.012049
  14 H :    0.014827
  15 H :   -0.003762
Sum of atomic charges:   -0.0000000

LOEWDIN ATOMIC CHARGES
----------------------
   0 N :   -0.072533
   1 C :   -0.030971
   2 C :   -0.013063
   3 C :   -0.036156
   4 C :   -0.030478
   5 C :   -0.005479
   6 C :   -0.086928
   7 H :    0.049347
   8 H :    0.057010
   9 H :    0.024808
  10 H :    0.023044
  11 H :    0.018630
  12 H :    0.029445
  13 H :    0.019278
  14 H :    0.019391
  15 H :    0.034655

  Mayer bond orders larger than 0.1
B(  0-N ,  1-C ) :   1.1096 B(  0-N ,  7-H ) :   0.9464 B(  0-N ,  8-H ) :   0.9565
B(  1-C ,  2-C ) :   1.0271 B(  1-C ,  4-C ) :   1.0159 B(  1-C ,  5-C ) :   0.9040
B(  2-C ,  3-C ) :   1.1091 B(  2-C ,  9-H ) :   0.9071 B(  2-C , 10-H ) :   0.9258
B(  3-C ,  4-C ) :   1.1249 B(  3-C , 11-H ) :   0.9285 B(  3-C , 12-H ) :   0.9352
B(  4-C , 13-H ) :   0.8961 B(  4-C , 14-H ) :   0.9272 B(  5-C ,  6-C ) :   2.2656
B(  5-C , 15-H ) :  -0.1227 B(  6-C , 15-H ) :   1.1120

FINAL SINGLE POINT ENERGY      -288.108249579297

DIPOLE MOMENT
-------------
                                X             Y             Z
Electronic contribution:     -1.16672       0.26538      -3.75935
Nuclear contribution   :      1.14763      -0.68126       4.11075
                        -----------------------------------------
Total Dipole Moment    :     -0.01909      -0.41587       0.35140
                        -----------------------------------------
Magnitude (a.u.)       :      0.54479
Magnitude (Debye)      :      1.38475

                             ****ORCA TERMINATED NORMALLY****
TOTAL RUN TIME: 0 days 0 hours 0 minutes 6 seconds 500 msec
