                         Program Version 3.0.3 - RELEASE   -
|  1> ! RI PBE def2-SVP def2-SVP/J NBO PAL2
|  2> % maxcore 2000
|  3> % output
|  4>     # printlevel mini
|  5>     print[ P_Basis ] 0
|  6>     print[ P_SCFInfo ] 1
|  7>     print[ P_SCFIterInfo ] 1
|  8>     print[ P_OrbEn ] 0
|  9>     print[ P_Cartesian ] 0
| 10> end
| 11> *xyz 0 1
| 12>  N        0.7886260000    -0.2913620000     0.1539830000
| 13>  C        2.2092600000    -0.0741870000     0.0857860000
| 14>  C        2.9110800000     1.1225670000     0.7735020000
| 15>  C        4.0690710000     0.1714310000     1.1779400000
| 16>  C        3.0980240000    -1.0113210000     0.9154110000
| 17>  C        5.2328580000     0.2117120000     0.2536690000
| 18>  C        6.4972310000     0.3582610000     0.6271020000
| 19>  H        0.2845230000     0.3672070000    -0.4266150000
| 20>  H        0.4525350000    -0.1786340000     1.1033530000
| 21>  H        2.5012860000    -0.1185840000    -0.9675010000
| 22>  H        2.3490640000     1.4449340000     1.6546300000
| 23>  H        3.1610660000     1.9991340000     0.1718250000
| 24>  H        4.4182600000     0.2702430000     2.2077190000
| 25>  H        2.5893680000    -1.3049520000     1.8378360000
| 26>  H        3.4959230000    -1.9063740000     0.4346660000
| 27>  H        5.0091780000     0.1110130000    -0.8084060000
| 28>  H        6.7685640000     0.4614200000     1.6734840000
| 29>  H        7.3048620000     0.3800910000    -0.0952940000
| 30> *
| 31>
| 32>                          ****END OF INPUT****
 Total Charge           Charge          ....    0
 Multiplicity           Mult            ....    1
 Number of Electrons    NEL             ....   54
 Basis Dimension        Dim             ....  153

MULLIKEN ATOMIC CHARGES
-----------------------
   0 N :   -0.127350
   1 C :   -0.179826
   2 C :    0.156801
   3 C :   -0.163713
   4 C :    0.153004
   5 C :    0.006599
   6 C :   -0.040384
   7 H :    0.091294
   8 H :    0.078215
   9 H :    0.011197
  10 H :   -0.019975
  11 H :    0.008870
  12 H :   -0.011143
  13 H :   -0.007108
  14 H :    0.012215
  15 H :   -0.003742
  16 H :    0.014161
  17 H :    0.020885
Sum of atomic charges:    0.0000000

LOEWDIN ATOMIC CHARGES
----------------------
   0 N :   -0.090423
   1 C :   -0.003496
   2 C :   -0.042720
   3 C :   -0.033830
   4 C :   -0.022422
   5 C :   -0.023985
   6 C :   -0.069986
   7 H :    0.053831
   8 H :    0.046768
   9 H :    0.021688
  10 H :    0.019475
  11 H :    0.014383
  12 H :    0.019566
  13 H :    0.024542
  14 H :    0.018437
  15 H :    0.023911
  16 H :    0.020552
  17 H :    0.023708

  Mayer bond orders larger than 0.1
B(  0-N ,  1-C ) :   1.1535 B(  0-N ,  7-H ) :   0.9652 B(  0-N ,  8-H ) :   0.9561
B(  1-C ,  2-C ) :   1.0402 B(  1-C ,  4-C ) :   1.0690 B(  1-C ,  9-H ) :   0.9078
B(  2-C ,  3-C ) :   1.0601 B(  2-C , 10-H ) :   0.8830 B(  2-C , 11-H ) :   0.9300
B(  3-C ,  4-C ) :   1.0452 B(  3-C ,  5-C ) :   1.0236 B(  3-C , 12-H ) :   0.9116
B(  4-C , 13-H ) :   0.8978 B(  4-C , 14-H ) :   0.9276 B(  5-C ,  6-C ) :   2.0029
B(  5-C , 15-H ) :   0.9521 B(  6-C , 16-H ) :   0.9501 B(  6-C , 17-H ) :   0.9390

FINAL SINGLE POINT ENERGY      -289.353454137401

DIPOLE MOMENT
-------------
                                X             Y             Z
Electronic contribution:     -0.30612      -0.30753      -0.39838
Nuclear contribution   :      0.03199       0.70622       0.51785
                        -----------------------------------------
Total Dipole Moment    :     -0.27413       0.39869       0.11948
                        -----------------------------------------
Magnitude (a.u.)       :      0.49838
Magnitude (Debye)      :      1.26677

                             ****ORCA TERMINATED NORMALLY****
TOTAL RUN TIME: 0 days 0 hours 0 minutes 8 seconds 10 msec
