                         Program Version 3.0.3 - RELEASE   -
|  1> ! RI PBE def2-SVP def2-SVP/J NBO PAL2
|  2> % maxcore 2000
|  3> % output
|  4>     # printlevel mini
|  5>     print[ P_Basis ] 0
|  6>     print[ P_SCFInfo ] 1
|  7>     print[ P_SCFIterInfo ] 1
|  8>     print[ P_OrbEn ] 0
|  9>     print[ P_Cartesian ] 0
| 10> end
| 11> *xyz 0 1
| 12>  N        0.8595900000    -0.0867600000     0.0402340000
| 13>  C        2.2936150000    -0.0171930000     0.0854370000
| 14>  C        3.0595760000     1.0507470000     0.9054100000
| 15>  C        4.0944510000    -0.0442160000     1.2822300000
| 16>  C        3.0208930000    -1.0991470000     0.8959450000
| 17>  C        5.2673190000    -0.0592470000     0.4331360000
| 18>  C        6.2358030000    -0.0698470000    -0.2783540000
| 19>  H        0.4688570000     0.6357320000    -0.5508300000
| 20>  H        0.4588920000     0.0219050000     0.9644060000
| 21>  H        2.6684500000    -0.0201790000    -0.9416330000
| 22>  H        2.4855830000     1.3466550000     1.7878430000
| 23>  H        3.4301890000     1.9405570000     0.3956980000
| 24>  H        4.4067230000    -0.0549530000     2.3284940000
| 25>  H        2.4365370000    -1.3789900000     1.7764540000
| 26>  H        3.3522820000    -2.0000240000     0.3808270000
| 27>  H        7.0961400000    -0.0805480000    -0.9043860000
| 28> *
| 29>
| 30>                          ****END OF INPUT****
 Total Charge           Charge          ....    0
 Multiplicity           Mult            ....    1
 Number of Electrons    NEL             ....   52
 Basis Dimension        Dim             ....  143

MULLIKEN ATOMIC CHARGES
-----------------------
   0 N :   -0.127575
   1 C :   -0.158714
   2 C :    0.161170
   3 C :   -0.236373
   4 C :    0.154674
   5 C :    0.477778
   6 C :   -0.514435
   7 H :    0.092966
   8 H :    0.079648
   9 H :    0.020972
  10 H :   -0.016500
  11 H :    0.017424
  12 H :    0.036025
  13 H :   -0.003880
  14 H :    0.023296
  15 H :   -0.006478
Sum of atomic charges:    0.0000000

LOEWDIN ATOMIC CHARGES
----------------------
   0 N :   -0.088419
   1 C :   -0.000822
   2 C :   -0.032671
   3 C :   -0.044932
   4 C :   -0.012625
   5 C :   -0.015027
   6 C :   -0.097454
   7 H :    0.055057
   8 H :    0.047697
   9 H :    0.028641
  10 H :    0.019722
  11 H :    0.019746
  12 H :    0.039721
  13 H :    0.024665
  14 H :    0.023952
  15 H :    0.032749

  Mayer bond orders larger than 0.1
B(  0-N ,  1-C ) :   1.1626 B(  0-N ,  7-H ) :   0.9658 B(  0-N ,  8-H ) :   0.9554
B(  1-C ,  2-C ) :   1.0364 B(  1-C ,  4-C ) :   1.0629 B(  1-C ,  9-H ) :   0.9090
B(  2-C ,  3-C ) :   1.0770 B(  2-C , 10-H ) :   0.8868 B(  2-C , 11-H ) :   0.9289
B(  3-C ,  4-C ) :   1.0600 B(  3-C ,  5-C ) :   0.9557 B(  3-C , 12-H ) :   0.8872
B(  4-C , 13-H ) :   0.9013 B(  4-C , 14-H ) :   0.9277 B(  5-C ,  6-C ) :   2.2602
B(  5-C , 15-H ) :  -0.1179 B(  6-C , 15-H ) :   1.1078

FINAL SINGLE POINT ENERGY      -288.110971503799

DIPOLE MOMENT
-------------
                                X             Y             Z
Electronic contribution:      3.49891      -0.28952      -0.62601
Nuclear contribution   :     -3.88546       0.71034       0.84934
                        -----------------------------------------
Total Dipole Moment    :     -0.38654       0.42082       0.22332
                        -----------------------------------------
Magnitude (a.u.)       :      0.61349
Magnitude (Debye)      :      1.55938

                             ****ORCA TERMINATED NORMALLY****
TOTAL RUN TIME: 0 days 0 hours 0 minutes 7 seconds 423 msec
