                         Program Version 3.0.3 - RELEASE   -
|  1> ! RI PBE def2-SVP def2-SVP/J NBO PAL2
|  2> % maxcore 2000
|  3> % output
|  4>     # printlevel mini
|  5>     print[ P_Basis ] 0
|  6>     print[ P_SCFInfo ] 1
|  7>     print[ P_SCFIterInfo ] 1
|  8>     print[ P_OrbEn ] 0
|  9>     print[ P_Cartesian ] 0
| 10> end
| 11> *xyz 0 1
| 12>  N        1.0254570000     0.0397510000    -0.3094010000
| 13>  C        2.4179740000     0.0027180000     0.0445670000
| 14>  C        3.0725180000     0.9920760000     1.0383950000
| 15>  C        3.9238590000    -0.1778470000     1.5644940000
| 16>  C        2.8833180000    -1.1452870000     0.9716450000
| 17>  C        3.2669690000    -2.4435560000     0.3644950000
| 18>  C        4.4619870000    -3.0142100000     0.4437100000
| 19>  H        0.8298660000     0.7749620000    -0.9768420000
| 20>  H        0.4492060000     0.2074030000     0.5069100000
| 21>  H        3.0057110000    -0.0313220000    -0.8781990000
| 22>  H        2.3430790000     1.3205730000     1.7849220000
| 23>  H        3.5845320000     1.8678160000     0.6354400000
| 24>  H        4.1153760000    -0.2319270000     2.6362330000
| 25>  H        4.8755230000    -0.2476350000     1.0327860000
| 26>  H        2.0828860000    -1.3089070000     1.7066730000
| 27>  H        2.4772920000    -2.9402610000    -0.1971260000
| 28>  H        5.2771390000    -2.5587270000     0.9967340000
| 29>  H        4.6675180000    -3.9630200000    -0.0381480000
| 30> *
| 31>
| 32>                          ****END OF INPUT****
 Total Charge           Charge          ....    0
 Multiplicity           Mult            ....    1
 Number of Electrons    NEL             ....   54
 Basis Dimension        Dim             ....  153

MULLIKEN ATOMIC CHARGES
-----------------------
   0 N :   -0.128508
   1 C :   -0.103428
   2 C :    0.073476
   3 C :    0.035802
   4 C :   -0.056479
   5 C :   -0.015432
   6 C :   -0.042156
   7 H :    0.091261
   8 H :    0.081877
   9 H :    0.000800
  10 H :   -0.013143
  11 H :    0.004728
  12 H :    0.015238
  13 H :    0.013359
  14 H :    0.003179
  15 H :    0.005741
  16 H :    0.014364
  17 H :    0.019322
Sum of atomic charges:    0.0000000

LOEWDIN ATOMIC CHARGES
----------------------
   0 N :   -0.090653
   1 C :    0.007150
   2 C :   -0.050748
   3 C :   -0.029853
   4 C :   -0.040100
   5 C :   -0.028025
   6 C :   -0.072779
   7 H :    0.054936
   8 H :    0.048581
   9 H :    0.023007
  10 H :    0.017456
  11 H :    0.013451
  12 H :    0.018901
  13 H :    0.024589
  14 H :    0.032835
  15 H :    0.029357
  16 H :    0.018865
  17 H :    0.023031

  Mayer bond orders larger than 0.1
B(  0-N ,  1-C ) :   1.1565 B(  0-N ,  7-H ) :   0.9642 B(  0-N ,  8-H ) :   0.9556
B(  1-C ,  2-C ) :   1.0487 B(  1-C ,  4-C ) :   1.0099 B(  1-C ,  9-H ) :   0.8984
B(  2-C ,  3-C ) :   1.1310 B(  2-C , 10-H ) :   0.9006 B(  2-C , 11-H ) :   0.9282
B(  3-C ,  4-C ) :   1.0915 B(  3-C , 12-H ) :   0.9263 B(  3-C , 13-H ) :   0.9111
B(  4-C ,  5-C ) :   1.0374 B(  4-C , 14-H ) :   0.8651 B(  5-C ,  6-C ) :   2.0018
B(  5-C , 15-H ) :   0.9548 B(  6-C , 16-H ) :   0.9373 B(  6-C , 17-H ) :   0.9424

FINAL SINGLE POINT ENERGY      -289.355787854805

DIPOLE MOMENT
-------------
                                X             Y             Z
Electronic contribution:     -1.12958      -0.85598      -0.69940
Nuclear contribution   :      0.92998       1.41692       0.79911
                        -----------------------------------------
Total Dipole Moment    :     -0.19960       0.56095       0.09971
                        -----------------------------------------
Magnitude (a.u.)       :      0.60369
Magnitude (Debye)      :      1.53446

                             ****ORCA TERMINATED NORMALLY****
TOTAL RUN TIME: 0 days 0 hours 0 minutes 8 seconds 18 msec
