                         Program Version 3.0.3 - RELEASE   -
|  1> ! RI PBE def2-SVP def2-SVP/J NBO PAL2
|  2> % maxcore 2000
|  3> % output
|  4>     # printlevel mini
|  5>     print[ P_Basis ] 0
|  6>     print[ P_SCFInfo ] 1
|  7>     print[ P_SCFIterInfo ] 1
|  8>     print[ P_OrbEn ] 0
|  9>     print[ P_Cartesian ] 0
| 10> end
| 11> *xyz 0 1
| 12>  N        0.9283210000    -0.0727370000    -0.1106190000
| 13>  C        2.3526710000     0.0403610000     0.0044090000
| 14>  C        3.0543330000     1.0881870000     0.9019960000
| 15>  C        4.1074980000     0.0216850000     1.2434520000
| 16>  C        3.0882960000    -1.0613320000     0.8109950000
| 17>  C        3.5480360000    -2.2508010000     0.1347530000
| 18>  C        3.9486470000    -3.2226100000    -0.4477370000
| 19>  H        0.5485170000     0.6086700000    -0.7543170000
| 20>  H        0.4735880000     0.0586660000     0.7845980000
| 21>  H        2.7793600000     0.0724680000    -1.0015790000
| 22>  H        2.4313010000     1.3243510000     1.7699830000
| 23>  H        3.3883260000     2.0197560000     0.4429490000
| 24>  H        4.4804650000    -0.0306070000     2.2657110000
| 25>  H        4.9535520000     0.0487840000     0.5555110000
| 26>  H        2.4639550000    -1.3383580000     1.6681370000
| 27>  H        4.2959240000    -4.0870940000    -0.9617420000
| 28> *
| 29>
| 30>                          ****END OF INPUT****
 Total Charge           Charge          ....    0
 Multiplicity           Mult            ....    1
 Number of Electrons    NEL             ....   52
 Basis Dimension        Dim             ....  143

MULLIKEN ATOMIC CHARGES
-----------------------
   0 N :   -0.120831
   1 C :   -0.077066
   2 C :    0.074428
   3 C :    0.059691
   4 C :   -0.110375
   5 C :    0.478083
   6 C :   -0.530373
   7 H :    0.094345
   8 H :    0.081893
   9 H :    0.008518
  10 H :   -0.011149
  11 H :    0.007266
  12 H :    0.016266
  13 H :    0.018456
  14 H :    0.016440
  15 H :   -0.005592
Sum of atomic charges:    0.0000000

LOEWDIN ATOMIC CHARGES
----------------------
   0 N :   -0.083581
   1 C :    0.014990
   2 C :   -0.052792
   3 C :   -0.014043
   4 C :   -0.048952
   5 C :   -0.017418
   6 C :   -0.092462
   7 H :    0.056656
   8 H :    0.049394
   9 H :    0.027875
  10 H :    0.018881
  11 H :    0.015724
  12 H :    0.020611
  13 H :    0.029533
  14 H :    0.043241
  15 H :    0.032342

  Mayer bond orders larger than 0.1
B(  0-N ,  1-C ) :   1.1729 B(  0-N ,  7-H ) :   0.9641 B(  0-N ,  8-H ) :   0.9556
B(  1-C ,  2-C ) :   1.0503 B(  1-C ,  4-C ) :   0.9972 B(  1-C ,  9-H ) :   0.8952
B(  2-C ,  3-C ) :   1.1346 B(  2-C , 10-H ) :   0.8969 B(  2-C , 11-H ) :   0.9281
B(  3-C ,  4-C ) :   1.0684 B(  3-C , 12-H ) :   0.9244 B(  3-C , 13-H ) :   0.9215
B(  4-C ,  5-C ) :   1.0159 B(  4-C , 14-H ) :   0.8429 B(  5-C ,  6-C ) :   2.2460
B(  5-C , 15-H ) :  -0.1129 B(  6-C , 15-H ) :   1.1028

FINAL SINGLE POINT ENERGY      -288.112833093118

DIPOLE MOMENT
-------------
                                X             Y             Z
Electronic contribution:      0.47509      -3.98390      -1.18076
Nuclear contribution   :     -0.67953       4.71012       1.36025
                        -----------------------------------------
Total Dipole Moment    :     -0.20444       0.72622       0.17948
                        -----------------------------------------
Magnitude (a.u.)       :      0.77551
Magnitude (Debye)      :      1.97118

                             ****ORCA TERMINATED NORMALLY****
TOTAL RUN TIME: 0 days 0 hours 0 minutes 7 seconds 216 msec
