                         Program Version 3.0.3 - RELEASE   -
|  1> ! RI PBE def2-SVP def2-SVP/J NBO PAL2
|  2> % maxcore 2000
|  3> % output
|  4>     # printlevel mini
|  5>     print[ P_Basis ] 0
|  6>     print[ P_SCFInfo ] 1
|  7>     print[ P_SCFIterInfo ] 1
|  8>     print[ P_OrbEn ] 0
|  9>     print[ P_Cartesian ] 0
| 10> end
| 11> *xyz 0 1
| 12>  N        1.5858390000     0.4753710000     0.7064820000
| 13>  C        2.6275000000    -0.1639830000    -0.0773770000
| 14>  C        2.3646640000    -1.6040800000    -0.5613230000
| 15>  C        3.2431390000    -1.7840580000    -1.8014660000
| 16>  C        3.3324710000    -0.3967360000    -2.4042580000
| 17>  C        2.0544800000     0.3748730000    -2.5315460000
| 18>  C        2.9492150000     0.5943270000    -1.3452280000
| 19>  H        1.3685540000    -0.0726950000     1.5302920000
| 20>  H        0.7347640000     0.5431770000     0.1594560000
| 21>  H        3.5345770000    -0.1638110000     0.5402610000
| 22>  H        1.3061490000    -1.7035310000    -0.8204430000
| 23>  H        2.5680230000    -2.3444340000     0.2155610000
| 24>  H        2.8466210000    -2.5317480000    -2.4949740000
| 25>  H        4.2467760000    -2.1131680000    -1.5131480000
| 26>  H        4.1308570000    -0.1824790000    -3.1047390000
| 27>  H        1.1104970000    -0.1449920000    -2.4094160000
| 28>  H        2.0267310000     1.1655540000    -3.2708920000
| 29>  H        3.4496650000     1.5504040000    -1.2526600000
| 30> *
| 31>
| 32>                          ****END OF INPUT****
 Total Charge           Charge          ....    0
 Multiplicity           Mult            ....    1
 Number of Electrons    NEL             ....   54
 Basis Dimension        Dim             ....  153

MULLIKEN ATOMIC CHARGES
-----------------------
   0 N :   -0.142727
   1 C :    0.022736
   2 C :   -0.039920
   3 C :    0.140739
   4 C :   -0.157996
   5 C :    0.005562
   6 C :   -0.085673
   7 H :    0.084560
   8 H :    0.077201
   9 H :    0.003913
  10 H :   -0.002338
  11 H :    0.006144
  12 H :    0.010139
  13 H :    0.008072
  14 H :    0.010846
  15 H :    0.021143
  16 H :    0.027654
  17 H :    0.009945
Sum of atomic charges:   -0.0000000

LOEWDIN ATOMIC CHARGES
----------------------
   0 N :   -0.092577
   1 C :    0.002978
   2 C :   -0.058575
   3 C :   -0.029565
   4 C :   -0.040816
   5 C :   -0.048645
   6 C :   -0.036353
   7 H :    0.049658
   8 H :    0.046496
   9 H :    0.023897
  10 H :    0.016830
  11 H :    0.022752
  12 H :    0.023357
  13 H :    0.026389
  14 H :    0.021477
  15 H :    0.018257
  16 H :    0.030749
  17 H :    0.023691

  Mayer bond orders larger than 0.1
B(  0-N ,  1-C ) :   1.1337 B(  0-N ,  7-H ) :   0.9663 B(  0-N ,  8-H ) :   0.9620
B(  1-C ,  2-C ) :   1.0217 B(  1-C ,  6-C ) :   1.0497 B(  1-C ,  9-H ) :   0.9000
B(  2-C ,  3-C ) :   1.0768 B(  2-C , 10-H ) :   0.9158 B(  2-C , 11-H ) :   0.9251
B(  3-C ,  4-C ) :   1.0601 B(  3-C , 12-H ) :   0.9280 B(  3-C , 13-H ) :   0.9250
B(  4-C ,  5-C ) :   0.9886 B(  4-C ,  6-C ) :   0.9425 B(  4-C , 14-H ) :   0.9467
B(  5-C ,  6-C ) :   0.9839 B(  5-C , 15-H ) :   0.9403 B(  5-C , 16-H ) :   0.9376
B(  6-C , 17-H ) :   0.9506

FINAL SINGLE POINT ENERGY      -289.380982000199

DIPOLE MOMENT
-------------
                                X             Y             Z
Electronic contribution:      0.66363       1.49196       0.20306
Nuclear contribution   :     -0.79705      -1.88611      -0.23805
                        -----------------------------------------
Total Dipole Moment    :     -0.13342      -0.39415      -0.03499
                        -----------------------------------------
Magnitude (a.u.)       :      0.41759
Magnitude (Debye)      :      1.06143

                             ****ORCA TERMINATED NORMALLY****
TOTAL RUN TIME: 0 days 0 hours 0 minutes 8 seconds 270 msec
