                         Program Version 3.0.3 - RELEASE   -
|  1> ! RI PBE def2-SVP def2-SVP/J NBO PAL2
|  2> % maxcore 2000
|  3> % output
|  4>     # printlevel mini
|  5>     print[ P_Basis ] 0
|  6>     print[ P_SCFInfo ] 1
|  7>     print[ P_SCFIterInfo ] 1
|  8>     print[ P_OrbEn ] 0
|  9>     print[ P_Cartesian ] 0
| 10> end
| 11> *xyz 0 1
| 12>  N        0.9901030000     0.2212420000    -0.0602380000
| 13>  C        2.4408500000     0.1063930000     0.0668530000
| 14>  C        3.1405570000     1.3745560000     0.4999650000
| 15>  C        3.6778290000     1.2622820000     1.7145610000
| 16>  C        3.5428890000    -0.1133510000     2.2470600000
| 17>  C        4.2425250000    -1.1664820000     1.4254790000
| 18>  C        2.8013350000    -0.8739440000     1.1709310000
| 19>  H        0.7518650000     0.8048190000    -0.8535640000
| 20>  H        0.6182520000     0.6845180000     0.7622810000
| 21>  H        2.8166880000    -0.2457920000    -0.9009130000
| 22>  H        3.1744370000     2.2617570000    -0.1228030000
| 23>  H        4.1940860000     2.0527170000     2.2475190000
| 24>  H        3.3848580000    -0.2887230000     3.3042830000
| 25>  H        4.4732040000    -2.1097140000     1.9072880000
| 26>  H        4.9807920000    -0.8235440000     0.7089470000
| 27>  H        2.0657190000    -1.6285360000     1.4191710000
| 28> *
| 29>
| 30>                          ****END OF INPUT****
 Total Charge           Charge          ....    0
 Multiplicity           Mult            ....    1
 Number of Electrons    NEL             ....   52
 Basis Dimension        Dim             ....  143

MULLIKEN ATOMIC CHARGES
-----------------------
   0 N :   -0.155435
   1 C :    0.132387
   2 C :   -0.105663
   3 C :    0.047531
   4 C :   -0.086453
   5 C :    0.064142
   6 C :   -0.130855
   7 H :    0.083657
   8 H :    0.084525
   9 H :    0.009973
  10 H :   -0.016335
  11 H :   -0.011745
  12 H :    0.019252
  13 H :    0.022397
  14 H :    0.025366
  15 H :    0.017256
Sum of atomic charges:   -0.0000000

LOEWDIN ATOMIC CHARGES
----------------------
   0 N :   -0.087494
   1 C :    0.008853
   2 C :   -0.064987
   3 C :   -0.025242
   4 C :   -0.044134
   5 C :   -0.024488
   6 C :   -0.034642
   7 H :    0.051638
   8 H :    0.050608
   9 H :    0.026469
  10 H :    0.016008
  11 H :    0.022814
  12 H :    0.024094
  13 H :    0.028332
  14 H :    0.025344
  15 H :    0.026827

  Mayer bond orders larger than 0.1
B(  0-N ,  1-C ) :   1.1025 B(  0-N ,  7-H ) :   0.9642 B(  0-N ,  8-H ) :   0.9652
B(  1-C ,  2-C ) :   0.9921 B(  1-C ,  6-C ) :   1.0263 B(  1-C ,  9-H ) :   0.8933
B(  2-C ,  3-C ) :   1.7793 B(  2-C , 10-H ) :   0.9811 B(  3-C ,  4-C ) :   1.0312
B(  3-C , 11-H ) :   0.9942 B(  4-C ,  5-C ) :   0.9774 B(  4-C ,  6-C ) :   0.9160
B(  4-C , 12-H ) :   0.9559 B(  5-C ,  6-C ) :   0.9884 B(  5-C , 13-H ) :   0.9328
B(  5-C , 14-H ) :   0.9363 B(  6-C , 15-H ) :   0.9433

FINAL SINGLE POINT ENERGY      -288.161851995276

DIPOLE MOMENT
-------------
                                X             Y             Z
Electronic contribution:     -0.02867       0.63760       0.37369
Nuclear contribution   :      0.06165      -0.30226      -0.33474
                        -----------------------------------------
Total Dipole Moment    :      0.03298       0.33534       0.03895
                        -----------------------------------------
Magnitude (a.u.)       :      0.33920
Magnitude (Debye)      :      0.86218

                             ****ORCA TERMINATED NORMALLY****
TOTAL RUN TIME: 0 days 0 hours 0 minutes 6 seconds 862 msec
