                         Program Version 3.0.3 - RELEASE   -
|  1> ! RI PBE def2-SVP def2-SVP/J NBO PAL2
|  2> % maxcore 2000
|  3> % output
|  4>     # printlevel mini
|  5>     print[ P_Basis ] 0
|  6>     print[ P_SCFInfo ] 1
|  7>     print[ P_SCFIterInfo ] 1
|  8>     print[ P_OrbEn ] 0
|  9>     print[ P_Cartesian ] 0
| 10> end
| 11> *xyz 0 1
| 12>  N        1.4633900000     0.3877660000     0.3254250000
| 13>  C        2.5804090000    -0.0873370000    -0.0158230000
| 14>  C        2.9860200000    -1.5230200000    -0.2885970000
| 15>  C        4.1970680000    -1.4117970000    -1.2222050000
| 16>  C        4.6858610000     0.0117650000    -0.9957790000
| 17>  C        3.9320510000     1.1265200000    -1.5999430000
| 18>  N        3.7075870000     0.7526810000    -0.2027660000
| 19>  H        0.7762520000    -0.3569370000     0.4183730000
| 20>  H        2.1561820000    -2.1039800000    -0.6927260000
| 21>  H        3.2767390000    -1.9830730000     0.6613330000
| 22>  H        3.9184470000    -1.5772980000    -2.2657340000
| 23>  H        4.9735150000    -2.1364260000    -0.9764160000
| 24>  H        5.7229770000     0.1653720000    -0.7170400000
| 25>  H        3.1467180000     0.8826180000    -2.3099080000
| 26>  H        4.3954850000     2.0963460000    -1.7438060000
| 27> *
| 28>
| 29>                          ****END OF INPUT****
 Total Charge           Charge          ....    0
 Multiplicity           Mult            ....    1
 Number of Electrons    NEL             ....   52
 Basis Dimension        Dim             ....  138

MULLIKEN ATOMIC CHARGES
-----------------------
   0 N :   -0.035807
   1 C :   -0.213592
   2 C :    0.077473
   3 C :    0.063759
   4 C :   -0.113223
   5 C :    0.135117
   6 N :   -0.201043
   7 H :    0.085578
   8 H :    0.017028
   9 H :    0.051019
  10 H :    0.024442
  11 H :    0.019592
  12 H :    0.023492
  13 H :    0.027676
  14 H :    0.038489
Sum of atomic charges:   -0.0000000

LOEWDIN ATOMIC CHARGES
----------------------
   0 N :   -0.117093
   1 C :    0.000226
   2 C :   -0.058118
   3 C :   -0.042208
   4 C :    0.001337
   5 C :    0.035185
   6 N :   -0.080804
   7 H :    0.050025
   8 H :    0.032950
   9 H :    0.047439
  10 H :    0.031262
  11 H :    0.033276
  12 H :    0.021768
  13 H :    0.018774
  14 H :    0.025981

  Mayer bond orders larger than 0.1
B(  0-N ,  1-C ) :   2.0766 B(  0-N ,  7-H ) :   0.9206 B(  1-C ,  2-C ) :   0.9766
B(  1-C ,  6-N ) :   1.0370 B(  2-C ,  3-C ) :   1.0957 B(  2-C ,  8-H ) :   0.9197
B(  2-C ,  9-H ) :   0.9108 B(  3-C ,  4-C ) :   1.0625 B(  3-C , 10-H ) :   0.9204
B(  3-C , 11-H ) :   0.9237 B(  4-C ,  5-C ) :   1.0412 B(  4-C ,  6-N ) :   0.9249
B(  4-C , 12-H ) :   0.9462 B(  5-C ,  6-N ) :   0.9650 B(  5-C , 13-H ) :   0.9221
B(  5-C , 14-H ) :   0.9441

FINAL SINGLE POINT ENERGY      -304.186435948986

DIPOLE MOMENT
-------------
                                X             Y             Z
Electronic contribution:     -1.04231       2.70105       2.13732
Nuclear contribution   :      1.48009      -3.78186      -2.81575
                        -----------------------------------------
Total Dipole Moment    :      0.43778      -1.08081      -0.67843
                        -----------------------------------------
Magnitude (a.u.)       :      1.34910
Magnitude (Debye)      :      3.42913

                             ****ORCA TERMINATED NORMALLY****
TOTAL RUN TIME: 0 days 0 hours 0 minutes 6 seconds 763 msec
